<event>
12    1  0.1532786E-007  0.1313155E+04  0.7818608E-02  0.9019197E-01
          1   -1    0    0  501    0  0.00000000000E+00  0.00000000000E+00  0.53140656011E+03  0.53140656011E+03  0.00000000000E+00 0. -1.
         -1   -1    0    0    0  501 -0.00000000000E+00 -0.00000000000E+00 -0.81123247226E+03  0.81123247226E+03  0.00000000000E+00 0.  1.
         23    2    1    2    0    0  0.30402860368E+03  0.84495057018E+02 -0.12999068612E+03  0.35253634477E+03  0.88382630594E+02 0.  0.
        254    2    1    2    0    0 -0.30402860368E+03 -0.84495057018E+02 -0.14983522603E+03  0.99010268761E+03  0.92643398606E+03 0.  0.
        -24    2    4    4    0    0 -0.21117257962E+02 -0.65426195203E+01 -0.51122982831E+03  0.51791940403E+03  0.79973916122E+02 0.  0.
         24    2    4    4    0    0 -0.28291134572E+03 -0.77952437498E+02  0.36139460228E+03  0.47218328358E+03  0.78965705768E+02 0.  0.
         13    1    3    3    0    0  0.30169262419E+03  0.94782497937E+02 -0.13019817705E+03  0.34198498025E+03  0.00000000000E+00 0.  1.
        -13    1    3    3    0    0  0.23359794888E+01 -0.10287440919E+02  0.20749093473E+00  0.10551364524E+02  0.00000000000E+00 0. -1.
          4    1    6    6  502    0 -0.12343742294E+03 -0.38618346826E+02  0.10009087475E+03  0.16354313591E+03  0.00000000000E+00 0. -1.
          1    1    5    5  503    0 -0.24025166901E+00 -0.38365955434E+02 -0.15566666419E+03  0.16032502798E+03  0.00000000000E+00 0. -1.
         -2    1    5    5    0  503 -0.20877006293E+02  0.31823335914E+02 -0.35556316412E+03  0.35759437605E+03  0.00000000000E+00 0.  1.
         -3    1    6    6    0  502 -0.15947392277E+03 -0.39334090672E+02  0.26130372753E+03  0.30864014767E+03  0.00000000000E+00 0.  1.
<mgrwt>
<rscale>  0 0.13131554E+04</rscale>
<asrwt>0</asrwt>
<pdfrwt beam="1">  1        1 0.81754856E-01 0.13131554E+04</pdfrwt>
<pdfrwt beam="2">  1       -1 0.12480499E+00 0.13131554E+04</pdfrwt>
<totfact> 0.22460820E+01</totfact>
</mgrwt>
</event>
<event>
12    1  0.1532786E-007  0.3585894E+04  0.7818608E-02  0.8093731E-01
         -2   -1    0    0    0  501 -0.00000000000E+00  0.00000000000E+00  0.26549411500E+04  0.26549411500E+04  0.00000000000E+00 0.  1.
          2   -1    0    0  501    0  0.00000000000E+00 -0.00000000000E+00 -0.12108208804E+04  0.12108208804E+04  0.00000000000E+00 0. -1.
         23    2    1    2    0    0  0.88997270073E+03  0.47903051461E+03  0.21227389780E+04  0.23528298475E+04  0.90916888372E+02 0.  0.
        254    2    1    2    0    0 -0.88997270073E+03 -0.47903051461E+03 -0.67861870836E+03  0.15129321830E+04  0.89828658955E+03 0.  0.
        -24    2    4    4    0    0 -0.77512139285E+03 -0.30994948001E+01 -0.65201883531E+03  0.10160590548E+04  0.80153981459E+02 0.  0.
         24    2    4    4    0    0 -0.11485130788E+03 -0.47593101981E+03 -0.26599873055E+02  0.49687312817E+03  0.80462374485E+02 0.  0.
         13    1    3    3    0    0  0.83502318569E+03  0.47023160530E+03  0.20262317809E+04  0.22414273830E+04  0.00000000000E+00 0.  1.
        -13    1    3    3    0    0  0.54949515038E+02  0.87989093120E+01  0.96507197116E+02  0.11140246453E+03  0.00000000000E+00 0. -1.
          4    1    6    6  502    0  0.87097983093E+01 -0.92556012735E+02 -0.12799170993E+02  0.93841860904E+02  0.00000000000E+00 0. -1.
          1    1    5    5  503    0 -0.17896721242E+03  0.46423102284E+01 -0.10880503758E+03  0.20949785289E+03  0.00000000000E+00 0. -1.
         -2    1    5    5    0  503 -0.59615418043E+03 -0.77418050285E+01 -0.54321379773E+03  0.80656120191E+03  0.00000000000E+00 0.  1.
         -3    1    6    6    0  502 -0.12356110619E+03 -0.38337500708E+03 -0.13800702062E+02  0.40303126726E+03  0.00000000000E+00 0.  1.
<mgrwt>
<rscale>  0 0.35858936E+04</rscale>
<asrwt>0</asrwt>
<pdfrwt beam="1">  1        2 0.18628014E+00 0.35858936E+04</pdfrwt>
<pdfrwt beam="2">  1       -2 0.40845248E+00 0.35858936E+04</pdfrwt>
<totfact> 0.99390839E-02</totfact>
</mgrwt>
</event>
<event>
12    1  0.1532786E-007  0.1431272E+04  0.7818608E-02  0.8931488E-01
         -2   -1    0    0    0  501 -0.00000000000E+00  0.00000000000E+00  0.17582873540E+04  0.17582873540E+04  0.00000000000E+00 0. -1.
          2   -1    0    0  501    0  0.00000000000E+00 -0.00000000000E+00 -0.29126914331E+03  0.29126914331E+03  0.00000000000E+00 0.  1.
         23    2    1    2    0    0  0.37463196442E+03  0.16467109672E+03  0.53866319037E+03  0.68296692685E+03  0.93915449438E+02 0.  0.
        254    2    1    2    0    0 -0.37463196442E+03 -0.16467109672E+03  0.92835502030E+03  0.13665895704E+04  0.91556448788E+03 0.  0.
        -24    2    4    4    0    0 -0.48353388957E+03 -0.39633482853E+03  0.89753009806E+03  0.10968245538E+04  0.81101826897E+02 0.  0.
         24    2    4    4    0    0  0.10890192515E+03  0.23166373182E+03  0.30824922237E+02  0.26976501660E+03  0.79342765314E+02 0.  0.
         13    1    3    3    0    0  0.27917335012E+03  0.12625221136E+03  0.46318213120E+03  0.55535130049E+03  0.00000000000E+00 0. -1.
        -13    1    3    3    0    0  0.95458614305E+02  0.38418885358E+02  0.75481059166E+02  0.12761562636E+03  0.00000000000E+00 0.  1.
          2    1    6    6  502    0  0.78063267836E+02  0.14184084087E+03  0.56343085995E+02  0.17142707272E+03  0.00000000000E+00 0. -1.
          3    1    5    5  503    0  0.32867330173E+01 -0.19733304916E+01  0.40501562629E+01  0.55767744180E+01  0.00000000000E+00 0. -1.
         -4    1    5    5    0  503 -0.48682062259E+03 -0.39436149804E+03  0.89347994180E+03  0.10912477794E+04  0.00000000000E+00 0.  1.
         -1    1    6    6    0  502  0.30838657311E+02  0.89822890950E+02 -0.25518163758E+02  0.98337943872E+02  0.00000000000E+00 0.  1.
<mgrwt>
<rscale>  0 0.14312720E+04</rscale>
<asrwt>0</asrwt>
<pdfrwt beam="1">  1        2 0.44810639E-01 0.14312720E+04</pdfrwt>
<pdfrwt beam="2">  1       -2 0.27050574E+00 0.14312720E+04</pdfrwt>
<totfact> 0.53147886E+00</totfact>
</mgrwt>
</event>
<event>
12    1  0.1532786E-007  0.1022301E+04  0.7818608E-02  0.9284418E-01
          2   -1    0    0  501    0  0.00000000000E+00  0.00000000000E+00  0.88616896926E+03  0.88616896926E+03  0.00000000000E+00 0.  1.
         -2   -1    0    0    0  501 -0.00000000000E+00 -0.00000000000E+00 -0.29483640007E+03  0.29483640007E+03  0.00000000000E+00 0. -1.
         23    2    1    2    0    0  0.28840375850E+02 -0.37484745331E+02 -0.55795529683E+01  0.10249759743E+03  0.90762066168E+02 0.  0.
        254    2    1    2    0    0 -0.28840375850E+02  0.37484745331E+02  0.59691212216E+03  0.10785077719E+04  0.89701619777E+03 0.  0.
        -24    2    4    4    0    0 -0.13041856642E+03  0.44496567295E+03  0.30016406672E+03  0.55798666289E+03  0.79039208284E+02 0.  0.
         24    2    4    4    0    0  0.10157819057E+03 -0.40748092761E+03  0.29674805543E+03  0.52052110901E+03  0.80771166559E+02 0.  0.
         11    1    3    3    0    0  0.38152800539E+02  0.29411340648E+01 -0.34825203538E+02  0.51740518552E+02  0.00000000000E+00 0. -1.
        -11    1    3    3    0    0 -0.93124246890E+01 -0.40425879396E+02  0.29245650570E+02  0.50757078874E+02  0.00000000000E+00 0.  1.
          2    1    6    6  502    0  0.68283392192E+02 -0.36796985481E+03  0.24450173794E+03  0.44704086564E+03  0.00000000000E+00 0. -1.
          1    1    5    5  503    0 -0.12343238450E+03  0.40729273663E+03  0.24577027770E+03  0.49145290340E+03  0.00000000000E+00 0. -1.
         -2    1    5    5    0  503 -0.69861819200E+01  0.37672936314E+02  0.54393789021E+02  0.66533759494E+02  0.00000000000E+00 0.  1.
         -1    1    6    6    0  502  0.33294798380E+02 -0.39511072806E+02  0.52246317490E+02  0.73480243363E+02  0.00000000000E+00 0.  1.
<mgrwt>
<rscale>  0 0.10223011E+04</rscale>
<asrwt>0</asrwt>
<pdfrwt beam="1">  1        2 0.13633369E+00 0.10223011E+04</pdfrwt>
<pdfrwt beam="2">  1       -2 0.45359446E-01 0.10223011E+04</pdfrwt>
<totfact> 0.13766899E+02</totfact>
</mgrwt>
</event>
<event>
12    1  0.1532786E-007  0.1889866E+04  0.7818608E-02  0.8659917E-01
          1   -1    0    0  501    0  0.00000000000E+00  0.00000000000E+00  0.25760743621E+04  0.25760743621E+04  0.00000000000E+00 0. -1.
         -1   -1    0    0    0  501 -0.00000000000E+00 -0.00000000000E+00 -0.34661212603E+03  0.34661212603E+03  0.00000000000E+00 0.  1.
         23    2    1    2    0    0 -0.89326348242E+02 -0.39054338632E+03  0.18007751925E+04  0.18471281802E+04  0.92670853577E+02 0.  0.
        254    2    1    2    0    0  0.89326348242E+02  0.39054338632E+03  0.42868704358E+03  0.10755583079E+04  0.90141541995E+03 0.  0.
        -24    2    4    4    0    0  0.24277845629E+03 -0.22789289894E+03  0.11930398879E+03  0.36271678340E+03  0.80333498560E+02 0.  0.
         24    2    4    4    0    0 -0.15345210805E+03  0.61843628526E+03  0.30938305479E+03  0.71284152453E+03  0.80088551640E+02 0.  0.
         11    1    3    3    0    0 -0.42083753843E+02 -0.33093402870E+03  0.13997665453E+04  0.14389700327E+04  0.00000000000E+00 0. -1.
        -11    1    3    3    0    0 -0.47242594399E+02 -0.59609357625E+02  0.40100864718E+03  0.40815814748E+03  0.00000000000E+00 0.  1.
          2    1    6    6  502    0 -0.11177987536E+03  0.50251268172E+03  0.28074001473E+03  0.58636907464E+03  0.00000000000E+00 0. -1.
          3    1    5    5  503    0  0.23194449147E+03 -0.22057301806E+03  0.13034692392E+03  0.34560240739E+03  0.00000000000E+00 0. -1.
         -4    1    5    5    0  503  0.10833964823E+02 -0.73198808769E+01 -0.11042935128E+02  0.17114376006E+02  0.00000000000E+00 0.  1.
         -1    1    6    6    0  502 -0.41672232692E+02  0.11592360354E+03  0.28643040053E+02  0.12647244988E+03  0.00000000000E+00 0.  1.
<mgrwt>
<rscale>  0 0.18898663E+04</rscale>
<asrwt>0</asrwt>
<pdfrwt beam="1">  1        1 0.39631912E+00 0.18898663E+04</pdfrwt>
<pdfrwt beam="2">  1       -1 0.53324944E-01 0.18898663E+04</pdfrwt>
<totfact> 0.39873715E+00</totfact>
</mgrwt>
</event>
<event>
12    1  0.1532786E-007  0.1907018E+04  0.7818608E-02  0.8651371E-01
         -1   -1    0    0    0  501 -0.00000000000E+00  0.00000000000E+00  0.59904370207E+03  0.59904370207E+03  0.00000000000E+00 0.  1.
          1   -1    0    0  501    0  0.00000000000E+00 -0.00000000000E+00 -0.15177183820E+04  0.15177183820E+04  0.00000000000E+00 0. -1.
         23    2    1    2    0    0 -0.46900179794E+03  0.50666059868E+03 -0.63739634674E+03  0.94409461139E+03  0.91503462768E+02 0.  0.
        254    2    1    2    0    0  0.46900179794E+03 -0.50666059868E+03 -0.28127833323E+03  0.11726674727E+04  0.90518719173E+03 0.  0.
        -24    2    4    4    0    0  0.20019090878E+03 -0.54544083767E+03  0.19503536662E+03  0.61804996286E+03  0.79780041318E+02 0.  0.
         24    2    4    4    0    0  0.26881088916E+03  0.38780238993E+02 -0.47631369986E+03  0.55461750985E+03  0.83442438209E+02 0.  0.
         11    1    3    3    0    0 -0.43391238083E+03  0.44531931036E+03 -0.60038263873E+03  0.86431970665E+03  0.00000000000E+00 0. -1.
        -11    1    3    3    0    0 -0.35089417116E+02  0.61341288323E+02 -0.37013708010E+02  0.79774904746E+02  0.00000000000E+00 0.  1.
          2    1    6    6  502    0  0.26537746142E+03  0.39013375033E+02 -0.47982037150E+03  0.54970431085E+03  0.00000000000E+00 0. -1.
          1    1    5    5  503    0  0.18331667835E+03 -0.41521867381E+03  0.13403614770E+03  0.47326233796E+03  0.00000000000E+00 0. -1.
         -2    1    5    5    0  503  0.16874230432E+02 -0.13022216386E+03  0.60999218921E+02  0.14478762489E+03  0.00000000000E+00 0.  1.
         -1    1    6    6    0  502  0.34334277368E+01 -0.23313604079E+00  0.35066716399E+01  0.49131990014E+01  0.00000000000E+00 0.  1.
<mgrwt>
<rscale>  0 0.19070182E+04</rscale>
<asrwt>0</asrwt>
<pdfrwt beam="1">  1        1 0.23349514E+00 0.19070182E+04</pdfrwt>
<pdfrwt beam="2">  1       -1 0.92160569E-01 0.19070182E+04</pdfrwt>
<totfact> 0.68141169E+00</totfact>
</mgrwt>
</event>
<event>
12    1  0.1532786E-007  0.2462506E+04  0.7818608E-02  0.8416466E-01
          2   -1    0    0  501    0  0.00000000000E+00  0.00000000000E+00  0.10117192964E+04  0.10117192964E+04  0.00000000000E+00 0. -1.
         -2   -1    0    0    0  501 -0.00000000000E+00 -0.00000000000E+00 -0.14984237764E+04  0.14984237764E+04  0.00000000000E+00 0.  1.
         23    2    1    2    0    0 -0.58273171091E+03  0.40288101427E+01 -0.11119386532E+04  0.12589708744E+04  0.94908461070E+02 0.  0.
        254    2    1    2    0    0  0.58273171091E+03 -0.40288101427E+01  0.62523417326E+03  0.12511721983E+04  0.91374045561E+03 0.  0.
        -24    2    4    4    0    0 -0.21985772971E+03  0.93360446458E+02  0.53519465081E+02  0.25783464288E+03  0.80998615088E+02 0.  0.
         24    2    4    4    0    0  0.80258944062E+03 -0.97389256601E+02  0.57171470818E+03  0.99333755544E+03  0.78913332251E+02 0.  0.
         11    1    3    3    0    0 -0.55410087731E+03  0.73700500507E+00 -0.10899887779E+04  0.12227443974E+04  0.00000000000E+00 0.  1.
        -11    1    3    3    0    0 -0.28630833597E+02  0.32918051377E+01 -0.21949875329E+02  0.36226477064E+02  0.00000000000E+00 0. -1.
          2    1    6    6  502    0  0.73719782098E+03 -0.75203453887E+02  0.50095243678E+03  0.89446605897E+03  0.00000000000E+00 0. -1.
          3    1    5    5  503    0 -0.20041535471E+03  0.10818264152E+03  0.47331416243E+02  0.23261569443E+03  0.00000000000E+00 0. -1.
         -4    1    5    5    0  503 -0.19442375005E+02 -0.14822195066E+02  0.61880488377E+01  0.25218948448E+02  0.00000000000E+00 0.  1.
         -3    1    6    6    0  502  0.65391619643E+02 -0.22185802713E+02  0.70762271394E+02  0.98871496471E+02  0.00000000000E+00 0.  1.
<mgrwt>
<rscale>  0 0.24625062E+04</rscale>
<asrwt>0</asrwt>
<pdfrwt beam="1">  1        2 0.15564912E+00 0.24625062E+04</pdfrwt>
<pdfrwt beam="2">  1       -2 0.23052674E+00 0.24625062E+04</pdfrwt>
<totfact> 0.18789464E+00</totfact>
</mgrwt>
</event>
<event>
12    1  0.1532786E-007  0.2130325E+04  0.7818608E-02  0.8548001E-01
         -2   -1    0    0    0  501 -0.00000000000E+00  0.00000000000E+00  0.57268976736E+03  0.57268976736E+03  0.00000000000E+00 0.  1.
          2   -1    0    0  501    0  0.00000000000E+00 -0.00000000000E+00 -0.19811278243E+04  0.19811278243E+04  0.00000000000E+00 0. -1.
         23    2    1    2    0    0 -0.49901138051E+03  0.49946121962E+03 -0.11886499722E+04  0.13855618664E+04  0.91755443066E+02 0.  0.
        254    2    1    2    0    0  0.49901138051E+03 -0.49946121962E+03 -0.21978808466E+03  0.11682557252E+04  0.90445606281E+03 0.  0.
        -24    2    4    4    0    0  0.66901044093E+03 -0.49130253547E+03 -0.38471958204E+03  0.91827412588E+03  0.79152144833E+02 0.  0.
         24    2    4    4    0    0 -0.16999906042E+03 -0.81586841429E+01  0.16493149738E+03  0.24998159933E+03  0.79511989692E+02 0.  0.
         11    1    3    3    0    0 -0.38384605596E+03  0.40118055276E+03 -0.99859531770E+03  0.11425743911E+04  0.00000000000E+00 0. -1.
        -11    1    3    3    0    0 -0.11516532454E+03  0.98280666857E+02 -0.19005465455E+03  0.24298747533E+03  0.00000000000E+00 0.  1.
          2    1    6    6  502    0 -0.72203539598E+02 -0.14216076477E+02  0.12315057443E+03  0.14346258029E+03  0.00000000000E+00 0. -1.
          3    1    5    5  503    0  0.43163220781E+03 -0.32133841338E+03 -0.29035802904E+03  0.61145116220E+03  0.00000000000E+00 0. -1.
         -4    1    5    5    0  503  0.23737823312E+03 -0.16996412209E+03 -0.94361552997E+02  0.30682296368E+03  0.00000000000E+00 0.  1.
         -1    1    6    6    0  502 -0.97795520822E+02  0.60573923344E+01  0.41780922949E+02  0.10651901904E+03  0.00000000000E+00 0.  1.
<mgrwt>
<rscale>  0 0.21303255E+04</rscale>
<asrwt>0</asrwt>
<pdfrwt beam="1">  1        2 0.30478889E+00 0.21303255E+04</pdfrwt>
<pdfrwt beam="2">  1       -2 0.88106119E-01 0.21303255E+04</pdfrwt>
<totfact> 0.69829729E+00</totfact>
</mgrwt>
</event>
<event>
12    1  0.1532786E-007  0.1309942E+04  0.7818608E-02  0.9021718E-01
          2   -1    0    0  501    0  0.00000000000E+00  0.00000000000E+00  0.38372443667E+03  0.38372443667E+03  0.00000000000E+00 0. -1.
         -2   -1    0    0    0  501 -0.00000000000E+00 -0.00000000000E+00 -0.11179565350E+04  0.11179565350E+04  0.00000000000E+00 0.  1.
         23    2    1    2    0    0 -0.31099578101E+03  0.76497320242E+01 -0.46560254782E+02  0.32667968929E+03  0.88175211161E+02 0.  0.
        254    2    1    2    0    0  0.31099578101E+03 -0.76497320242E+01 -0.68767184350E+03  0.11750012823E+04  0.90053237307E+03 0.  0.
        -24    2    4    4    0    0 -0.34860559761E+02 -0.32502636024E+03  0.21810867228E+01  0.33684357804E+03  0.81249279709E+02 0.  0.
         24    2    4    4    0    0  0.34585634077E+03  0.31737662821E+03 -0.68985293023E+03  0.83815770430E+03  0.79162739595E+02 0.  0.
         11    1    3    3    0    0 -0.96431529419E+02 -0.31969834466E+02  0.75682889188E+01  0.10187437940E+03  0.00000000000E+00 0.  1.
        -11    1    3    3    0    0 -0.21456425159E+03  0.39619566490E+02 -0.54128543700E+02  0.22480530988E+03  0.00000000000E+00 0. -1.
          2    1    6    6  502    0  0.32917509552E+03  0.29719428001E+03 -0.67612102797E+03  0.80859157060E+03  0.00000000000E+00 0. -1.
          1    1    5    5  503    0  0.94352510227E+01 -0.13827088663E+03 -0.31109708431E+02  0.14204110677E+03  0.00000000000E+00 0. -1.
         -2    1    5    5    0  503 -0.44295810784E+02 -0.18675547360E+03  0.33290795154E+02  0.19480247128E+03  0.00000000000E+00 0.  1.
         -1    1    6    6    0  502  0.16681245250E+02  0.20182348206E+02 -0.13731902257E+02  0.29566133697E+02  0.00000000000E+00 0.  1.
<mgrwt>
<rscale>  0 0.13099424E+04</rscale>
<asrwt>0</asrwt>
<pdfrwt beam="1">  1        2 0.59034529E-01 0.13099424E+04</pdfrwt>
<pdfrwt beam="2">  1       -2 0.17199331E+00 0.13099424E+04</pdfrwt>
<totfact> 0.16819595E+01</totfact>
</mgrwt>
</event>
<event>
12    1  0.1532786E-007  0.1969975E+04  0.7818608E-02  0.8620789E-01
         -2   -1    0    0    0  501 -0.00000000000E+00  0.00000000000E+00  0.33344668128E+04  0.33344668128E+04  0.00000000000E+00 0.  1.
          2   -1    0    0  501    0  0.00000000000E+00 -0.00000000000E+00 -0.29096105670E+03  0.29096105670E+03  0.00000000000E+00 0. -1.
         23    2    1    2    0    0 -0.31999902151E+03 -0.11891986339E+03 -0.77504295745E+02  0.36236519976E+03  0.93596551546E+02 0.  0.
        254    2    1    2    0    0  0.31999902151E+03  0.11891986339E+03  0.31210100518E+04  0.32630626697E+04  0.88900671271E+03 0.  0.
        -24    2    4    4    0    0  0.18629198264E+03 -0.25081388705E+02  0.87409508262E+02  0.22193693918E+03  0.79257832313E+02 0.  0.
         24    2    4    4    0    0  0.13370703887E+03  0.14400125210E+03  0.30336005435E+04  0.30411257305E+04  0.84258638712E+02 0.  0.
         11    1    3    3    0    0 -0.29812412285E+03 -0.11884890757E+03 -0.94610767058E+02  0.33459565553E+03  0.00000000000E+00 0. -1.
        -11    1    3    3    0    0 -0.21874898659E+02 -0.70955829267E-01  0.17106471313E+02  0.27769544232E+02  0.00000000000E+00 0.  1.
          2    1    6    6  502    0  0.19322778717E+02  0.33626825145E+02  0.12067240459E+04  0.12073471150E+04  0.00000000000E+00 0. -1.
          1    1    5    5  503    0  0.10034895641E+02 -0.14375026889E+02  0.32650434407E+02  0.37059295670E+02  0.00000000000E+00 0. -1.
         -2    1    5    5    0  503  0.17625708700E+03 -0.10706361816E+02  0.54759073855E+02  0.18487764351E+03  0.00000000000E+00 0.  1.
         -1    1    6    6    0  502  0.11438426015E+03  0.11037442695E+03  0.18268764976E+04  0.18337786155E+04  0.00000000000E+00 0.  1.
<mgrwt>
<rscale>  0 0.19699746E+04</rscale>
<asrwt>0</asrwt>
<pdfrwt beam="1">  1        2 0.44763242E-01 0.19699746E+04</pdfrwt>
<pdfrwt beam="2">  1       -2 0.51299487E+00 0.19699746E+04</pdfrwt>
<totfact> 0.14465299E-01</totfact>
</mgrwt>
</event>
<event>
12    1  0.1916079E-007  0.2317828E+04  0.7818608E-02  0.8470925E-01
          1   -1    0    0  501    0  0.00000000000E+00  0.00000000000E+00  0.93185951204E+03  0.93185951204E+03  0.00000000000E+00 0. -1.
         -1   -1    0    0    0  501 -0.00000000000E+00 -0.00000000000E+00 -0.14412917652E+04  0.14412917652E+04  0.00000000000E+00 0.  1.
         23    2    1    2    0    0  0.57187811679E+03 -0.21223048645E+03  0.56948102079E+03  0.83958147037E+03  0.92206575174E+02 0.  0.
        254    2    1    2    0    0 -0.57187811679E+03  0.21223048645E+03 -0.10789132740E+04  0.15335698069E+04  0.90315897826E+03 0.  0.
        -24    2    4    4    0    0  0.12669231452E+03  0.33796955894E+03 -0.29452326133E+03  0.47273606862E+03  0.80380804801E+02 0.  0.
         24    2    4    4    0    0 -0.69857043131E+03 -0.12573907249E+03 -0.78439001265E+03  0.10608337383E+04  0.79306787044E+02 0.  0.
         13    1    3    3    0    0  0.43652406799E+03 -0.19300758183E+03  0.40719486837E+03  0.62738572617E+03  0.00000000000E+00 0. -1.
        -13    1    3    3    0    0  0.13535404881E+03 -0.19222904622E+02  0.16228615241E+03  0.21219574420E+03  0.00000000000E+00 0.  1.
          2    1    6    6  502    0 -0.59599231462E+03 -0.13424951883E+03 -0.68280258452E+03  0.91621457193E+03  0.00000000000E+00 0. -1.
          1    1    5    5  503    0  0.99910013222E+02  0.32494999348E+03 -0.27256978359E+03  0.43573936698E+03  0.00000000000E+00 0. -1.
         -2    1    5    5    0  503  0.26782301298E+02  0.13019565454E+02 -0.21953477743E+02  0.36996701643E+02  0.00000000000E+00 0.  1.
         -1    1    6    6    0  502 -0.10257811669E+03  0.85104463392E+01 -0.10158742813E+03  0.14461916635E+03  0.00000000000E+00 0.  1.
<mgrwt>
<rscale>  0 0.23178278E+04</rscale>
<asrwt>0</asrwt>
<pdfrwt beam="1">  1        1 0.14336300E+00 0.23178278E+04</pdfrwt>
<pdfrwt beam="2">  1       -1 0.22173720E+00 0.23178278E+04</pdfrwt>
<totfact> 0.16573499E+00</totfact>
</mgrwt>
</event>
<event>
12    1  0.1532786E-007  0.1959588E+04  0.7818608E-02  0.8625751E-01
          2   -1    0    0  501    0  0.00000000000E+00  0.00000000000E+00  0.13515461484E+04  0.13515461484E+04  0.00000000000E+00 0. -1.
         -2   -1    0    0    0  501 -0.00000000000E+00 -0.00000000000E+00 -0.71029519443E+03  0.71029519443E+03  0.00000000000E+00 0.  1.
         23    2    1    2    0    0  0.46774471111E+03 -0.34788616430E+03 -0.27547492176E+03  0.65103130907E+03  0.90252062544E+02 0.  0.
        254    2    1    2    0    0 -0.46774471111E+03  0.34788616430E+03  0.91672587571E+03  0.14108100337E+04  0.90010483946E+03 0.  0.
        -24    2    4    4    0    0  0.21347756404E+03 -0.75701604426E+01  0.22020731490E+02  0.22881328492E+03  0.78997652273E+02 0.  0.
         24    2    4    4    0    0 -0.68122227515E+03  0.35545632474E+03  0.89470514422E+03  0.11819967488E+04  0.78778373729E+02 0.  0.
         13    1    3    3    0    0  0.27832011258E+01 -0.19746305406E+02 -0.33356677289E+01  0.20218542600E+02  0.00000000000E+00 0. -1.
        -13    1    3    3    0    0  0.46496150999E+03 -0.32813985890E+03 -0.27213925403E+03  0.63081276647E+03  0.00000000000E+00 0.  1.
          4    1    6    6  502    0 -0.63792674521E+03  0.31356395066E+03  0.84225252913E+03  0.11021171472E+04  0.00000000000E+00 0. -1.
          1    1    5    5  503    0  0.14649227209E+03 -0.13253712851E+02 -0.21610392749E+02  0.14866961950E+03  0.00000000000E+00 0. -1.
         -2    1    5    5    0  503  0.66985291943E+02  0.56835524085E+01  0.43631124239E+02  0.80143665420E+02  0.00000000000E+00 0.  1.
         -3    1    6    6    0  502 -0.43295529933E+02  0.41892374084E+02  0.52452615081E+02  0.79879601573E+02  0.00000000000E+00 0.  1.
<mgrwt>
<rscale>  0 0.19595885E+04</rscale>
<asrwt>0</asrwt>
<pdfrwt beam="1">  1        2 0.20793018E+00 0.19595885E+04</pdfrwt>
<pdfrwt beam="2">  1       -2 0.10927618E+00 0.19595885E+04</pdfrwt>
<totfact> 0.96034369E+00</totfact>
</mgrwt>
</event>
<event>
12    1  0.1532786E-007  0.1261697E+04  0.7818608E-02  0.9060504E-01
          4   -1    0    0  501    0  0.00000000000E+00  0.00000000000E+00  0.27500125652E+03  0.27500125652E+03  0.00000000000E+00 0. -1.
         -4   -1    0    0    0  501 -0.00000000000E+00 -0.00000000000E+00 -0.14471560247E+04  0.14471560247E+04  0.00000000000E+00 0.  1.
         23    2    1    2    0    0 -0.23416283583E+03 -0.31449498141E+01 -0.49995272627E+02  0.25697538784E+03  0.93245365999E+02 0.  0.
        254    2    1    2    0    0  0.23416283583E+03  0.31449498141E+01 -0.11221594955E+04  0.14651818933E+04  0.91250968367E+03 0.  0.
        -24    2    4    4    0    0  0.10098760909E+03  0.25594941917E+03  0.20468432259E+02  0.28468028036E+03  0.70109221518E+02 0.  0.
         24    2    4    4    0    0  0.13317522673E+03 -0.25280446936E+03 -0.11426279278E+04  0.11805016130E+04  0.79622460151E+02 0.  0.
         11    1    3    3    0    0 -0.27909150089E+02  0.54002454294E+01 -0.41586201151E+02  0.50373558893E+02  0.00000000000E+00 0.  1.
        -11    1    3    3    0    0 -0.20625368574E+03 -0.85451952436E+01 -0.84090714755E+01  0.20660182895E+03  0.00000000000E+00 0. -1.
          2    1    6    6  502    0  0.18088151402E+02 -0.34399017332E+02 -0.72428311371E+02  0.82196921491E+02  0.00000000000E+00 0. -1.
          3    1    5    5  503    0 -0.33039631694E+01 -0.31231128893E+01  0.13846763917E+01  0.47526135393E+01  0.00000000000E+00 0. -1.
         -4    1    5    5    0  503  0.10429157226E+03  0.25907253206E+03  0.19083755867E+02  0.27992766682E+03  0.00000000000E+00 0.  1.
         -1    1    6    6    0  502  0.11508707533E+03 -0.21840545203E+03 -0.10701996164E+04  0.10983046915E+04  0.00000000000E+00 0.  1.
<mgrwt>
<rscale>  0 0.12616968E+04</rscale>
<asrwt>0</asrwt>
<pdfrwt beam="1">  1        4 0.42307886E-01 0.12616968E+04</pdfrwt>
<pdfrwt beam="2">  1       -4 0.22263939E+00 0.12616968E+04</pdfrwt>
<totfact> 0.10050577E+00</totfact>
</mgrwt>
</event>
<event>
12    1  0.1532786E-007  0.1521936E+04  0.7818608E-02  0.8869995E-01
          1   -1    0    0  501    0  0.00000000000E+00  0.00000000000E+00  0.15995764932E+04  0.15995764932E+04  0.00000000000E+00 0. -1.
         -1   -1    0    0    0  501 -0.00000000000E+00 -0.00000000000E+00 -0.36201623122E+03  0.36201623122E+03  0.00000000000E+00 0.  1.
         23    2    1    2    0    0  0.33352716326E+03  0.32840489351E+03  0.19345123997E+03  0.51477915772E+03  0.92108936951E+02 0.  0.
        254    2    1    2    0    0 -0.33352716326E+03 -0.32840489351E+03  0.10441090220E+04  0.14468135667E+04  0.88544661285E+03 0.  0.
        -24    2    4    4    0    0 -0.20812961944E+03  0.58123088885E+02 -0.83298748947E+02  0.24590001083E+03  0.82655319250E+02 0.  0.
         24    2    4    4    0    0 -0.12539754382E+03 -0.38652798239E+03  0.11274077709E+04  0.12009135558E+04  0.77567141659E+02 0.  0.
         13    1    3    3    0    0  0.25416957795E+03  0.28736413157E+03  0.18227646894E+03  0.42474113245E+03  0.00000000000E+00 0. -1.
        -13    1    3    3    0    0  0.79357585316E+02  0.41040761941E+02  0.11174771034E+02  0.90038025275E+02  0.00000000000E+00 0.  1.
          2    1    6    6  502    0 -0.41686509909E+02 -0.87189695986E+02  0.18743066518E+03  0.21087926034E+03  0.00000000000E+00 0. -1.
          1    1    5    5  503    0 -0.86623101551E+02  0.65547297179E+02 -0.50703937963E+02  0.11987868541E+03  0.00000000000E+00 0. -1.
         -2    1    5    5    0  503 -0.12150651789E+03 -0.74242082942E+01 -0.32594810984E+02  0.12602132543E+03  0.00000000000E+00 0.  1.
         -1    1    6    6    0  502 -0.83711033907E+02 -0.29933828641E+03  0.93997710576E+03  0.99003429550E+03  0.00000000000E+00 0.  1.
<mgrwt>
<rscale>  0 0.15219365E+04</rscale>
<asrwt>0</asrwt>
<pdfrwt beam="1">  1        1 0.24608869E+00 0.15219365E+04</pdfrwt>
<pdfrwt beam="2">  1       -1 0.55694805E-01 0.15219365E+04</pdfrwt>
<totfact> 0.17579691E+01</totfact>
</mgrwt>
</event>
<event>
12    1  0.1532786E-007  0.1585538E+04  0.7818608E-02  0.8829482E-01
          1   -1    0    0  501    0  0.00000000000E+00  0.00000000000E+00  0.16823717964E+04  0.16823717964E+04  0.00000000000E+00 0. -1.
         -1   -1    0    0    0  501 -0.00000000000E+00 -0.00000000000E+00 -0.37356952415E+03  0.37356952415E+03  0.00000000000E+00 0.  1.
         23    2    1    2    0    0  0.34411028357E+03  0.32595501077E+03  0.81096654356E+03  0.94374801361E+03  0.91296342327E+02 0.  0.
        254    2    1    2    0    0 -0.34411028357E+03 -0.32595501077E+03  0.49783572869E+03  0.11121933069E+04  0.87434260043E+03 0.  0.
        -24    2    4    4    0    0  0.21314835091E+03 -0.21020170652E+02 -0.86610900980E+02  0.24531184990E+03  0.82476593421E+02 0.  0.
         24    2    4    4    0    0 -0.55725863448E+03 -0.30493484012E+03  0.58444662967E+03  0.86688145703E+03  0.79894650537E+02 0.  0.
         11    1    3    3    0    0  0.32284586652E+03  0.31602420279E+03  0.72164166510E+03  0.85139147464E+03  0.00000000000E+00 0.  1.
        -11    1    3    3    0    0  0.21264417044E+02  0.99308079813E+01  0.89324878461E+02  0.92356538975E+02  0.00000000000E+00 0. -1.
          4    1    6    6  502    0 -0.41786412309E+03 -0.19920602386E+03  0.38993000315E+03  0.60525934331E+03  0.00000000000E+00 0. -1.
          1    1    5    5  503    0  0.20764018249E+03 -0.72857040885E+01 -0.94828313936E+02  0.22838549865E+03  0.00000000000E+00 0. -1.
         -2    1    5    5    0  503  0.55081684270E+01 -0.13734466563E+02  0.82174129563E+01  0.16926351257E+02  0.00000000000E+00 0.  1.
         -3    1    6    6    0  502 -0.13939451139E+03 -0.10572881626E+03  0.19451662652E+03  0.26162211372E+03  0.00000000000E+00 0.  1.
<mgrwt>
<rscale>  0 0.15855382E+04</rscale>
<asrwt>0</asrwt>
<pdfrwt beam="1">  1        1 0.25882642E+00 0.15855382E+04</pdfrwt>
<pdfrwt beam="2">  1       -1 0.57472236E-01 0.15855382E+04</pdfrwt>
<totfact> 0.14433494E+01</totfact>
</mgrwt>
</event>
<event>
12    1  0.1532786E-007  0.3451017E+04  0.7818608E-02  0.8125497E-01
         -1   -1    0    0    0  501 -0.00000000000E+00  0.00000000000E+00  0.99106799510E+03  0.99106799510E+03  0.00000000000E+00 0.  1.
          1   -1    0    0  501    0  0.00000000000E+00 -0.00000000000E+00 -0.30042130497E+04  0.30042130497E+04  0.00000000000E+00 0. -1.
         23    2    1    2    0    0 -0.89690595114E+01  0.13338794134E+04 -0.19751493808E+04  0.23852446793E+04  0.94140161527E+02 0.  0.
        254    2    1    2    0    0  0.89690595114E+01 -0.13338794134E+04 -0.37995673816E+02  0.16100363656E+04  0.90081002095E+03 0.  0.
        -24    2    4    4    0    0  0.90496932483E+02 -0.36694882271E+03 -0.41342089967E+03  0.56621306239E+03  0.82699809312E+02 0.  0.
         24    2    4    4    0    0 -0.81527872972E+02 -0.96693059064E+03  0.37542522586E+03  0.10438233032E+04  0.83793954785E+02 0.  0.
         13    1    3    3    0    0 -0.18557183802E+02  0.11454723424E+04 -0.17480976074E+04  0.20900470093E+04  0.00000000000E+00 0. -1.
        -13    1    3    3    0    0  0.95881242906E+01  0.18840707098E+03 -0.22705177344E+03  0.29519766995E+03  0.00000000000E+00 0.  1.
          2    1    6    6  502    0  0.15944327033E+02 -0.23709497474E+03  0.88292971970E+02  0.25350324951E+03  0.00000000000E+00 0. -1.
          1    1    5    5  503    0  0.19305447498E+02 -0.12988034915E+02 -0.11554393193E+02  0.25978709670E+02  0.00000000000E+00 0. -1.
         -2    1    5    5    0  503  0.71191484985E+02 -0.35396078779E+03 -0.40186650648E+03  0.54023435272E+03  0.00000000000E+00 0.  1.
         -1    1    6    6    0  502 -0.97472200004E+02 -0.72983561590E+03  0.28713225389E+03  0.79032005367E+03  0.00000000000E+00 0.  1.
<mgrwt>
<rscale>  0 0.34510169E+04</rscale>
<asrwt>0</asrwt>
<pdfrwt beam="1">  1        1 0.46218661E+00 0.34510169E+04</pdfrwt>
<pdfrwt beam="2">  1       -1 0.15247200E+00 0.34510169E+04</pdfrwt>
<totfact> 0.16216045E-01</totfact>
</mgrwt>
</event>
<event>
12    1  0.1532786E-007  0.1555682E+04  0.7818608E-02  0.8848247E-01
         -1   -1    0    0    0  501 -0.00000000000E+00  0.00000000000E+00  0.72250899407E+03  0.72250899407E+03  0.00000000000E+00 0.  1.
          1   -1    0    0  501    0  0.00000000000E+00 -0.00000000000E+00 -0.83741020507E+03  0.83741020507E+03  0.00000000000E+00 0. -1.
         23    2    1    2    0    0  0.61352713975E+02  0.46774314125E+03 -0.20529037739E+03  0.52247098642E+03  0.91016432047E+02 0.  0.
        254    2    1    2    0    0 -0.61352713975E+02 -0.46774314125E+03  0.90389166389E+02  0.10374482127E+04  0.91955466992E+03 0.  0.
        -24    2    4    4    0    0  0.21026337716E+03 -0.52528197918E+03 -0.22088326943E+03  0.61281979796E+03  0.81405409059E+02 0.  0.
         24    2    4    4    0    0 -0.27161609113E+03  0.57538837933E+02  0.31127243582E+03  0.42462841477E+03  0.79578530366E+02 0.  0.
         13    1    3    3    0    0  0.79291441563E+02  0.42947260037E+03 -0.17507767403E+03  0.47051677879E+03  0.00000000000E+00 0.  1.
        -13    1    3    3    0    0 -0.17938727588E+02  0.38270540878E+02 -0.30212703357E+02  0.51954207632E+02  0.00000000000E+00 0. -1.
          2    1    6    6  502    0 -0.40561701549E+02  0.37049630437E+02  0.80222960739E+02  0.97229883152E+02  0.00000000000E+00 0. -1.
          3    1    5    5  503    0  0.30145660354E+02 -0.17677126332E+03 -0.69880545326E+02  0.19245812788E+03  0.00000000000E+00 0. -1.
         -4    1    5    5    0  503  0.18011771680E+03 -0.34851071587E+03 -0.15100272410E+03  0.42036167007E+03  0.00000000000E+00 0.  1.
         -1    1    6    6    0  502 -0.23105438958E+03  0.20489207496E+02  0.23104947508E+03  0.32739853161E+03  0.00000000000E+00 0.  1.
<mgrwt>
<rscale>  0 0.15556817E+04</rscale>
<asrwt>0</asrwt>
<pdfrwt beam="1">  1        1 0.12883234E+00 0.15556817E+04</pdfrwt>
<pdfrwt beam="2">  1       -1 0.11115523E+00 0.15556817E+04</pdfrwt>
<totfact> 0.14721173E+01</totfact>
</mgrwt>
</event>
<event>
12    1  0.1532786E-007  0.1729460E+04  0.7818608E-02  0.8744738E-01
          2   -1    0    0  501    0  0.00000000000E+00  0.00000000000E+00  0.87090956504E+03  0.87090956504E+03  0.00000000000E+00 0. -1.
         -2   -1    0    0    0  501 -0.00000000000E+00 -0.00000000000E+00 -0.85859416340E+03  0.85859416340E+03  0.00000000000E+00 0.  1.
         23    2    1    2    0    0 -0.38179139541E+03 -0.32483828279E+03  0.39425725942E+03  0.64417881294E+03  0.90790841314E+02 0.  0.
        254    2    1    2    0    0  0.38179139541E+03  0.32483828279E+03 -0.38194185778E+03  0.10853249155E+04  0.88360964792E+03 0.  0.
        -24    2    4    4    0    0 -0.53792524532E+02  0.25267950865E+03 -0.54480396831E+03  0.60816308526E+03  0.79438055121E+02 0.  0.
         24    2    4    4    0    0  0.43558391994E+03  0.72158774142E+02  0.16286211052E+03  0.47716183024E+03  0.78861303544E+02 0.  0.
         13    1    3    3    0    0 -0.16942968139E+03 -0.17172121588E+03  0.24010958557E+03  0.34036334410E+03  0.00000000000E+00 0. -1.
        -13    1    3    3    0    0 -0.21236171402E+03 -0.15311706691E+03  0.15414767384E+03  0.30381546885E+03  0.00000000000E+00 0.  1.
          2    1    6    6  502    0  0.94753511299E+02  0.39984744420E+02  0.62758779292E+02  0.12048100293E+03  0.00000000000E+00 0. -1.
          3    1    5    5  503    0 -0.77599807199E+01  0.12551906790E+03 -0.34214692797E+03  0.36452678095E+03  0.00000000000E+00 0. -1.
         -4    1    5    5    0  503 -0.46032543812E+02  0.12716044075E+03 -0.20265704034E+03  0.24363630431E+03  0.00000000000E+00 0.  1.
         -1    1    6    6    0  502  0.34083040864E+03  0.32174029722E+02  0.10010333123E+03  0.35668082731E+03  0.00000000000E+00 0.  1.
<mgrwt>
<rscale>  0 0.17294599E+04</rscale>
<asrwt>0</asrwt>
<pdfrwt beam="1">  1        2 0.13398609E+00 0.17294599E+04</pdfrwt>
<pdfrwt beam="2">  1       -2 0.13209141E+00 0.17294599E+04</pdfrwt>
<totfact> 0.12151608E+01</totfact>
</mgrwt>
</event>
<event>
12    1  0.1532786E-007  0.1117683E+04  0.7818608E-02  0.9188126E-01
          1   -1    0    0  501    0  0.00000000000E+00  0.00000000000E+00  0.22779202597E+03  0.22779202597E+03  0.00000000000E+00 0. -1.
         -1   -1    0    0    0  501 -0.00000000000E+00 -0.00000000000E+00 -0.13710035855E+04  0.13710035855E+04  0.00000000000E+00 0.  1.
         23    2    1    2    0    0 -0.76507241898E+02 -0.14879022226E+03 -0.27115925526E+03  0.33183387136E+03  0.92706462375E+02 0.  0.
        254    2    1    2    0    0  0.76507241898E+02  0.14879022226E+03 -0.87205230429E+03  0.12669617401E+04  0.90372835588E+03 0.  0.
        -24    2    4    4    0    0  0.14721022266E+03  0.47136812060E+03 -0.75924604142E+03  0.90939998159E+03  0.81823103935E+02 0.  0.
         24    2    4    4    0    0 -0.70702980765E+02 -0.32257789834E+03 -0.11280626286E+03  0.35756175853E+03  0.77908576149E+02 0.  0.
         13    1    3    3    0    0 -0.25366506636E+02 -0.13608725978E+03 -0.20216951246E+03  0.24502186372E+03  0.00000000000E+00 0.  1.
        -13    1    3    3    0    0 -0.51140735262E+02 -0.12702962481E+02 -0.68989742804E+02  0.86812007643E+02  0.00000000000E+00 0. -1.
          4    1    6    6  502    0  0.92828554527E+01 -0.92108385565E+02 -0.51851996907E+02  0.10610728382E+03  0.00000000000E+00 0. -1.
          3    1    5    5  503    0  0.19096535595E+02  0.19486419587E+03 -0.30032437745E+03  0.35851285080E+03  0.00000000000E+00 0. -1.
         -4    1    5    5    0  503  0.12811368707E+03  0.27650392473E+03 -0.45892166398E+03  0.55088713079E+03  0.00000000000E+00 0.  1.
         -3    1    6    6    0  502 -0.79985836218E+02 -0.23046951277E+03 -0.60954265957E+02  0.25145447471E+03  0.00000000000E+00 0.  1.
<mgrwt>
<rscale>  0 0.11176828E+04</rscale>
<asrwt>0</asrwt>
<pdfrwt beam="1">  1        1 0.35044928E-01 0.11176828E+04</pdfrwt>
<pdfrwt beam="2">  1       -1 0.21092363E+00 0.11176828E+04</pdfrwt>
<totfact> 0.15852713E+01</totfact>
</mgrwt>
</event>
<event>
12    1  0.1532786E-007  0.1912759E+04  0.7818608E-02  0.8648531E-01
          1   -1    0    0  501    0  0.00000000000E+00  0.00000000000E+00  0.11391934340E+04  0.11391934340E+04  0.00000000000E+00 0. -1.
         -1   -1    0    0    0  501 -0.00000000000E+00 -0.00000000000E+00 -0.80290323116E+03  0.80290323116E+03  0.00000000000E+00 0.  1.
         23    2    1    2    0    0 -0.31161650859E+03  0.64192616922E+03  0.33963950369E+03  0.79560410611E+03  0.91961111569E+02 0.  0.
        254    2    1    2    0    0  0.31161650859E+03 -0.64192616922E+03 -0.33493008969E+01  0.11464925590E+04  0.89736275546E+03 0.  0.
        -24    2    4    4    0    0  0.35025006313E+03 -0.27166926127E+03  0.39265153114E+03  0.59708435506E+03  0.76519330302E+02 0.  0.
         24    2    4    4    0    0 -0.38633554543E+02 -0.37025690795E+03 -0.39600083204E+03  0.54940820395E+03  0.80311805917E+02 0.  0.
         11    1    3    3    0    0 -0.23592395237E+02  0.53692153416E+02  0.18751873622E+01  0.58676782284E+02  0.00000000000E+00 0. -1.
        -11    1    3    3    0    0 -0.28802411335E+03  0.58823401580E+03  0.33776431633E+03  0.73692732383E+03  0.00000000000E+00 0.  1.
          2    1    6    6  502    0  0.14111727673E+02 -0.59123295826E+02 -0.98294530470E+02  0.11557041009E+03  0.00000000000E+00 0. -1.
          3    1    5    5  503    0  0.49617560928E+02 -0.63932676842E+02  0.44465098157E+02  0.92338694352E+02  0.00000000000E+00 0. -1.
         -4    1    5    5    0  503  0.30063250221E+03 -0.20773658442E+03  0.34818643298E+03  0.50474566071E+03  0.00000000000E+00 0.  1.
         -1    1    6    6    0  502 -0.52745282216E+02 -0.31113361213E+03 -0.29770630156E+03  0.43383779386E+03  0.00000000000E+00 0.  1.
<mgrwt>
<rscale>  0 0.19127594E+04</rscale>
<asrwt>0</asrwt>
<pdfrwt beam="1">  1        1 0.17526053E+00 0.19127594E+04</pdfrwt>
<pdfrwt beam="2">  1       -1 0.12352357E+00 0.19127594E+04</pdfrwt>
<totfact> 0.63842930E+00</totfact>
</mgrwt>
</event>
<event>
12    1  0.1532786E-007  0.2492802E+04  0.7818608E-02  0.8405554E-01
          2   -1    0    0  501    0  0.00000000000E+00  0.00000000000E+00  0.13358733510E+04  0.13358733510E+04  0.00000000000E+00 0.  1.
         -2   -1    0    0    0  501 -0.00000000000E+00 -0.00000000000E+00 -0.11629213488E+04  0.11629213488E+04  0.00000000000E+00 0. -1.
         23    2    1    2    0    0 -0.59717174088E+02  0.99450067061E+03 -0.33499569939E+03  0.10551446265E+04  0.92251501753E+02 0.  0.
        254    2    1    2    0    0  0.59717174088E+02 -0.99450067061E+03  0.50794770159E+03  0.14436500733E+04  0.91297149020E+03 0.  0.
        -24    2    4    4    0    0  0.40842464462E+03 -0.87136149649E+03  0.29552423189E+03  0.10097436685E+04  0.78524878752E+02 0.  0.
         24    2    4    4    0    0 -0.34870747053E+03 -0.12313917412E+03  0.21242346969E+03  0.43390640480E+03  0.79942988691E+02 0.  0.
         11    1    3    3    0    0  0.87266255810E+01  0.57966759594E+03 -0.20849079332E+03  0.61608366857E+03  0.00000000000E+00 0. -1.
        -11    1    3    3    0    0 -0.68443799669E+02  0.41483307467E+03 -0.12650490607E+03  0.43906095797E+03  0.00000000000E+00 0.  1.
          4    1    6    6  502    0 -0.46675107284E+02  0.18390313349E+01  0.51645957764E+02  0.69636575372E+02  0.00000000000E+00 0. -1.
          1    1    5    5  503    0  0.11665352682E+03 -0.24872977003E+03  0.12190239429E+03  0.30055737814E+03  0.00000000000E+00 0. -1.
         -2    1    5    5    0  503  0.29177111780E+03 -0.62263172646E+03  0.17362183761E+03  0.70918629038E+03  0.00000000000E+00 0.  1.
         -3    1    6    6    0  502 -0.30203236325E+03 -0.12497820546E+03  0.16077751193E+03  0.36426982943E+03  0.00000000000E+00 0.  1.
<mgrwt>
<rscale>  0 0.24928021E+04</rscale>
<asrwt>0</asrwt>
<pdfrwt beam="1">  1        2 0.20551898E+00 0.24928021E+04</pdfrwt>
<pdfrwt beam="2">  1       -2 0.17891098E+00 0.24928021E+04</pdfrwt>
<totfact> 0.25944740E+00</totfact>
</mgrwt>
</event>
<event>
12    1  0.1532786E-007  0.2424422E+04  0.7818608E-02  0.8430417E-01
          2   -1    0    0  501    0  0.00000000000E+00  0.00000000000E+00  0.51564942767E+04  0.51564942767E+04  0.00000000000E+00 0. -1.
         -2   -1    0    0    0  501 -0.00000000000E+00 -0.00000000000E+00 -0.28497174116E+03  0.28497174116E+03  0.00000000000E+00 0.  1.
         23    2    1    2    0    0 -0.12285169246E+03  0.79753116808E+03  0.62838833394E+03  0.10271184998E+04  0.94615072683E+02 0.  0.
        254    2    1    2    0    0  0.12285169246E+03 -0.79753116808E+03  0.42431342016E+04  0.44143475181E+04  0.91166202905E+03 0.  0.
        -24    2    4    4    0    0  0.26201773708E+03 -0.32202974687E+03  0.34475381234E+04  0.34733811175E+04  0.80627678048E+02 0.  0.
         24    2    4    4    0    0 -0.13916604462E+03 -0.47550142121E+03  0.79559607826E+03  0.94096640067E+03  0.83521601457E+02 0.  0.
         11    1    3    3    0    0 -0.12961132886E+03  0.55985355880E+03  0.44037835205E+03  0.72399461105E+03  0.00000000000E+00 0.  1.
        -11    1    3    3    0    0  0.67596363924E+01  0.23767760928E+03  0.18800998189E+03  0.30312388874E+03  0.00000000000E+00 0. -1.
          4    1    6    6  502    0 -0.12752228870E+03 -0.44327762796E+03  0.69019522994E+03  0.83013640144E+03  0.00000000000E+00 0. -1.
          3    1    5    5  503    0  0.26685792116E+03 -0.31797459661E+03  0.33469049680E+04  0.33725500529E+04  0.00000000000E+00 0. -1.
         -4    1    5    5    0  503 -0.48401840804E+01 -0.40551502638E+01  0.10063315536E+03  0.10083106458E+03  0.00000000000E+00 0.  1.
         -3    1    6    6    0  502 -0.11643755914E+02 -0.32223793241E+02  0.10540084832E+03  0.11082999923E+03  0.00000000000E+00 0.  1.
<mgrwt>
<rscale>  0 0.24244217E+04</rscale>
<asrwt>0</asrwt>
<pdfrwt beam="1">  1        2 0.79330674E+00 0.24244217E+04</pdfrwt>
<pdfrwt beam="2">  1       -2 0.43841810E-01 0.24244217E+04</pdfrwt>
<totfact> 0.95420546E-02</totfact>
</mgrwt>
</event>
<event>
12    1  0.1532786E-007  0.2275200E+04  0.7818608E-02  0.8487764E-01
          1   -1    0    0  501    0  0.00000000000E+00  0.00000000000E+00  0.19692937194E+04  0.19692937194E+04  0.00000000000E+00 0. -1.
         -1   -1    0    0    0  501 -0.00000000000E+00 -0.00000000000E+00 -0.65715614697E+03  0.65715614697E+03  0.00000000000E+00 0.  1.
         23    2    1    2    0    0  0.40144337226E+03  0.53106198052E+03  0.13347998983E+04  0.14943855831E+04  0.91180558929E+02 0.  0.
        254    2    1    2    0    0 -0.40144337226E+03 -0.53106198052E+03 -0.22662325877E+02  0.11320642832E+04  0.91535367592E+03 0.  0.
        -24    2    4    4    0    0 -0.42134715893E+03 -0.60549497031E+03  0.29265541164E+03  0.79768302861E+03  0.80581863709E+02 0.  0.
         24    2    4    4    0    0  0.19903786673E+02  0.74432989790E+02 -0.31531773752E+03  0.33438125460E+03  0.80306395391E+02 0.  0.
         13    1    3    3    0    0  0.12112736114E+03  0.12472966496E+03  0.27656198468E+03  0.32667393270E+03  0.00000000000E+00 0.  1.
        -13    1    3    3    0    0  0.28031601113E+03  0.40633231556E+03  0.10582379136E+04  0.11677116504E+04  0.00000000000E+00 0. -1.
          4    1    6    6  502    0  0.12099221216E+01 -0.16033073108E+02 -0.79618090758E+02  0.81225388400E+02  0.00000000000E+00 0. -1.
          1    1    5    5  503    0 -0.28250524416E+03 -0.34077209715E+03  0.18886478121E+03  0.48125330207E+03  0.00000000000E+00 0. -1.
         -2    1    5    5    0  503 -0.13884191478E+03 -0.26472287316E+03  0.10379063043E+03  0.31642972654E+03  0.00000000000E+00 0.  1.
         -3    1    6    6    0  502  0.18693864551E+02  0.90466062897E+02 -0.23569964676E+03  0.25315586620E+03  0.00000000000E+00 0.  1.
<mgrwt>
<rscale>  0 0.22751997E+04</rscale>
<asrwt>0</asrwt>
<pdfrwt beam="1">  1        1 0.30296826E+00 0.22751997E+04</pdfrwt>
<pdfrwt beam="2">  1       -1 0.10110095E+00 0.22751997E+04</pdfrwt>
<totfact> 0.26317150E+00</totfact>
</mgrwt>
</event>
<event>
12    1  0.1532786E-007  0.1897397E+04  0.7818608E-02  0.8656153E-01
          2   -1    0    0  501    0  0.00000000000E+00  0.00000000000E+00  0.15955806896E+04  0.15955806896E+04  0.00000000000E+00 0.  1.
         -2   -1    0    0    0  501 -0.00000000000E+00 -0.00000000000E+00 -0.56407586268E+03  0.56407586268E+03  0.00000000000E+00 0. -1.
         23    2    1    2    0    0 -0.35978771492E+03  0.57368806656E+03  0.71524850219E+03  0.98894128540E+03  0.88652403041E+02 0.  0.
        254    2    1    2    0    0  0.35978771492E+03 -0.57368806656E+03  0.31625632477E+03  0.11707152669E+04  0.90110541877E+03 0.  0.
        -24    2    4    4    0    0  0.43507485390E+03 -0.19583929407E+03  0.53432302662E+03  0.72096814880E+03  0.81552542669E+02 0.  0.
         24    2    4    4    0    0 -0.75287138978E+02 -0.37784877249E+03 -0.21806670186E+03  0.44974711812E+03  0.79256139395E+02 0.  0.
         11    1    3    3    0    0 -0.27920633016E+03  0.44593563459E+03  0.60601163145E+03  0.80253651783E+03  0.00000000000E+00 0.  1.
        -11    1    3    3    0    0 -0.80581384756E+02  0.12775243197E+03  0.10923687074E+03  0.18640476757E+03  0.00000000000E+00 0. -1.
          4    1    6    6  502    0 -0.51630214924E+02 -0.27306790106E+03 -0.19604130505E+03  0.34009403254E+03  0.00000000000E+00 0. -1.
          1    1    5    5  503    0  0.34176640427E+03 -0.18883593129E+03  0.43005126846E+03  0.58086777974E+03  0.00000000000E+00 0. -1.
         -2    1    5    5    0  503  0.93308449625E+02 -0.70033627768E+01  0.10427175816E+03  0.14010036906E+03  0.00000000000E+00 0.  1.
         -3    1    6    6    0  502 -0.23656924053E+02 -0.10478087143E+03 -0.22025396807E+02  0.10965308558E+03  0.00000000000E+00 0.  1.
<mgrwt>
<rscale>  0 0.18973967E+04</rscale>
<asrwt>0</asrwt>
<pdfrwt beam="1">  1        2 0.24547395E+00 0.18973967E+04</pdfrwt>
<pdfrwt beam="2">  1       -2 0.86780903E-01 0.18973967E+04</pdfrwt>
<totfact> 0.12073423E+01</totfact>
</mgrwt>
</event>
<event>
12    1  0.1532786E-007  0.1190599E+04  0.7818608E-02  0.9121125E-01
         -1   -1    0    0    0  501 -0.00000000000E+00  0.00000000000E+00  0.14748583718E+03  0.14748583718E+03  0.00000000000E+00 0.  1.
          1   -1    0    0  501    0  0.00000000000E+00 -0.00000000000E+00 -0.24028164352E+04  0.24028164352E+04  0.00000000000E+00 0. -1.
         23    2    1    2    0    0  0.84536634185E+02  0.19782500891E+03 -0.29981280469E+03  0.38040363832E+03  0.92401480109E+02 0.  0.
        254    2    1    2    0    0 -0.84536634185E+02 -0.19782500891E+03 -0.19555177933E+04  0.21698986340E+04  0.91549389149E+03 0.  0.
        -24    2    4    4    0    0 -0.19488175004E+03  0.20865386326E+03 -0.15560644254E+04  0.15840184064E+04  0.79135862155E+02 0.  0.
         24    2    4    4    0    0  0.11034511585E+03 -0.40647887217E+03 -0.39945336786E+03  0.58588022759E+03  0.79319164569E+02 0.  0.
         11    1    3    3    0    0  0.11421381950E+01  0.62460356808E+01  0.68403495604E+01  0.93331572092E+01  0.00000000000E+00 0. -1.
        -11    1    3    3    0    0  0.83394495990E+02  0.19157897323E+03 -0.30665315425E+03  0.37107048111E+03  0.00000000000E+00 0.  1.
          2    1    6    6  502    0  0.11983134063E+03 -0.33842538489E+03 -0.34844386482E+03  0.50030432565E+03  0.00000000000E+00 0. -1.
          1    1    5    5  503    0 -0.67353667958E+02  0.56753598362E+02 -0.31004315018E+03  0.32231078556E+03  0.00000000000E+00 0. -1.
         -2    1    5    5    0  503 -0.12752808208E+03  0.15190026489E+03 -0.12460212752E+04  0.12617076209E+04  0.00000000000E+00 0.  1.
         -1    1    6    6    0  502 -0.94862247775E+01 -0.68053487275E+02 -0.51009503040E+02  0.85575901930E+02  0.00000000000E+00 0.  1.
<mgrwt>
<rscale>  0 0.11905988E+04</rscale>
<asrwt>0</asrwt>
<pdfrwt beam="1">  1        1 0.36966403E+00 0.11905988E+04</pdfrwt>
<pdfrwt beam="2">  1       -1 0.22690131E-01 0.11905988E+04</pdfrwt>
<totfact> 0.26035781E+01</totfact>
</mgrwt>
</event>
<event>
12    1  0.1532786E-007  0.3137817E+04  0.7818608E-02  0.8205435E-01
         -1   -1    0    0    0  501 -0.00000000000E+00  0.00000000000E+00  0.98785076458E+03  0.98785076458E+03  0.00000000000E+00 0.  1.
          1   -1    0    0  501    0  0.00000000000E+00 -0.00000000000E+00 -0.24917466033E+04  0.24917466033E+04  0.00000000000E+00 0. -1.
         23    2    1    2    0    0 -0.65741667250E+03 -0.72223957200E+03  0.47887950212E+03  0.10917176315E+04  0.93247674255E+02 0.  0.
        254    2    1    2    0    0  0.65741667250E+03  0.72223957200E+03 -0.19827753408E+04  0.23878797364E+04  0.90373939965E+03 0.  0.
        -24    2    4    4    0    0  0.54052009977E+03  0.62003786163E+03 -0.67097591953E+03  0.10644755518E+04  0.79313224971E+02 0.  0.
         24    2    4    4    0    0  0.11689657273E+03  0.10220171037E+03 -0.13117994213E+04  0.13234041846E+04  0.80442002078E+02 0.  0.
         13    1    3    3    0    0 -0.38055587790E+02 -0.79536315959E+02  0.34923272127E+02  0.94836112607E+02  0.00000000000E+00 0. -1.
        -13    1    3    3    0    0 -0.61936108471E+03 -0.64270325604E+03  0.44395622999E+03  0.99688151890E+03  0.00000000000E+00 0.  1.
          2    1    6    6  502    0  0.10925315480E+03  0.11572254455E+03 -0.12117687661E+04  0.12221749063E+04  0.00000000000E+00 0. -1.
          1    1    5    5  503    0  0.51377860045E+03  0.58878483319E+03 -0.61194918471E+03  0.99253102458E+03  0.00000000000E+00 0. -1.
         -2    1    5    5    0  503  0.26741499320E+02  0.31253028442E+02 -0.59026734820E+02  0.71944527215E+02  0.00000000000E+00 0.  1.
         -1    1    6    6    0  502  0.76434179325E+01 -0.13520834186E+02 -0.10003065524E+03  0.10122927829E+03  0.00000000000E+00 0.  1.
<mgrwt>
<rscale>  0 0.31378169E+04</rscale>
<asrwt>0</asrwt>
<pdfrwt beam="1">  1        1 0.38334563E+00 0.31378169E+04</pdfrwt>
<pdfrwt beam="2">  1       -1 0.15197704E+00 0.31378169E+04</pdfrwt>
<totfact> 0.38867661E-01</totfact>
</mgrwt>
</event>
<event>
12    1  0.1532786E-007  0.1607243E+04  0.7818608E-02  0.8816111E-01
          1   -1    0    0  501    0  0.00000000000E+00  0.00000000000E+00  0.17185496915E+04  0.17185496915E+04  0.00000000000E+00 0. -1.
         -1   -1    0    0    0  501 -0.00000000000E+00 -0.00000000000E+00 -0.37578613985E+03  0.37578613985E+03  0.00000000000E+00 0.  1.
         23    2    1    2    0    0  0.10389432333E+03  0.35681754982E+03 -0.57410241343E+02  0.38712428903E+03  0.91959148900E+02 0.  0.
        254    2    1    2    0    0 -0.10389432333E+03 -0.35681754982E+03  0.14001737930E+04  0.17072115423E+04  0.90331157713E+03 0.  0.
        -24    2    4    4    0    0 -0.38635189385E+03 -0.23942077637E+03  0.12940460176E+04  0.13738945257E+04  0.80255703819E+02 0.  0.
         24    2    4    4    0    0  0.28245757052E+03 -0.11739677345E+03  0.10612777542E+03  0.33331701667E+03  0.79201308855E+02 0.  0.
         13    1    3    3    0    0  0.22783305151E+02  0.49419223553E+02 -0.42160679149E+02  0.68839389280E+02  0.00000000000E+00 0. -1.
        -13    1    3    3    0    0  0.81111018178E+02  0.30739832627E+03 -0.15249562194E+02  0.31828489975E+03  0.00000000000E+00 0.  1.
          4    1    6    6  502    0  0.13266536820E+03 -0.55737188360E+02  0.91825309145E+02  0.17070038513E+03  0.00000000000E+00 0. -1.
          3    1    5    5  503    0 -0.26728036801E+03 -0.12169508466E+03  0.79536304706E+03  0.84785073296E+03  0.00000000000E+00 0. -1.
         -4    1    5    5    0  503 -0.11907152583E+03 -0.11772569170E+03  0.49868297054E+03  0.52604379272E+03  0.00000000000E+00 0.  1.
         -3    1    6    6    0  502  0.14979220232E+03 -0.61659585093E+02  0.14302466276E+02  0.16261663153E+03  0.00000000000E+00 0.  1.
<mgrwt>
<rscale>  0 0.16072426E+04</rscale>
<asrwt>0</asrwt>
<pdfrwt beam="1">  1        1 0.26439226E+00 0.16072426E+04</pdfrwt>
<pdfrwt beam="2">  1       -1 0.57813253E-01 0.16072426E+04</pdfrwt>
<totfact> 0.13454147E+01</totfact>
</mgrwt>
</event>
<event>
12    1  0.1532786E-007  0.1920185E+04  0.7818608E-02  0.8644874E-01
         -2   -1    0    0    0  501 -0.00000000000E+00  0.00000000000E+00  0.10779652031E+04  0.10779652031E+04  0.00000000000E+00 0.  1.
          2   -1    0    0  501    0  0.00000000000E+00 -0.00000000000E+00 -0.85510906566E+03  0.85510906566E+03  0.00000000000E+00 0. -1.
         23    2    1    2    0    0  0.54353693100E+03  0.49584989202E+03  0.98628304077E+02  0.74786746381E+03  0.90987308274E+02 0.  0.
        254    2    1    2    0    0 -0.54353693100E+03 -0.49584989202E+03  0.12422783332E+03  0.11852068049E+04  0.92085998123E+03 0.  0.
        -24    2    4    4    0    0 -0.69195161006E+03 -0.36106311314E+03  0.36180232109E+03  0.86435452855E+03  0.83929906234E+02 0.  0.
         24    2    4    4    0    0  0.14841467905E+03 -0.13478677889E+03 -0.23757448777E+03  0.32085227635E+03  0.79436473245E+02 0.  0.
         11    1    3    3    0    0  0.39588320729E+03  0.34122048649E+03  0.30743196715E+02  0.52354567934E+03  0.00000000000E+00 0. -1.
        -11    1    3    3    0    0  0.14765372372E+03  0.15462940554E+03  0.67885107362E+02  0.22432178446E+03  0.00000000000E+00 0.  1.
          2    1    6    6  502    0  0.15553208452E+03 -0.13746325166E+03 -0.23266924937E+03  0.31180339074E+03  0.00000000000E+00 0. -1.
          1    1    5    5  503    0 -0.39437624327E+03 -0.24948749895E+03  0.19976582745E+03  0.50762488040E+03  0.00000000000E+00 0. -1.
         -2    1    5    5    0  503 -0.29757536679E+03 -0.11157561419E+03  0.16203649363E+03  0.35672964815E+03  0.00000000000E+00 0.  1.
         -1    1    6    6    0  502 -0.71174054671E+01  0.26764727780E+01 -0.49052383937E+01  0.90488856117E+01  0.00000000000E+00 0.  1.
<mgrwt>
<rscale>  0 0.19201852E+04</rscale>
<asrwt>0</asrwt>
<pdfrwt beam="1">  1        2 0.13155524E+00 0.19201852E+04</pdfrwt>
<pdfrwt beam="2">  1       -2 0.16584080E+00 0.19201852E+04</pdfrwt>
<totfact> 0.67171795E+00</totfact>
</mgrwt>
</event>
<event>
12    1  0.1532786E-007  0.3454504E+04  0.7818608E-02  0.8124657E-01
          1   -1    0    0  501    0  0.00000000000E+00  0.00000000000E+00  0.30580760073E+04  0.30580760073E+04  0.00000000000E+00 0. -1.
         -1   -1    0    0    0  501 -0.00000000000E+00 -0.00000000000E+00 -0.97558031004E+03  0.97558031004E+03  0.00000000000E+00 0.  1.
         23    2    1    2    0    0  0.13209160539E+03 -0.85778621414E+02  0.28529664895E+04  0.28587127247E+04  0.89523670260E+02 0.  0.
        254    2    1    2    0    0 -0.13209160539E+03  0.85778621414E+02 -0.77047079226E+03  0.11749435927E+04  0.87296107600E+03 0.  0.
        -24    2    4    4    0    0  0.17513112018E+03 -0.28825308444E+03 -0.13744809735E+03  0.37428520395E+03  0.86236213293E+02 0.  0.
         24    2    4    4    0    0 -0.30722272557E+03  0.37403170586E+03 -0.63302269491E+03  0.80065838876E+03  0.77785622838E+02 0.  0.
         11    1    3    3    0    0  0.21834663497E+01 -0.33752573412E+02  0.29729153046E+03  0.29920938792E+03  0.00000000000E+00 0.  1.
        -11    1    3    3    0    0  0.12990813904E+03 -0.52026048002E+02  0.25556749591E+04  0.25595033367E+04  0.00000000000E+00 0. -1.
          4    1    6    6  502    0 -0.15467709417E+03  0.20328613947E+03 -0.39490089532E+03  0.47031582483E+03  0.00000000000E+00 0. -1.
          3    1    5    5  503    0  0.80279311936E+02 -0.18219363107E+03 -0.43535505998E+02  0.20380045979E+03  0.00000000000E+00 0. -1.
         -4    1    5    5    0  503  0.94851808244E+02 -0.10605945337E+03 -0.93912591348E+02  0.17048474416E+03  0.00000000000E+00 0.  1.
         -3    1    6    6    0  502 -0.15254563141E+03  0.17074556639E+03 -0.23812179959E+03  0.33034256393E+03  0.00000000000E+00 0.  1.
<mgrwt>
<rscale>  0 0.34545036E+04</rscale>
<asrwt>0</asrwt>
<pdfrwt beam="1">  1        1 0.47047323E+00 0.34545036E+04</pdfrwt>
<pdfrwt beam="2">  1       -1 0.15008928E+00 0.34545036E+04</pdfrwt>
<totfact> 0.15446437E-01</totfact>
</mgrwt>
</event>
<event>
12    1  0.1731180E-007  0.1993825E+04  0.7818608E-02  0.8609513E-01
          1   -1    0    0  501    0  0.00000000000E+00  0.00000000000E+00  0.24981444074E+04  0.24981444074E+04  0.00000000000E+00 0. -1.
         -1   -1    0    0    0  501 -0.00000000000E+00 -0.00000000000E+00 -0.39782891203E+03  0.39782891203E+03  0.00000000000E+00 0.  1.
         23    2    1    2    0    0  0.18839198332E+03 -0.58859120841E+03  0.15546072811E+04  0.16748584543E+04  0.80099273156E+02 0.  0.
        254    2    1    2    0    0 -0.18839198332E+03  0.58859120841E+03  0.54570821430E+03  0.12211148651E+04  0.90077350577E+03 0.  0.
        -24    2    4    4    0    0  0.61236283937E+02 -0.12501094882E+03  0.42128109470E+03  0.45071286159E+03  0.79288732253E+02 0.  0.
         24    2    4    4    0    0 -0.24962826726E+03  0.71360215723E+03  0.12442711960E+03  0.77040200354E+03  0.80590497866E+02 0.  0.
         11    1    3    3    0    0  0.14142258826E+03 -0.48050267766E+03  0.13303752431E+04  0.14215419302E+04  0.00000000000E+00 0. -1.
        -11    1    3    3    0    0  0.46969395066E+02 -0.10808853076E+03  0.22423203794E+03  0.25331652412E+03  0.00000000000E+00 0.  1.
          2    1    6    6  502    0 -0.22953677321E+03  0.61936160234E+03  0.83771731926E+02  0.66581801401E+03  0.00000000000E+00 0. -1.
          1    1    5    5  503    0  0.14120980679E+02 -0.90446867130E+02  0.32890368025E+03  0.34140543163E+03  0.00000000000E+00 0. -1.
         -4    1    5    5    0  503  0.47115303258E+02 -0.34564081688E+02  0.92377414450E+02  0.10930742996E+03  0.00000000000E+00 0.  1.
         -1    1    6    6    0  502 -0.20091494051E+02  0.94240554894E+02  0.40655387674E+02  0.10458398953E+03  0.00000000000E+00 0.  1.
<mgrwt>
<rscale>  0 0.19938245E+04</rscale>
<asrwt>0</asrwt>
<pdfrwt beam="1">  1        1 0.38432990E+00 0.19938245E+04</pdfrwt>
<pdfrwt beam="2">  1       -1 0.61204450E-01 0.19938245E+04</pdfrwt>
<totfact> 0.34161408E+00</totfact>
</mgrwt>
</event>
<event>
12    1  0.1532786E-007  0.1201640E+04  0.7818608E-02  0.9111422E-01
         -2   -1    0    0    0  501 -0.00000000000E+00  0.00000000000E+00  0.72240546250E+03  0.72240546250E+03  0.00000000000E+00 0.  1.
          2   -1    0    0  501    0  0.00000000000E+00 -0.00000000000E+00 -0.49969796700E+03  0.49969796700E+03  0.00000000000E+00 0. -1.
         23    2    1    2    0    0  0.13608305892E+03 -0.18429795030E+03 -0.35860302423E+02  0.25209414147E+03  0.98899754609E+02 0.  0.
        254    2    1    2    0    0 -0.13608305892E+03  0.18429795030E+03  0.25856779792E+03  0.97000928803E+03  0.90640850577E+03 0.  0.
        -24    2    4    4    0    0  0.36905068741E+03  0.14155051598E+03  0.22571776801E+02  0.40488320760E+03  0.84770090461E+02 0.  0.
         24    2    4    4    0    0 -0.50513374633E+03  0.42747434324E+02  0.23599602112E+03  0.56512608044E+03  0.81767475116E+02 0.  0.
         11    1    3    3    0    0  0.86391310311E+02 -0.83090381781E+02  0.27195822768E+02  0.12291087347E+03  0.00000000000E+00 0.  1.
        -11    1    3    3    0    0  0.49691748608E+02 -0.10120756852E+03 -0.63056125190E+02  0.12918326800E+03  0.00000000000E+00 0. -1.
          2    1    6    6  502    0 -0.32200560124E+03  0.52897302649E+01  0.11267616903E+03  0.34119130637E+03  0.00000000000E+00 0. -1.
          3    1    5    5  503    0  0.18640636716E+03  0.10412974424E+03  0.41403531436E+02  0.21749618335E+03  0.00000000000E+00 0. -1.
         -4    1    5    5    0  503  0.18264432024E+03  0.37420771735E+02 -0.18831754635E+02  0.18738702425E+03  0.00000000000E+00 0.  1.
         -1    1    6    6    0  502 -0.18312814508E+03  0.37457704059E+02  0.12331985209E+03  0.22393477406E+03  0.00000000000E+00 0.  1.
<mgrwt>
<rscale>  0 0.12016398E+04</rscale>
<asrwt>0</asrwt>
<pdfrwt beam="1">  1        2 0.76876610E-01 0.12016398E+04</pdfrwt>
<pdfrwt beam="2">  1       -2 0.11113930E+00 0.12016398E+04</pdfrwt>
<totfact> 0.38958288E+01</totfact>
</mgrwt>
</event>
<event>
12    1  0.1532786E-007  0.2424468E+04  0.7818608E-02  0.8430400E-01
          2   -1    0    0  501    0  0.00000000000E+00  0.00000000000E+00  0.20634979870E+04  0.20634979870E+04  0.00000000000E+00 0. -1.
         -2   -1    0    0    0  501 -0.00000000000E+00 -0.00000000000E+00 -0.71214560163E+03  0.71214560163E+03  0.00000000000E+00 0.  1.
         23    2    1    2    0    0  0.22477722093E+03  0.53333202498E+03  0.15503849523E+04  0.16578569369E+04  0.99137658082E+02 0.  0.
        254    2    1    2    0    0 -0.22477722093E+03 -0.53333202498E+03 -0.19903256694E+03  0.11177866516E+04  0.93534228386E+03 0.  0.
        -24    2    4    4    0    0 -0.18113023842E+03  0.22009334734E+03 -0.20278910343E+03  0.35864178917E+03  0.79064958464E+02 0.  0.
         24    2    4    4    0    0 -0.43646982514E+02 -0.75342537232E+03  0.37565364837E+01  0.75914486248E+03  0.82048521830E+02 0.  0.
         11    1    3    3    0    0  0.13779832264E+03  0.28371001462E+03  0.71064210031E+03  0.77749080049E+03  0.00000000000E+00 0.  1.
        -11    1    3    3    0    0  0.86978898291E+02  0.24962201036E+03  0.83974285195E+03  0.88036613645E+03  0.00000000000E+00 0. -1.
          2    1    6    6  502    0 -0.14048195530E+02 -0.57763664417E+03  0.31835509991E+02  0.57868380328E+03  0.00000000000E+00 0. -1.
          1    1    5    5  503    0 -0.17070090640E+03  0.20271498065E+03 -0.20892705916E+03  0.33746507801E+03  0.00000000000E+00 0. -1.
         -2    1    5    5    0  503 -0.10429332014E+02  0.17378366687E+02  0.61379557301E+01  0.21176711159E+02  0.00000000000E+00 0.  1.
         -3    1    6    6    0  502 -0.29598786983E+02 -0.17578872815E+03 -0.28078973507E+02  0.18046105920E+03  0.00000000000E+00 0.  1.
<mgrwt>
<rscale>  0 0.24244678E+04</rscale>
<asrwt>0</asrwt>
<pdfrwt beam="1">  1        2 0.31746123E+00 0.24244678E+04</pdfrwt>
<pdfrwt beam="2">  1       -2 0.10956086E+00 0.24244678E+04</pdfrwt>
<totfact> 0.36662715E+00</totfact>
</mgrwt>
</event>
<event>
12    1  0.1532786E-007  0.1370384E+04  0.7818608E-02  0.8975539E-01
          2   -1    0    0  501    0  0.00000000000E+00  0.00000000000E+00  0.50524026382E+03  0.50524026382E+03  0.00000000000E+00 0. -1.
         -2   -1    0    0    0  501 -0.00000000000E+00 -0.00000000000E+00 -0.92923783160E+03  0.92923783160E+03  0.00000000000E+00 0.  1.
         23    2    1    2    0    0  0.13984332746E+03 -0.31913569082E+03 -0.16678747899E+03  0.39734662124E+03  0.93072707454E+02 0.  0.
        254    2    1    2    0    0 -0.13984332746E+03  0.31913569082E+03 -0.25721008879E+03  0.10371314742E+04  0.94238045373E+03 0.  0.
        -24    2    4    4    0    0  0.99663628358E+02  0.18554983484E+03  0.32086194490E+03  0.39227636020E+03  0.81035640690E+02 0.  0.
         24    2    4    4    0    0 -0.23950695582E+03  0.13358585598E+03 -0.57807203369E+03  0.64485511398E+03  0.80387058023E+02 0.  0.
         13    1    3    3    0    0  0.11150868319E+03 -0.30510453773E+03 -0.13283928717E+03  0.35095475718E+03  0.00000000000E+00 0. -1.
        -13    1    3    3    0    0  0.28334644269E+02 -0.14031153082E+02 -0.33948191820E+02  0.46391864055E+02  0.00000000000E+00 0.  1.
          4    1    6    6  502    0 -0.19844408341E+03  0.12311256517E+03 -0.53814291934E+03  0.58662983182E+03  0.00000000000E+00 0. -1.
          3    1    5    5  503    0  0.13711761848E+02  0.32546181427E+02  0.12220457246E+03  0.12720543962E+03  0.00000000000E+00 0. -1.
         -4    1    5    5    0  503  0.85951866510E+02  0.15300365341E+03  0.19865737244E+03  0.26507092058E+03  0.00000000000E+00 0.  1.
         -3    1    6    6    0  502 -0.41062872408E+02  0.10473290811E+02 -0.39929114347E+02  0.58225282167E+02  0.00000000000E+00 0.  1.
<mgrwt>
<rscale>  0 0.13703844E+04</rscale>
<asrwt>0</asrwt>
<pdfrwt beam="1">  1        2 0.77729272E-01 0.13703844E+04</pdfrwt>
<pdfrwt beam="2">  1       -2 0.14295967E+00 0.13703844E+04</pdfrwt>
<totfact> 0.20163867E+01</totfact>
</mgrwt>
</event>
<event>
12    1  0.1532786E-007  0.1258849E+04  0.7818608E-02  0.9062850E-01
          1   -1    0    0  501    0  0.00000000000E+00  0.00000000000E+00  0.12462114626E+04  0.12462114626E+04  0.00000000000E+00 0. -1.
         -1   -1    0    0    0  501 -0.00000000000E+00 -0.00000000000E+00 -0.31790366128E+03  0.31790366128E+03  0.00000000000E+00 0.  1.
         23    2    1    2    0    0 -0.25715937174E+03  0.12425286505E+03  0.23471924255E+03  0.38076462562E+03  0.91207786702E+02 0.  0.
        254    2    1    2    0    0  0.25715937174E+03 -0.12425286505E+03  0.69358855878E+03  0.11833504983E+04  0.91525056457E+03 0.  0.
        -24    2    4    4    0    0  0.28105023453E+03 -0.11386011201E+03  0.90402361174E+03  0.95753726199E+03  0.87553172813E+02 0.  0.
         24    2    4    4    0    0 -0.23890862786E+02 -0.10392753035E+02 -0.21043505296E+03  0.22581323629E+03  0.77652582238E+02 0.  0.
         11    1    3    3    0    0 -0.35593817413E+02  0.44999179076E+02  0.16153719152E+02  0.59605273240E+02  0.00000000000E+00 0.  1.
        -11    1    3    3    0    0 -0.22156555433E+03  0.79253685974E+02  0.21856552340E+03  0.32115935238E+03  0.00000000000E+00 0. -1.
          4    1    6    6  502    0 -0.14888792048E+02 -0.42871930370E+02 -0.90636895643E+02  0.10136432012E+03  0.00000000000E+00 0. -1.
          1    1    5    5  503    0  0.48776833177E+02  0.13393721444E+02  0.15768049582E+03  0.16559501801E+03  0.00000000000E+00 0. -1.
         -2    1    5    5    0  503  0.23227340135E+03 -0.12725383346E+03  0.74634311593E+03  0.79194224398E+03  0.00000000000E+00 0.  1.
         -3    1    6    6    0  502 -0.90020707385E+01  0.32479177335E+02 -0.11979815732E+03  0.12444891616E+03  0.00000000000E+00 0.  1.
<mgrwt>
<rscale>  0 0.12588490E+04</rscale>
<asrwt>0</asrwt>
<pdfrwt beam="1">  1        1 0.19172484E+00 0.12588490E+04</pdfrwt>
<pdfrwt beam="2">  1       -1 0.48908256E-01 0.12588490E+04</pdfrwt>
<totfact> 0.40786067E+01</totfact>
</mgrwt>
</event>
<event>
12    1  0.1532786E-007  0.1174909E+04  0.7818608E-02  0.9135107E-01
          2   -1    0    0  501    0  0.00000000000E+00  0.00000000000E+00  0.71118502730E+03  0.71118502730E+03  0.00000000000E+00 0. -1.
         -2   -1    0    0    0  501 -0.00000000000E+00 -0.00000000000E+00 -0.48525042455E+03  0.48525042455E+03  0.00000000000E+00 0.  1.
         23    2    1    2    0    0  0.21722537002E+03 -0.71429931960E+02  0.82743736546E+02  0.25949073421E+03  0.90552849988E+02 0.  0.
        254    2    1    2    0    0 -0.21722537002E+03  0.71429931960E+02  0.14319086620E+03  0.93694471765E+03  0.89725842610E+03 0.  0.
        -24    2    4    4    0    0  0.16421111466E+03  0.30871851136E+03 -0.15613654234E+03  0.39111850554E+03  0.79515131191E+02 0.  0.
         24    2    4    4    0    0 -0.38143648468E+03 -0.23728857940E+03  0.29932740854E+03  0.54582621211E+03  0.80806525462E+02 0.  0.
         13    1    3    3    0    0  0.14913250179E+03 -0.82663346147E+01  0.72568416529E+02  0.16605725053E+03  0.00000000000E+00 0. -1.
        -13    1    3    3    0    0  0.68092868236E+02 -0.63163597346E+02  0.10175320017E+02  0.93433483675E+02  0.00000000000E+00 0.  1.
          2    1    6    6  502    0 -0.19040006643E+03 -0.13444291734E+03  0.10940339653E+03  0.25748045847E+03  0.00000000000E+00 0. -1.
          1    1    5    5  503    0  0.95215799102E+02  0.14082819193E+03 -0.36932460108E+02  0.17396158958E+03  0.00000000000E+00 0. -1.
         -2    1    5    5    0  503  0.68995315556E+02  0.16789031944E+03 -0.11920408223E+03  0.21715691596E+03  0.00000000000E+00 0.  1.
         -1    1    6    6    0  502 -0.19103641825E+03 -0.10284566206E+03  0.18992401201E+03  0.28834575364E+03  0.00000000000E+00 0.  1.
<mgrwt>
<rscale>  0 0.11749091E+04</rscale>
<asrwt>0</asrwt>
<pdfrwt beam="1">  1        2 0.10941308E+00 0.11749091E+04</pdfrwt>
<pdfrwt beam="2">  1       -2 0.74653912E-01 0.11749091E+04</pdfrwt>
<totfact> 0.64059551E+01</totfact>
</mgrwt>
</event>
<event>
12    1  0.1532786E-007  0.1404046E+04  0.7818608E-02  0.8950895E-01
          1   -1    0    0  501    0  0.00000000000E+00  0.00000000000E+00  0.11526701290E+04  0.11526701290E+04  0.00000000000E+00 0. -1.
         -1   -1    0    0    0  501 -0.00000000000E+00 -0.00000000000E+00 -0.42756033253E+03  0.42756033253E+03  0.00000000000E+00 0.  1.
         23    2    1    2    0    0 -0.39146032920E+03 -0.28364622282E+02  0.36040488385E+02  0.40412173662E+03  0.89273288666E+02 0.  0.
        254    2    1    2    0    0  0.39146032920E+03  0.28364622282E+02  0.68906930809E+03  0.11761087249E+04  0.86854446077E+03 0.  0.
        -24    2    4    4    0    0  0.39470429422E+03  0.20373577018E+03 -0.95082648407E+01  0.45144019667E+03  0.80050609866E+02 0.  0.
         24    2    4    4    0    0 -0.32439650203E+01 -0.17537114790E+03  0.69857757293E+03  0.72466852825E+03  0.79801551424E+02 0.  0.
         13    1    3    3    0    0 -0.12001238355E+03 -0.47374049780E+02  0.27230017873E+02  0.13186639705E+03  0.00000000000E+00 0. -1.
        -13    1    3    3    0    0 -0.27144794566E+03  0.19009427499E+02  0.88104705122E+01  0.27225533957E+03  0.00000000000E+00 0.  1.
          2    1    6    6  502    0  0.37541027807E+02 -0.67241651472E+02  0.26669748699E+03  0.27759380042E+03  0.00000000000E+00 0. -1.
          3    1    5    5  503    0  0.19678823194E+02  0.33745983972E+02 -0.69562128846E+01  0.39679168518E+02  0.00000000000E+00 0. -1.
         -4    1    5    5    0  503  0.37502547103E+03  0.16998978621E+03 -0.25520519561E+01  0.41176102815E+03  0.00000000000E+00 0.  1.
         -1    1    6    6    0  502 -0.40784992827E+02 -0.10812949643E+03  0.43188008594E+03  0.44707472783E+03  0.00000000000E+00 0.  1.
<mgrwt>
<rscale>  0 0.14040456E+04</rscale>
<asrwt>0</asrwt>
<pdfrwt beam="1">  1        1 0.17733386E+00 0.14040456E+04</pdfrwt>
<pdfrwt beam="2">  1       -1 0.65778513E-01 0.14040456E+04</pdfrwt>
<totfact> 0.26441836E+01</totfact>
</mgrwt>
</event>
<event>
12    1  0.1532786E-007  0.1962282E+04  0.7818608E-02  0.8624461E-01
         -2   -1    0    0    0  501 -0.00000000000E+00  0.00000000000E+00  0.56602556132E+03  0.56602556132E+03  0.00000000000E+00 0.  1.
          2   -1    0    0  501    0  0.00000000000E+00 -0.00000000000E+00 -0.17006964129E+04  0.17006964129E+04  0.00000000000E+00 0. -1.
         23    2    1    2    0    0 -0.50047347820E+03 -0.11204546387E+03 -0.11134534204E+04  0.12292724899E+04  0.91128736927E+02 0.  0.
        254    2    1    2    0    0  0.50047347820E+03  0.11204546387E+03 -0.21217431177E+02  0.10374494843E+04  0.90156717150E+03 0.  0.
        -24    2    4    4    0    0 -0.22291362230E+02  0.80316538615E+02  0.36525901918E+03  0.38173409429E+03  0.73205986396E+02 0.  0.
         24    2    4    4    0    0  0.52276484043E+03  0.31728925252E+02 -0.38647645036E+03  0.65571539001E+03  0.79428099115E+02 0.  0.
         11    1    3    3    0    0 -0.29211183394E+03 -0.19267435465E+02 -0.63546831740E+03  0.69965744476E+03  0.00000000000E+00 0. -1.
        -11    1    3    3    0    0 -0.20836164426E+03 -0.92778028402E+02 -0.47798510302E+03  0.52961504516E+03  0.00000000000E+00 0.  1.
          4    1    6    6  502    0  0.50046962932E+03  0.23547742491E+02 -0.38510712881E+03  0.63192708970E+03  0.00000000000E+00 0. -1.
          3    1    5    5  503    0 -0.40014755157E+02  0.66382955377E+02  0.33584860935E+03  0.34467690059E+03  0.00000000000E+00 0. -1.
         -4    1    5    5    0  503  0.17723392926E+02  0.13933583238E+02  0.29410409826E+02  0.37057193699E+02  0.00000000000E+00 0.  1.
         -3    1    6    6    0  502  0.22295211118E+02  0.81811827608E+01 -0.13693215518E+01  0.23788300311E+02  0.00000000000E+00 0.  1.
<mgrwt>
<rscale>  0 0.19622820E+04</rscale>
<asrwt>0</asrwt>
<pdfrwt beam="1">  1        2 0.26164560E+00 0.19622820E+04</pdfrwt>
<pdfrwt beam="2">  1       -2 0.87080857E-01 0.19622820E+04</pdfrwt>
<totfact> 0.10409846E+01</totfact>
</mgrwt>
</event>
<event>
12    1  0.1532786E-007  0.1414281E+04  0.7818608E-02  0.8943546E-01
          2   -1    0    0  501    0  0.00000000000E+00  0.00000000000E+00  0.20157301396E+04  0.20157301396E+04  0.00000000000E+00 0. -1.
         -2   -1    0    0    0  501 -0.00000000000E+00 -0.00000000000E+00 -0.24807258426E+03  0.24807258426E+03  0.00000000000E+00 0.  1.
         23    2    1    2    0    0  0.33865660976E+03  0.15363628202E+03  0.23930439201E+03  0.45187768579E+03  0.92921711072E+02 0.  0.
        254    2    1    2    0    0 -0.33865660976E+03 -0.15363628202E+03  0.15283531633E+04  0.18119250381E+04  0.89939787929E+03 0.  0.
        -24    2    4    4    0    0  0.27687281241E+02  0.17857692534E+03  0.11935649436E+04  0.12098130236E+04  0.79962326690E+02 0.  0.
         24    2    4    4    0    0 -0.36634389100E+03 -0.33221320736E+03  0.33478821972E+03  0.60211201447E+03  0.76695920895E+02 0.  0.
         11    1    3    3    0    0  0.77901233236E+01  0.27687511496E+02  0.12032351367E+02  0.31177905537E+02  0.00000000000E+00 0. -1.
        -11    1    3    3    0    0  0.33086648644E+03  0.12594877053E+03  0.22727204065E+03  0.42069978025E+03  0.00000000000E+00 0.  1.
          4    1    6    6  502    0 -0.96024804965E+02 -0.10537532153E+03  0.59207977696E+02  0.15437067784E+03  0.00000000000E+00 0. -1.
          3    1    5    5  503    0  0.21888480205E+01  0.24380289302E+02  0.50578001124E+02  0.56190068160E+02  0.00000000000E+00 0. -1.
         -4    1    5    5    0  503  0.25498433220E+02  0.15419663603E+03  0.11429869425E+04  0.11536229554E+04  0.00000000000E+00 0.  1.
         -3    1    6    6    0  502 -0.27031908604E+03 -0.22683788583E+03  0.27558024202E+03  0.44774133662E+03  0.00000000000E+00 0.  1.
<mgrwt>
<rscale>  0 0.14142806E+04</rscale>
<asrwt>0</asrwt>
<pdfrwt beam="1">  1        2 0.31011232E+00 0.14142806E+04</pdfrwt>
<pdfrwt beam="2">  1       -2 0.38165014E-01 0.14142806E+04</pdfrwt>
<totfact> 0.41294467E+01</totfact>
</mgrwt>
</event>
<event>
12    1  0.1532786E-007  0.1825652E+04  0.7818608E-02  0.8692776E-01
         -2   -1    0    0    0  501 -0.00000000000E+00  0.00000000000E+00  0.86281039555E+03  0.86281039555E+03  0.00000000000E+00 0.  1.
          2   -1    0    0  501    0  0.00000000000E+00 -0.00000000000E+00 -0.96574076166E+03  0.96574076166E+03  0.00000000000E+00 0. -1.
         23    2    1    2    0    0  0.29985664227E+03  0.44910418698E+03 -0.47367818418E+03  0.72393137224E+03  0.89983514435E+02 0.  0.
        254    2    1    2    0    0 -0.29985664227E+03 -0.44910418698E+03  0.37074781808E+03  0.11046197850E+04  0.88945058775E+03 0.  0.
        -24    2    4    4    0    0  0.94804563379E+02  0.47744468025E+02  0.44156526462E+03  0.46133525528E+03  0.81135044096E+02 0.  0.
         24    2    4    4    0    0 -0.39466120565E+03 -0.49684865501E+03 -0.70817446537E+02  0.64328452969E+03  0.78637282346E+02 0.  0.
         11    1    3    3    0    0  0.26806921928E+03  0.38290504107E+03 -0.36631172843E+03  0.59385323035E+03  0.00000000000E+00 0. -1.
        -11    1    3    3    0    0  0.31787422991E+02  0.66199145908E+02 -0.10736645575E+03  0.13007814190E+03  0.00000000000E+00 0.  1.
          2    1    6    6  502    0 -0.55852432565E+02 -0.57315311596E+02  0.15892316263E+02  0.81591083355E+02  0.00000000000E+00 0. -1.
          1    1    5    5  503    0  0.69030970338E+02 -0.10026775678E+02  0.25309826443E+03  0.26253484065E+03  0.00000000000E+00 0. -1.
         -2    1    5    5    0  503  0.25773593041E+02  0.57771243703E+02  0.18846700018E+03  0.19880041463E+03  0.00000000000E+00 0.  1.
         -1    1    6    6    0  502 -0.33880877309E+03 -0.43953334341E+03 -0.86709762800E+02  0.56169344633E+03  0.00000000000E+00 0.  1.
<mgrwt>
<rscale>  0 0.18256518E+04</rscale>
<asrwt>0</asrwt>
<pdfrwt beam="1">  1        2 0.14857550E+00 0.18256518E+04</pdfrwt>
<pdfrwt beam="2">  1       -2 0.13274006E+00 0.18256518E+04</pdfrwt>
<totfact> 0.10287300E+01</totfact>
</mgrwt>
</event>
<event>
12    1  0.1532786E-007  0.1582993E+04  0.7818608E-02  0.8831065E-01
          1   -1    0    0  501    0  0.00000000000E+00  0.00000000000E+00  0.18100113971E+04  0.18100113971E+04  0.00000000000E+00 0. -1.
         -1   -1    0    0    0  501 -0.00000000000E+00 -0.00000000000E+00 -0.34611183507E+03  0.34611183507E+03  0.00000000000E+00 0.  1.
         23    2    1    2    0    0 -0.12545189865E+03  0.24828642506E+02 -0.20612563156E+03  0.26025188287E+03  0.94279510963E+02 0.  0.
        254    2    1    2    0    0  0.12545189865E+03 -0.24828642506E+02  0.16700251936E+04  0.18958713493E+04  0.88825074472E+03 0.  0.
        -24    2    4    4    0    0 -0.33473850619E+03 -0.11560031954E+03  0.10707931957E+04  0.11306808512E+04  0.80173674667E+02 0.  0.
         24    2    4    4    0    0  0.46019040484E+03  0.90771677032E+02  0.59923199796E+03  0.76519049807E+03  0.80142403908E+02 0.  0.
         11    1    3    3    0    0 -0.42594840579E+02 -0.23236931570E+01 -0.15143051077E+03  0.15732424983E+03  0.00000000000E+00 0.  1.
        -11    1    3    3    0    0 -0.82857058070E+02  0.27152335663E+02 -0.54695120793E+02  0.10292763304E+03  0.00000000000E+00 0. -1.
          4    1    6    6  502    0  0.22592786050E+02  0.15098840606E+02  0.14089722860E+02  0.30609300211E+02  0.00000000000E+00 0. -1.
          1    1    5    5  503    0 -0.16219115821E+03 -0.97481311941E+02  0.53302483991E+03  0.56561829704E+03  0.00000000000E+00 0. -1.
         -2    1    5    5    0  503 -0.17254734798E+03 -0.18119007597E+02  0.53776835574E+03  0.56506255421E+03  0.00000000000E+00 0.  1.
         -3    1    6    6    0  502  0.43759761879E+03  0.75672836427E+02  0.58514227510E+03  0.73458119786E+03  0.00000000000E+00 0.  1.
<mgrwt>
<rscale>  0 0.15829926E+04</rscale>
<asrwt>0</asrwt>
<pdfrwt beam="1">  1        1 0.27846329E+00 0.15829926E+04</pdfrwt>
<pdfrwt beam="2">  1       -1 0.53247976E-01 0.15829926E+04</pdfrwt>
<totfact> 0.13710755E+01</totfact>
</mgrwt>
</event>
<event>
12    1  0.1532786E-007  0.1177351E+04  0.7818608E-02  0.9132916E-01
          2   -1    0    0  501    0  0.00000000000E+00  0.00000000000E+00  0.97252687763E+03  0.97252687763E+03  0.00000000000E+00 0.  1.
         -2   -1    0    0    0  501 -0.00000000000E+00 -0.00000000000E+00 -0.35632814612E+03  0.35632814612E+03  0.00000000000E+00 0. -1.
         23    2    1    2    0    0 -0.45504092871E+02 -0.23178772309E+02  0.38632063085E+03  0.40022982923E+03  0.91282026875E+02 0.  0.
        254    2    1    2    0    0  0.45504092871E+02  0.23178772309E+02  0.22987810066E+03  0.92862519452E+03  0.89827219304E+03 0.  0.
        -24    2    4    4    0    0  0.45070410109E+03  0.11800243320E+03  0.83952765365E+02  0.48006926216E+03  0.79747530821E+02 0.  0.
         24    2    4    4    0    0 -0.40520000822E+03 -0.94823660894E+02  0.14592533530E+03  0.44855593236E+03  0.82034429666E+02 0.  0.
         11    1    3    3    0    0  0.25116206855E+01 -0.36013429798E+02  0.59082472071E+02  0.69238817655E+02  0.00000000000E+00 0. -1.
        -11    1    3    3    0    0 -0.48015713557E+02  0.12834657489E+02  0.32723815878E+03  0.33099101157E+03  0.00000000000E+00 0.  1.
          4    1    6    6  502    0 -0.86395078066E+02  0.54583831463E+01  0.53657011936E+02  0.10184781976E+03  0.00000000000E+00 0. -1.
          3    1    5    5  503    0  0.11708007317E+03  0.74905477654E+01  0.48090065546E+02  0.12679316324E+03  0.00000000000E+00 0. -1.
         -4    1    5    5    0  503  0.33362402792E+03  0.11051188544E+03  0.35862699819E+02  0.35327609892E+03  0.00000000000E+00 0.  1.
         -3    1    6    6    0  502 -0.31880493016E+03 -0.10028204404E+03  0.92268323360E+02  0.34670811260E+03  0.00000000000E+00 0.  1.
<mgrwt>
<rscale>  0 0.11773508E+04</rscale>
<asrwt>0</asrwt>
<pdfrwt beam="1">  1        2 0.14961952E+00 0.11773508E+04</pdfrwt>
<pdfrwt beam="2">  1       -2 0.54819715E-01 0.11773508E+04</pdfrwt>
<totfact> 0.81174795E+01</totfact>
</mgrwt>
</event>
<event>
12    1  0.1532786E-007  0.2296358E+04  0.7818608E-02  0.8479358E-01
          2   -1    0    0  501    0  0.00000000000E+00  0.00000000000E+00  0.30933263589E+04  0.30933263589E+04  0.00000000000E+00 0.  1.
         -2   -1    0    0    0  501 -0.00000000000E+00 -0.00000000000E+00 -0.42618050053E+03  0.42618050053E+03  0.00000000000E+00 0. -1.
         23    2    1    2    0    0 -0.31657695773E+03 -0.21553956630E+03 -0.25411798693E+03  0.46845236315E+03  0.90517348896E+02 0.  0.
        254    2    1    2    0    0  0.31657695773E+03  0.21553956630E+03  0.29212638453E+04  0.30510544963E+04  0.79276277076E+03 0.  0.
        -24    2    4    4    0    0  0.16876773521E+03 -0.27876987740E+03  0.14865874334E+04  0.15239972570E+04  0.80188835140E+02 0.  0.
         24    2    4    4    0    0  0.14780922252E+03  0.49430944370E+03  0.14346764120E+04  0.15270572393E+04  0.86127886075E+02 0.  0.
         11    1    3    3    0    0 -0.15290689585E+03 -0.91542304562E+02 -0.66219665587E+02  0.19011984755E+03  0.00000000000E+00 0.  1.
        -11    1    3    3    0    0 -0.16367006188E+03 -0.12399726174E+03 -0.18789832134E+03  0.27833251559E+03  0.00000000000E+00 0. -1.
          2    1    6    6  502    0  0.15176046710E+02  0.15081738543E+03  0.34434003659E+03  0.37622633738E+03  0.00000000000E+00 0. -1.
          3    1    5    5  503    0  0.30951118560E+02 -0.12125933189E+03  0.49633328216E+03  0.51186768240E+03  0.00000000000E+00 0. -1.
         -4    1    5    5    0  503  0.13781661665E+03 -0.15751054551E+03  0.99025415122E+03  0.10121295746E+04  0.00000000000E+00 0.  1.
         -1    1    6    6    0  502  0.13263317581E+03  0.34349205827E+03  0.10903363754E+04  0.11508309019E+04  0.00000000000E+00 0.  1.
<mgrwt>
<rscale>  0 0.22963583E+04</rscale>
<asrwt>0</asrwt>
<pdfrwt beam="1">  1        2 0.47589635E+00 0.22963583E+04</pdfrwt>
<pdfrwt beam="2">  1       -2 0.65566233E-01 0.22963583E+04</pdfrwt>
<totfact> 0.29563353E+00</totfact>
</mgrwt>
</event>
<event>
12    1  0.1532786E-007  0.2520379E+04  0.7818608E-02  0.8395761E-01
          2   -1    0    0  501    0  0.00000000000E+00  0.00000000000E+00  0.13945733723E+04  0.13945733723E+04  0.00000000000E+00 0. -1.
         -2   -1    0    0    0  501 -0.00000000000E+00 -0.00000000000E+00 -0.11387550869E+04  0.11387550869E+04  0.00000000000E+00 0.  1.
         23    2    1    2    0    0  0.97865069088E+03  0.35606584270E+03 -0.67278389571E+02  0.10476192732E+04  0.91867844365E+02 0.  0.
        254    2    1    2    0    0 -0.97865069088E+03 -0.35606584270E+03  0.32309667502E+03  0.14857091860E+04  0.10091581962E+04 0.  0.
        -24    2    4    4    0    0 -0.40685932838E+03  0.20842947531E+03  0.47491609074E+03  0.66396903192E+03  0.79575265256E+02 0.  0.
         24    2    4    4    0    0 -0.57179136250E+03 -0.56449531802E+03 -0.15181941572E+03  0.82174015409E+03  0.81286035464E+02 0.  0.
         13    1    3    3    0    0  0.24057572997E+03  0.59681735018E+02  0.13058691550E+02  0.24821184656E+03  0.00000000000E+00 0. -1.
        -13    1    3    3    0    0  0.73807496090E+03  0.29638410768E+03 -0.80337081121E+02  0.79940742666E+03  0.00000000000E+00 0.  1.
          2    1    6    6  502    0 -0.54665066636E+03 -0.55896401600E+03 -0.14607736794E+03  0.79536552580E+03  0.00000000000E+00 0. -1.
          3    1    5    5  503    0 -0.22946975374E+03  0.15975501738E+03  0.30089963525E+03  0.41075372664E+03  0.00000000000E+00 0. -1.
         -4    1    5    5    0  503 -0.17738957464E+03  0.48674457937E+02  0.17401645549E+03  0.25321530528E+03  0.00000000000E+00 0.  1.
         -1    1    6    6    0  502 -0.25140696142E+02 -0.55313020163E+01 -0.57420477835E+01  0.26374628287E+02  0.00000000000E+00 0.  1.
<mgrwt>
<rscale>  0 0.25203790E+04</rscale>
<asrwt>0</asrwt>
<pdfrwt beam="1">  1        2 0.21454975E+00 0.25203790E+04</pdfrwt>
<pdfrwt beam="2">  1       -2 0.17519309E+00 0.25203790E+04</pdfrwt>
<totfact> 0.25420654E+00</totfact>
</mgrwt>
</event>
<event>
12    1  0.1532786E-007  0.1507907E+04  0.7818608E-02  0.8879212E-01
         -1   -1    0    0    0  501 -0.00000000000E+00  0.00000000000E+00  0.31821467506E+03  0.31821467506E+03  0.00000000000E+00 0.  1.
          1   -1    0    0  501    0  0.00000000000E+00 -0.00000000000E+00 -0.17863605942E+04  0.17863605942E+04  0.00000000000E+00 0. -1.
         23    2    1    2    0    0  0.37766414988E+03  0.14922972376E+03 -0.12172489785E+03  0.43330072629E+03  0.89626157381E+02 0.  0.
        254    2    1    2    0    0 -0.37766414988E+03 -0.14922972376E+03 -0.13464210213E+04  0.16712745430E+04  0.90300017214E+03 0.  0.
        -24    2    4    4    0    0 -0.94371860020E+02  0.36984465259E+03 -0.60804402126E+03  0.72249069381E+03  0.81142811379E+02 0.  0.
         24    2    4    4    0    0 -0.28329228986E+03 -0.51907437635E+03 -0.73837700004E+03  0.94878384918E+03  0.72783711112E+02 0.  0.
         11    1    3    3    0    0  0.15229569256E+03  0.10793636912E+03 -0.58468276933E+02  0.19560873488E+03  0.00000000000E+00 0. -1.
        -11    1    3    3    0    0  0.22536845732E+03  0.41293354636E+02 -0.63256620917E+02  0.23769199141E+03  0.00000000000E+00 0.  1.
          2    1    6    6  502    0 -0.74978582419E+02 -0.20806834975E+03 -0.28935283903E+03  0.36419677572E+03  0.00000000000E+00 0. -1.
          3    1    5    5  503    0 -0.31126190525E+02  0.26183184438E+02 -0.58118800996E+02  0.70937958196E+02  0.00000000000E+00 0. -1.
         -4    1    5    5    0  503 -0.63245669495E+02  0.34366146815E+03 -0.54992522027E+03  0.65155273562E+03  0.00000000000E+00 0.  1.
         -1    1    6    6    0  502 -0.20831370744E+03 -0.31100602660E+03 -0.44902416102E+03  0.58458707347E+03  0.00000000000E+00 0.  1.
<mgrwt>
<rscale>  0 0.15079074E+04</rscale>
<asrwt>0</asrwt>
<pdfrwt beam="1">  1        1 0.27482471E+00 0.15079074E+04</pdfrwt>
<pdfrwt beam="2">  1       -1 0.48956104E-01 0.15079074E+04</pdfrwt>
<totfact> 0.16814521E+01</totfact>
</mgrwt>
</event>
<event>
12    1  0.1532786E-007  0.1181965E+04  0.7818608E-02  0.9128791E-01
          1   -1    0    0  501    0  0.00000000000E+00  0.00000000000E+00  0.28024905039E+04  0.28024905039E+04  0.00000000000E+00 0. -1.
         -1   -1    0    0    0  501 -0.00000000000E+00 -0.00000000000E+00 -0.12462488872E+03  0.12462488872E+03  0.00000000000E+00 0.  1.
         23    2    1    2    0    0  0.18107757632E+03 -0.86360874546E+02  0.29462275371E+03  0.36894884570E+03  0.95254367060E+02 0.  0.
        254    2    1    2    0    0 -0.18107757632E+03  0.86360874546E+02  0.23832428615E+04  0.25581665469E+04  0.90781179531E+03 0.  0.
        -24    2    4    4    0    0  0.10967620600E+03 -0.29429220502E+03  0.39104495840E+03  0.50752295905E+03  0.77631323413E+02 0.  0.
         24    2    4    4    0    0 -0.29075378232E+03  0.38065307957E+03  0.19921979031E+04  0.20506435878E+04  0.82777475896E+02 0.  0.
         11    1    3    3    0    0  0.16026605891E+03 -0.49282833490E+02  0.17668615402E+03  0.24358161740E+03  0.00000000000E+00 0.  1.
        -11    1    3    3    0    0  0.20811517416E+02 -0.37078041056E+02  0.11793659969E+03  0.12536722830E+03  0.00000000000E+00 0. -1.
          4    1    6    6  502    0 -0.10027292088E+02 -0.31849399782E+01  0.46648178569E+02  0.47819901643E+02  0.00000000000E+00 0. -1.
          3    1    5    5  503    0  0.81856960146E+01 -0.42156536742E+02  0.10246428029E+03  0.11109954070E+03  0.00000000000E+00 0. -1.
         -4    1    5    5    0  503  0.10149050999E+03 -0.25213566828E+03  0.28858067811E+03  0.39642341835E+03  0.00000000000E+00 0.  1.
         -3    1    6    6    0  502 -0.28072649023E+03  0.38383801955E+03  0.19455497245E+04  0.20028236862E+04  0.00000000000E+00 0.  1.
<mgrwt>
<rscale>  0 0.11819646E+04</rscale>
<asrwt>0</asrwt>
<pdfrwt beam="1">  1        1 0.43115234E+00 0.11819646E+04</pdfrwt>
<pdfrwt beam="2">  1       -1 0.19173062E-01 0.11819646E+04</pdfrwt>
<totfact> 0.18250502E+01</totfact>
</mgrwt>
</event>
<event>
12    1  0.1532786E-007  0.1856066E+04  0.7818608E-02  0.8677040E-01
          1   -1    0    0  501    0  0.00000000000E+00  0.00000000000E+00  0.28314426373E+04  0.28314426373E+04  0.00000000000E+00 0. -1.
         -1   -1    0    0    0  501 -0.00000000000E+00 -0.00000000000E+00 -0.30417177975E+03  0.30417177975E+03  0.00000000000E+00 0.  1.
         23    2    1    2    0    0  0.50416558301E+03  0.25205921918E+03  0.24573642999E+03  0.62145338894E+03  0.90006313873E+02 0.  0.
        254    2    1    2    0    0 -0.50416558301E+03 -0.25205921918E+03  0.22815344275E+04  0.25141610281E+04  0.89324663224E+03 0.  0.
        -24    2    4    4    0    0  0.28306656845E+02  0.15837292409E+03  0.13536947035E+04  0.13656885779E+04  0.82052980600E+02 0.  0.
         24    2    4    4    0    0 -0.53247223985E+03 -0.41043214327E+03  0.92783972406E+03  0.11484724502E+04  0.78238001518E+02 0.  0.
         13    1    3    3    0    0  0.48954522514E+02  0.50213497922E+02  0.11151541875E+02  0.71009136977E+02  0.00000000000E+00 0. -1.
        -13    1    3    3    0    0  0.45521106049E+03  0.20184572126E+03  0.23458488811E+03  0.55044425196E+03  0.00000000000E+00 0.  1.
          4    1    6    6  502    0 -0.19157455602E+03 -0.10375505990E+03  0.28009644334E+03  0.35485199808E+03  0.00000000000E+00 0. -1.
          1    1    5    5  503    0  0.17067193769E+02  0.35428878347E+01  0.31240525750E+03  0.31289117289E+03  0.00000000000E+00 0. -1.
         -2    1    5    5    0  503  0.11239463075E+02  0.15483003625E+03  0.10412894460E+04  0.10527974050E+04  0.00000000000E+00 0.  1.
         -3    1    6    6    0  502 -0.34089768383E+03 -0.30667708337E+03  0.64774328072E+03  0.79362045212E+03  0.00000000000E+00 0.  1.
<mgrwt>
<rscale>  0 0.18560657E+04</rscale>
<asrwt>0</asrwt>
<pdfrwt beam="1">  1        1 0.43560654E+00 0.18560657E+04</pdfrwt>
<pdfrwt beam="2">  1       -1 0.46795660E-01 0.18560657E+04</pdfrwt>
<totfact> 0.33886638E+00</totfact>
</mgrwt>
</event>
<event>
12    1  0.1532786E-007  0.2131154E+04  0.7818608E-02  0.8547642E-01
          2   -1    0    0  501    0  0.00000000000E+00  0.00000000000E+00  0.19806302677E+04  0.19806302677E+04  0.00000000000E+00 0. -1.
         -2   -1    0    0    0  501 -0.00000000000E+00 -0.00000000000E+00 -0.57327945753E+03  0.57327945753E+03  0.00000000000E+00 0.  1.
         23    2    1    2    0    0 -0.27108689355E+03  0.10531142327E+03  0.15657301431E+04  0.15951322786E+04  0.91419393650E+02 0.  0.
        254    2    1    2    0    0  0.27108689355E+03 -0.10531142327E+03 -0.15837933291E+03  0.95877744665E+03  0.89977307105E+03 0.  0.
        -24    2    4    4    0    0  0.54931497854E+03 -0.19230799467E+03  0.53067409922E+02  0.58998106133E+03  0.80821978923E+02 0.  0.
         24    2    4    4    0    0 -0.27822808499E+03  0.86996571406E+02 -0.21144674283E+03  0.36879638531E+03  0.79509609825E+02 0.  0.
         11    1    3    3    0    0 -0.11746502666E+03  0.52219928511E+01  0.49161756680E+03  0.50548306963E+03  0.00000000000E+00 0.  1.
        -11    1    3    3    0    0 -0.15362186689E+03  0.10008943042E+03  0.10741125763E+04  0.10896492090E+04  0.00000000000E+00 0. -1.
          4    1    6    6  502    0 -0.17574943350E+03  0.52594497560E+02 -0.17807049288E+03  0.25566216964E+03  0.00000000000E+00 0. -1.
          1    1    5    5  503    0  0.48507825428E+03 -0.18526990120E+03  0.67910691825E+02  0.52367710579E+03  0.00000000000E+00 0. -1.
         -2    1    5    5    0  503  0.64236724260E+02 -0.70380934748E+01 -0.14843281903E+02  0.66303955546E+02  0.00000000000E+00 0.  1.
         -3    1    6    6    0  502 -0.10247865148E+03  0.34402073847E+02 -0.33376249945E+02  0.11313421567E+03  0.00000000000E+00 0.  1.
<mgrwt>
<rscale>  0 0.21311543E+04</rscale>
<asrwt>0</asrwt>
<pdfrwt beam="1">  1        2 0.30471235E+00 0.21311543E+04</pdfrwt>
<pdfrwt beam="2">  1       -2 0.88196840E-01 0.21311543E+04</pdfrwt>
<totfact> 0.69704440E+00</totfact>
</mgrwt>
</event>
<event>
12    1  0.1532786E-007  0.1468635E+04  0.7818608E-02  0.8905582E-01
         -2   -1    0    0    0  501 -0.00000000000E+00  0.00000000000E+00  0.57315164582E+03  0.57315164582E+03  0.00000000000E+00 0.  1.
          2   -1    0    0  501    0  0.00000000000E+00 -0.00000000000E+00 -0.94080256950E+03  0.94080256950E+03  0.00000000000E+00 0. -1.
         23    2    1    2    0    0 -0.34891318946E+03 -0.24633404231E+03  0.45856510944E+02  0.43927522373E+03  0.91864184579E+02 0.  0.
        254    2    1    2    0    0  0.34891318946E+03  0.24633404231E+03 -0.41350743462E+03  0.10746789916E+04  0.89527965592E+03 0.  0.
        -24    2    4    4    0    0  0.42920554358E+03 -0.10551876294E+03  0.82622596196E+02  0.45623020862E+03  0.77252196629E+02 0.  0.
         24    2    4    4    0    0 -0.80292354116E+02  0.35185280525E+03 -0.49613003082E+03  0.61844878297E+03  0.78016863479E+02 0.  0.
         13    1    3    3    0    0 -0.88334805971E+01 -0.45321085975E+01 -0.14582264050E+02  0.17641224805E+02  0.00000000000E+00 0. -1.
        -13    1    3    3    0    0 -0.34007970886E+03 -0.24180193371E+03  0.60438774994E+02  0.42163399893E+03  0.00000000000E+00 0.  1.
          4    1    6    6  502    0 -0.92136899520E+02  0.26690921568E+03 -0.39998032030E+03  0.48960595819E+03  0.00000000000E+00 0. -1.
          1    1    5    5  503    0  0.39386022248E+03 -0.11806734208E+03  0.75212151102E+02  0.41799837295E+03  0.00000000000E+00 0. -1.
         -2    1    5    5    0  503  0.35345321097E+02  0.12548579139E+02  0.74104450937E+01  0.38231835665E+02  0.00000000000E+00 0.  1.
         -3    1    6    6    0  502  0.11844545404E+02  0.84943589568E+02 -0.96149710517E+02  0.12884282478E+03  0.00000000000E+00 0.  1.
<mgrwt>
<rscale>  0 0.14686355E+04</rscale>
<asrwt>0</asrwt>
<pdfrwt beam="1">  1        2 0.14473886E+00 0.14686355E+04</pdfrwt>
<pdfrwt beam="2">  1       -2 0.88177177E-01 0.14686355E+04</pdfrwt>
<totfact> 0.29547115E+01</totfact>
</mgrwt>
</event>
<event>
12    1  0.1532786E-007  0.1755837E+04  0.7818608E-02  0.8730144E-01
         -1   -1    0    0    0  501 -0.00000000000E+00  0.00000000000E+00  0.54828987967E+03  0.54828987967E+03  0.00000000000E+00 0.  1.
          1   -1    0    0  501    0  0.00000000000E+00 -0.00000000000E+00 -0.14057174558E+04  0.14057174558E+04  0.00000000000E+00 0. -1.
         23    2    1    2    0    0 -0.33168405559E+03  0.11605408068E+03 -0.91727710295E+03  0.98656009227E+03  0.91764206982E+02 0.  0.
        254    2    1    2    0    0  0.33168405559E+03 -0.11605408068E+03  0.59849526826E+02  0.96744724319E+03  0.89938275507E+03 0.  0.
        -24    2    4    4    0    0  0.39561323108E+03  0.33161772610E+02 -0.33955354884E+03  0.52824431386E+03  0.78332054924E+02 0.  0.
         24    2    4    4    0    0 -0.63929175490E+02 -0.14921585329E+03  0.39940307566E+03  0.43920292933E+03  0.83809820013E+02 0.  0.
         13    1    3    3    0    0 -0.31176514977E+03  0.80558589791E+02 -0.82940571277E+03  0.88971963639E+03  0.00000000000E+00 0. -1.
        -13    1    3    3    0    0 -0.19918905824E+02  0.35495490892E+02 -0.87871390178E+02  0.96840455879E+02  0.00000000000E+00 0.  1.
          2    1    6    6  502    0 -0.20873366055E+01 -0.75146051703E+02  0.10318731858E+03  0.12766717971E+03  0.00000000000E+00 0. -1.
          1    1    5    5  503    0  0.33817426849E+02  0.24898275854E+02 -0.45790689282E+02  0.62131551760E+02  0.00000000000E+00 0. -1.
         -2    1    5    5    0  503  0.36179580423E+03  0.82634967565E+01 -0.29376285956E+03  0.46611276210E+03  0.00000000000E+00 0.  1.
         -1    1    6    6    0  502 -0.61841838884E+02 -0.74069801590E+02  0.29621575708E+03  0.31153574962E+03  0.00000000000E+00 0.  1.
<mgrwt>
<rscale>  0 0.17558367E+04</rscale>
<asrwt>0</asrwt>
<pdfrwt beam="1">  1        1 0.21626422E+00 0.17558367E+04</pdfrwt>
<pdfrwt beam="2">  1       -1 0.84352289E-01 0.17558367E+04</pdfrwt>
<totfact> 0.10035978E+01</totfact>
</mgrwt>
</event>
<event>
12    1  0.1532786E-007  0.1895496E+04  0.7818608E-02  0.8657101E-01
          2   -1    0    0  501    0  0.00000000000E+00  0.00000000000E+00  0.31949915475E+04  0.31949915475E+04  0.00000000000E+00 0.  1.
         -2   -1    0    0    0  501 -0.00000000000E+00 -0.00000000000E+00 -0.28113581591E+03  0.28113581591E+03  0.00000000000E+00 0. -1.
         23    2    1    2    0    0 -0.62616138170E+03 -0.36082376334E+03  0.14707586252E+04  0.16407577802E+04  0.81751426700E+02 0.  0.
        254    2    1    2    0    0  0.62616138170E+03  0.36082376334E+03  0.14430971064E+04  0.18353695832E+04  0.87394529818E+03 0.  0.
        -24    2    4    4    0    0 -0.64355045218E+02 -0.20328566538E+03  0.39771981273E+03  0.45888605075E+03  0.83238960485E+02 0.  0.
         24    2    4    4    0    0  0.69051642692E+03  0.56410942872E+03  0.10453772937E+04  0.13764835324E+04  0.82830220851E+02 0.  0.
         13    1    3    3    0    0 -0.30653408543E+03 -0.19017718514E+03  0.64544240779E+03  0.73940950024E+03  0.00000000000E+00 0.  1.
        -13    1    3    3    0    0 -0.31962729627E+03 -0.17064657821E+03  0.82531621738E+03  0.90134827999E+03  0.00000000000E+00 0. -1.
          2    1    6    6  502    0  0.35252869546E+02  0.27309216544E+02  0.28095354095E+02  0.52705853956E+02  0.00000000000E+00 0. -1.
          1    1    5    5  503    0  0.20299765530E+02 -0.39934996553E+02  0.72138579683E+02  0.84916777547E+02  0.00000000000E+00 0. -1.
         -2    1    5    5    0  503 -0.84654810749E+02 -0.16335066883E+03  0.32558123305E+03  0.37396927321E+03  0.00000000000E+00 0.  1.
         -3    1    6    6    0  502  0.65526355737E+03  0.53680021218E+03  0.10172819396E+04  0.13237776785E+04  0.00000000000E+00 0.  1.
<mgrwt>
<rscale>  0 0.18954963E+04</rscale>
<asrwt>0</asrwt>
<pdfrwt beam="1">  1        2 0.49153714E+00 0.18954963E+04</pdfrwt>
<pdfrwt beam="2">  1       -2 0.43251666E-01 0.18954963E+04</pdfrwt>
<totfact> 0.62317787E+00</totfact>
</mgrwt>
</event>
<event>
12    1  0.1764610E-007  0.1216459E+04  0.7818608E-02  0.9098571E-01
         -2   -1    0    0    0  501 -0.00000000000E+00  0.00000000000E+00  0.45933008350E+03  0.45933008350E+03  0.00000000000E+00 0.  1.
          2   -1    0    0  501    0  0.00000000000E+00 -0.00000000000E+00 -0.80539700220E+03  0.80539700220E+03  0.00000000000E+00 0. -1.
         23    2    1    2    0    0  0.14331400017E+03  0.12374039936E+03 -0.27245239215E+03  0.34433296684E+03  0.92110243651E+02 0.  0.
        254    2    1    2    0    0 -0.14331400017E+03 -0.12374039936E+03 -0.73614526551E+02  0.92039411886E+03  0.89769462872E+03 0.  0.
        -24    2    4    4    0    0  0.45148470264E+02 -0.35707277329E+03  0.27021263024E+03  0.45690612771E+03  0.78797171304E+02 0.  0.
         24    2    4    4    0    0 -0.18846247043E+03  0.23333237393E+03 -0.34382715679E+03  0.46348799115E+03  0.81497881587E+02 0.  0.
         13    1    3    3    0    0  0.41911584993E+00 -0.38348069311E+01 -0.52573667347E+02  0.52715006408E+02  0.00000000000E+00 0.  1.
        -13    1    3    3    0    0  0.14289488432E+03  0.12757520629E+03 -0.21987872480E+03  0.29161796043E+03  0.00000000000E+00 0. -1.
          4    1    6    6  502    0 -0.27891655147E+02  0.16701890448E+01 -0.42631383190E+02  0.50972235492E+02  0.00000000000E+00 0. -1.
          1    1    5    5  503    0  0.10101308779E+02 -0.33785826663E+02  0.60312611952E+02  0.69865082000E+02  0.00000000000E+00 0. -1.
         -2    1    5    5    0  503  0.35047161485E+02 -0.32328694663E+03  0.20990001829E+03  0.38704104571E+03  0.00000000000E+00 0.  1.
         -3    1    6    6    0  502 -0.16057081528E+03  0.23166218489E+03 -0.30119577360E+03  0.41251575566E+03  0.00000000000E+00 0.  1.
<mgrwt>
<rscale>  0 0.12164589E+04</rscale>
<asrwt>0</asrwt>
<pdfrwt beam="1">  1        2 0.12390723E+00 0.12164589E+04</pdfrwt>
<pdfrwt beam="2">  1       -2 0.70666167E-01 0.12164589E+04</pdfrwt>
<totfact> 0.61295439E+01</totfact>
</mgrwt>
</event>
<event>
12    1  0.1532786E-007  0.1349114E+04  0.7818608E-02  0.8991499E-01
          2   -1    0    0  501    0  0.00000000000E+00  0.00000000000E+00  0.14608450483E+04  0.14608450483E+04  0.00000000000E+00 0. -1.
         -2   -1    0    0    0  501 -0.00000000000E+00 -0.00000000000E+00 -0.31148202957E+03  0.31148202957E+03  0.00000000000E+00 0.  1.
         23    2    1    2    0    0  0.72898714545E+02  0.10061108043E+03  0.69936779679E+03  0.71611442598E+03  0.90927134724E+02 0.  0.
        254    2    1    2    0    0 -0.72898714545E+02 -0.10061108043E+03  0.44999522197E+03  0.10562126519E+04  0.94744533044E+03 0.  0.
        -24    2    4    4    0    0  0.26453201501E+03  0.91727107386E+01 -0.17975725982E+03  0.32902996635E+03  0.76724967973E+02 0.  0.
         24    2    4    4    0    0 -0.33743072955E+03 -0.10978379117E+03  0.62975248178E+03  0.72718268557E+03  0.79337833471E+02 0.  0.
         11    1    3    3    0    0  0.70782883306E+02  0.98803742135E+02  0.70190401007E+03  0.71234937733E+03  0.00000000000E+00 0. -1.
        -11    1    3    3    0    0  0.21158312393E+01  0.18073382990E+01 -0.25362132817E+01  0.37650486545E+01  0.00000000000E+00 0.  1.
          4    1    6    6  502    0 -0.13172617954E+03 -0.65726533245E+01  0.19769335004E+03  0.23765026151E+03  0.00000000000E+00 0. -1.
          3    1    5    5  503    0  0.45819191633E+00 -0.92479880941E+01 -0.38672130091E+00  0.92674040047E+01  0.00000000000E+00 0. -1.
         -4    1    5    5    0  503  0.26407382309E+03  0.18420698833E+02 -0.17937053851E+03  0.31976256234E+03  0.00000000000E+00 0.  1.
         -3    1    6    6    0  502 -0.20570455001E+03 -0.10321113785E+03  0.43205913175E+03  0.48953242405E+03  0.00000000000E+00 0.  1.
<mgrwt>
<rscale>  0 0.13491138E+04</rscale>
<asrwt>0</asrwt>
<pdfrwt beam="1">  1        2 0.22474539E+00 0.13491138E+04</pdfrwt>
<pdfrwt beam="2">  1       -2 0.47920313E-01 0.13491138E+04</pdfrwt>
<totfact> 0.53827017E+01</totfact>
</mgrwt>
</event>
<event>
12    1  0.1532786E-007  0.2402283E+04  0.7818608E-02  0.8438649E-01
         -1   -1    0    0    0  501 -0.00000000000E+00  0.00000000000E+00  0.96362687117E+03  0.96362687117E+03  0.00000000000E+00 0.  1.
          1   -1    0    0  501    0  0.00000000000E+00 -0.00000000000E+00 -0.14971985214E+04  0.14971985214E+04  0.00000000000E+00 0. -1.
         23    2    1    2    0    0  0.67749157969E+03  0.24701594741E+03  0.53195675488E+03  0.90060022484E+03  0.89950303551E+02 0.  0.
        254    2    1    2    0    0 -0.67749157969E+03 -0.24701594741E+03 -0.10655284051E+04  0.15602251677E+04  0.88257581717E+03 0.  0.
        -24    2    4    4    0    0 -0.12372480053E+03  0.46634863713E+02  0.13381060465E+03  0.20428632509E+03  0.79655432475E+02 0.  0.
         24    2    4    4    0    0 -0.55376677915E+03 -0.29365081112E+03 -0.11993390097E+04  0.13559388426E+04  0.85250454786E+02 0.  0.
         13    1    3    3    0    0  0.30114398776E+03  0.90980184613E+02  0.18147194103E+03  0.36317648704E+03  0.00000000000E+00 0.  1.
        -13    1    3    3    0    0  0.37634759193E+03  0.15603576279E+03  0.35048481384E+03  0.53742373780E+03  0.00000000000E+00 0. -1.
          2    1    6    6  502    0 -0.53098615490E+03 -0.26733954256E+03 -0.11596503503E+04  0.13031522024E+04  0.00000000000E+00 0. -1.
          3    1    5    5  503    0 -0.26242157868E+02  0.14448752618E+01  0.79822214723E+02  0.84037637267E+02  0.00000000000E+00 0. -1.
         -4    1    5    5    0  503 -0.97482642665E+02  0.45189988451E+02  0.53988389929E+02  0.12024868783E+03  0.00000000000E+00 0.  1.
         -1    1    6    6    0  502 -0.22780624255E+02 -0.26311268560E+02 -0.39688659447E+02  0.52786640198E+02  0.00000000000E+00 0.  1.
<mgrwt>
<rscale>  0 0.24022829E+04</rscale>
<asrwt>0</asrwt>
<pdfrwt beam="1">  1        1 0.23033823E+00 0.24022829E+04</pdfrwt>
<pdfrwt beam="2">  1       -1 0.14825029E+00 0.24022829E+04</pdfrwt>
<totfact> 0.21200856E+00</totfact>
</mgrwt>
</event>
<event>
12    1  0.1532786E-007  0.1280240E+04  0.7818608E-02  0.9045383E-01
         -2   -1    0    0    0  501 -0.00000000000E+00  0.00000000000E+00  0.79778643280E+03  0.79778643280E+03  0.00000000000E+00 0. -1.
          2   -1    0    0  501    0  0.00000000000E+00 -0.00000000000E+00 -0.51361312503E+03  0.51361312503E+03  0.00000000000E+00 0.  1.
         23    2    1    2    0    0  0.11525489027E+03  0.17817200762E+03 -0.15875082459E+03  0.28030236022E+03  0.91316125661E+02 0.  0.
        254    2    1    2    0    0 -0.11525489027E+03 -0.17817200762E+03  0.44292413236E+03  0.10310971976E+04  0.90661496230E+03 0.  0.
        -24    2    4    4    0    0  0.26430958684E+02  0.12250340029E+03 -0.23101757710E+03  0.27509007116E+03  0.81238830991E+02 0.  0.
         24    2    4    4    0    0 -0.14168584895E+03 -0.30067540791E+03  0.67394170946E+03  0.75600712645E+03  0.82878023516E+02 0.  0.
         13    1    3    3    0    0  0.81504939986E+02  0.83422067012E+02 -0.36954182898E+02  0.12234340252E+03  0.00000000000E+00 0. -1.
        -13    1    3    3    0    0  0.33749950284E+02  0.94749940611E+02 -0.12179664170E+03  0.15795895770E+03  0.00000000000E+00 0.  1.
          2    1    6    6  502    0  0.42240571904E+01 -0.24376207203E+02  0.94542057328E+02  0.97725343389E+02  0.00000000000E+00 0. -1.
          1    1    5    5  503    0  0.34512551430E+02  0.25928554842E+02 -0.32013099260E+02  0.53742391895E+02  0.00000000000E+00 0. -1.
         -2    1    5    5    0  503 -0.80815927453E+01  0.96574845446E+02 -0.19900447784E+03  0.22134767926E+03  0.00000000000E+00 0.  1.
         -1    1    6    6    0  502 -0.14590990614E+03 -0.27629920071E+03  0.57939965213E+03  0.65828178307E+03  0.00000000000E+00 0.  1.
<mgrwt>
<rscale>  0 0.12802400E+04</rscale>
<asrwt>0</asrwt>
<pdfrwt beam="1">  1        2 0.79017404E-01 0.12802400E+04</pdfrwt>
<pdfrwt beam="2">  1       -2 0.12273637E+00 0.12802400E+04</pdfrwt>
<totfact> 0.29391303E+01</totfact>
</mgrwt>
</event>
<event>
12    1  0.1532786E-007  0.1811698E+04  0.7818608E-02  0.8700103E-01
          2   -1    0    0  501    0  0.00000000000E+00  0.00000000000E+00  0.35701017815E+04  0.35701017815E+04  0.00000000000E+00 0. -1.
         -2   -1    0    0    0  501 -0.00000000000E+00 -0.00000000000E+00 -0.22984295370E+03  0.22984295370E+03  0.00000000000E+00 0.  1.
         23    2    1    2    0    0 -0.48639909645E+03  0.28713047118E+03  0.47238254864E+03  0.74191769943E+03  0.90931908359E+02 0.  0.
        254    2    1    2    0    0  0.48639909645E+03 -0.28713047118E+03  0.28678762792E+04  0.30580270358E+04  0.89876972045E+03 0.  0.
        -24    2    4    4    0    0  0.74322884640E+02 -0.47241448031E+03  0.21711339378E+04  0.22246279262E+04  0.80296338658E+02 0.  0.
         24    2    4    4    0    0  0.41207621181E+03  0.18528400913E+03  0.69674234137E+03  0.83339910952E+03  0.70478486959E+02 0.  0.
         11    1    3    3    0    0 -0.45448276470E+03  0.27030313928E+03  0.40716250874E+03  0.66738270807E+03  0.00000000000E+00 0.  1.
        -11    1    3    3    0    0 -0.31916331748E+02  0.16827331902E+02  0.65220039907E+02  0.74534991357E+02  0.00000000000E+00 0. -1.
          2    1    6    6  502    0  0.41394260221E+03  0.18160501032E+03  0.69464690306E+03  0.82877209028E+03  0.00000000000E+00 0. -1.
          1    1    5    5  503    0 -0.98270116458E+01 -0.18280053943E+03  0.85591575753E+03  0.87527389505E+03  0.00000000000E+00 0. -1.
         -2    1    5    5    0  503  0.84149896285E+02 -0.28961394088E+03  0.13152181803E+04  0.13493540312E+04  0.00000000000E+00 0.  1.
         -1    1    6    6    0  502 -0.18663904019E+01  0.36789988073E+01  0.20954383032E+01  0.46270192391E+01  0.00000000000E+00 0.  1.
<mgrwt>
<rscale>  0 0.18116984E+04</rscale>
<asrwt>0</asrwt>
<pdfrwt beam="1">  1        2 0.54924639E+00 0.18116984E+04</pdfrwt>
<pdfrwt beam="2">  1       -2 0.35360457E-01 0.18116984E+04</pdfrwt>
<totfact> 0.51842784E+00</totfact>
</mgrwt>
</event>
<event>
12    1  0.1532786E-007  0.1311231E+04  0.7818608E-02  0.9020706E-01
         -2   -1    0    0    0  501 -0.00000000000E+00  0.00000000000E+00  0.52172774680E+03  0.52172774680E+03  0.00000000000E+00 0. -1.
          2   -1    0    0  501    0  0.00000000000E+00 -0.00000000000E+00 -0.82386222249E+03  0.82386222249E+03  0.00000000000E+00 0.  1.
         23    2    1    2    0    0 -0.81564908425E+01 -0.29751963084E+03  0.94541473114E+02  0.32538715133E+03  0.91401581118E+02 0.  0.
        254    2    1    2    0    0  0.81564908425E+01  0.29751963084E+03 -0.39667594881E+03  0.10202028180E+04  0.89155904029E+03 0.  0.
        -24    2    4    4    0    0  0.24774434411E+03  0.38325293104E+03 -0.54523824906E+03  0.71532531423E+03  0.78393161355E+02 0.  0.
         24    2    4    4    0    0 -0.23958785326E+03 -0.85733300196E+02  0.14856230025E+03  0.30487750373E+03  0.78275136748E+02 0.  0.
         13    1    3    3    0    0 -0.41784999800E+02 -0.82102510620E+02  0.41279503864E+02  0.10094952153E+03  0.00000000000E+00 0.  1.
        -13    1    3    3    0    0  0.33628508957E+02 -0.21541712022E+03  0.53261969250E+02  0.22443762979E+03  0.00000000000E+00 0. -1.
          4    1    6    6  502    0 -0.20095604458E+03 -0.49762347475E+02  0.14340087920E+03  0.25184009855E+03  0.00000000000E+00 0. -1.
          1    1    5    5  503    0  0.13199950201E+03  0.17753274274E+03 -0.32024144062E+03  0.38922528640E+03  0.00000000000E+00 0. -1.
         -2    1    5    5    0  503  0.11574484209E+03  0.20572018830E+03 -0.22499680844E+03  0.32610002783E+03  0.00000000000E+00 0.  1.
         -3    1    6    6    0  502 -0.38631808685E+02 -0.35970952721E+02  0.51614210488E+01  0.53037405189E+02  0.00000000000E+00 0.  1.
<mgrwt>
<rscale>  0 0.13112311E+04</rscale>
<asrwt>0</asrwt>
<pdfrwt beam="1">  1        2 0.12674803E+00 0.13112311E+04</pdfrwt>
<pdfrwt beam="2">  1       -2 0.80265808E-01 0.13112311E+04</pdfrwt>
<totfact> 0.44516177E+01</totfact>
</mgrwt>
</event>
<event>
12    1  0.1532786E-007  0.2100760E+04  0.7818608E-02  0.8560909E-01
         -1   -1    0    0    0  501 -0.00000000000E+00  0.00000000000E+00  0.11487149112E+04  0.11487149112E+04  0.00000000000E+00 0.  1.
          1   -1    0    0  501    0  0.00000000000E+00 -0.00000000000E+00 -0.96046316177E+03  0.96046316177E+03  0.00000000000E+00 0. -1.
         23    2    1    2    0    0 -0.66670137294E+03 -0.30181062019E+03 -0.38193879284E+03  0.83059065609E+03  0.91778131177E+02 0.  0.
        254    2    1    2    0    0  0.66670137294E+03  0.30181062019E+03  0.57019054232E+03  0.12785874169E+04  0.87982279865E+03 0.  0.
        -24    2    4    4    0    0  0.28660630484E+03  0.58630187205E+03  0.27126695137E+03  0.71127948547E+03  0.80247669100E+02 0.  0.
         24    2    4    4    0    0  0.38009506810E+03 -0.28449125186E+03  0.29892359095E+03  0.56730793146E+03  0.84115650644E+02 0.  0.
         11    1    3    3    0    0 -0.55647350307E+03 -0.27454378365E+03 -0.29224802633E+03  0.68589063097E+03  0.00000000000E+00 0.  1.
        -11    1    3    3    0    0 -0.11022786987E+03 -0.27266836537E+02 -0.89690766512E+02  0.14470002512E+03  0.00000000000E+00 0. -1.
          4    1    6    6  502    0  0.24970599977E+03 -0.19450805693E+03  0.15154155294E+03  0.35092921337E+03  0.00000000000E+00 0. -1.
          3    1    5    5  503    0  0.24829990581E+03  0.54649906043E+03  0.26328543852E+03  0.65546417783E+03  0.00000000000E+00 0. -1.
         -4    1    5    5    0  503  0.38306399030E+02  0.39802811623E+02  0.79815128445E+01  0.55815307640E+02  0.00000000000E+00 0.  1.
         -3    1    6    6    0  502  0.13038906834E+03 -0.89983194929E+02  0.14738203801E+03  0.21637871808E+03  0.00000000000E+00 0.  1.
<mgrwt>
<rscale>  0 0.21007602E+04</rscale>
<asrwt>0</asrwt>
<pdfrwt beam="1">  1        1 0.14776356E+00 0.21007602E+04</pdfrwt>
<pdfrwt beam="2">  1       -1 0.17672537E+00 0.21007602E+04</pdfrwt>
<totfact> 0.32857464E+00</totfact>
</mgrwt>
</event>
<event>
12    1  0.1532786E-007  0.1947752E+04  0.7818608E-02  0.8631445E-01
          2   -1    0    0  501    0  0.00000000000E+00  0.00000000000E+00  0.49266935816E+03  0.49266935816E+03  0.00000000000E+00 0. -1.
         -2   -1    0    0    0  501 -0.00000000000E+00 -0.00000000000E+00 -0.19250934941E+04  0.19250934941E+04  0.00000000000E+00 0.  1.
         23    2    1    2    0    0 -0.62413292093E+03  0.25725979079E+03 -0.10024673336E+04  0.12120928783E+04  0.92216526258E+02 0.  0.
        254    2    1    2    0    0  0.62413292093E+03 -0.25725979079E+03 -0.42995680233E+03  0.12056699740E+04  0.90169436691E+03 0.  0.
        -24    2    4    4    0    0  0.34117970502E+02 -0.24109931128E+03  0.20983230504E+03  0.33159923844E+03  0.81458853943E+02 0.  0.
         24    2    4    4    0    0  0.59001495043E+03 -0.16160479513E+02 -0.63978910737E+03  0.87407073554E+03  0.79314223022E+02 0.  0.
         11    1    3    3    0    0 -0.30071064830E+03  0.99297059569E+02 -0.39852106857E+03  0.50902440230E+03  0.00000000000E+00 0.  1.
        -11    1    3    3    0    0 -0.32342227264E+03  0.15796273122E+03 -0.60394626504E+03  0.70306847600E+03  0.00000000000E+00 0. -1.
          2    1    6    6  502    0  0.10922290735E+03 -0.17793769970E+02 -0.82415226504E+02  0.13798018444E+03  0.00000000000E+00 0. -1.
          1    1    5    5  503    0  0.56438544095E+02 -0.20647528961E+03  0.16180508622E+03  0.26832487847E+03  0.00000000000E+00 0. -1.
         -2    1    5    5    0  503 -0.22320573593E+02 -0.34624021668E+02  0.48027218823E+02  0.63274359972E+02  0.00000000000E+00 0.  1.
         -1    1    6    6    0  502  0.48079204308E+03  0.16332904575E+01 -0.55737388087E+03  0.73609055109E+03  0.00000000000E+00 0.  1.
<mgrwt>
<rscale>  0 0.19477521E+04</rscale>
<asrwt>0</asrwt>
<pdfrwt beam="1">  1        2 0.75795285E-01 0.19477521E+04</pdfrwt>
<pdfrwt beam="2">  1       -2 0.29616823E+00 0.19477521E+04</pdfrwt>
<totfact> 0.19628605E+00</totfact>
</mgrwt>
</event>
<event>
12    1  0.1532786E-007  0.2028794E+04  0.7818608E-02  0.8593276E-01
         -1   -1    0    0    0  501 -0.00000000000E+00  0.00000000000E+00  0.52608289089E+03  0.52608289089E+03  0.00000000000E+00 0.  1.
          1   -1    0    0  501    0  0.00000000000E+00 -0.00000000000E+00 -0.19559675791E+04  0.19559675791E+04  0.00000000000E+00 0. -1.
         23    2    1    2    0    0  0.42821365698E+03  0.20950783916E+03 -0.13730455586E+04  0.14572451669E+04  0.10511374662E+03 0.  0.
        254    2    1    2    0    0 -0.42821365698E+03 -0.20950783916E+03 -0.56839129564E+02  0.10248053031E+04  0.90539204319E+03 0.  0.
        -24    2    4    4    0    0  0.22060295817E+03  0.72317999305E+01 -0.21539502933E+03  0.31846689439E+03  0.79424052284E+02 0.  0.
         24    2    4    4    0    0 -0.64881661515E+03 -0.21673963909E+03  0.15855589976E+03  0.70633840868E+03  0.76386536681E+02 0.  0.
         11    1    3    3    0    0  0.35556842748E+03  0.17162511473E+03 -0.12365128690E+04  0.12980170113E+04  0.00000000000E+00 0. -1.
        -11    1    3    3    0    0  0.72645229494E+02  0.37882724423E+02 -0.13653268967E+03  0.15922815557E+03  0.00000000000E+00 0.  1.
          4    1    6    6  502    0 -0.43599006536E+02  0.46980243990E+01  0.94168246022E+01  0.44851102436E+02  0.00000000000E+00 0. -1.
          3    1    5    5  503    0  0.18886996808E+03 -0.22675657173E+02 -0.16490309487E+03  0.25175202276E+03  0.00000000000E+00 0. -1.
         -2    1    5    5    0  503  0.31732990093E+02  0.29907457103E+02 -0.50491934461E+02  0.66714871627E+02  0.00000000000E+00 0.  1.
         -3    1    6    6    0  502 -0.60521760861E+03 -0.22143766349E+03  0.14913907516E+03  0.66148730624E+03  0.00000000000E+00 0.  1.
<mgrwt>
<rscale>  0 0.20287938E+04</rscale>
<asrwt>0</asrwt>
<pdfrwt beam="1">  1        1 0.30091809E+00 0.20287938E+04</pdfrwt>
<pdfrwt beam="2">  1       -1 0.80935829E-01 0.20287938E+04</pdfrwt>
<totfact> 0.44944031E+00</totfact>
</mgrwt>
</event>
<event>
12    1  0.1532786E-007  0.1147280E+04  0.7818608E-02  0.9160297E-01
         -1   -1    0    0    0  501 -0.00000000000E+00  0.00000000000E+00  0.69209833910E+03  0.69209833910E+03  0.00000000000E+00 0.  1.
          1   -1    0    0  501    0  0.00000000000E+00 -0.00000000000E+00 -0.47545638840E+03  0.47545638840E+03  0.00000000000E+00 0. -1.
         23    2    1    2    0    0  0.16784380183E+03 -0.49383621996E+02  0.15781788697E+03  0.25167031022E+03  0.88437410974E+02 0.  0.
        254    2    1    2    0    0 -0.16784380183E+03  0.49383621996E+02  0.58824063725E+02  0.91588441728E+03  0.89709180768E+03 0.  0.
        -24    2    4    4    0    0 -0.12489086224E+01 -0.38711592167E+02 -0.40197644708E+03  0.41163036510E+03  0.79714153860E+02 0.  0.
         24    2    4    4    0    0 -0.16659489321E+03  0.88095214163E+02  0.46080051080E+03  0.50425405218E+03  0.80127480813E+02 0.  0.
         13    1    3    3    0    0  0.17588092985E+03 -0.34682274186E+02  0.14523689030E+03  0.23071782751E+03  0.00000000000E+00 0.  1.
        -13    1    3    3    0    0 -0.80371280159E+01 -0.14701347810E+02  0.12580996670E+02  0.20952482702E+02  0.00000000000E+00 0. -1.
          4    1    6    6  502    0  0.51002785043E+01  0.90506615249E+01  0.66381284793E+01  0.12328506177E+02  0.00000000000E+00 0. -1.
          3    1    5    5  503    0 -0.26727743079E+02  0.12965515805E+02 -0.10525799404E+03  0.10936965831E+03  0.00000000000E+00 0. -1.
         -4    1    5    5    0  503  0.25478834457E+02 -0.51677107972E+02 -0.29671845304E+03  0.30226070678E+03  0.00000000000E+00 0.  1.
         -3    1    6    6    0  502 -0.17169517172E+03  0.79044552638E+02  0.45416238232E+03  0.49192554600E+03  0.00000000000E+00 0.  1.
<mgrwt>
<rscale>  0 0.11472795E+04</rscale>
<asrwt>0</asrwt>
<pdfrwt beam="1">  1        1 0.73147136E-01 0.11472795E+04</pdfrwt>
<pdfrwt beam="2">  1       -1 0.10647667E+00 0.11472795E+04</pdfrwt>
<totfact> 0.38903272E+01</totfact>
</mgrwt>
</event>
<event>
12    1  0.1532786E-007  0.1897306E+04  0.7818608E-02  0.8656198E-01
          2   -1    0    0  501    0  0.00000000000E+00  0.00000000000E+00  0.17273801255E+04  0.17273801255E+04  0.00000000000E+00 0. -1.
         -2   -1    0    0    0  501 -0.00000000000E+00 -0.00000000000E+00 -0.52098715528E+03  0.52098715528E+03  0.00000000000E+00 0.  1.
         23    2    1    2    0    0 -0.55903936595E+03 -0.41490540761E+03  0.17428283795E+03  0.72333847259E+03  0.90402037457E+02 0.  0.
        254    2    1    2    0    0  0.55903936595E+03  0.41490540761E+03  0.10321101323E+04  0.15250288082E+04  0.88078943609E+03 0.  0.
        -24    2    4    4    0    0 -0.65940163776E+02  0.44263806802E+03  0.24481881432E+03  0.51630993806E+03  0.79769266257E+02 0.  0.
         24    2    4    4    0    0  0.62497952973E+03 -0.27732660405E+02  0.78729131795E+03  0.10087188701E+04  0.79483498901E+02 0.  0.
         13    1    3    3    0    0 -0.18250747914E+03 -0.18349852662E+03  0.85406192472E+02  0.27253423074E+03  0.00000000000E+00 0.  1.
        -13    1    3    3    0    0 -0.37653188681E+03 -0.23140688099E+03  0.88876645482E+02  0.45080424185E+03  0.00000000000E+00 0. -1.
          2    1    6    6  502    0  0.34028317371E+03 -0.11389428056E+02  0.36485126736E+03  0.49903787900E+03  0.00000000000E+00 0. -1.
          1    1    5    5  503    0 -0.75739822221E+02  0.41422363763E+03  0.24305109276E+03  0.48620116859E+03  0.00000000000E+00 0. -1.
         -2    1    5    5    0  503  0.97996584448E+01  0.28414430388E+02  0.17677215595E+01  0.30108769477E+02  0.00000000000E+00 0.  1.
         -1    1    6    6    0  502  0.28469635601E+03 -0.16343232350E+02  0.42244005059E+03  0.50968099112E+03  0.00000000000E+00 0.  1.
<mgrwt>
<rscale>  0 0.18973064E+04</rscale>
<asrwt>0</asrwt>
<pdfrwt beam="1">  1        2 0.26575079E+00 0.18973064E+04</pdfrwt>
<pdfrwt beam="2">  1       -2 0.80151871E-01 0.18973064E+04</pdfrwt>
<totfact> 0.12208009E+01</totfact>
</mgrwt>
</event>
<event>
12    1  0.1532786E-007  0.2069570E+04  0.7818608E-02  0.8574768E-01
          1   -1    0    0  501    0  0.00000000000E+00  0.00000000000E+00  0.14620511033E+04  0.14620511033E+04  0.00000000000E+00 0. -1.
         -1   -1    0    0    0  501 -0.00000000000E+00 -0.00000000000E+00 -0.73238226575E+03  0.73238226575E+03  0.00000000000E+00 0.  1.
         23    2    1    2    0    0  0.60407622038E+03  0.27037151227E+03  0.83671790065E+03  0.10707249301E+04  0.91357517211E+02 0.  0.
        254    2    1    2    0    0 -0.60407622038E+03 -0.27037151227E+03 -0.10704906310E+03  0.11237084390E+04  0.90180503392E+03 0.  0.
        -24    2    4    4    0    0  0.19617492980E+03 -0.10786100832E+03  0.12767105475E+03  0.27027794160E+03  0.81435049547E+02 0.  0.
         24    2    4    4    0    0 -0.80025115019E+03 -0.16251050395E+03 -0.23472011785E+03  0.85343049736E+03  0.80240344144E+02 0.  0.
         13    1    3    3    0    0  0.55012913801E+03  0.26795102742E+03  0.79036305346E+03  0.99955669067E+03  0.00000000000E+00 0. -1.
        -13    1    3    3    0    0  0.53947082369E+02  0.24204848509E+01  0.46354847189E+02  0.71168239412E+02  0.00000000000E+00 0.  1.
          2    1    6    6  502    0 -0.36397622118E+03 -0.91361611296E+02 -0.14544385728E+03  0.40246682997E+03  0.00000000000E+00 0. -1.
          1    1    5    5  503    0  0.18363521495E+03 -0.86616953920E+02  0.83200887331E+02  0.21942373738E+03  0.00000000000E+00 0. -1.
         -2    1    5    5    0  503  0.12539714858E+02 -0.21244054401E+02  0.44470167420E+02  0.50854204216E+02  0.00000000000E+00 0.  1.
         -1    1    6    6    0  502 -0.43627492900E+03 -0.71148892653E+02 -0.89276260570E+02  0.45096366739E+03  0.00000000000E+00 0.  1.
<mgrwt>
<rscale>  0 0.20695703E+04</rscale>
<asrwt>0</asrwt>
<pdfrwt beam="1">  1        1 0.22493094E+00 0.20695703E+04</pdfrwt>
<pdfrwt beam="2">  1       -1 0.11267420E+00 0.20695703E+04</pdfrwt>
<totfact> 0.46204838E+00</totfact>
</mgrwt>
</event>
<event>
12    1  0.1532786E-007  0.1800543E+04  0.7818608E-02  0.8706011E-01
          2   -1    0    0  501    0  0.00000000000E+00  0.00000000000E+00  0.38868006618E+04  0.38868006618E+04  0.00000000000E+00 0. -1.
         -2   -1    0    0    0  501 -0.00000000000E+00 -0.00000000000E+00 -0.20852348415E+03  0.20852348415E+03  0.00000000000E+00 0.  1.
         23    2    1    2    0    0  0.60878709999E+03  0.23392997511E+03  0.10201986224E+04  0.12143366426E+04  0.91996119654E+02 0.  0.
        254    2    1    2    0    0 -0.60878709999E+03 -0.23392997511E+03  0.26580785553E+04  0.28809875034E+04  0.89964572040E+03 0.  0.
        -24    2    4    4    0    0 -0.47735713598E+03 -0.16555986047E+03  0.26640537789E+04  0.27127951581E+04  0.82432580688E+02 0.  0.
         24    2    4    4    0    0 -0.13142996401E+03 -0.68370114641E+02 -0.59752235441E+01  0.16819234534E+03  0.79401849585E+02 0.  0.
         11    1    3    3    0    0  0.50012946716E+03  0.21311718048E+03  0.89581451332E+03  0.10478702490E+04  0.00000000000E+00 0.  1.
        -11    1    3    3    0    0  0.10865763284E+03  0.20812794636E+02  0.12438410907E+03  0.16646639356E+03  0.00000000000E+00 0. -1.
          4    1    6    6  502    0 -0.57193420912E+02 -0.78508149689E+01  0.30996831466E+02  0.65525004786E+02  0.00000000000E+00 0. -1.
          1    1    5    5  503    0 -0.46165259448E+01  0.70109002980E+01  0.56719705313E+02  0.57337509586E+02  0.00000000000E+00 0. -1.
         -2    1    5    5    0  503 -0.47274061004E+03 -0.17257076077E+03  0.26073340735E+04  0.26554576485E+04  0.00000000000E+00 0.  1.
         -3    1    6    6    0  502 -0.74236543100E+02 -0.60519299672E+02 -0.36972055010E+02  0.10266734055E+03  0.00000000000E+00 0.  1.
<mgrwt>
<rscale>  0 0.18005435E+04</rscale>
<asrwt>0</asrwt>
<pdfrwt beam="1">  1        2 0.59796928E+00 0.18005435E+04</pdfrwt>
<pdfrwt beam="2">  1       -2 0.32080539E-01 0.18005435E+04</pdfrwt>
<totfact> 0.36400410E+00</totfact>
</mgrwt>
</event>
<event>
12    1  0.1532786E-007  0.1099275E+04  0.7818608E-02  0.9205899E-01
         -2   -1    0    0    0  501 -0.00000000000E+00  0.00000000000E+00  0.10946336158E+04  0.10946336158E+04  0.00000000000E+00 0. -1.
          2   -1    0    0  501    0  0.00000000000E+00 -0.00000000000E+00 -0.27598384166E+03  0.27598384166E+03  0.00000000000E+00 0.  1.
         23    2    1    2    0    0  0.10743231669E+03 -0.11693420539E+03  0.59388801584E+02  0.19241652027E+03  0.91004266160E+02 0.  0.
        254    2    1    2    0    0 -0.10743231669E+03  0.11693420539E+03  0.75926097259E+03  0.11782009372E+04  0.88682857020E+03 0.  0.
        -24    2    4    4    0    0 -0.27506193293E+03  0.36398783884E+02  0.89063574697E+03  0.93640169030E+03  0.81438034153E+02 0.  0.
         24    2    4    4    0    0  0.16762961624E+03  0.80535421504E+02 -0.13137477438E+03  0.24179924693E+03  0.81375070585E+02 0.  0.
         11    1    3    3    0    0  0.96426124845E+02 -0.80808049060E+02  0.46257588278E+01  0.12589414597E+03  0.00000000000E+00 0.  1.
        -11    1    3    3    0    0  0.11006191845E+02 -0.36126156328E+02  0.54763042756E+02  0.66522374295E+02  0.00000000000E+00 0. -1.
          4    1    6    6  502    0  0.84527774717E+02  0.23912313365E+02 -0.10679102385E+03  0.13827894346E+03  0.00000000000E+00 0. -1.
          3    1    5    5  503    0 -0.27746187730E+03  0.26285988357E+02  0.85467927321E+03  0.89897314008E+03  0.00000000000E+00 0. -1.
         -4    1    5    5    0  503  0.23999443654E+01  0.10112795527E+02  0.35956473759E+02  0.37428550219E+02  0.00000000000E+00 0.  1.
         -3    1    6    6    0  502  0.83101841525E+02  0.56623108138E+02 -0.24583750530E+02  0.10352030347E+03  0.00000000000E+00 0.  1.
<mgrwt>
<rscale>  0 0.10992747E+04</rscale>
<asrwt>0</asrwt>
<pdfrwt beam="1">  1        2 0.42459053E-01 0.10992747E+04</pdfrwt>
<pdfrwt beam="2">  1       -2 0.16840517E+00 0.10992747E+04</pdfrwt>
<totfact> 0.26151655E+01</totfact>
</mgrwt>
</event>
<event>
12    1  0.1532786E-007  0.1340582E+04  0.7818608E-02  0.8997988E-01
          1   -1    0    0  501    0  0.00000000000E+00  0.00000000000E+00  0.40539425362E+03  0.40539425362E+03  0.00000000000E+00 0. -1.
         -1   -1    0    0    0  501 -0.00000000000E+00 -0.00000000000E+00 -0.11082786548E+04  0.11082786548E+04  0.00000000000E+00 0.  1.
         23    2    1    2    0    0 -0.36097428527E+03  0.36293251381E+02 -0.19806153531E+03  0.42328708148E+03  0.91235666587E+02 0.  0.
        254    2    1    2    0    0  0.36097428527E+03 -0.36293251381E+02 -0.50482286585E+03  0.10903858269E+04  0.89580996363E+03 0.  0.
        -24    2    4    4    0    0  0.60867366809E+03 -0.21240956449E+03 -0.37359099951E+03  0.74939746405E+03  0.80155267393E+02 0.  0.
         24    2    4    4    0    0 -0.24769938282E+03  0.17611631311E+03 -0.13123186634E+03  0.34098836287E+03  0.81727112217E+02 0.  0.
         13    1    3    3    0    0 -0.32814288190E+03  0.51736253270E+02 -0.15384762993E+03  0.36609217975E+03  0.00000000000E+00 0. -1.
        -13    1    3    3    0    0 -0.32831403373E+02 -0.15443001888E+02 -0.44213905377E+02  0.57194901726E+02  0.00000000000E+00 0.  1.
          2    1    6    6  502    0 -0.20718556791E+03  0.16355197207E+03 -0.82876523360E+02  0.27666518617E+03  0.00000000000E+00 0. -1.
          1    1    5    5  503    0  0.49850173892E+03 -0.20291692466E+03 -0.32391185874E+03  0.62817048183E+03  0.00000000000E+00 0. -1.
         -2    1    5    5    0  503  0.11017192918E+03 -0.94926398368E+01 -0.49679140773E+02  0.12122698222E+03  0.00000000000E+00 0.  1.
         -1    1    6    6    0  502 -0.40513814917E+02  0.12564341045E+02 -0.48355342982E+02  0.64323176693E+02  0.00000000000E+00 0.  1.
<mgrwt>
<rscale>  0 0.13405817E+04</rscale>
<asrwt>0</asrwt>
<pdfrwt beam="1">  1        1 0.62368347E-01 0.13405817E+04</pdfrwt>
<pdfrwt beam="2">  1       -1 0.17050441E+00 0.13405817E+04</pdfrwt>
<totfact> 0.14082366E+01</totfact>
</mgrwt>
</event>
<event>
12    1  0.1532786E-007  0.2222765E+04  0.7818608E-02  0.8509012E-01
          2   -1    0    0  501    0  0.00000000000E+00  0.00000000000E+00  0.59144623419E+03  0.59144623419E+03  0.00000000000E+00 0. -1.
         -2   -1    0    0    0  501 -0.00000000000E+00 -0.00000000000E+00 -0.20883916344E+04  0.20883916344E+04  0.00000000000E+00 0.  1.
         23    2    1    2    0    0  0.68590395295E+02 -0.87557864047E+03 -0.97200436850E+03  0.13131651093E+04  0.90925870009E+02 0.  0.
        254    2    1    2    0    0 -0.68590395295E+02  0.87557864047E+03 -0.52494103167E+03  0.13666727593E+04  0.90602910896E+03 0.  0.
        -24    2    4    4    0    0 -0.15892183212E+03  0.85606729469E+03 -0.49635395956E+02  0.87579329668E+03  0.80267454267E+02 0.  0.
         24    2    4    4    0    0  0.90331436824E+02  0.19511345777E+02 -0.47530563571E+03  0.49087946261E+03  0.80664356308E+02 0.  0.
         11    1    3    3    0    0  0.88927069546E+02 -0.62379877972E+03 -0.67960945173E+03  0.92676963058E+03  0.00000000000E+00 0.  1.
        -11    1    3    3    0    0 -0.20336674251E+02 -0.25177986074E+03 -0.29239491676E+03  0.38639547868E+03  0.00000000000E+00 0. -1.
          2    1    6    6  502    0  0.11120531614E+02  0.39235163908E+02 -0.17364315008E+03  0.17836762004E+03  0.00000000000E+00 0. -1.
          1    1    5    5  503    0 -0.70987682979E+02  0.23122356821E+03 -0.36825342263E+02  0.24466241121E+03  0.00000000000E+00 0. -1.
         -2    1    5    5    0  503 -0.87934149140E+02  0.62484372648E+03 -0.12810053693E+02  0.63113088546E+03  0.00000000000E+00 0.  1.
         -1    1    6    6    0  502  0.79210905210E+02 -0.19723818131E+02 -0.30166248564E+03  0.31251184257E+03  0.00000000000E+00 0.  1.
<mgrwt>
<rscale>  0 0.22227653E+04</rscale>
<asrwt>0</asrwt>
<pdfrwt beam="1">  1        2 0.90991728E-01 0.22227653E+04</pdfrwt>
<pdfrwt beam="2">  1       -2 0.32129102E+00 0.22227653E+04</pdfrwt>
<totfact> 0.10832989E+00</totfact>
</mgrwt>
</event>
<event>
12    1  0.1532786E-007  0.1410964E+04  0.7818608E-02  0.8945921E-01
         -2   -1    0    0    0  501 -0.00000000000E+00  0.00000000000E+00  0.20683509402E+03  0.20683509402E+03  0.00000000000E+00 0.  1.
          2   -1    0    0  501    0  0.00000000000E+00 -0.00000000000E+00 -0.24062870847E+04  0.24062870847E+04  0.00000000000E+00 0. -1.
         23    2    1    2    0    0 -0.10917212337E+03  0.22032249521E+03 -0.56515517106E+02  0.26799941419E+03  0.90383228058E+02 0.  0.
        254    2    1    2    0    0  0.10917212337E+03 -0.22032249521E+03 -0.21429364736E+04  0.23451227646E+04  0.92030619718E+03 0.  0.
        -24    2    4    4    0    0 -0.20647713828E+03 -0.22075538769E+03 -0.19317256894E+04  0.19568785810E+04  0.80273853154E+02 0.  0.
         24    2    4    4    0    0  0.31564926165E+03  0.43289247385E+00 -0.21121078415E+03  0.38824418361E+03  0.80553752154E+02 0.  0.
         11    1    3    3    0    0 -0.97003687496E+02  0.94104221359E+02 -0.27505442696E+02  0.13791979279E+03  0.00000000000E+00 0. -1.
        -11    1    3    3    0    0 -0.12168435877E+02  0.12621827385E+03 -0.29010074411E+02  0.13007962140E+03  0.00000000000E+00 0.  1.
          2    1    6    6  502    0  0.28886973352E+03  0.17933744799E+02 -0.16857209243E+03  0.33493863989E+03  0.00000000000E+00 0. -1.
          1    1    5    5  503    0 -0.21319061575E+03 -0.20564105983E+03 -0.18301310190E+04  0.18539466095E+04  0.00000000000E+00 0. -1.
         -2    1    5    5    0  503  0.67134774673E+01 -0.15114327860E+02 -0.10159467047E+03  0.10293197148E+03  0.00000000000E+00 0.  1.
         -1    1    6    6    0  502  0.26779528133E+02 -0.17500852325E+02 -0.42638691724E+02  0.53305543718E+02  0.00000000000E+00 0.  1.
<mgrwt>
<rscale>  0 0.14109637E+04</rscale>
<asrwt>0</asrwt>
<pdfrwt beam="1">  1        2 0.37019802E+00 0.14109637E+04</pdfrwt>
<pdfrwt beam="2">  1       -2 0.31820783E-01 0.14109637E+04</pdfrwt>
<totfact> 0.35302107E+01</totfact>
</mgrwt>
</event>
<event>
12    1  0.1532786E-007  0.1269809E+04  0.7818608E-02  0.9053856E-01
         -2   -1    0    0    0  501 -0.00000000000E+00  0.00000000000E+00  0.32187402509E+03  0.32187402509E+03  0.00000000000E+00 0.  1.
          2   -1    0    0  501    0  0.00000000000E+00 -0.00000000000E+00 -0.12523644763E+04  0.12523644763E+04  0.00000000000E+00 0. -1.
         23    2    1    2    0    0  0.14268973037E+03  0.30415482322E+02 -0.58339952664E+03  0.60816589085E+03  0.90693342598E+02 0.  0.
        254    2    1    2    0    0 -0.14268973037E+03 -0.30415482322E+02 -0.34709092453E+03  0.96607261050E+03  0.88968461723E+03 0.  0.
        -24    2    4    4    0    0 -0.12397074195E+03  0.23937409863E+03  0.20368294009E+03  0.34705730039E+03  0.79330484145E+02 0.  0.
         24    2    4    4    0    0 -0.18718988420E+02 -0.26978958095E+03 -0.55077386462E+03  0.61901531010E+03  0.81800279167E+02 0.  0.
         11    1    3    3    0    0  0.15179078641E+03  0.39625629158E+02 -0.50829612516E+03  0.53195449446E+03  0.00000000000E+00 0. -1.
        -11    1    3    3    0    0 -0.91010560369E+01 -0.92101468355E+01 -0.75103401487E+02  0.76211396396E+02  0.00000000000E+00 0.  1.
          2    1    6    6  502    0  0.14729736015E+02 -0.13282331520E+03 -0.19572236825E+03  0.23699418478E+03  0.00000000000E+00 0. -1.
          1    1    5    5  503    0 -0.88222958372E+02  0.20249113532E+03  0.12706836752E+03  0.25481821028E+03  0.00000000000E+00 0. -1.
         -2    1    5    5    0  503 -0.35747783579E+02  0.36882963311E+02  0.76614572576E+02  0.92239090111E+02  0.00000000000E+00 0.  1.
         -1    1    6    6    0  502 -0.33448724435E+02 -0.13696626576E+03 -0.35505149637E+03  0.38202112533E+03  0.00000000000E+00 0.  1.
<mgrwt>
<rscale>  0 0.12698088E+04</rscale>
<asrwt>0</asrwt>
<pdfrwt beam="1">  1        2 0.19267146E+00 0.12698088E+04</pdfrwt>
<pdfrwt beam="2">  1       -2 0.49519081E-01 0.12698088E+04</pdfrwt>
<totfact> 0.66818160E+01</totfact>
</mgrwt>
</event>
<event>
12    1  0.1532786E-007  0.1953362E+04  0.7818608E-02  0.8628741E-01
          4   -1    0    0  501    0  0.00000000000E+00  0.00000000000E+00  0.59806681381E+03  0.59806681381E+03  0.00000000000E+00 0.  1.
         -4   -1    0    0    0  501 -0.00000000000E+00 -0.00000000000E+00 -0.15949825810E+04  0.15949825810E+04  0.00000000000E+00 0. -1.
         23    2    1    2    0    0  0.49396710025E+03 -0.56414473651E+03 -0.37234688667E+03  0.84188539707E+03  0.88690686770E+02 0.  0.
        254    2    1    2    0    0 -0.49396710025E+03  0.56414473651E+03 -0.62456888052E+03  0.13511639977E+04  0.93450258557E+03 0.  0.
        -24    2    4    4    0    0 -0.73399910615E+03  0.26298671149E+03 -0.53107119879E+03  0.94681276874E+03  0.80629415377E+02 0.  0.
         24    2    4    4    0    0  0.24003200590E+03  0.30115802502E+03 -0.93497681721E+02  0.40435122900E+03  0.80290597317E+02 0.  0.
         13    1    3    3    0    0  0.72825311876E+02 -0.79074685640E+02 -0.89963727619E+02  0.14017775946E+03  0.00000000000E+00 0. -1.
        -13    1    3    3    0    0  0.42114178837E+03 -0.48507005087E+03 -0.28238315905E+03  0.70170763761E+03  0.00000000000E+00 0.  1.
          4    1    6    6  502    0  0.85328965473E+02  0.72581896826E+02 -0.57767769203E+02  0.12604078409E+03  0.00000000000E+00 0. -1.
          3    1    5    5  503    0 -0.68375679384E+03  0.22479679467E+03 -0.47480030158E+03  0.86225998306E+03  0.00000000000E+00 0. -1.
         -4    1    5    5    0  503 -0.50242312307E+02  0.38189916819E+02 -0.56270897220E+02  0.84552785682E+02  0.00000000000E+00 0.  1.
         -3    1    6    6    0  502  0.15470304042E+03  0.22857612820E+03 -0.35729912518E+02  0.27831044491E+03  0.00000000000E+00 0.  1.
<mgrwt>
<rscale>  0 0.19533624E+04</rscale>
<asrwt>0</asrwt>
<pdfrwt beam="1">  1        4 0.92010278E-01 0.19533624E+04</pdfrwt>
<pdfrwt beam="2">  1       -4 0.24538194E+00 0.19533624E+04</pdfrwt>
<totfact> 0.12657937E-01</totfact>
</mgrwt>
</event>
<event>
12    1  0.1532786E-007  0.1344061E+04  0.7818608E-02  0.8995336E-01
         -1   -1    0    0    0  501 -0.00000000000E+00  0.00000000000E+00  0.39029065605E+03  0.39029065605E+03  0.00000000000E+00 0.  1.
          1   -1    0    0  501    0  0.00000000000E+00 -0.00000000000E+00 -0.11571511458E+04  0.11571511458E+04  0.00000000000E+00 0. -1.
         23    2    1    2    0    0 -0.33565002319E+03 -0.10553628574E+03 -0.13826300775E+03  0.38953129357E+03  0.93910189450E+02 0.  0.
        254    2    1    2    0    0  0.33565002319E+03  0.10553628574E+03 -0.62859748205E+03  0.11579105083E+04  0.90654459635E+03 0.  0.
        -24    2    4    4    0    0  0.47945969029E+03  0.37232269965E+03 -0.57381481753E+03  0.83888172165E+03  0.77157701031E+02 0.  0.
         24    2    4    4    0    0 -0.14380966710E+03 -0.26678641391E+03 -0.54782664524E+02  0.31902878667E+03  0.83198650196E+02 0.  0.
         11    1    3    3    0    0 -0.16807536550E+03 -0.32026827460E+02 -0.21455821704E+02  0.17243955013E+03  0.00000000000E+00 0.  1.
        -11    1    3    3    0    0 -0.16757465769E+03 -0.73509458276E+02 -0.11680718605E+03  0.21709174344E+03  0.00000000000E+00 0. -1.
          4    1    6    6  502    0 -0.48998476488E+02 -0.47387525256E+02  0.15492365315E+02  0.69903087421E+02  0.00000000000E+00 0. -1.
          1    1    5    5  503    0  0.22861564450E+03  0.16531722731E+03 -0.31792024854E+03  0.42505080048E+03  0.00000000000E+00 0. -1.
         -2    1    5    5    0  503  0.25084404579E+03  0.20700547233E+03 -0.25589456899E+03  0.41383092118E+03  0.00000000000E+00 0.  1.
         -3    1    6    6    0  502 -0.94811190609E+02 -0.21939888866E+03 -0.70275029839E+02  0.24912569925E+03  0.00000000000E+00 0.  1.
<mgrwt>
<rscale>  0 0.13440614E+04</rscale>
<asrwt>0</asrwt>
<pdfrwt beam="1">  1        1 0.17802325E+00 0.13440614E+04</pdfrwt>
<pdfrwt beam="2">  1       -1 0.60044717E-01 0.13440614E+04</pdfrwt>
<totfact> 0.31646280E+01</totfact>
</mgrwt>
</event>
<event>
12    1  0.1532786E-007  0.2539146E+04  0.7818608E-02  0.8389171E-01
         -2   -1    0    0    0  501 -0.00000000000E+00  0.00000000000E+00  0.98343893742E+03  0.98343893742E+03  0.00000000000E+00 0.  1.
          2   -1    0    0  501    0  0.00000000000E+00 -0.00000000000E+00 -0.16389590071E+04  0.16389590071E+04  0.00000000000E+00 0. -1.
         23    2    1    2    0    0 -0.93345292334E+03 -0.23874381538E+03 -0.82534478330E+03  0.12718064049E+04  0.89244331926E+02 0.  0.
        254    2    1    2    0    0  0.93345292334E+03  0.23874381538E+03  0.16982471358E+03  0.13505915396E+04  0.93108759209E+03 0.  0.
        -24    2    4    4    0    0  0.21957000090E+03  0.32120839640E+03 -0.29233671277E+03  0.49293391447E+03  0.78340737709E+02 0.  0.
         24    2    4    4    0    0  0.71388292243E+03 -0.82464581024E+02  0.46216142635E+03  0.85765762517E+03  0.74526397681E+02 0.  0.
         11    1    3    3    0    0 -0.84333370409E+03 -0.19914347129E+03 -0.76801033709E+03  0.11578902092E+04  0.00000000000E+00 0. -1.
        -11    1    3    3    0    0 -0.90119219246E+02 -0.39600344092E+02 -0.57334446206E+02  0.11391619574E+03  0.00000000000E+00 0.  1.
          2    1    6    6  502    0  0.23943396662E+03 -0.54410263517E+02  0.13015778993E+03  0.27790313318E+03  0.00000000000E+00 0. -1.
          1    1    5    5  503    0  0.79656303813E+01  0.58950636411E+02 -0.35925546306E+02  0.69492975746E+02  0.00000000000E+00 0. -1.
         -2    1    5    5    0  503  0.21160437052E+03  0.26225775999E+03 -0.25641116646E+03  0.42344093873E+03  0.00000000000E+00 0.  1.
         -1    1    6    6    0  502  0.47444895581E+03 -0.28054317507E+02  0.33200363641E+03  0.57975449200E+03  0.00000000000E+00 0.  1.
<mgrwt>
<rscale>  0 0.25391464E+04</rscale>
<asrwt>0</asrwt>
<pdfrwt beam="1">  1        2 0.25214754E+00 0.25391464E+04</pdfrwt>
<pdfrwt beam="2">  1       -2 0.15129830E+00 0.25391464E+04</pdfrwt>
<totfact> 0.27616282E+00</totfact>
</mgrwt>
</event>
<event>
12    1  0.1532786E-007  0.2958294E+04  0.7818608E-02  0.8255741E-01
         -2   -1    0    0    0  501 -0.00000000000E+00  0.00000000000E+00  0.89678127118E+03  0.89678127118E+03  0.00000000000E+00 0.  1.
          2   -1    0    0  501    0  0.00000000000E+00 -0.00000000000E+00 -0.24396992391E+04  0.24396992391E+04  0.00000000000E+00 0. -1.
         23    2    1    2    0    0  0.90432721186E+03  0.10936045663E+03 -0.18193761500E+04  0.20362322518E+04  0.79654206265E+02 0.  0.
        254    2    1    2    0    0 -0.90432721186E+03 -0.10936045663E+03  0.27645818211E+03  0.13002482584E+04  0.88569125066E+03 0.  0.
        -24    2    4    4    0    0 -0.37463336800E+03 -0.46385221561E+03  0.17912693879E+01  0.60163895895E+03  0.80356642146E+02 0.  0.
         24    2    4    4    0    0 -0.52969384386E+03  0.35449175898E+03  0.27466691272E+03  0.69860929947E+03  0.79831478503E+02 0.  0.
         11    1    3    3    0    0  0.30893720939E+03  0.74282178006E+02 -0.61089686049E+03  0.68858914853E+03  0.00000000000E+00 0.  1.
        -11    1    3    3    0    0  0.59539000247E+03  0.35078278629E+02 -0.12084792895E+04  0.13476431033E+04  0.00000000000E+00 0. -1.
          2    1    6    6  502    0 -0.52501639525E+03  0.33842475569E+03  0.27332629674E+03  0.68182167393E+03  0.00000000000E+00 0. -1.
          3    1    5    5  503    0 -0.31811787381E+03 -0.34188052268E+03  0.81041078879E+01  0.46706204083E+03  0.00000000000E+00 0. -1.
         -4    1    5    5    0  503 -0.56515494196E+02 -0.12197169293E+03 -0.63128385000E+01  0.13457691812E+03  0.00000000000E+00 0.  1.
         -1    1    6    6    0  502 -0.46774486059E+01  0.16067003292E+02  0.13406159791E+01  0.16787625546E+02  0.00000000000E+00 0.  1.
<mgrwt>
<rscale>  0 0.29582945E+04</rscale>
<asrwt>0</asrwt>
<pdfrwt beam="1">  1        2 0.37533834E+00 0.29582945E+04</pdfrwt>
<pdfrwt beam="2">  1       -2 0.13796635E+00 0.29582945E+04</pdfrwt>
<totfact> 0.12085105E+00</totfact>
</mgrwt>
</event>
<event>
12    1  0.1532786E-007  0.1621391E+04  0.7818608E-02  0.8807513E-01
          2   -1    0    0  501    0  0.00000000000E+00  0.00000000000E+00  0.14326584279E+04  0.14326584279E+04  0.00000000000E+00 0. -1.
         -2   -1    0    0    0  501 -0.00000000000E+00 -0.00000000000E+00 -0.45874681839E+03  0.45874681839E+03  0.00000000000E+00 0.  1.
         23    2    1    2    0    0 -0.46129104619E+03  0.30802353851E+03  0.37140786896E+03  0.67358077386E+03  0.89996245522E+02 0.  0.
        254    2    1    2    0    0  0.46129104619E+03 -0.30802353851E+03  0.60250374054E+03  0.12178244724E+04  0.90134219845E+03 0.  0.
        -24    2    4    4    0    0  0.55505536538E+03  0.15330160034E+03  0.34778312924E+03  0.67748862608E+03  0.80311233166E+02 0.  0.
         24    2    4    4    0    0 -0.93764319192E+02 -0.46132513885E+03  0.25472061130E+03  0.54033584634E+03  0.73943260222E+02 0.  0.
         11    1    3    3    0    0 -0.65817058901E+02  0.29559336177E+02  0.17466917920E+02  0.74234310257E+02  0.00000000000E+00 0. -1.
        -11    1    3    3    0    0 -0.39547398729E+03  0.27846420233E+03  0.35394095104E+03  0.59934646360E+03  0.00000000000E+00 0.  1.
          4    1    6    6  502    0 -0.81741617829E+02 -0.37240116868E+03  0.23683543851E+03  0.44883777410E+03  0.00000000000E+00 0. -1.
          1    1    5    5  503    0  0.48524721479E+03  0.11132572409E+03  0.27790489133E+03  0.57016612047E+03  0.00000000000E+00 0. -1.
         -2    1    5    5    0  503  0.69808150590E+02  0.41975876258E+02  0.69878237910E+02  0.10732250561E+03  0.00000000000E+00 0.  1.
         -3    1    6    6    0  502 -0.12022701363E+02 -0.88923970170E+02  0.17885172782E+02  0.91498072244E+02  0.00000000000E+00 0.  1.
<mgrwt>
<rscale>  0 0.16213914E+04</rscale>
<asrwt>0</asrwt>
<pdfrwt beam="1">  1        2 0.22040899E+00 0.16213914E+04</pdfrwt>
<pdfrwt beam="2">  1       -2 0.70576434E-01 0.16213914E+04</pdfrwt>
<totfact> 0.24229532E+01</totfact>
</mgrwt>
</event>
<event>
12    1  0.1532786E-007  0.1202284E+04  0.7818608E-02  0.9110860E-01
         -1   -1    0    0    0  501 -0.00000000000E+00  0.00000000000E+00  0.72343086548E+03  0.72343086548E+03  0.00000000000E+00 0.  1.
          1   -1    0    0  501    0  0.00000000000E+00 -0.00000000000E+00 -0.49952498886E+03  0.49952498886E+03  0.00000000000E+00 0. -1.
         23    2    1    2    0    0 -0.16653254003E+03 -0.12202319087E+03  0.18333479675E+03  0.29334509833E+03  0.99080538029E+02 0.  0.
        254    2    1    2    0    0  0.16653254003E+03  0.12202319087E+03  0.40571079865E+02  0.92961075601E+03  0.90548738211E+03 0.  0.
        -24    2    4    4    0    0 -0.68146716252E+02  0.10275802179E+03 -0.39874785474E+03  0.42471466832E+03  0.78609871189E+02 0.  0.
         24    2    4    4    0    0  0.23467925629E+03  0.19265169078E+02  0.43931893461E+03  0.50489608769E+03  0.80457647154E+02 0.  0.
         11    1    3    3    0    0 -0.17065788649E+02  0.13559979558E+01 -0.98054097824E+01  0.19728809738E+02  0.00000000000E+00 0. -1.
        -11    1    3    3    0    0 -0.14946675139E+03 -0.12337918882E+03  0.19314020654E+03  0.27361628860E+03  0.00000000000E+00 0.  1.
          4    1    6    6  502    0  0.30986541011E+01  0.94851327446E+01  0.23403350126E+01  0.10249222819E+02  0.00000000000E+00 0. -1.
          1    1    5    5  503    0  0.81725981116E+00 -0.98843587910E+01 -0.65520124090E+02  0.66266546033E+02  0.00000000000E+00 0. -1.
         -2    1    5    5    0  503 -0.68963976064E+02  0.11264238058E+03 -0.33322773065E+03  0.35844812229E+03  0.00000000000E+00 0.  1.
         -3    1    6    6    0  502  0.23158060219E+03  0.97800363337E+01  0.43697859960E+03  0.49464686487E+03  0.00000000000E+00 0.  1.
<mgrwt>
<rscale>  0 0.12022842E+04</rscale>
<asrwt>0</asrwt>
<pdfrwt beam="1">  1        1 0.76849998E-01 0.12022842E+04</pdfrwt>
<pdfrwt beam="2">  1       -1 0.11129706E+00 0.12022842E+04</pdfrwt>
<totfact> 0.32613450E+01</totfact>
</mgrwt>
</event>
<event>
12    1  0.1532786E-007  0.1469086E+04  0.7818608E-02  0.8905275E-01
          2   -1    0    0  501    0  0.00000000000E+00  0.00000000000E+00  0.53451229581E+03  0.53451229581E+03  0.00000000000E+00 0.  1.
         -2   -1    0    0    0  501 -0.00000000000E+00 -0.00000000000E+00 -0.10094311128E+04  0.10094311128E+04  0.00000000000E+00 0. -1.
         23    2    1    2    0    0  0.42956243997E+02  0.21430972714E+03  0.27183721788E+03  0.36019489589E+03  0.89838699687E+02 0.  0.
        254    2    1    2    0    0 -0.42956243997E+02 -0.21430972714E+03 -0.74675603487E+03  0.11837485127E+04  0.89209980815E+03 0.  0.
        -24    2    4    4    0    0 -0.23969668474E+03  0.21978017003E+03 -0.54004623335E+02  0.33912666430E+03  0.79577454638E+02 0.  0.
         24    2    4    4    0    0  0.19674044074E+03 -0.43408989716E+03 -0.69275141154E+03  0.84462184842E+03  0.79628567757E+02 0.  0.
         11    1    3    3    0    0 -0.21269414749E+02  0.13965164515E+02  0.36932395173E+02  0.44848808646E+02  0.00000000000E+00 0. -1.
        -11    1    3    3    0    0  0.64225658746E+02  0.20034456262E+03  0.23490482270E+03  0.31534608725E+03  0.00000000000E+00 0.  1.
          4    1    6    6  502    0  0.97732590704E+02 -0.30142628845E+03 -0.43177820960E+03  0.53557622141E+03  0.00000000000E+00 0. -1.
          3    1    5    5  503    0 -0.25177437320E+02 -0.13918268230E+01  0.41939248875E+01  0.25562267854E+02  0.00000000000E+00 0. -1.
         -4    1    5    5    0  503 -0.21451924742E+03  0.22117199685E+03 -0.58198548222E+02  0.31356439644E+03  0.00000000000E+00 0.  1.
         -3    1    6    6    0  502  0.99007850034E+02 -0.13266360871E+03 -0.26097320194E+03  0.30904562701E+03  0.00000000000E+00 0.  1.
<mgrwt>
<rscale>  0 0.14690859E+04</rscale>
<asrwt>0</asrwt>
<pdfrwt beam="1">  1        2 0.82232662E-01 0.14690859E+04</pdfrwt>
<pdfrwt beam="2">  1       -2 0.15529709E+00 0.14690859E+04</pdfrwt>
<totfact> 0.15047523E+01</totfact>
</mgrwt>
</event>
<event>
12    1  0.1532786E-007  0.1298187E+04  0.7818608E-02  0.9031004E-01
         -1   -1    0    0    0  501 -0.00000000000E+00  0.00000000000E+00  0.30691999560E+03  0.30691999560E+03  0.00000000000E+00 0.  1.
          1   -1    0    0  501    0  0.00000000000E+00 -0.00000000000E+00 -0.13727424453E+04  0.13727424453E+04  0.00000000000E+00 0. -1.
         23    2    1    2    0    0 -0.12366511796E+03  0.21967136693E+03 -0.56154068369E+03  0.62210618253E+03  0.90219687698E+02 0.  0.
        254    2    1    2    0    0  0.12366511796E+03 -0.21967136693E+03 -0.50428176603E+03  0.10575562584E+04  0.89474944497E+03 0.  0.
        -24    2    4    4    0    0  0.42106414534E+03 -0.61117157587E+02 -0.55715573828E+03  0.70547769294E+03  0.79031241268E+02 0.  0.
         24    2    4    4    0    0 -0.29739902738E+03 -0.15855420934E+03  0.52873972251E+02  0.35207856546E+03  0.87051941528E+02 0.  0.
         13    1    3    3    0    0 -0.14909790824E+02  0.38310325391E+02 -0.19186133272E+03  0.19621608978E+03  0.00000000000E+00 0.  1.
        -13    1    3    3    0    0 -0.10875532713E+03  0.18136104154E+03 -0.36967935097E+03  0.42589009275E+03  0.00000000000E+00 0. -1.
          4    1    6    6  502    0 -0.27141679366E+03 -0.13291150351E+03  0.19868937767E+02  0.30286518178E+03  0.00000000000E+00 0. -1.
          1    1    5    5  503    0  0.29627267549E+03 -0.38555637407E+02 -0.32876335653E+03  0.44424022782E+03  0.00000000000E+00 0. -1.
         -2    1    5    5    0  503  0.12479146985E+03 -0.22561520180E+02 -0.22839238175E+03  0.26123746512E+03  0.00000000000E+00 0.  1.
         -3    1    6    6    0  502 -0.25982233721E+02 -0.25642705833E+02  0.33005034484E+02  0.49213383676E+02  0.00000000000E+00 0.  1.
<mgrwt>
<rscale>  0 0.12981866E+04</rscale>
<asrwt>0</asrwt>
<pdfrwt beam="1">  1        1 0.21119114E+00 0.12981866E+04</pdfrwt>
<pdfrwt beam="2">  1       -1 0.47218461E-01 0.12981866E+04</pdfrwt>
<totfact> 0.35297997E+01</totfact>
</mgrwt>
</event>
<event>
12    1  0.1532786E-007  0.1322407E+04  0.7818608E-02  0.9011983E-01
         -1   -1    0    0    0  501 -0.00000000000E+00  0.00000000000E+00  0.12120317542E+03  0.12120317542E+03  0.00000000000E+00 0.  1.
          1   -1    0    0  501    0  0.00000000000E+00 -0.00000000000E+00 -0.36070820303E+04  0.36070820303E+04  0.00000000000E+00 0. -1.
         23    2    1    2    0    0 -0.10553673917E+03  0.85217057572E+02 -0.19563173121E+04  0.19631386476E+04  0.91301553882E+02 0.  0.
        254    2    1    2    0    0  0.10553673917E+03 -0.85217057572E+02 -0.15295615427E+04  0.17651465581E+04  0.87050784508E+03 0.  0.
        -24    2    4    4    0    0  0.34927464329E+03  0.13842029519E+03 -0.12969068679E+04  0.13525680428E+04  0.79497998769E+02 0.  0.
         24    2    4    4    0    0 -0.24373790412E+03 -0.22363735276E+03 -0.23265467483E+03  0.41257851530E+03  0.81676202868E+02 0.  0.
         13    1    3    3    0    0  0.41155675958E+01  0.46185621636E+02 -0.47628996703E+03  0.47854172465E+03  0.00000000000E+00 0. -1.
        -13    1    3    3    0    0 -0.10965230677E+03  0.39031435936E+02 -0.14800273451E+04  0.14845969229E+04  0.00000000000E+00 0.  1.
          4    1    6    6  502    0 -0.50868185453E+02 -0.55641429995E+02 -0.15306296003E+02  0.76927392524E+02  0.00000000000E+00 0. -1.
          3    1    5    5  503    0  0.34488141879E+03  0.12715562452E+03 -0.12803320257E+04  0.13320517414E+04  0.00000000000E+00 0. -1.
         -4    1    5    5    0  503  0.43932245011E+01  0.11264670672E+02 -0.16574842229E+02  0.20516301367E+02  0.00000000000E+00 0.  1.
         -3    1    6    6    0  502 -0.19286971866E+03 -0.16799592277E+03 -0.21734837883E+03  0.33565112278E+03  0.00000000000E+00 0.  1.
<mgrwt>
<rscale>  0 0.13224066E+04</rscale>
<asrwt>0</asrwt>
<pdfrwt beam="1">  1        1 0.55493564E+00 0.13224066E+04</pdfrwt>
<pdfrwt beam="2">  1       -1 0.18646644E-01 0.13224066E+04</pdfrwt>
<totfact> 0.47194901E+00</totfact>
</mgrwt>
</event>
<event>
12    1  0.1532786E-007  0.2259509E+04  0.7818608E-02  0.8494059E-01
         -1   -1    0    0    0  501 -0.00000000000E+00  0.00000000000E+00  0.19481040540E+04  0.19481040540E+04  0.00000000000E+00 0.  1.
          1   -1    0    0  501    0  0.00000000000E+00 -0.00000000000E+00 -0.65517327017E+03  0.65517327017E+03  0.00000000000E+00 0. -1.
         23    2    1    2    0    0  0.59685977095E+02 -0.94678426980E+03  0.54488033477E+03  0.10978787388E+04  0.92088416535E+02 0.  0.
        254    2    1    2    0    0 -0.59685977095E+02  0.94678426980E+03  0.74805044904E+03  0.15053985854E+04  0.89815508523E+03 0.  0.
        -24    2    4    4    0    0 -0.11037950879E+03  0.10569289313E+04  0.81893145531E+03  0.13439883611E+04  0.79834731984E+02 0.  0.
         24    2    4    4    0    0  0.50693531698E+02 -0.11014466150E+03 -0.70881006266E+02  0.16141022430E+03  0.79545350870E+02 0.  0.
         13    1    3    3    0    0  0.28138021405E+02 -0.58311766820E+03  0.28402954799E+03  0.64922318762E+03  0.00000000000E+00 0. -1.
        -13    1    3    3    0    0  0.31547955690E+02 -0.36366660160E+03  0.26085078678E+03  0.44865555117E+03  0.00000000000E+00 0.  1.
          2    1    6    6  502    0  0.54072286381E+02 -0.12121672276E+03 -0.60528031514E+02  0.14587991168E+03  0.00000000000E+00 0. -1.
          3    1    5    5  503    0 -0.61579362020E+02  0.87738494026E+03  0.68177953203E+03  0.11128430624E+04  0.00000000000E+00 0. -1.
         -4    1    5    5    0  503 -0.48800146773E+02  0.17954399103E+03  0.13715192328E+03  0.23114529868E+03  0.00000000000E+00 0.  1.
         -1    1    6    6    0  502 -0.33787546826E+01  0.11072061264E+02 -0.10352974752E+02  0.15530312619E+02  0.00000000000E+00 0.  1.
<mgrwt>
<rscale>  0 0.22595094E+04</rscale>
<asrwt>0</asrwt>
<pdfrwt beam="1">  1        1 0.10079589E+00 0.22595094E+04</pdfrwt>
<pdfrwt beam="2">  1       -1 0.29970831E+00 0.22595094E+04</pdfrwt>
<totfact> 0.90583984E-01</totfact>
</mgrwt>
</event>
<event>
12    1  0.1532786E-007  0.1565632E+04  0.7818608E-02  0.8841944E-01
          2   -1    0    0  501    0  0.00000000000E+00  0.00000000000E+00  0.11394047269E+04  0.11394047269E+04  0.00000000000E+00 0. -1.
         -2   -1    0    0    0  501 -0.00000000000E+00 -0.00000000000E+00 -0.53782540888E+03  0.53782540888E+03  0.00000000000E+00 0.  1.
         23    2    1    2    0    0  0.25541108783E+03  0.40279716265E+03  0.42499825679E+03  0.64537346135E+03  0.91667924105E+02 0.  0.
        254    2    1    2    0    0 -0.25541108783E+03 -0.40279716265E+03  0.17658106125E+03  0.10318566744E+04  0.89781231189E+03 0.  0.
        -24    2    4    4    0    0 -0.22960312860E+03 -0.31949277782E+02 -0.32192291803E+03  0.40476830436E+03  0.80403122127E+02 0.  0.
         24    2    4    4    0    0 -0.25807959231E+02 -0.37084788487E+03  0.49850397927E+03  0.62708837009E+03  0.80866569594E+02 0.  0.
         11    1    3    3    0    0  0.17016517352E+03  0.28328696225E+03  0.23610163512E+03  0.40614242744E+03  0.00000000000E+00 0. -1.
        -11    1    3    3    0    0  0.85245914309E+02  0.11951020041E+03  0.18889662167E+03  0.23923103391E+03  0.00000000000E+00 0.  1.
          4    1    6    6  502    0 -0.21272495669E+02 -0.11564250395E+03  0.10269164941E+03  0.15611304446E+03  0.00000000000E+00 0. -1.
          3    1    5    5  503    0 -0.76279762156E+02 -0.11861999920E+02 -0.50067130617E+02  0.92011014150E+02  0.00000000000E+00 0. -1.
         -4    1    5    5    0  503 -0.15332336644E+03 -0.20087277862E+02 -0.27185578741E+03  0.31275729021E+03  0.00000000000E+00 0.  1.
         -1    1    6    6    0  502 -0.45354635625E+01 -0.25520538092E+03  0.39581232986E+03  0.47097532563E+03  0.00000000000E+00 0.  1.
<mgrwt>
<rscale>  0 0.15656319E+04</rscale>
<asrwt>0</asrwt>
<pdfrwt beam="1">  1        2 0.17529303E+00 0.15656319E+04</pdfrwt>
<pdfrwt beam="2">  1       -2 0.82742371E-01 0.15656319E+04</pdfrwt>
<totfact> 0.25381615E+01</totfact>
</mgrwt>
</event>
<event>
12    1  0.1532786E-007  0.1799093E+04  0.7818608E-02  0.8706782E-01
          2   -1    0    0  501    0  0.00000000000E+00  0.00000000000E+00  0.10994361628E+04  0.10994361628E+04  0.00000000000E+00 0. -1.
         -2   -1    0    0    0  501 -0.00000000000E+00 -0.00000000000E+00 -0.73599869477E+03  0.73599869477E+03  0.00000000000E+00 0.  1.
         23    2    1    2    0    0  0.39717116807E+02 -0.43690257906E+03  0.66058936657E+03  0.79855161795E+03  0.94048191572E+02 0.  0.
        254    2    1    2    0    0 -0.39717116807E+02  0.43690257906E+03 -0.29715189855E+03  0.10368832396E+04  0.89127228659E+03 0.  0.
        -24    2    4    4    0    0 -0.19323991964E+03 -0.45755899051E+02  0.22136806497E+03  0.30802649809E+03  0.80257301830E+02 0.  0.
         24    2    4    4    0    0  0.15352280283E+03  0.48265847811E+03 -0.51851996352E+03  0.72885674154E+03  0.76424731824E+02 0.  0.
         11    1    3    3    0    0  0.60216167783E+02 -0.40423284933E+03  0.58403123425E+03  0.71282723427E+03  0.00000000000E+00 0. -1.
        -11    1    3    3    0    0 -0.20499050975E+02 -0.32669729730E+02  0.76558132324E+02  0.85724383675E+02  0.00000000000E+00 0.  1.
          4    1    6    6  502    0  0.12775095807E+03  0.33459130144E+03 -0.32332133948E+03  0.48250216046E+03  0.00000000000E+00 0. -1.
          3    1    5    5  503    0 -0.16747963345E+03 -0.64790362977E+02  0.16872339718E+03  0.24640374087E+03  0.00000000000E+00 0. -1.
         -4    1    5    5    0  503 -0.25760286183E+02  0.19034463926E+02  0.52644667787E+02  0.61622757221E+02  0.00000000000E+00 0.  1.
         -3    1    6    6    0  502  0.25771844759E+02  0.14806717667E+03 -0.19519862404E+03  0.24635458108E+03  0.00000000000E+00 0.  1.
<mgrwt>
<rscale>  0 0.17990926E+04</rscale>
<asrwt>0</asrwt>
<pdfrwt beam="1">  1        2 0.16914402E+00 0.17990926E+04</pdfrwt>
<pdfrwt beam="2">  1       -2 0.11323057E+00 0.17990926E+04</pdfrwt>
<totfact> 0.12608257E+01</totfact>
</mgrwt>
</event>
<event>
12    1  0.1532786E-007  0.2014263E+04  0.7818608E-02  0.8599981E-01
          2   -1    0    0  501    0  0.00000000000E+00  0.00000000000E+00  0.38062368837E+04  0.38062368837E+04  0.00000000000E+00 0. -1.
         -2   -1    0    0    0  501 -0.00000000000E+00 -0.00000000000E+00 -0.26648744987E+03  0.26648744987E+03  0.00000000000E+00 0.  1.
         23    2    1    2    0    0  0.19601079021E+03  0.59780591439E+03  0.24221948680E+04  0.25041957695E+04  0.90423071420E+02 0.  0.
        254    2    1    2    0    0 -0.19601079021E+03 -0.59780591439E+03  0.11175545658E+04  0.15685285641E+04  0.90308444111E+03 0.  0.
        -24    2    4    4    0    0  0.20298674161E+03 -0.65159026874E+03  0.75871119241E+03  0.10233125990E+04  0.75845278661E+02 0.  0.
         24    2    4    4    0    0 -0.39899753183E+03  0.53784354352E+02  0.35884337338E+03  0.54521596507E+03  0.80000592304E+02 0.  0.
         13    1    3    3    0    0 -0.97810231226E+01  0.34600519693E+02  0.13516337988E+03  0.13986423287E+03  0.00000000000E+00 0.  1.
        -13    1    3    3    0    0  0.20579181334E+03  0.56320539470E+03  0.22870314882E+04  0.23643315366E+04  0.00000000000E+00 0. -1.
          4    1    6    6  502    0 -0.55930158344E+02  0.62578282270E+01  0.17505713594E+02  0.58938892379E+02  0.00000000000E+00 0. -1.
          1    1    5    5  503    0  0.14953369804E+02 -0.12527614623E+03  0.16810940503E+03  0.21018679345E+03  0.00000000000E+00 0. -1.
         -2    1    5    5    0  503  0.18803337181E+03 -0.52631412252E+03  0.59060178738E+03  0.81312580560E+03  0.00000000000E+00 0.  1.
         -3    1    6    6    0  502 -0.34306737348E+03  0.47526526125E+02  0.34133765979E+03  0.48627707269E+03  0.00000000000E+00 0.  1.
<mgrwt>
<rscale>  0 0.20142635E+04</rscale>
<asrwt>0</asrwt>
<pdfrwt beam="1">  1        2 0.58557487E+00 0.20142635E+04</pdfrwt>
<pdfrwt beam="2">  1       -2 0.40998072E-01 0.20142635E+04</pdfrwt>
<totfact> 0.25610878E+00</totfact>
</mgrwt>
</event>
<event>
12    1  0.1532786E-007  0.2188328E+04  0.7818608E-02  0.8523302E-01
         -1   -1    0    0    0  501 -0.00000000000E+00  0.00000000000E+00  0.16806961406E+04  0.16806961406E+04  0.00000000000E+00 0.  1.
          1   -1    0    0  501    0  0.00000000000E+00 -0.00000000000E+00 -0.71232090588E+03  0.71232090588E+03  0.00000000000E+00 0. -1.
         23    2    1    2    0    0 -0.16591107532E+03  0.49183901418E+03  0.12088883029E+04  0.13188077864E+04  0.91711219651E+02 0.  0.
        254    2    1    2    0    0  0.16591107532E+03 -0.49183901418E+03 -0.24051306812E+03  0.10742092601E+04  0.90920124165E+03 0.  0.
        -24    2    4    4    0    0 -0.16685397148E+03 -0.40124000047E+03  0.21964652375E+03  0.49378278920E+03  0.82116147833E+02 0.  0.
         24    2    4    4    0    0  0.33276504680E+03 -0.90599013710E+02 -0.46015959187E+03  0.58042647093E+03  0.78786296470E+02 0.  0.
         13    1    3    3    0    0 -0.84169034132E+02  0.14324015469E+03  0.45008567538E+03  0.47977003179E+03  0.00000000000E+00 0. -1.
        -13    1    3    3    0    0 -0.81742041189E+02  0.34859885949E+03  0.75880262749E+03  0.83903775459E+03  0.00000000000E+00 0.  1.
          2    1    6    6  502    0  0.14549666746E+03 -0.94835187288E+01 -0.23485088458E+03  0.27643110418E+03  0.00000000000E+00 0. -1.
          1    1    5    5  503    0 -0.10773396003E+03 -0.16578506206E+03  0.12058249793E+03  0.23158461035E+03  0.00000000000E+00 0. -1.
         -2    1    5    5    0  503 -0.59120011444E+02 -0.23545493841E+03  0.99064025824E+02  0.26219817884E+03  0.00000000000E+00 0.  1.
         -1    1    6    6    0  502  0.18726837934E+03 -0.81115494982E+02 -0.22530870729E+03  0.30399536676E+03  0.00000000000E+00 0.  1.
<mgrwt>
<rscale>  0 0.21883281E+04</rscale>
<asrwt>0</asrwt>
<pdfrwt beam="1">  1        1 0.10958783E+00 0.21883281E+04</pdfrwt>
<pdfrwt beam="2">  1       -1 0.25856864E+00 0.21883281E+04</pdfrwt>
<totfact> 0.14841162E+00</totfact>
</mgrwt>
</event>
<event>
12    1  0.1532786E-007  0.1961552E+04  0.7818608E-02  0.8624811E-01
          1   -1    0    0  501    0  0.00000000000E+00  0.00000000000E+00  0.13500942241E+04  0.13500942241E+04  0.00000000000E+00 0. -1.
         -1   -1    0    0    0  501 -0.00000000000E+00 -0.00000000000E+00 -0.71248443539E+03  0.71248443539E+03  0.00000000000E+00 0.  1.
         23    2    1    2    0    0  0.50235021415E+02  0.29820793670E+03 -0.49683962193E+03  0.58860091435E+03  0.90276771972E+02 0.  0.
        254    2    1    2    0    0 -0.50235021415E+02 -0.29820793670E+03  0.11344494107E+04  0.14739777452E+04  0.89116967913E+03 0.  0.
        -24    2    4    4    0    0 -0.17472732584E+03  0.58101229045E+01 -0.83847045266E+02  0.20961394079E+03  0.79650996531E+02 0.  0.
         24    2    4    4    0    0  0.12449230443E+03 -0.30401805961E+03  0.12182964559E+04  0.12643638044E+04  0.80276153698E+02 0.  0.
         11    1    3    3    0    0  0.65713517785E+02  0.27626354081E+03 -0.41818484473E+03  0.50548825383E+03  0.00000000000E+00 0.  1.
        -11    1    3    3    0    0 -0.15478496370E+02  0.21944395897E+02 -0.78654777205E+02  0.83112660518E+02  0.00000000000E+00 0. -1.
          2    1    6    6  502    0  0.91993592931E+02 -0.22872379515E+03  0.10280157766E+04  0.10571631059E+04  0.00000000000E+00 0. -1.
          3    1    5    5  503    0 -0.58966673441E+02  0.32537261005E+02 -0.55998868370E+02  0.87587757074E+02  0.00000000000E+00 0. -1.
         -4    1    5    5    0  503 -0.11576065240E+03 -0.26727138101E+02 -0.27848176896E+02  0.12202618371E+03  0.00000000000E+00 0.  1.
         -1    1    6    6    0  502  0.32498711495E+02 -0.75294264455E+02  0.19028067936E+03  0.20720069847E+03  0.00000000000E+00 0.  1.
<mgrwt>
<rscale>  0 0.19615516E+04</rscale>
<asrwt>0</asrwt>
<pdfrwt beam="1">  1        1 0.20770680E+00 0.19615516E+04</pdfrwt>
<pdfrwt beam="2">  1       -1 0.10961299E+00 0.19615516E+04</pdfrwt>
<totfact> 0.59681339E+00</totfact>
</mgrwt>
</event>
<event>
12    1  0.1532786E-007  0.1100024E+04  0.7818608E-02  0.9205169E-01
         -2   -1    0    0    0  501 -0.00000000000E+00  0.00000000000E+00  0.75187025701E+03  0.75187025701E+03  0.00000000000E+00 0.  1.
          2   -1    0    0  501    0  0.00000000000E+00 -0.00000000000E+00 -0.40234739097E+03  0.40234739097E+03  0.00000000000E+00 0. -1.
         23    2    1    2    0    0  0.78908948492E+02 -0.12899394730E+03  0.12417009891E+02  0.17722201814E+03  0.91582754844E+02 0.  0.
        254    2    1    2    0    0 -0.78908948492E+02  0.12899394730E+03  0.33710585614E+03  0.97699562985E+03  0.90444128715E+03 0.  0.
        -24    2    4    4    0    0 -0.46650428257E+03  0.48128705315E+02  0.31935546766E+03  0.57371085757E+03  0.84933005582E+02 0.  0.
         24    2    4    4    0    0  0.38759533408E+03  0.80865241986E+02  0.17750388487E+02  0.40328477228E+03  0.74526511406E+02 0.  0.
         13    1    3    3    0    0 -0.27103219176E+01 -0.69096793731E+02 -0.18107087776E+02  0.71481321871E+02  0.00000000000E+00 0. -1.
        -13    1    3    3    0    0  0.81619270410E+02 -0.59897153571E+02  0.30524097667E+02  0.10574069626E+03  0.00000000000E+00 0.  1.
          2    1    6    6  502    0  0.11355608865E+02 -0.75659019151E+00 -0.12745758138E+02  0.17087323721E+02  0.00000000000E+00 0. -1.
          3    1    5    5  503    0 -0.22958862536E+03 -0.89722662886E+01  0.12215151918E+03  0.26021612574E+03  0.00000000000E+00 0. -1.
         -4    1    5    5    0  503 -0.23691565721E+03  0.57100971603E+02  0.19720394847E+03  0.31349473183E+03  0.00000000000E+00 0.  1.
         -1    1    6    6    0  502  0.37623972521E+03  0.81621832178E+02  0.30496146625E+02  0.38619744856E+03  0.00000000000E+00 0.  1.
<mgrwt>
<rscale>  0 0.11000237E+04</rscale>
<asrwt>0</asrwt>
<pdfrwt beam="1">  1        2 0.61899599E-01 0.11000237E+04</pdfrwt>
<pdfrwt beam="2">  1       -2 0.11567235E+00 0.11000237E+04</pdfrwt>
<totfact> 0.45580872E+01</totfact>
</mgrwt>
</event>
<event>
12    1  0.1532786E-007  0.1995996E+04  0.7818608E-02  0.8608495E-01
          2   -1    0    0  501    0  0.00000000000E+00  0.00000000000E+00  0.20521182104E+04  0.20521182104E+04  0.00000000000E+00 0. -1.
         -2   -1    0    0    0  501 -0.00000000000E+00 -0.00000000000E+00 -0.48535197371E+03  0.48535197371E+03  0.00000000000E+00 0.  1.
         23    2    1    2    0    0 -0.62784058917E+03 -0.72401113966E+02  0.13662374652E+02  0.63876614988E+03  0.91705000035E+02 0.  0.
        254    2    1    2    0    0  0.62784058917E+03  0.72401113966E+02  0.15531038621E+04  0.18987040343E+04  0.89079721409E+03 0.  0.
        -24    2    4    4    0    0  0.28607617567E+03 -0.51735631477E+02  0.14903611919E+04  0.15207230858E+04  0.83102752250E+02 0.  0.
         24    2    4    4    0    0  0.34176441350E+03  0.12413674544E+03  0.62742670183E+02  0.37798094850E+03  0.81976270111E+02 0.  0.
         13    1    3    3    0    0 -0.20588450182E+03 -0.66798517108E+02  0.11753055833E+02  0.21676855007E+03  0.00000000000E+00 0. -1.
        -13    1    3    3    0    0 -0.42195608735E+03 -0.56025968575E+01  0.19093188184E+01  0.42199759981E+03  0.00000000000E+00 0.  1.
          4    1    6    6  502    0  0.71197509278E+02  0.32294470601E+02 -0.19646300154E+02  0.80610143708E+02  0.00000000000E+00 0. -1.
          1    1    5    5  503    0  0.67288308776E+02 -0.27941583791E+02  0.22914107168E+03  0.24044558497E+03  0.00000000000E+00 0. -1.
         -2    1    5    5    0  503  0.21878786689E+03 -0.23794047687E+02  0.12612201202E+04  0.12802775008E+04  0.00000000000E+00 0.  1.
         -3    1    6    6    0  502  0.27056690423E+03  0.91842274842E+02  0.82388970337E+02  0.29737080479E+03  0.00000000000E+00 0.  1.
<mgrwt>
<rscale>  0 0.19959956E+04</rscale>
<asrwt>0</asrwt>
<pdfrwt beam="1">  1        2 0.31571049E+00 0.19959956E+04</pdfrwt>
<pdfrwt beam="2">  1       -2 0.74669535E-01 0.19959956E+04</pdfrwt>
<totfact> 0.93643359E+00</totfact>
</mgrwt>
</event>
<event>
12    1  0.1532786E-007  0.1352793E+04  0.7818608E-02  0.8988717E-01
          1   -1    0    0  501    0  0.00000000000E+00  0.00000000000E+00  0.36313452642E+03  0.36313452642E+03  0.00000000000E+00 0. -1.
         -1   -1    0    0    0  501 -0.00000000000E+00 -0.00000000000E+00 -0.12598973108E+04  0.12598973108E+04  0.00000000000E+00 0.  1.
         23    2    1    2    0    0 -0.57435236531E+02 -0.10430014335E+03 -0.67413472278E+03  0.69060284370E+03  0.91089719290E+02 0.  0.
        254    2    1    2    0    0  0.57435236531E+02  0.10430014335E+03 -0.22262806155E+03  0.93242899347E+03  0.89759860059E+03 0.  0.
        -24    2    4    4    0    0  0.22184717861E+03 -0.23829935397E+03  0.17389917939E+03  0.37773035169E+03  0.80228057641E+02 0.  0.
         24    2    4    4    0    0 -0.16441194208E+03  0.34259949732E+03 -0.39652724095E+03  0.55469864178E+03  0.77788354606E+02 0.  0.
         11    1    3    3    0    0  0.15627440477E+01 -0.84788167919E+02 -0.45464006878E+03  0.46248142420E+03  0.00000000000E+00 0.  1.
        -11    1    3    3    0    0 -0.58997980579E+02 -0.19511975432E+02 -0.21949465400E+03  0.22812141949E+03  0.00000000000E+00 0. -1.
          4    1    6    6  502    0 -0.15322105149E+03  0.26689113946E+03 -0.34565960384E+03  0.46280463769E+03  0.00000000000E+00 0. -1.
          1    1    5    5  503    0  0.15630061230E+03 -0.15022228919E+03  0.15457621700E+03  0.26625255761E+03  0.00000000000E+00 0. -1.
         -2    1    5    5    0  503  0.65546566318E+02 -0.88077064785E+02  0.19322962393E+02  0.11147779408E+03  0.00000000000E+00 0.  1.
         -3    1    6    6    0  502 -0.11190890598E+02  0.75708357860E+02 -0.50867637106E+02  0.91894004086E+02  0.00000000000E+00 0.  1.
<mgrwt>
<rscale>  0 0.13527930E+04</rscale>
<asrwt>0</asrwt>
<pdfrwt beam="1">  1        1 0.55866850E-01 0.13527930E+04</pdfrwt>
<pdfrwt beam="2">  1       -1 0.19383036E+00 0.13527930E+04</pdfrwt>
<totfact> 0.11088771E+01</totfact>
</mgrwt>
</event>
<event>
12    1  0.1532786E-007  0.1847254E+04  0.7818608E-02  0.8681566E-01
         -2   -1    0    0    0  501 -0.00000000000E+00  0.00000000000E+00  0.76020778270E+03  0.76020778270E+03  0.00000000000E+00 0.  1.
          2   -1    0    0  501    0  0.00000000000E+00 -0.00000000000E+00 -0.11221760737E+04  0.11221760737E+04  0.00000000000E+00 0. -1.
         23    2    1    2    0    0 -0.24398736050E+03 -0.63530080199E+03  0.25133801413E+02  0.68723081534E+03  0.92290543851E+02 0.  0.
        254    2    1    2    0    0  0.24398736050E+03  0.63530080199E+03 -0.38710209244E+03  0.11951530411E+04  0.90299823950E+03 0.  0.
        -24    2    4    4    0    0 -0.32255523924E+03  0.12768249483E+03 -0.19625579227E+03  0.40676602078E+03  0.81225352046E+02 0.  0.
         24    2    4    4    0    0  0.56654259974E+03  0.50761830716E+03 -0.19084630017E+03  0.78838702030E+03  0.80529003526E+02 0.  0.
         11    1    3    3    0    0 -0.61451266303E+02 -0.16020176226E+03  0.46669724933E+02  0.17781711387E+03  0.00000000000E+00 0.  1.
        -11    1    3    3    0    0 -0.18253609420E+03 -0.47509903973E+03 -0.21535923520E+02  0.50941370147E+03  0.00000000000E+00 0. -1.
          4    1    6    6  502    0  0.52348169851E+03  0.45492652998E+03 -0.15187908465E+03  0.70997076890E+03  0.00000000000E+00 0. -1.
          3    1    5    5  503    0 -0.16697017587E+03  0.10414759829E+03 -0.13107468991E+03  0.23644520760E+03  0.00000000000E+00 0. -1.
         -4    1    5    5    0  503 -0.15558506337E+03  0.23534896541E+02 -0.65181102359E+02  0.17032081319E+03  0.00000000000E+00 0.  1.
         -3    1    6    6    0  502  0.43060901237E+02  0.52691777182E+02 -0.38967215518E+02  0.78416251397E+02  0.00000000000E+00 0.  1.
<mgrwt>
<rscale>  0 0.18472542E+04</rscale>
<asrwt>0</asrwt>
<pdfrwt beam="1">  1        2 0.17264247E+00 0.18472542E+04</pdfrwt>
<pdfrwt beam="2">  1       -2 0.11695504E+00 0.18472542E+04</pdfrwt>
<totfact> 0.11236413E+01</totfact>
</mgrwt>
</event>
<event>
12    1  0.1532786E-007  0.1815486E+04  0.7818608E-02  0.8698107E-01
          2   -1    0    0  501    0  0.00000000000E+00  0.00000000000E+00  0.54748447164E+03  0.54748447164E+03  0.00000000000E+00 0. -1.
         -2   -1    0    0    0  501 -0.00000000000E+00 -0.00000000000E+00 -0.15050601844E+04  0.15050601844E+04  0.00000000000E+00 0.  1.
         23    2    1    2    0    0  0.35963340721E+03  0.11256605889E+03  0.27580506881E+03  0.47589841645E+03  0.91670941959E+02 0.  0.
        254    2    1    2    0    0 -0.35963340721E+03 -0.11256605889E+03 -0.12333807816E+04  0.15766462396E+04  0.90696080801E+03 0.  0.
        -24    2    4    4    0    0 -0.95455831785E+02  0.35429907109E+03 -0.79797773103E+03  0.88112720575E+03  0.70548181336E+02 0.  0.
         24    2    4    4    0    0 -0.26417757542E+03 -0.46686512998E+03 -0.43540305059E+03  0.69551903389E+03  0.80112852171E+02 0.  0.
         13    1    3    3    0    0  0.10117729741E+03  0.15502450496E+01  0.39866269563E+02  0.10875922131E+03  0.00000000000E+00 0.  1.
        -13    1    3    3    0    0  0.25845610980E+03  0.11101581384E+03  0.23593879925E+03  0.36713919514E+03  0.00000000000E+00 0. -1.
          4    1    6    6  502    0 -0.58776041086E+01 -0.40598129309E+02 -0.54514038510E+02  0.68224150622E+02  0.00000000000E+00 0. -1.
          1    1    5    5  503    0 -0.22366362020E+01  0.12175435224E+03 -0.29705643810E+03  0.32104774138E+03  0.00000000000E+00 0. -1.
         -2    1    5    5    0  503 -0.93219195583E+02  0.23254471885E+03 -0.50092129293E+03  0.56007946436E+03  0.00000000000E+00 0.  1.
         -3    1    6    6    0  502 -0.25829997131E+03 -0.42626700067E+03 -0.38088901208E+03  0.62729488326E+03  0.00000000000E+00 0.  1.
<mgrwt>
<rscale>  0 0.18154857E+04</rscale>
<asrwt>0</asrwt>
<pdfrwt beam="1">  1        2 0.84228381E-01 0.18154857E+04</pdfrwt>
<pdfrwt beam="2">  1       -2 0.23154772E+00 0.18154857E+04</pdfrwt>
<totfact> 0.43617180E+00</totfact>
</mgrwt>
</event>
<event>
12    1  0.1532786E-007  0.1703049E+04  0.7818608E-02  0.8759627E-01
         -2   -1    0    0    0  501 -0.00000000000E+00  0.00000000000E+00  0.15226847652E+04  0.15226847652E+04  0.00000000000E+00 0.  1.
          2   -1    0    0  501    0  0.00000000000E+00 -0.00000000000E+00 -0.47619449495E+03  0.47619449495E+03  0.00000000000E+00 0. -1.
         23    2    1    2    0    0  0.39421512846E+03  0.14518067802E+03  0.66104746792E+03  0.78872924419E+03  0.92882016653E+02 0.  0.
        254    2    1    2    0    0 -0.39421512846E+03 -0.14518067802E+03  0.38544280235E+03  0.12101500160E+04  0.10674333284E+04 0.  0.
        -24    2    4    4    0    0 -0.66469532975E+03 -0.12681148059E+03  0.55667605344E+03  0.88018714440E+03  0.83307548844E+02 0.  0.
         24    2    4    4    0    0  0.27048020128E+03 -0.18369197434E+02 -0.17123325109E+03  0.32996287158E+03  0.77831251048E+02 0.  0.
         11    1    3    3    0    0  0.16864825589E+03  0.30388107127E+02  0.20530692468E+03  0.26742588617E+03  0.00000000000E+00 0.  1.
        -11    1    3    3    0    0  0.22556687257E+03  0.11479257090E+03  0.45574054324E+03  0.52130335802E+03  0.00000000000E+00 0. -1.
          2    1    6    6  502    0  0.15110900908E+03  0.19753266945E+02 -0.64984609205E+02  0.16567173450E+03  0.00000000000E+00 0. -1.
          1    1    5    5  503    0 -0.39568879563E+03 -0.40766511122E+02  0.35480110034E+03  0.53302472008E+03  0.00000000000E+00 0. -1.
         -2    1    5    5    0  503 -0.26900653411E+03 -0.86044969467E+02  0.20187495310E+03  0.34716242431E+03  0.00000000000E+00 0.  1.
         -3    1    6    6    0  502  0.11937119221E+03 -0.38122464379E+02 -0.10624864189E+03  0.16429113708E+03  0.00000000000E+00 0.  1.
<mgrwt>
<rscale>  0 0.17030492E+04</rscale>
<asrwt>0</asrwt>
<pdfrwt beam="1">  1        2 0.73260692E-01 0.17030492E+04</pdfrwt>
<pdfrwt beam="2">  1       -2 0.23425919E+00 0.17030492E+04</pdfrwt>
<totfact> 0.49833226E+00</totfact>
</mgrwt>
</event>
<event>
12    1  0.1532786E-007  0.4163319E+04  0.7818608E-02  0.7972387E-01
          2   -1    0    0  501    0  0.00000000000E+00  0.00000000000E+00  0.29603621307E+04  0.29603621307E+04  0.00000000000E+00 0. -1.
         -2   -1    0    0    0  501 -0.00000000000E+00 -0.00000000000E+00 -0.14637758240E+04  0.14637758240E+04  0.00000000000E+00 0.  1.
         23    2    1    2    0    0  0.15040873309E+03 -0.74409817881E+02  0.28094444802E+04  0.28159588508E+04  0.92121411802E+02 0.  0.
        254    2    1    2    0    0 -0.15040873309E+03  0.74409817881E+02 -0.13128581734E+04  0.16081791039E+04  0.91350086954E+03 0.  0.
        -24    2    4    4    0    0 -0.32748381395E+03  0.32885833818E+03 -0.33148282127E+03  0.57584988279E+03  0.79553577728E+02 0.  0.
         24    2    4    4    0    0  0.17707508086E+03 -0.25444852030E+03 -0.98137535213E+03  0.10323292211E+04  0.80662290829E+02 0.  0.
         11    1    3    3    0    0  0.79262818563E+01  0.19300438696E+02  0.29112511631E+03  0.29187183184E+03  0.00000000000E+00 0.  1.
        -11    1    3    3    0    0  0.14248245123E+03 -0.93710256577E+02  0.25183193638E+04  0.25240870190E+04  0.00000000000E+00 0. -1.
          4    1    6    6  502    0 -0.83422540809E+01 -0.10246703092E+02 -0.53391239350E+02  0.55001932391E+02  0.00000000000E+00 0. -1.
          1    1    5    5  503    0 -0.34988286912E+02  0.63660628406E+02 -0.27931340067E+02  0.77826830773E+02  0.00000000000E+00 0. -1.
         -2    1    5    5    0  503 -0.29249552703E+03  0.26519770977E+03 -0.30355148120E+03  0.49802305202E+03  0.00000000000E+00 0.  1.
         -3    1    6    6    0  502  0.18541733494E+03 -0.24420181720E+03 -0.92798411278E+03  0.97732728868E+03  0.00000000000E+00 0.  1.
<mgrwt>
<rscale>  0 0.41633191E+04</rscale>
<asrwt>0</asrwt>
<pdfrwt beam="1">  1        2 0.45544033E+00 0.41633191E+04</pdfrwt>
<pdfrwt beam="2">  1       -2 0.22519628E+00 0.41633191E+04</pdfrwt>
<totfact> 0.13145797E-01</totfact>
</mgrwt>
</event>
<event>
12    1  0.1532786E-007  0.2225527E+04  0.7818608E-02  0.8507878E-01
         -1   -1    0    0    0  501 -0.00000000000E+00  0.00000000000E+00  0.12045807364E+04  0.12045807364E+04  0.00000000000E+00 0.  1.
          1   -1    0    0  501    0  0.00000000000E+00 -0.00000000000E+00 -0.10279451918E+04  0.10279451918E+04  0.00000000000E+00 0. -1.
         23    2    1    2    0    0 -0.10150173596E+03  0.14054118697E+02 -0.85160941433E+03  0.86261749535E+03  0.91488950391E+02 0.  0.
        254    2    1    2    0    0  0.10150173596E+03 -0.14054118697E+02  0.10282449589E+04  0.13699084329E+04  0.89936716544E+03 0.  0.
        -24    2    4    4    0    0 -0.12458516682E+03  0.30254701566E+03  0.86188233636E+02  0.34750052936E+03  0.79196248747E+02 0.  0.
         24    2    4    4    0    0  0.22608690278E+03 -0.31660113435E+03  0.94205672530E+03  0.10224079035E+04  0.80594550936E+02 0.  0.
         13    1    3    3    0    0  0.58645123088E+00 -0.24245946591E+02 -0.25290304169E+03  0.25406329595E+03  0.00000000000E+00 0.  1.
        -13    1    3    3    0    0 -0.10208818719E+03  0.38300065288E+02 -0.59870637264E+03  0.60855419940E+03  0.00000000000E+00 0. -1.
          2    1    6    6  502    0  0.91513063039E+02 -0.96031441745E+02  0.23853590508E+03  0.27293965729E+03  0.00000000000E+00 0. -1.
          3    1    5    5  503    0 -0.12429161025E+03  0.28164029488E+03  0.98518551173E+02  0.32322680119E+03  0.00000000000E+00 0. -1.
         -4    1    5    5    0  503 -0.29355657045E+00  0.20906720773E+02 -0.12330317538E+02  0.24273728175E+02  0.00000000000E+00 0.  1.
         -1    1    6    6    0  502  0.13457383974E+03 -0.22056969261E+03  0.70352082021E+03  0.74946824623E+03  0.00000000000E+00 0.  1.
<mgrwt>
<rscale>  0 0.22255273E+04</rscale>
<asrwt>0</asrwt>
<pdfrwt beam="1">  1        1 0.15814541E+00 0.22255273E+04</pdfrwt>
<pdfrwt beam="2">  1       -1 0.18532011E+00 0.22255273E+04</pdfrwt>
<totfact> 0.24963144E+00</totfact>
</mgrwt>
</event>
<event>
12    1  0.1532786E-007  0.3002572E+04  0.7818608E-02  0.8242997E-01
          2   -1    0    0  501    0  0.00000000000E+00  0.00000000000E+00  0.21659602601E+04  0.21659602601E+04  0.00000000000E+00 0. -1.
         -2   -1    0    0    0  501 -0.00000000000E+00 -0.00000000000E+00 -0.10405819660E+04  0.10405819660E+04  0.00000000000E+00 0.  1.
         23    2    1    2    0    0  0.21053082523E+03 -0.90872695726E+03  0.15786441736E+04  0.18359076015E+04  0.91276411448E+02 0.  0.
        254    2    1    2    0    0 -0.21053082523E+03  0.90872695726E+03 -0.45326587948E+03  0.13706346246E+04  0.89614809341E+03 0.  0.
        -24    2    4    4    0    0  0.16538862356E+03  0.40906374278E+03  0.17424974704E+03  0.48116648171E+03  0.80446667556E+02 0.  0.
         24    2    4    4    0    0 -0.37591944879E+03  0.49966321448E+03 -0.62751562651E+03  0.88946814285E+03  0.79993473107E+02 0.  0.
         13    1    3    3    0    0  0.16035629858E+03 -0.65224939422E+03  0.12117373455E+04  0.13854424597E+04  0.00000000000E+00 0. -1.
        -13    1    3    3    0    0  0.50174526645E+02 -0.25647756304E+03  0.36690682813E+03  0.45046514182E+03  0.00000000000E+00 0.  1.
          4    1    6    6  502    0 -0.18764873500E+03  0.20807414564E+03 -0.23682043044E+03  0.36686620736E+03  0.00000000000E+00 0. -1.
          3    1    5    5  503    0 -0.46932801119E+01 -0.79327828999E+00  0.17649802332E+01  0.50765464519E+01  0.00000000000E+00 0. -1.
         -4    1    5    5    0  503  0.17008190368E+03  0.40985702107E+03  0.17248476680E+03  0.47608993526E+03  0.00000000000E+00 0.  1.
         -3    1    6    6    0  502 -0.18827071379E+03  0.29158906884E+03 -0.39069519607E+03  0.52260193549E+03  0.00000000000E+00 0.  1.
<mgrwt>
<rscale>  0 0.30025717E+04</rscale>
<asrwt>0</asrwt>
<pdfrwt beam="1">  1        2 0.33322466E+00 0.30025717E+04</pdfrwt>
<pdfrwt beam="2">  1       -2 0.16008953E+00 0.30025717E+04</pdfrwt>
<totfact> 0.11615932E+00</totfact>
</mgrwt>
</event>
<event>
12    1  0.1532786E-007  0.1751975E+04  0.7818608E-02  0.8732264E-01
         -1   -1    0    0    0  501 -0.00000000000E+00  0.00000000000E+00  0.45213127781E+03  0.45213127781E+03  0.00000000000E+00 0.  1.
          1   -1    0    0  501    0  0.00000000000E+00 -0.00000000000E+00 -0.16971922865E+04  0.16971922865E+04  0.00000000000E+00 0. -1.
         23    2    1    2    0    0 -0.29603868053E+02  0.37973760526E+03 -0.10737294614E+04  0.11423502138E+04  0.83618281060E+02 0.  0.
        254    2    1    2    0    0  0.29603868053E+02 -0.37973760526E+03 -0.17133154738E+03  0.10069733506E+04  0.91627713698E+03 0.  0.
        -24    2    4    4    0    0  0.31292690805E+02 -0.51052749100E+03 -0.45178136443E+03  0.68718475668E+03  0.80615984747E+02 0.  0.
         24    2    4    4    0    0 -0.16888227518E+01  0.13078988574E+03  0.28044981706E+03  0.31978859388E+03  0.80646131677E+02 0.  0.
         11    1    3    3    0    0 -0.48739809856E+02  0.12194778155E+03 -0.37600171356E+03  0.39827643552E+03  0.00000000000E+00 0.  1.
        -11    1    3    3    0    0  0.19135941803E+02  0.25778982371E+03 -0.69772774780E+03  0.74407377828E+03  0.00000000000E+00 0. -1.
          4    1    6    6  502    0  0.24361628236E+02  0.46845046968E+01  0.49399185343E+02  0.55278504205E+02  0.00000000000E+00 0. -1.
          3    1    5    5  503    0 -0.17254571920E+02 -0.47440074581E+02 -0.61973051563E+02  0.79930845413E+02  0.00000000000E+00 0. -1.
         -2    1    5    5    0  503  0.48547262725E+02 -0.46308741642E+03 -0.38980831287E+03  0.60725391127E+03  0.00000000000E+00 0.  1.
         -3    1    6    6    0  502 -0.26050450988E+02  0.12610538104E+03  0.23105063171E+03  0.26451008968E+03  0.00000000000E+00 0.  1.
<mgrwt>
<rscale>  0 0.17519746E+04</rscale>
<asrwt>0</asrwt>
<pdfrwt beam="1">  1        1 0.26110651E+00 0.17519746E+04</pdfrwt>
<pdfrwt beam="2">  1       -1 0.69558658E-01 0.17519746E+04</pdfrwt>
<totfact> 0.94799568E+00</totfact>
</mgrwt>
</event>
<event>
12    1  0.1532786E-007  0.2568597E+04  0.7818608E-02  0.8378947E-01
         -2   -1    0    0    0  501 -0.00000000000E+00  0.00000000000E+00  0.13535159524E+04  0.13535159524E+04  0.00000000000E+00 0.  1.
          2   -1    0    0  501    0  0.00000000000E+00 -0.00000000000E+00 -0.12186204877E+04  0.12186204877E+04  0.00000000000E+00 0. -1.
         23    2    1    2    0    0  0.18428545257E+02 -0.81188091111E+03 -0.70334333151E+03  0.10788800027E+04  0.98994914437E+02 0.  0.
        254    2    1    2    0    0 -0.18428545257E+02  0.81188091111E+03  0.83823879621E+03  0.14932564373E+04  0.93149357650E+03 0.  0.
        -24    2    4    4    0    0 -0.34628492704E+03  0.54221094605E+03  0.12608279930E+03  0.66047906177E+03  0.80185772080E+02 0.  0.
         24    2    4    4    0    0  0.32785638178E+03  0.26966996506E+03  0.71215599691E+03  0.83277737556E+03  0.78360042014E+02 0.  0.
         13    1    3    3    0    0  0.22336969892E+02 -0.58739179460E+03 -0.44947382122E+03  0.73996944299E+03  0.00000000000E+00 0. -1.
        -13    1    3    3    0    0 -0.39084246358E+01 -0.22448911651E+03 -0.25386951029E+03  0.33891055969E+03  0.00000000000E+00 0.  1.
          4    1    6    6  502    0  0.84103940111E+02  0.48464506866E+02  0.22269381981E+03  0.24292965762E+03  0.00000000000E+00 0. -1.
          1    1    5    5  503    0 -0.30763676843E+03  0.42748138405E+03  0.11351946519E+03  0.53876468330E+03  0.00000000000E+00 0. -1.
         -2    1    5    5    0  503 -0.38648158607E+02  0.11472956200E+03  0.12563334106E+02  0.12171437846E+03  0.00000000000E+00 0.  1.
         -3    1    6    6    0  502  0.24375244167E+03  0.22120545819E+03  0.48946217709E+03  0.58984771794E+03  0.00000000000E+00 0.  1.
<mgrwt>
<rscale>  0 0.25685967E+04</rscale>
<asrwt>0</asrwt>
<pdfrwt beam="1">  1        2 0.18748007E+00 0.25685967E+04</pdfrwt>
<pdfrwt beam="2">  1       -2 0.20823322E+00 0.25685967E+04</pdfrwt>
<totfact> 0.19246693E+00</totfact>
</mgrwt>
</event>
<event>
12    1  0.1532786E-007  0.1575418E+04  0.7818608E-02  0.8835793E-01
         -1   -1    0    0    0  501 -0.00000000000E+00  0.00000000000E+00  0.59723458422E+03  0.59723458422E+03  0.00000000000E+00 0.  1.
          1   -1    0    0  501    0  0.00000000000E+00 -0.00000000000E+00 -0.10389314528E+04  0.10389314528E+04  0.00000000000E+00 0. -1.
         23    2    1    2    0    0 -0.66139444659E+01 -0.53202406339E+03 -0.54193774563E+02  0.54227389532E+03  0.89613972485E+02 0.  0.
        254    2    1    2    0    0  0.66139444659E+01  0.53202406339E+03 -0.38750309404E+03  0.10938921417E+04  0.87369790062E+03 0.  0.
        -24    2    4    4    0    0  0.74729917504E+02  0.64361840491E+03 -0.56203333799E+03  0.86161832783E+03  0.81703476923E+02 0.  0.
         24    2    4    4    0    0 -0.68115973038E+02 -0.11159434152E+03  0.17453024394E+03  0.23227381389E+03  0.79982721419E+02 0.  0.
         13    1    3    3    0    0  0.11999499220E+02 -0.46655846134E+03 -0.22657807318E+02  0.46726241242E+03  0.00000000000E+00 0.  1.
        -13    1    3    3    0    0 -0.18613443686E+02 -0.65465602047E+02 -0.31535967245E+02  0.75011482903E+02  0.00000000000E+00 0. -1.
          2    1    6    6  502    0 -0.41922570549E+02 -0.36845032834E+01  0.52437154589E+02  0.67236393919E+02  0.00000000000E+00 0. -1.
          3    1    5    5  503    0  0.87840891433E+02  0.47575359848E+03 -0.43637647233E+03  0.65152278109E+03  0.00000000000E+00 0. -1.
         -2    1    5    5    0  503 -0.13110973929E+02  0.16786480643E+03 -0.12565686565E+03  0.21009554674E+03  0.00000000000E+00 0.  1.
         -1    1    6    6    0  502 -0.26193402489E+02 -0.10790983824E+03  0.12209308936E+03  0.16503741997E+03  0.00000000000E+00 0.  1.
<mgrwt>
<rscale>  0 0.15754184E+04</rscale>
<asrwt>0</asrwt>
<pdfrwt beam="1">  1        1 0.15983561E+00 0.15754184E+04</pdfrwt>
<pdfrwt beam="2">  1       -1 0.91882244E-01 0.15754184E+04</pdfrwt>
<totfact> 0.15658930E+01</totfact>
</mgrwt>
</event>
<event>
12    1  0.1532786E-007  0.1260768E+04  0.7818608E-02  0.9061268E-01
          2   -1    0    0  501    0  0.00000000000E+00  0.00000000000E+00  0.12216081284E+04  0.12216081284E+04  0.00000000000E+00 0.  1.
         -2   -1    0    0    0  501 -0.00000000000E+00 -0.00000000000E+00 -0.32529601258E+03  0.32529601258E+03  0.00000000000E+00 0. -1.
         23    2    1    2    0    0  0.12047307864E+03 -0.44054707444E+02 -0.10140902560E+03  0.18205445790E+03  0.80034087997E+02 0.  0.
        254    2    1    2    0    0 -0.12047307864E+03  0.44054707444E+02  0.99772114146E+03  0.13648496831E+04  0.92244924059E+03 0.  0.
        -24    2    4    4    0    0  0.27698514540E+03 -0.18404363635E+03  0.10409300275E+03  0.35735310423E+03  0.79202632748E+02 0.  0.
         24    2    4    4    0    0 -0.39745822403E+03  0.22809834379E+03  0.89362813871E+03  0.10074965789E+04  0.80474914617E+02 0.  0.
         13    1    3    3    0    0 -0.17713675513E+01 -0.12993630055E+02  0.77636948580E+01  0.15239656258E+02  0.00000000000E+00 0.  1.
        -13    1    3    3    0    0  0.12224444619E+03 -0.31061077389E+02 -0.10917272046E+03  0.16681480164E+03  0.00000000000E+00 0. -1.
          4    1    6    6  502    0 -0.42381727611E+02  0.55733777502E+02  0.15297660385E+03  0.16823883652E+03  0.00000000000E+00 0. -1.
          1    1    5    5  503    0  0.16833988238E+03 -0.93702741219E+02  0.97433662695E+02  0.21589774973E+03  0.00000000000E+00 0. -1.
         -2    1    5    5    0  503  0.10864526302E+03 -0.90340895126E+02  0.66593400548E+01  0.14145535451E+03  0.00000000000E+00 0.  1.
         -3    1    6    6    0  502 -0.35507649642E+03  0.17236456629E+03  0.74065153486E+03  0.83925774236E+03  0.00000000000E+00 0.  1.
<mgrwt>
<rscale>  0 0.12607684E+04</rscale>
<asrwt>0</asrwt>
<pdfrwt beam="1">  1        2 0.18793971E+00 0.12607684E+04</pdfrwt>
<pdfrwt beam="2">  1       -2 0.50045541E-01 0.12607684E+04</pdfrwt>
<totfact> 0.68237148E+01</totfact>
</mgrwt>
</event>
<event>
12    1  0.1532786E-007  0.3390964E+04  0.7818608E-02  0.8140128E-01
         -2   -1    0    0    0  501 -0.00000000000E+00  0.00000000000E+00  0.94081580757E+03  0.94081580757E+03  0.00000000000E+00 0. -1.
          2   -1    0    0  501    0  0.00000000000E+00 -0.00000000000E+00 -0.30554960329E+04  0.30554960329E+04  0.00000000000E+00 0.  1.
         23    2    1    2    0    0 -0.10919412067E+04 -0.90830198221E+03 -0.16199420273E+04  0.21565880532E+04  0.96497511007E+02 0.  0.
        254    2    1    2    0    0  0.10919412067E+04  0.90830198221E+03 -0.49473819797E+03  0.18397237872E+04  0.10594666767E+04 0.  0.
        -24    2    4    4    0    0  0.17888448956E+03  0.48372319107E+03  0.25584688460E+03  0.58124436632E+03  0.79997492664E+02 0.  0.
         24    2    4    4    0    0  0.91305671714E+03  0.42457879114E+03 -0.75058508257E+03  0.12584794209E+04  0.80329123462E+02 0.  0.
         11    1    3    3    0    0 -0.86916006558E+02 -0.47683225466E+02 -0.90532410264E+02  0.13425423455E+03  0.00000000000E+00 0. -1.
        -11    1    3    3    0    0 -0.10050252001E+04 -0.86061875674E+03 -0.15294096171E+04  0.20223338187E+04  0.00000000000E+00 0.  1.
          4    1    6    6  502    0  0.88631712658E+03  0.42309753683E+03 -0.73991318717E+03  0.12296508037E+04  0.00000000000E+00 0. -1.
          1    1    5    5  503    0  0.15606399504E+03  0.45401836481E+03  0.25536416941E+03  0.54378258996E+03  0.00000000000E+00 0. -1.
         -2    1    5    5    0  503  0.22820494518E+02  0.29704826265E+02  0.48271518461E+00  0.37461776352E+02  0.00000000000E+00 0.  1.
         -3    1    6    6    0  502  0.26739590562E+02  0.14812543104E+01 -0.10671895401E+02  0.28828617192E+02  0.00000000000E+00 0.  1.
<mgrwt>
<rscale>  0 0.33909639E+04</rscale>
<asrwt>0</asrwt>
<pdfrwt beam="1">  1        2 0.47007633E+00 0.33909639E+04</pdfrwt>
<pdfrwt beam="2">  1       -2 0.14474089E+00 0.33909639E+04</pdfrwt>
<totfact> 0.43807854E-01</totfact>
</mgrwt>
</event>
<event>
12    1  0.1532786E-007  0.2605552E+04  0.7818608E-02  0.8366318E-01
         -1   -1    0    0    0  501 -0.00000000000E+00  0.00000000000E+00  0.20292916091E+04  0.20292916091E+04  0.00000000000E+00 0.  1.
          1   -1    0    0  501    0  0.00000000000E+00 -0.00000000000E+00 -0.83636367158E+03  0.83636367158E+03  0.00000000000E+00 0. -1.
         23    2    1    2    0    0  0.54241521286E+03  0.21901021775E+03  0.16022347585E+04  0.17079697024E+04  0.88456454868E+02 0.  0.
        254    2    1    2    0    0 -0.54241521286E+03 -0.21901021775E+03 -0.40930682093E+03  0.11576855783E+04  0.91133094206E+03 0.  0.
        -24    2    4    4    0    0  0.42475550381E+02 -0.43936302870E+03 -0.12999966145E+03  0.46847763107E+03  0.87905264134E+02 0.  0.
         24    2    4    4    0    0 -0.58489076324E+03  0.22035281096E+03 -0.27930715947E+03  0.68920794724E+03  0.79640058969E+02 0.  0.
         13    1    3    3    0    0  0.46014839383E+03  0.21751507381E+03  0.13992529467E+04  0.14889453182E+04  0.00000000000E+00 0.  1.
        -13    1    3    3    0    0  0.82266819031E+02  0.14951439379E+01  0.20298181175E+03  0.21902438419E+03  0.00000000000E+00 0. -1.
          4    1    6    6  502    0 -0.52034094272E+03  0.16825245986E+03 -0.24908119616E+03  0.60092015210E+03  0.00000000000E+00 0. -1.
          1    1    5    5  503    0  0.38311826777E+01 -0.35780859007E+03 -0.12122220144E+03  0.37780482688E+03  0.00000000000E+00 0. -1.
         -2    1    5    5    0  503  0.38644367703E+02 -0.81554438634E+02 -0.87774600137E+01  0.90672804194E+02  0.00000000000E+00 0.  1.
         -3    1    6    6    0  502 -0.64549820523E+02  0.52100351092E+02 -0.30225963307E+02  0.88287795143E+02  0.00000000000E+00 0.  1.
<mgrwt>
<rscale>  0 0.26055524E+04</rscale>
<asrwt>0</asrwt>
<pdfrwt beam="1">  1        1 0.12867134E+00 0.26055524E+04</pdfrwt>
<pdfrwt beam="2">  1       -1 0.31219871E+00 0.26055524E+04</pdfrwt>
<totfact> 0.49824272E-01</totfact>
</mgrwt>
</event>
<event>
12    1  0.1532786E-007  0.1376813E+04  0.7818608E-02  0.8970775E-01
          2   -1    0    0  501    0  0.00000000000E+00  0.00000000000E+00  0.25753518221E+03  0.25753518221E+03  0.00000000000E+00 0. -1.
         -2   -1    0    0    0  501 -0.00000000000E+00 -0.00000000000E+00 -0.18401517857E+04  0.18401517857E+04  0.00000000000E+00 0.  1.
         23    2    1    2    0    0  0.15924651937E+03  0.16829329934E+03  0.29964906671E+01  0.24978955871E+03  0.93293923441E+02 0.  0.
        254    2    1    2    0    0 -0.15924651937E+03 -0.16829329934E+03 -0.15856130942E+04  0.18478974092E+04  0.92025749768E+03 0.  0.
        -24    2    4    4    0    0 -0.35302932782E+03  0.74173477770E+02 -0.14560186256E+04  0.15022613457E+04  0.81654771649E+02 0.  0.
         24    2    4    4    0    0  0.19378280845E+03 -0.24246677711E+03 -0.12959446859E+03  0.34563606348E+03  0.79546509896E+02 0.  0.
         13    1    3    3    0    0  0.14757927246E+03  0.18028201134E+03  0.41579112574E+01  0.23302045726E+03  0.00000000000E+00 0. -1.
        -13    1    3    3    0    0  0.11667246905E+02 -0.11988712001E+02 -0.11614205903E+01  0.16769101454E+02  0.00000000000E+00 0.  1.
          2    1    6    6  502    0  0.81955466743E+01 -0.11715401242E+02  0.10799467789E+02  0.17917759796E+02  0.00000000000E+00 0. -1.
          3    1    5    5  503    0 -0.69413644286E+02  0.47714433731E+02 -0.29288465270E+03  0.30475619925E+03  0.00000000000E+00 0. -1.
         -2    1    5    5    0  503 -0.28361568353E+03  0.26459044039E+02 -0.11631339729E+04  0.11975051465E+04  0.00000000000E+00 0.  1.
         -3    1    6    6    0  502  0.18558726178E+03 -0.23075137587E+03 -0.14039393638E+03  0.32771830369E+03  0.00000000000E+00 0.  1.
<mgrwt>
<rscale>  0 0.13768135E+04</rscale>
<asrwt>0</asrwt>
<pdfrwt beam="1">  1        2 0.39620796E-01 0.13768135E+04</pdfrwt>
<pdfrwt beam="2">  1       -2 0.28310028E+00 0.13768135E+04</pdfrwt>
<totfact> 0.51364756E+00</totfact>
</mgrwt>
</event>
<event>
12    1  0.1532786E-007  0.1497913E+04  0.7818608E-02  0.8885842E-01
         -1   -1    0    0    0  501 -0.00000000000E+00  0.00000000000E+00  0.50122230384E+03  0.50122230384E+03  0.00000000000E+00 0.  1.
          1   -1    0    0  501    0  0.00000000000E+00 -0.00000000000E+00 -0.11191359934E+04  0.11191359934E+04  0.00000000000E+00 0. -1.
         23    2    1    2    0    0 -0.11435132231E+03 -0.29924244673E+03  0.18142680792E+03  0.37478282189E+03  0.70172716276E+02 0.  0.
        254    2    1    2    0    0  0.11435132231E+03  0.29924244673E+03 -0.79934049747E+03  0.12455754753E+04  0.89993931297E+03 0.  0.
        -24    2    4    4    0    0 -0.70176238387E+02  0.41597340314E+03 -0.89563666076E+03  0.99336724515E+03  0.81577442351E+02 0.  0.
         24    2    4    4    0    0  0.18452756069E+03 -0.11673095641E+03  0.96296163286E+02  0.25220823018E+03  0.81605780858E+02 0.  0.
         11    1    3    3    0    0 -0.73279143480E+02 -0.11175994373E+03  0.52565933530E+02  0.14360813090E+03  0.00000000000E+00 0. -1.
        -11    1    3    3    0    0 -0.41072178825E+02 -0.18748250299E+03  0.12886087439E+03  0.23117469099E+03  0.00000000000E+00 0.  1.
          2    1    6    6  502    0 -0.53904340339E+01 -0.98518255590E+01  0.16855361353E+02  0.20253850307E+02  0.00000000000E+00 0. -1.
          3    1    5    5  503    0 -0.22814507286E+02  0.32848650901E+03 -0.65959484648E+03  0.73721723383E+03  0.00000000000E+00 0. -1.
         -4    1    5    5    0  503 -0.47361731101E+02  0.87486894126E+02 -0.23604181427E+03  0.25615001132E+03  0.00000000000E+00 0.  1.
         -1    1    6    6    0  502  0.18991799473E+03 -0.10687913085E+03  0.79440801933E+02  0.23195437988E+03  0.00000000000E+00 0.  1.
<mgrwt>
<rscale>  0 0.14979131E+04</rscale>
<asrwt>0</asrwt>
<pdfrwt beam="1">  1        1 0.17217477E+00 0.14979131E+04</pdfrwt>
<pdfrwt beam="2">  1       -1 0.77111123E-01 0.14979131E+04</pdfrwt>
<totfact> 0.20016840E+01</totfact>
</mgrwt>
</event>
<event>
12    1  0.1532786E-007  0.1531513E+04  0.7818608E-02  0.8863763E-01
         -3   -1    0    0    0  501 -0.00000000000E+00  0.00000000000E+00  0.21737812176E+03  0.21737812176E+03  0.00000000000E+00 0.  1.
          3   -1    0    0  501    0  0.00000000000E+00 -0.00000000000E+00 -0.26975258275E+04  0.26975258275E+04  0.00000000000E+00 0. -1.
         23    2    1    2    0    0 -0.55375668566E+02 -0.32719762380E+03 -0.12356927011E+03  0.36514682885E+03  0.89095973033E+02 0.  0.
        254    2    1    2    0    0  0.55375668566E+02  0.32719762380E+03 -0.23565784356E+04  0.25497571204E+04  0.91524570477E+03 0.  0.
        -24    2    4    4    0    0 -0.99805295772E+02 -0.28622783354E+03 -0.10536650312E+04  0.10991071341E+04  0.77065067119E+02 0.  0.
         24    2    4    4    0    0  0.15518096434E+03  0.61342545734E+03 -0.13029134044E+04  0.14506499863E+04  0.80188027940E+02 0.  0.
         11    1    3    3    0    0 -0.27783905177E+02 -0.25548359999E+03 -0.56439649611E+02  0.26311451746E+03  0.00000000000E+00 0.  1.
        -11    1    3    3    0    0 -0.27591763390E+02 -0.71714023813E+02 -0.67129620501E+02  0.10203231139E+03  0.00000000000E+00 0. -1.
          2    1    6    6  502    0  0.60991793387E+02  0.28633609304E+03 -0.51580829472E+03  0.59309910971E+03  0.00000000000E+00 0. -1.
          3    1    5    5  503    0 -0.59233745204E+02 -0.16891998199E+03 -0.74972175129E+03  0.77079523951E+03  0.00000000000E+00 0. -1.
         -4    1    5    5    0  503 -0.40571550569E+02 -0.11730785156E+03 -0.30394327991E+03  0.32831189463E+03  0.00000000000E+00 0.  1.
         -1    1    6    6    0  502  0.94189170951E+02  0.32708936431E+03 -0.78710510969E+03  0.85755087655E+03  0.00000000000E+00 0.  1.
<mgrwt>
<rscale>  0 0.15315131E+04</rscale>
<asrwt>0</asrwt>
<pdfrwt beam="1">  1        3 0.41500395E+00 0.15315131E+04</pdfrwt>
<pdfrwt beam="2">  1       -3 0.33442790E-01 0.15315131E+04</pdfrwt>
<totfact> 0.20842071E-01</totfact>
</mgrwt>
</event>
<event>
12    1  0.1532786E-007  0.1895094E+04  0.7818608E-02  0.8657302E-01
          1   -1    0    0  501    0  0.00000000000E+00  0.00000000000E+00  0.51928511437E+03  0.51928511437E+03  0.00000000000E+00 0. -1.
         -1   -1    0    0    0  501 -0.00000000000E+00 -0.00000000000E+00 -0.17290019234E+04  0.17290019234E+04  0.00000000000E+00 0.  1.
         23    2    1    2    0    0  0.71126877292E+03  0.13194772968E+02 -0.27148472968E+03  0.76687101959E+03  0.91158284739E+02 0.  0.
        254    2    1    2    0    0 -0.71126877292E+03 -0.13194772968E+02 -0.93823207930E+03  0.14814160181E+04  0.89901980778E+03 0.  0.
        -24    2    4    4    0    0 -0.13779971296E+03  0.75424165512E+02  0.15905312860E+03  0.23735180917E+03  0.79752228577E+02 0.  0.
         24    2    4    4    0    0 -0.57346905996E+03 -0.88618938481E+02 -0.10972852079E+04  0.12440642090E+04  0.83311761231E+02 0.  0.
         11    1    3    3    0    0  0.35660935312E+03  0.25081600835E+02 -0.18079458956E+03  0.40060704068E+03  0.00000000000E+00 0.  1.
        -11    1    3    3    0    0  0.35465941980E+03 -0.11886827867E+02 -0.90690140121E+02  0.36626397891E+03  0.00000000000E+00 0. -1.
          4    1    6    6  502    0 -0.43907082595E+03 -0.10122644696E+03 -0.81901855012E+03  0.93478412974E+03  0.00000000000E+00 0. -1.
          1    1    5    5  503    0 -0.11810870563E+03  0.49874100672E+02  0.16006290116E+03  0.20507858151E+03  0.00000000000E+00 0. -1.
         -2    1    5    5    0  503 -0.19691007331E+02  0.25550064841E+02 -0.10097725662E+01  0.32273227662E+02  0.00000000000E+00 0.  1.
         -3    1    6    6    0  502 -0.13439823401E+03  0.12607508483E+02 -0.27826665778E+03  0.30928007923E+03  0.00000000000E+00 0.  1.
<mgrwt>
<rscale>  0 0.18950936E+04</rscale>
<asrwt>0</asrwt>
<pdfrwt beam="1">  1        1 0.79890017E-01 0.18950936E+04</pdfrwt>
<pdfrwt beam="2">  1       -1 0.26600030E+00 0.18950936E+04</pdfrwt>
<totfact> 0.21595795E+00</totfact>
</mgrwt>
</event>
<event>
12    1  0.1532786E-007  0.1275561E+04  0.7818608E-02  0.9049173E-01
          1   -1    0    0  501    0  0.00000000000E+00  0.00000000000E+00  0.55090553839E+03  0.55090553839E+03  0.00000000000E+00 0. -1.
         -1   -1    0    0    0  501 -0.00000000000E+00 -0.00000000000E+00 -0.73835556164E+03  0.73835556164E+03  0.00000000000E+00 0.  1.
         23    2    1    2    0    0  0.34984301633E+03  0.67194843397E+02 -0.46282232387E+02  0.37113091357E+03  0.93224604703E+02 0.  0.
        254    2    1    2    0    0 -0.34984301633E+03 -0.67194843397E+02 -0.14116779086E+03  0.91813018646E+03  0.83434370079E+03 0.  0.
        -24    2    4    4    0    0 -0.51785807849E+03 -0.28401508229E+03 -0.19540553883E+03  0.62717948650E+03  0.79556440687E+02 0.  0.
         24    2    4    4    0    0  0.16801506216E+03  0.21682023889E+03  0.54237747962E+02  0.29095069996E+03  0.80439414452E+02 0.  0.
         11    1    3    3    0    0  0.18615206653E+03  0.46979783104E+02 -0.70304207437E+02  0.20445628745E+03  0.00000000000E+00 0.  1.
        -11    1    3    3    0    0  0.16369094980E+03  0.20215060293E+02  0.24021975050E+02  0.16667462612E+03  0.00000000000E+00 0. -1.
          4    1    6    6  502    0  0.13241685804E+03  0.17951971394E+03  0.75032867214E+02  0.23535395291E+03  0.00000000000E+00 0. -1.
          1    1    5    5  503    0 -0.24884416289E+03 -0.13855285175E+03 -0.13608160914E+03  0.31565568976E+03  0.00000000000E+00 0. -1.
         -2    1    5    5    0  503 -0.26901391561E+03 -0.14546223053E+03 -0.59323929687E+02  0.31152379674E+03  0.00000000000E+00 0.  1.
         -1    1    6    6    0  502  0.35598204120E+02  0.37300524949E+02 -0.20795119251E+02  0.55596747052E+02  0.00000000000E+00 0.  1.
<mgrwt>
<rscale>  0 0.12755613E+04</rscale>
<asrwt>0</asrwt>
<pdfrwt beam="1">  1        1 0.84754699E-01 0.12755613E+04</pdfrwt>
<pdfrwt beam="2">  1       -1 0.11359316E+00 0.12755613E+04</pdfrwt>
<totfact> 0.26942864E+01</totfact>
</mgrwt>
</event>
<event>
12    1  0.1532786E-007  0.1910182E+04  0.7818608E-02  0.8649805E-01
         -1   -1    0    0    0  501 -0.00000000000E+00  0.00000000000E+00  0.11106970623E+04  0.11106970623E+04  0.00000000000E+00 0.  1.
          1   -1    0    0  501    0  0.00000000000E+00 -0.00000000000E+00 -0.82128509748E+03  0.82128509748E+03  0.00000000000E+00 0. -1.
         23    2    1    2    0    0 -0.67428788206E+02 -0.26179530783E+03  0.82957947660E+03  0.87692947945E+03  0.87862274366E+02 0.  0.
        254    2    1    2    0    0  0.67428788206E+02  0.26179530783E+03 -0.54016751180E+03  0.10550526803E+04  0.86502704739E+03 0.  0.
        -24    2    4    4    0    0  0.14376737229E+03  0.28863380244E+02 -0.71926397224E+03  0.73844756233E+03  0.80386494529E+02 0.  0.
         24    2    4    4    0    0 -0.76338584085E+02  0.23293192759E+03  0.17909646043E+03  0.31660511797E+03  0.89879899160E+02 0.  0.
         13    1    3    3    0    0  0.21180770498E+02 -0.40511146015E+02  0.14528927096E+03  0.15231135954E+03  0.00000000000E+00 0. -1.
        -13    1    3    3    0    0 -0.88609558705E+02 -0.22128416182E+03  0.68429020564E+03  0.72461811991E+03  0.00000000000E+00 0.  1.
          2    1    6    6  502    0 -0.31732975847E+01  0.14485332822E+03  0.11776081783E+03  0.18670877518E+03  0.00000000000E+00 0. -1.
          1    1    5    5  503    0 -0.44364197035E+01 -0.59734123080E+01 -0.74299312007E+01  0.10515101142E+02  0.00000000000E+00 0. -1.
         -2    1    5    5    0  503  0.14820379199E+03  0.34836792552E+02 -0.71183404104E+03  0.72793246119E+03  0.00000000000E+00 0.  1.
         -3    1    6    6    0  502 -0.73165286500E+02  0.88078599363E+02  0.61335642607E+02  0.12989634278E+03  0.00000000000E+00 0.  1.
<mgrwt>
<rscale>  0 0.19101821E+04</rscale>
<asrwt>0</asrwt>
<pdfrwt beam="1">  1        1 0.12635155E+00 0.19101821E+04</pdfrwt>
<pdfrwt beam="2">  1       -1 0.17087647E+00 0.19101821E+04</pdfrwt>
<totfact> 0.48022081E+00</totfact>
</mgrwt>
</event>
<event>
12    1  0.1532786E-007  0.2454559E+04  0.7818608E-02  0.8419355E-01
          2   -1    0    0  501    0  0.00000000000E+00  0.00000000000E+00  0.13413108094E+04  0.13413108094E+04  0.00000000000E+00 0. -1.
         -2   -1    0    0    0  501 -0.00000000000E+00 -0.00000000000E+00 -0.11229422984E+04  0.11229422984E+04  0.00000000000E+00 0.  1.
         23    2    1    2    0    0  0.27526262644E+03 -0.89989307105E+03  0.58770723799E+03  0.11133497669E+04  0.92578901770E+02 0.  0.
        254    2    1    2    0    0 -0.27526262644E+03  0.89989307105E+03 -0.36933872698E+03  0.13509033409E+04  0.89607571581E+03 0.  0.
        -24    2    4    4    0    0  0.27624969443E+03  0.19339412870E+03  0.63551969047E+02  0.35243552924E+03  0.80354009326E+02 0.  0.
         24    2    4    4    0    0 -0.55151232087E+03  0.70649894235E+03 -0.43289069602E+03  0.99846781169E+03  0.78974810354E+02 0.  0.
         11    1    3    3    0    0  0.97413105493E+02 -0.32200545338E+03  0.26315092283E+03  0.42711267051E+03  0.00000000000E+00 0. -1.
        -11    1    3    3    0    0  0.17784952095E+03 -0.57788761767E+03  0.32455631516E+03  0.68623709640E+03  0.00000000000E+00 0.  1.
          2    1    6    6  502    0 -0.88690800676E+01  0.62555122606E+01  0.28379309196E+01  0.11218104421E+02  0.00000000000E+00 0. -1.
          3    1    5    5  503    0  0.11626032373E+03  0.12081137921E+03  0.55329131676E+02  0.17655923944E+03  0.00000000000E+00 0. -1.
         -4    1    5    5    0  503  0.15998937069E+03  0.72582749492E+02  0.82228373709E+01  0.17587628980E+03  0.00000000000E+00 0.  1.
         -1    1    6    6    0  502 -0.54264324080E+03  0.70024343009E+03 -0.43572862694E+03  0.98724970727E+03  0.00000000000E+00 0.  1.
<mgrwt>
<rscale>  0 0.24545587E+04</rscale>
<asrwt>0</asrwt>
<pdfrwt beam="1">  1        2 0.20635551E+00 0.24545587E+04</pdfrwt>
<pdfrwt beam="2">  1       -2 0.17276035E+00 0.24545587E+04</pdfrwt>
<totfact> 0.28533334E+00</totfact>
</mgrwt>
</event>
<event>
12    1  0.1532786E-007  0.1171205E+04  0.7818608E-02  0.9138441E-01
         -2   -1    0    0    0  501 -0.00000000000E+00  0.00000000000E+00  0.97682551902E+02  0.97682551902E+02  0.00000000000E+00 0. -1.
          2   -1    0    0  501    0  0.00000000000E+00 -0.00000000000E+00 -0.35106606140E+04  0.35106606140E+04  0.00000000000E+00 0.  1.
         23    2    1    2    0    0 -0.53436402049E+02  0.24388621661E+02 -0.69750860287E+02  0.13653099087E+03  0.10161336047E+03 0.  0.
        254    2    1    2    0    0  0.53436402049E+02 -0.24388621661E+02 -0.33432272018E+04  0.34718121750E+04  0.93427051856E+03 0.  0.
        -24    2    4    4    0    0 -0.62861879439E+02 -0.14963165354E+03 -0.32628716310E+04  0.32678887498E+04  0.80152062198E+02 0.  0.
         24    2    4    4    0    0  0.11629828149E+03  0.12524303188E+03 -0.80355570796E+02  0.20392342521E+03  0.76919687225E+02 0.  0.
         13    1    3    3    0    0  0.94901773358E+00  0.41438490158E+02 -0.67843894881E+02  0.79503730566E+02  0.00000000000E+00 0.  1.
        -13    1    3    3    0    0 -0.54385419782E+02 -0.17049868498E+02 -0.19069654060E+01  0.57027260304E+02  0.00000000000E+00 0. -1.
          2    1    6    6  502    0  0.57051651462E+01  0.56929252990E+02 -0.29133444559E+02  0.64204722157E+02  0.00000000000E+00 0. -1.
          3    1    5    5  503    0 -0.19784581728E+02 -0.12281551658E+03 -0.18966862907E+04  0.19007614175E+04  0.00000000000E+00 0. -1.
         -4    1    5    5    0  503 -0.43077297711E+02 -0.26816136960E+02 -0.13661853403E+04  0.13671273324E+04  0.00000000000E+00 0.  1.
         -1    1    6    6    0  502  0.11059311634E+03  0.68313778885E+02 -0.51222126236E+02  0.13971870306E+03  0.00000000000E+00 0.  1.
<mgrwt>
<rscale>  0 0.11712050E+04</rscale>
<asrwt>0</asrwt>
<pdfrwt beam="1">  1        2 0.54010162E+00 0.11712050E+04</pdfrwt>
<pdfrwt beam="2">  1       -2 0.15028085E-01 0.11712050E+04</pdfrwt>
<totfact> 0.28427235E+01</totfact>
</mgrwt>
</event>
<event>
12    1  0.1932801E-007  0.2308020E+04  0.7818608E-02  0.8474766E-01
          1   -1    0    0  501    0  0.00000000000E+00  0.00000000000E+00  0.20176853894E+04  0.20176853894E+04  0.00000000000E+00 0. -1.
         -1   -1    0    0    0  501 -0.00000000000E+00 -0.00000000000E+00 -0.66003293589E+03  0.66003293589E+03  0.00000000000E+00 0.  1.
         23    2    1    2    0    0  0.96386225326E+02 -0.70427563964E+03  0.13454464045E+04  0.15244558453E+04  0.91897312596E+02 0.  0.
        254    2    1    2    0    0 -0.96386225326E+02  0.70427563964E+03  0.12206049073E+02  0.11532624800E+04  0.90805885220E+03 0.  0.
        -24    2    4    4    0    0  0.26295288462E+03  0.47185925848E+03  0.30789448916E+03  0.62695962667E+03  0.80523149936E+02 0.  0.
         24    2    4    4    0    0 -0.35933910995E+03  0.23241638117E+03 -0.29568844008E+03  0.52630285331E+03  0.80131576987E+02 0.  0.
         11    1    3    3    0    0  0.11014653734E+03 -0.67440548989E+03  0.12704803855E+04  0.14425933018E+04  0.00000000000E+00 0. -1.
        -11    1    3    3    0    0 -0.13760312018E+02 -0.29870149755E+02  0.74966018997E+02  0.81862543557E+02  0.00000000000E+00 0.  1.
          2    1    6    6  502    0 -0.35180957339E+03  0.23532911134E+03 -0.27672942580E+03  0.50569649166E+03  0.00000000000E+00 0. -1.
          1    1    5    5  503    0  0.23205718870E+03  0.45246481835E+03  0.29702415922E+03  0.58889583275E+03  0.00000000000E+00 0. -1.
         -2    1    5    5    0  503  0.30895695918E+02  0.19394440127E+02  0.10870329933E+02  0.38063793912E+02  0.00000000000E+00 0.  1.
         -1    1    6    6    0  502 -0.75295365634E+01 -0.29127301757E+01 -0.18959014287E+02  0.20606361655E+02  0.00000000000E+00 0.  1.
<mgrwt>
<rscale>  0 0.23080198E+04</rscale>
<asrwt>0</asrwt>
<pdfrwt beam="1">  1        1 0.31041313E+00 0.23080198E+04</pdfrwt>
<pdfrwt beam="2">  1       -1 0.10154353E+00 0.23080198E+04</pdfrwt>
<totfact> 0.24086886E+00</totfact>
</mgrwt>
</event>
<event>
12    1  0.1532786E-007  0.1115798E+04  0.7818608E-02  0.9189929E-01
          2   -1    0    0  501    0  0.00000000000E+00  0.00000000000E+00  0.14508408231E+04  0.14508408231E+04  0.00000000000E+00 0. -1.
         -2   -1    0    0    0  501 -0.00000000000E+00 -0.00000000000E+00 -0.21453163879E+03  0.21453163879E+03  0.00000000000E+00 0.  1.
         23    2    1    2    0    0 -0.18181725137E+02  0.12597176554E+03  0.40768889023E+02  0.16049473236E+03  0.88865043524E+02 0.  0.
        254    2    1    2    0    0  0.18181725137E+02 -0.12597176554E+03  0.11955402953E+04  0.15048777295E+04  0.90506404323E+03 0.  0.
        -24    2    4    4    0    0 -0.19009480557E+03  0.19489819065E+03  0.10495576174E+04  0.10879340725E+04  0.88927015719E+02 0.  0.
         24    2    4    4    0    0  0.20827653070E+03 -0.32086995618E+03  0.14598267790E+03  0.41694365701E+03  0.78704693967E+02 0.  0.
         13    1    3    3    0    0 -0.44614613614E+02  0.38573768891E+02 -0.33778472468E+01  0.59074607459E+02  0.00000000000E+00 0.  1.
        -13    1    3    3    0    0  0.26432888478E+02  0.87397996645E+02  0.44146736269E+02  0.10142012490E+03  0.00000000000E+00 0. -1.
          4    1    6    6  502    0  0.13796115246E+03 -0.17560668604E+03  0.11987743773E+03  0.25345924297E+03  0.00000000000E+00 0. -1.
          3    1    5    5  503    0 -0.29687983450E+02  0.25840886328E+02  0.31100007420E+03  0.31348073931E+03  0.00000000000E+00 0. -1.
         -4    1    5    5    0  503 -0.16040682211E+03  0.16905730432E+03  0.73855754317E+03  0.77445333320E+03  0.00000000000E+00 0.  1.
         -3    1    6    6    0  502  0.70315378237E+02 -0.14526327015E+03  0.26105240172E+02  0.16348441404E+03  0.00000000000E+00 0.  1.
<mgrwt>
<rscale>  0 0.11157979E+04</rscale>
<asrwt>0</asrwt>
<pdfrwt beam="1">  1        2 0.22320627E+00 0.11157979E+04</pdfrwt>
<pdfrwt beam="2">  1       -2 0.33004868E-01 0.11157979E+04</pdfrwt>
<totfact> 0.11493699E+02</totfact>
</mgrwt>
</event>
<event>
12    1  0.1532786E-007  0.1123012E+04  0.7818608E-02  0.9183049E-01
          2   -1    0    0  501    0  0.00000000000E+00  0.00000000000E+00  0.50655036757E+03  0.50655036757E+03  0.00000000000E+00 0.  1.
         -2   -1    0    0    0  501 -0.00000000000E+00 -0.00000000000E+00 -0.62242337930E+03  0.62242337930E+03  0.00000000000E+00 0. -1.
         23    2    1    2    0    0  0.15911387003E+03 -0.83553777298E+02 -0.67396483487E+02  0.21279329433E+03  0.91870793995E+02 0.  0.
        254    2    1    2    0    0 -0.15911387003E+03  0.83553777298E+02 -0.48476528236E+02  0.91618045253E+03  0.89707200964E+03 0.  0.
        -24    2    4    4    0    0 -0.48205007458E+03  0.20056792290E+03  0.91583803280E+02  0.53622485305E+03  0.80930426284E+02 0.  0.
         24    2    4    4    0    0  0.32293620455E+03 -0.11701414560E+03 -0.14006033152E+03  0.37995559949E+03  0.82275504485E+02 0.  0.
         13    1    3    3    0    0  0.15350799129E+03 -0.58320776030E+02 -0.29378644871E+02  0.16682062547E+03  0.00000000000E+00 0.  1.
        -13    1    3    3    0    0  0.56058787406E+01 -0.25233001268E+02 -0.38017838617E+02  0.45972668865E+02  0.00000000000E+00 0. -1.
          2    1    6    6  502    0  0.22634773676E+03 -0.50407299344E+02 -0.65593167187E+02  0.24099099018E+03  0.00000000000E+00 0. -1.
          3    1    5    5  503    0 -0.46749778431E+03  0.18223686273E+03  0.74531389629E+02  0.50726657736E+03  0.00000000000E+00 0. -1.
         -4    1    5    5    0  503 -0.14552290277E+02  0.18331060168E+02  0.17052413652E+02  0.28958275683E+02  0.00000000000E+00 0.  1.
         -1    1    6    6    0  502  0.96588467787E+02 -0.66606846259E+02 -0.74467164329E+02  0.13896460931E+03  0.00000000000E+00 0.  1.
<mgrwt>
<rscale>  0 0.11230117E+04</rscale>
<asrwt>0</asrwt>
<pdfrwt beam="1">  1        2 0.77930826E-01 0.11230117E+04</pdfrwt>
<pdfrwt beam="2">  1       -2 0.95757442E-01 0.11230117E+04</pdfrwt>
<totfact> 0.55034599E+01</totfact>
</mgrwt>
</event>
<event>
12    1  0.1532786E-007  0.1904362E+04  0.7818608E-02  0.8652688E-01
         -2   -1    0    0    0  501 -0.00000000000E+00  0.00000000000E+00  0.12767190919E+04  0.12767190919E+04  0.00000000000E+00 0.  1.
          2   -1    0    0  501    0  0.00000000000E+00 -0.00000000000E+00 -0.71013916053E+03  0.71013916053E+03  0.00000000000E+00 0. -1.
         23    2    1    2    0    0 -0.64389277665E+03 -0.34077540318E+03  0.10645042130E+03  0.74193730358E+03  0.91725062107E+02 0.  0.
        254    2    1    2    0    0  0.64389277665E+03  0.34077540318E+03  0.46012951006E+03  0.12449209488E+04  0.89854505707E+03 0.  0.
        -24    2    4    4    0    0  0.46645001902E+03  0.21317818460E+03 -0.19148165957E+03  0.55307377624E+03  0.78770663177E+02 0.  0.
         24    2    4    4    0    0  0.17744275763E+03  0.12759721858E+03  0.65161116963E+03  0.69184717259E+03  0.79299504510E+02 0.  0.
         11    1    3    3    0    0 -0.19803810107E+03 -0.87143131480E+02  0.71209142387E+02  0.22778006233E+03  0.00000000000E+00 0. -1.
        -11    1    3    3    0    0 -0.44585467559E+03 -0.25363227170E+03  0.35241278909E+02  0.51415724125E+03  0.00000000000E+00 0.  1.
          2    1    6    6  502    0  0.95427901911E+02  0.23821003283E+02  0.32197556030E+03  0.33666331266E+03  0.00000000000E+00 0. -1.
          3    1    5    5  503    0  0.27199666870E+03  0.94180346433E+02 -0.13648092952E+03  0.31855795322E+03  0.00000000000E+00 0. -1.
         -4    1    5    5    0  503  0.19445335032E+03  0.11899783817E+03 -0.55000730054E+02  0.23451582302E+03  0.00000000000E+00 0.  1.
         -1    1    6    6    0  502  0.82014855719E+02  0.10377621529E+03  0.32963560933E+03  0.35518385993E+03  0.00000000000E+00 0.  1.
<mgrwt>
<rscale>  0 0.19043615E+04</rscale>
<asrwt>0</asrwt>
<pdfrwt beam="1">  1        2 0.10925218E+00 0.19043615E+04</pdfrwt>
<pdfrwt beam="2">  1       -2 0.19641832E+00 0.19043615E+04</pdfrwt>
<totfact> 0.52861338E+00</totfact>
</mgrwt>
</event>
<event>
12    1  0.1532786E-007  0.1138749E+04  0.7818608E-02  0.9168227E-01
         -1   -1    0    0    0  501 -0.00000000000E+00  0.00000000000E+00  0.19520988329E+03  0.19520988329E+03  0.00000000000E+00 0.  1.
          1   -1    0    0  501    0  0.00000000000E+00 -0.00000000000E+00 -0.16607104877E+04  0.16607104877E+04  0.00000000000E+00 0. -1.
         23    2    1    2    0    0 -0.24620950586E+02  0.16133764785E+02 -0.58650121687E+03  0.59415816846E+03  0.90408861232E+02 0.  0.
        254    2    1    2    0    0  0.24620950586E+02 -0.16133764785E+02 -0.87899938758E+03  0.12617622026E+04  0.90473059133E+03 0.  0.
        -24    2    4    4    0    0  0.33558605775E+03 -0.26724274452E+03 -0.22480364565E+03  0.49082698033E+03  0.79610042469E+02 0.  0.
         24    2    4    4    0    0 -0.31096510717E+03  0.25110897973E+03 -0.65419574192E+03  0.77093522224E+03  0.81326690321E+02 0.  0.
         13    1    3    3    0    0 -0.80533208095E+01 -0.24468539041E+02 -0.45105443145E+03  0.45178940394E+03  0.00000000000E+00 0. -1.
        -13    1    3    3    0    0 -0.16567629777E+02  0.40602303827E+02 -0.13544678541E+03  0.14236876452E+03  0.00000000000E+00 0.  1.
          4    1    6    6  502    0 -0.20908497877E+03  0.11742180443E+03 -0.38483533857E+03  0.45343428004E+03  0.00000000000E+00 0. -1.
          3    1    5    5  503    0  0.10657956452E+03 -0.51699526632E+02 -0.35078436085E+02  0.12354165818E+03  0.00000000000E+00 0. -1.
         -4    1    5    5    0  503  0.22900649323E+03 -0.21554321789E+03 -0.18972520957E+03  0.36728532215E+03  0.00000000000E+00 0.  1.
         -3    1    6    6    0  502 -0.10188012840E+03  0.13368717530E+03 -0.26936040336E+03  0.31750094220E+03  0.00000000000E+00 0.  1.
<mgrwt>
<rscale>  0 0.11387486E+04</rscale>
<asrwt>0</asrwt>
<pdfrwt beam="1">  1        1 0.25549392E+00 0.11387486E+04</pdfrwt>
<pdfrwt beam="2">  1       -1 0.30032290E-01 0.11387486E+04</pdfrwt>
<totfact> 0.51339215E+01</totfact>
</mgrwt>
</event>
<event>
12    1  0.1532786E-007  0.2048806E+04  0.7818608E-02  0.8584136E-01
         -2   -1    0    0    0  501 -0.00000000000E+00  0.00000000000E+00  0.47486063006E+03  0.47486063006E+03  0.00000000000E+00 0.  1.
          2   -1    0    0  501    0  0.00000000000E+00 -0.00000000000E+00 -0.22099149404E+04  0.22099149404E+04  0.00000000000E+00 0. -1.
         23    2    1    2    0    0 -0.19424947674E+03 -0.35494899422E+02  0.34576546495E+03  0.40888578475E+03  0.92957415634E+02 0.  0.
        254    2    1    2    0    0  0.19424947674E+03  0.35494899422E+02 -0.20808197753E+04  0.22758897857E+04  0.90048355475E+03 0.  0.
        -24    2    4    4    0    0 -0.25795397912E+03  0.13297551537E+03 -0.26599847448E+03  0.40135870439E+03  0.78172105842E+02 0.  0.
         24    2    4    4    0    0  0.45220345587E+03 -0.97480615945E+02 -0.18148213008E+04  0.18745310813E+04  0.79372444679E+02 0.  0.
         13    1    3    3    0    0 -0.19962438073E+03 -0.19083847584E+02  0.32486719120E+03  0.38177582236E+03  0.00000000000E+00 0.  1.
        -13    1    3    3    0    0  0.53749039848E+01 -0.16411051838E+02  0.20898273747E+02  0.27109962392E+02  0.00000000000E+00 0. -1.
          2    1    6    6  502    0  0.25835825397E+03 -0.87584148369E+02 -0.96442592365E+03  0.10022660987E+04  0.00000000000E+00 0. -1.
          1    1    5    5  503    0 -0.23412741096E+03  0.12458820398E+03 -0.20458082190E+03  0.33494951533E+03  0.00000000000E+00 0. -1.
         -2    1    5    5    0  503 -0.23826568164E+02  0.83873113914E+01 -0.61417652579E+02  0.66409189057E+02  0.00000000000E+00 0.  1.
         -1    1    6    6    0  502  0.19384520190E+03 -0.98964675761E+01 -0.85039537718E+03  0.87226498261E+03  0.00000000000E+00 0.  1.
<mgrwt>
<rscale>  0 0.20488061E+04</rscale>
<asrwt>0</asrwt>
<pdfrwt beam="1">  1        2 0.33998690E+00 0.20488061E+04</pdfrwt>
<pdfrwt beam="2">  1       -2 0.73055484E-01 0.20488061E+04</pdfrwt>
<totfact> 0.79838342E+00</totfact>
</mgrwt>
</event>
<event>
12    1  0.1532786E-007  0.1917243E+04  0.7818608E-02  0.8646321E-01
         -2   -1    0    0    0  501 -0.00000000000E+00  0.00000000000E+00  0.10558530910E+04  0.10558530910E+04  0.00000000000E+00 0.  1.
          2   -1    0    0  501    0  0.00000000000E+00 -0.00000000000E+00 -0.87034403336E+03  0.87034403336E+03  0.00000000000E+00 0. -1.
         23    2    1    2    0    0 -0.47137944397E+03 -0.18056187092E+03  0.62493228661E+03  0.80876582974E+03  0.93598264263E+02 0.  0.
        254    2    1    2    0    0  0.47137944397E+03  0.18056187092E+03 -0.43942322899E+03  0.11174312946E+04  0.89485124716E+03 0.  0.
        -24    2    4    4    0    0 -0.23411201978E+03 -0.24172552826E+02  0.16612069169E+02  0.24930879006E+03  0.80536711133E+02 0.  0.
         24    2    4    4    0    0  0.70549146376E+03  0.20473442375E+03 -0.45603529816E+03  0.86812250454E+03  0.77679469805E+02 0.  0.
         11    1    3    3    0    0 -0.16555881729E+03 -0.16827165476E+02  0.20919622923E+03  0.26731243481E+03  0.00000000000E+00 0. -1.
        -11    1    3    3    0    0 -0.30582062668E+03 -0.16373470545E+03  0.41573605738E+03  0.54145339493E+03  0.00000000000E+00 0.  1.
          4    1    6    6  502    0  0.49981483204E+03  0.15179015916E+03 -0.36391193069E+03  0.63662156109E+03  0.00000000000E+00 0. -1.
          1    1    5    5  503    0 -0.12521960199E+03 -0.10444908674E+02  0.49007727237E+02  0.13487328189E+03  0.00000000000E+00 0. -1.
         -4    1    5    5    0  503 -0.10889241780E+03 -0.13727644152E+02 -0.32395658068E+02  0.11443550817E+03  0.00000000000E+00 0.  1.
         -3    1    6    6    0  502  0.20567663172E+03  0.52944264587E+02 -0.92123367471E+02  0.23150094346E+03  0.00000000000E+00 0.  1.
<mgrwt>
<rscale>  0 0.19172433E+04</rscale>
<asrwt>0</asrwt>
<pdfrwt beam="1">  1        2 0.13389908E+00 0.19172433E+04</pdfrwt>
<pdfrwt beam="2">  1       -2 0.16243894E+00 0.19172433E+04</pdfrwt>
<totfact> 0.69423576E+00</totfact>
</mgrwt>
</event>
<event>
12    1  0.1532786E-007  0.1805330E+04  0.7818608E-02  0.8703470E-01
          2   -1    0    0  501    0  0.00000000000E+00  0.00000000000E+00  0.10353730513E+04  0.10353730513E+04  0.00000000000E+00 0. -1.
         -2   -1    0    0    0  501 -0.00000000000E+00 -0.00000000000E+00 -0.78696650897E+03  0.78696650897E+03  0.00000000000E+00 0.  1.
         23    2    1    2    0    0 -0.10160875325E+03 -0.57898823824E+03  0.42441190117E+03  0.73075515438E+03  0.91246452252E+02 0.  0.
        254    2    1    2    0    0  0.10160875325E+03  0.57898823824E+03 -0.17600535883E+03  0.10915844059E+04  0.90278840826E+03 0.  0.
        -24    2    4    4    0    0 -0.26102862359E+03 -0.10846888984E+03 -0.82603072968E+02  0.30516273092E+03  0.79997389224E+02 0.  0.
         24    2    4    4    0    0  0.36263737683E+03  0.68745712807E+03 -0.93402285867E+02  0.78642167497E+03  0.75045944894E+02 0.  0.
         13    1    3    3    0    0 -0.61456593608E+00 -0.23218684171E+02  0.43930992853E+02  0.49693230112E+02  0.00000000000E+00 0. -1.
        -13    1    3    3    0    0 -0.10099418731E+03 -0.55576955407E+03  0.38048090832E+03  0.68106192427E+03  0.00000000000E+00 0.  1.
          2    1    6    6  502    0  0.23615017245E+03  0.51659001349E+03 -0.58951418333E+02  0.57105815440E+03  0.00000000000E+00 0. -1.
          3    1    5    5  503    0 -0.24011480599E+03 -0.85088581355E+02 -0.49411385766E+02  0.25949310545E+03  0.00000000000E+00 0. -1.
         -4    1    5    5    0  503 -0.20913817601E+02 -0.23380308482E+02 -0.33191687201E+02  0.45669625470E+02  0.00000000000E+00 0.  1.
         -1    1    6    6    0  502  0.12648720438E+03  0.17086711459E+03 -0.34450867534E+02  0.21536352057E+03  0.00000000000E+00 0.  1.
<mgrwt>
<rscale>  0 0.18053298E+04</rscale>
<asrwt>0</asrwt>
<pdfrwt beam="1">  1        2 0.15928816E+00 0.18053298E+04</pdfrwt>
<pdfrwt beam="2">  1       -2 0.12107177E+00 0.18053298E+04</pdfrwt>
<totfact> 0.11720473E+01</totfact>
</mgrwt>
</event>
<event>
12    1  0.1532786E-007  0.1733207E+04  0.7818608E-02  0.8742649E-01
          1   -1    0    0  501    0  0.00000000000E+00  0.00000000000E+00  0.73692307828E+03  0.73692307828E+03  0.00000000000E+00 0. -1.
         -1   -1    0    0    0  501 -0.00000000000E+00 -0.00000000000E+00 -0.10191039730E+04  0.10191039730E+04  0.00000000000E+00 0.  1.
         23    2    1    2    0    0 -0.20245733068E+03  0.27225131276E+03 -0.64139210075E+03  0.73107578776E+03  0.89320952117E+02 0.  0.
        254    2    1    2    0    0  0.20245733068E+03 -0.27225131276E+03  0.35921120605E+03  0.10249512635E+04  0.89798811460E+03 0.  0.
        -24    2    4    4    0    0  0.16975344170E+03  0.28952812533E+03  0.29430566396E+03  0.45211280443E+03  0.71745367532E+02 0.  0.
         24    2    4    4    0    0  0.32703888986E+02 -0.56177943809E+03  0.64905542088E+02  0.57283845908E+03  0.85237840084E+02 0.  0.
         11    1    3    3    0    0 -0.17679343238E+03  0.23316168990E+03 -0.47194543438E+03  0.55529522275E+03  0.00000000000E+00 0.  1.
        -11    1    3    3    0    0 -0.25663898300E+02  0.39089622867E+02 -0.16944666637E+03  0.17578056501E+03  0.00000000000E+00 0. -1.
          2    1    6    6  502    0 -0.76831677423E+00 -0.16923302374E+03  0.57703108796E+02  0.17880172091E+03  0.00000000000E+00 0. -1.
          3    1    5    5  503    0  0.92952218873E+00  0.13839490898E+01 -0.39939876082E+01  0.43279629847E+01  0.00000000000E+00 0. -1.
         -2    1    5    5    0  503  0.16882391951E+03  0.28814417624E+03  0.29829965157E+03  0.44778484145E+03  0.00000000000E+00 0.  1.
         -3    1    6    6    0  502  0.33472205761E+02 -0.39254641435E+03  0.72024332923E+01  0.39403673817E+03  0.00000000000E+00 0.  1.
<mgrwt>
<rscale>  0 0.17332066E+04</rscale>
<asrwt>0</asrwt>
<pdfrwt beam="1">  1        1 0.11337278E+00 0.17332066E+04</pdfrwt>
<pdfrwt beam="2">  1       -1 0.15678523E+00 0.17332066E+04</pdfrwt>
<totfact> 0.73866610E+00</totfact>
</mgrwt>
</event>
<event>
12    1  0.2157347E-007  0.1991311E+04  0.7818608E-02  0.8610694E-01
         -1   -1    0    0    0  501 -0.00000000000E+00  0.00000000000E+00  0.68593888451E+03  0.68593888451E+03  0.00000000000E+00 0.  1.
          1   -1    0    0  501    0  0.00000000000E+00 -0.00000000000E+00 -0.14452153392E+04  0.14452153392E+04  0.00000000000E+00 0. -1.
         23    2    1    2    0    0 -0.63467798713E+03  0.96270408879E+02  0.18917921386E+03  0.67425637540E+03  0.82150750668E+02 0.  0.
        254    2    1    2    0    0  0.63467798713E+03 -0.96270408879E+02 -0.94845566859E+03  0.14568978484E+04  0.90049933164E+03 0.  0.
        -24    2    4    4    0    0  0.35390689019E+01  0.32854998707E+03 -0.33747562830E+03  0.47781499386E+03  0.80372567769E+02 0.  0.
         24    2    4    4    0    0  0.63113891823E+03 -0.42482039595E+03 -0.61098004030E+03  0.97908285450E+03  0.80609698011E+02 0.  0.
         11    1    3    3    0    0 -0.13972506796E+03  0.18208699258E+02  0.69504705813E+01  0.14107785222E+03  0.00000000000E+00 0. -1.
        -11    1    3    3    0    0 -0.49495291917E+03  0.78061709621E+02  0.18222874328E+03  0.53317852318E+03  0.00000000000E+00 0.  1.
          2    1    6    6  502    0  0.35109528022E+02 -0.40726560842E+02 -0.63785382169E+02  0.83426055249E+02  0.00000000000E+00 0. -1.
          1    1    5    5  503    0  0.78648129333E+00 -0.27027779737E+01  0.20321421225E+01  0.34717665828E+01  0.00000000000E+00 0. -1.
         -2    1    5    5    0  503  0.27525876086E+01  0.33125276505E+03 -0.33950777042E+03  0.47434322728E+03  0.00000000000E+00 0.  1.
         -1    1    6    6    0  502  0.59602939021E+03 -0.38409383511E+03 -0.54719465813E+03  0.89565679925E+03  0.00000000000E+00 0.  1.
<mgrwt>
<rscale>  0 0.19913105E+04</rscale>
<asrwt>0</asrwt>
<pdfrwt beam="1">  1        1 0.22234082E+00 0.19913105E+04</pdfrwt>
<pdfrwt beam="2">  1       -1 0.10552906E+00 0.19913105E+04</pdfrwt>
<totfact> 0.55789584E+00</totfact>
</mgrwt>
</event>
<event>
12    1  0.1532786E-007  0.1719454E+04  0.7818608E-02  0.8750346E-01
         -1   -1    0    0    0  501 -0.00000000000E+00  0.00000000000E+00  0.22374932066E+03  0.22374932066E+03  0.00000000000E+00 0.  1.
          1   -1    0    0  501    0  0.00000000000E+00 -0.00000000000E+00 -0.33033857071E+04  0.33033857071E+04  0.00000000000E+00 0. -1.
         23    2    1    2    0    0 -0.68389014668E+02 -0.41599213595E+03 -0.24097520419E+03  0.49442243167E+03  0.93048253093E+02 0.  0.
        254    2    1    2    0    0  0.68389014668E+02  0.41599213595E+03 -0.28386611822E+04  0.30327125961E+04  0.98062320406E+03 0.  0.
        -24    2    4    4    0    0 -0.15106204156E+03  0.41600710788E+03 -0.46294271263E+03  0.64559096488E+03  0.81179335696E+02 0.  0.
         24    2    4    4    0    0  0.21945105622E+03 -0.14971925614E-01 -0.23757184696E+04  0.23871216312E+04  0.78438950910E+02 0.  0.
         11    1    3    3    0    0 -0.50639543443E+02 -0.76460804626E+02 -0.49334165509E+02  0.10413682293E+03  0.00000000000E+00 0. -1.
        -11    1    3    3    0    0 -0.17749471225E+02 -0.33953133133E+03 -0.19164103868E+03  0.39028560874E+03  0.00000000000E+00 0.  1.
          2    1    6    6  502    0  0.18085115902E+03  0.30982048643E+02 -0.18922228708E+04  0.19010982147E+04  0.00000000000E+00 0. -1.
          3    1    5    5  503    0 -0.11704088468E+03  0.33620643768E+03 -0.41390489505E+03  0.54594010621E+03  0.00000000000E+00 0. -1.
         -4    1    5    5    0  503 -0.34021156878E+02  0.79800670197E+02 -0.49037817587E+02  0.99650858666E+02  0.00000000000E+00 0.  1.
         -3    1    6    6    0  502  0.38599897202E+02 -0.30997020568E+02 -0.48349559875E+03  0.48602341647E+03  0.00000000000E+00 0.  1.
<mgrwt>
<rscale>  0 0.17194538E+04</rscale>
<asrwt>0</asrwt>
<pdfrwt beam="1">  1        1 0.50821317E+00 0.17194538E+04</pdfrwt>
<pdfrwt beam="2">  1       -1 0.34422973E-01 0.17194538E+04</pdfrwt>
<totfact> 0.27126249E+00</totfact>
</mgrwt>
</event>
<event>
12    1  0.1532786E-007  0.3007875E+04  0.7818608E-02  0.8241486E-01
          2   -1    0    0  501    0  0.00000000000E+00  0.00000000000E+00  0.11413452526E+04  0.11413452526E+04  0.00000000000E+00 0. -1.
         -2   -1    0    0    0  501 -0.00000000000E+00 -0.00000000000E+00 -0.19817205086E+04  0.19817205086E+04  0.00000000000E+00 0.  1.
         23    2    1    2    0    0  0.77694709313E+03 -0.45939758195E+03 -0.14509806090E+04  0.17112868185E+04  0.92005020003E+02 0.  0.
        254    2    1    2    0    0 -0.77694709313E+03  0.45939758195E+03  0.61060535295E+03  0.14117789427E+04  0.89754552092E+03 0.  0.
        -24    2    4    4    0    0 -0.85386315838E+03  0.51594748572E+03  0.73034646187E+03  0.12389477330E+04  0.79381543339E+02 0.  0.
         24    2    4    4    0    0  0.76916065257E+02 -0.56549903770E+02 -0.11974110892E+03  0.17283120970E+03  0.80116921866E+02 0.  0.
         11    1    3    3    0    0  0.73644591911E+03 -0.43738525489E+03 -0.14091004131E+04  0.16490064970E+04  0.00000000000E+00 0.  1.
        -11    1    3    3    0    0  0.40501174022E+02 -0.22012327050E+02 -0.41880195937E+02  0.62280321539E+02  0.00000000000E+00 0. -1.
          2    1    6    6  502    0  0.12538138213E+02  0.19206061546E+02 -0.10816232791E+02  0.25358797325E+02  0.00000000000E+00 0. -1.
          1    1    5    5  503    0 -0.56327704815E+03  0.29708712440E+03  0.47623894361E+03  0.79520143603E+03  0.00000000000E+00 0. -1.
         -2    1    5    5    0  503 -0.29058611023E+03  0.21886036132E+03  0.25410751827E+03  0.44374629695E+03  0.00000000000E+00 0.  1.
         -1    1    6    6    0  502  0.64377927043E+02 -0.75755965316E+02 -0.10892487613E+03  0.14747241238E+03  0.00000000000E+00 0.  1.
<mgrwt>
<rscale>  0 0.30078745E+04</rscale>
<asrwt>0</asrwt>
<pdfrwt beam="1">  1        2 0.17559158E+00 0.30078745E+04</pdfrwt>
<pdfrwt beam="2">  1       -2 0.30488008E+00 0.30078745E+04</pdfrwt>
<totfact> 0.52151393E-01</totfact>
</mgrwt>
</event>
<event>
12    1  0.1532786E-007  0.1330843E+04  0.7818608E-02  0.9005457E-01
         -1   -1    0    0    0  501 -0.00000000000E+00  0.00000000000E+00  0.17906250145E+04  0.17906250145E+04  0.00000000000E+00 0.  1.
          1   -1    0    0  501    0  0.00000000000E+00 -0.00000000000E+00 -0.24728014976E+03  0.24728014976E+03  0.00000000000E+00 0. -1.
         23    2    1    2    0    0 -0.18725471319E+03  0.17391320851E+03  0.76988521040E+03  0.81639400447E+03  0.92009790951E+02 0.  0.
        254    2    1    2    0    0  0.18725471319E+03 -0.17391320851E+03  0.77345965434E+03  0.12215111598E+04  0.91024147614E+03 0.  0.
        -24    2    4    4    0    0 -0.33085448501E+03 -0.23920977802E+03  0.35604919546E+03  0.54759724187E+03  0.80035626852E+02 0.  0.
         24    2    4    4    0    0  0.51810919820E+03  0.65296569510E+02  0.41741045888E+03  0.67391391791E+03  0.85015847479E+02 0.  0.
         13    1    3    3    0    0 -0.12127515798E+03  0.15493047347E+03  0.48580312439E+03  0.52413337160E+03  0.00000000000E+00 0. -1.
        -13    1    3    3    0    0 -0.65979555216E+02  0.18982735044E+02  0.28408208600E+03  0.29226063287E+03  0.00000000000E+00 0.  1.
          4    1    6    6  502    0  0.29631140488E+02  0.90980820125E+01  0.35019239440E+01  0.31193638041E+02  0.00000000000E+00 0. -1.
          1    1    5    5  503    0 -0.12779813131E+03 -0.91254007694E+02  0.18975421078E+03  0.24630533245E+03  0.00000000000E+00 0. -1.
         -2    1    5    5    0  503 -0.20305635370E+03 -0.14795577033E+03  0.16629498468E+03  0.30129190942E+03  0.00000000000E+00 0.  1.
         -3    1    6    6    0  502  0.48847805771E+03  0.56198487497E+02  0.41390853494E+03  0.64272027987E+03  0.00000000000E+00 0.  1.
<mgrwt>
<rscale>  0 0.13308434E+04</rscale>
<asrwt>0</asrwt>
<pdfrwt beam="1">  1        1 0.38043101E-01 0.13308434E+04</pdfrwt>
<pdfrwt beam="2">  1       -1 0.27548076E+00 0.13308434E+04</pdfrwt>
<totfact> 0.52789123E+00</totfact>
</mgrwt>
</event>
<event>
12    1  0.1532786E-007  0.1946875E+04  0.7818608E-02  0.8631869E-01
          2   -1    0    0  501    0  0.00000000000E+00  0.00000000000E+00  0.20525016213E+04  0.20525016213E+04  0.00000000000E+00 0. -1.
         -2   -1    0    0    0  501 -0.00000000000E+00 -0.00000000000E+00 -0.46167105285E+03  0.46167105285E+03  0.00000000000E+00 0.  1.
         23    2    1    2    0    0  0.62602878454E+03 -0.75417453017E+01  0.70816225473E+02  0.63663910185E+03  0.91244129800E+02 0.  0.
        254    2    1    2    0    0 -0.62602878454E+03  0.75417453017E+01  0.15200143430E+04  0.18775335723E+04  0.90703902629E+03 0.  0.
        -24    2    4    4    0    0 -0.59921599923E+03 -0.34051967129E+03  0.71681097152E+03  0.99761082326E+03  0.79974530438E+02 0.  0.
         24    2    4    4    0    0 -0.26812785306E+02  0.34806141659E+03  0.80320337144E+03  0.87992274901E+03  0.85221553449E+02 0.  0.
         11    1    3    3    0    0  0.75276576015E+02  0.96514277642E+01 -0.19275082970E+02  0.78302246315E+02  0.00000000000E+00 0. -1.
        -11    1    3    3    0    0  0.55075220852E+03 -0.17193173066E+02  0.90091308443E+02  0.55833685554E+03  0.00000000000E+00 0.  1.
          2    1    6    6  502    0  0.90494405548E+01  0.29183991729E+03  0.63185860628E+03  0.69605871019E+03  0.00000000000E+00 0. -1.
          3    1    5    5  503    0 -0.42821730913E+03 -0.24868684663E+03  0.56428353911E+03  0.75075370398E+03  0.00000000000E+00 0. -1.
         -2    1    5    5    0  503 -0.17099869010E+03 -0.91832824660E+02  0.15252743241E+03  0.24685711928E+03  0.00000000000E+00 0.  1.
         -1    1    6    6    0  502 -0.35862225860E+02  0.56221499298E+02  0.17134476516E+03  0.18386403883E+03  0.00000000000E+00 0.  1.
<mgrwt>
<rscale>  0 0.19468750E+04</rscale>
<asrwt>0</asrwt>
<pdfrwt beam="1">  1        2 0.31576947E+00 0.19468750E+04</pdfrwt>
<pdfrwt beam="2">  1       -2 0.71026317E-01 0.19468750E+04</pdfrwt>
<totfact> 0.10493026E+01</totfact>
</mgrwt>
</event>
<event>
12    1  0.1532786E-007  0.1650296E+04  0.7818608E-02  0.8790231E-01
         -1   -1    0    0    0  501 -0.00000000000E+00  0.00000000000E+00  0.14891536706E+04  0.14891536706E+04  0.00000000000E+00 0.  1.
          1   -1    0    0  501    0  0.00000000000E+00 -0.00000000000E+00 -0.45721881778E+03  0.45721881778E+03  0.00000000000E+00 0. -1.
         23    2    1    2    0    0  0.22622493326E+03 -0.33457003753E+03 -0.11814813675E+03  0.43101815395E+03  0.93288993859E+02 0.  0.
        254    2    1    2    0    0 -0.22622493326E+03  0.33457003753E+03  0.11500829896E+04  0.15153543345E+04  0.90027387254E+03 0.  0.
        -24    2    4    4    0    0 -0.32553703770E+03  0.15224492222E+03  0.25952039666E+02  0.36936995090E+03  0.81288209545E+02 0.  0.
         24    2    4    4    0    0  0.99312104442E+02  0.18232511531E+03  0.11241309499E+04  0.11459843835E+04  0.80650313156E+02 0.  0.
         13    1    3    3    0    0  0.54393450516E+02 -0.23762480661E+02 -0.17818980287E+02  0.61974341503E+02  0.00000000000E+00 0.  1.
        -13    1    3    3    0    0  0.17183148274E+03 -0.31080755687E+03 -0.10032915646E+03  0.36904381244E+03  0.00000000000E+00 0. -1.
          4    1    6    6  502    0  0.87454448010E+02  0.97839334488E+02  0.80598175970E+03  0.81659501151E+03  0.00000000000E+00 0. -1.
          3    1    5    5  503    0 -0.32048283693E+03  0.14305346924E+03  0.38441619124E+02  0.35305991264E+03  0.00000000000E+00 0. -1.
         -2    1    5    5    0  503 -0.50542007703E+01  0.91914529768E+01 -0.12489579458E+02  0.16310038268E+02  0.00000000000E+00 0.  1.
         -3    1    6    6    0  502  0.11857656432E+02  0.84485780823E+02  0.31814919022E+03  0.32938937204E+03  0.00000000000E+00 0.  1.
<mgrwt>
<rscale>  0 0.16502958E+04</rscale>
<asrwt>0</asrwt>
<pdfrwt beam="1">  1        1 0.70341357E-01 0.16502958E+04</pdfrwt>
<pdfrwt beam="2">  1       -1 0.22910056E+00 0.16502958E+04</pdfrwt>
<totfact> 0.45821528E+00</totfact>
</mgrwt>
</event>
<event>
12    1  0.1532786E-007  0.1802232E+04  0.7818608E-02  0.8705114E-01
          1   -1    0    0  501    0  0.00000000000E+00  0.00000000000E+00  0.20325954028E+04  0.20325954028E+04  0.00000000000E+00 0. -1.
         -1   -1    0    0    0  501 -0.00000000000E+00 -0.00000000000E+00 -0.39949408647E+03  0.39949408647E+03  0.00000000000E+00 0.  1.
         23    2    1    2    0    0 -0.19021277810E+03  0.28821137795E+03 -0.14979013398E+03  0.38698914063E+03  0.89871082082E+02 0.  0.
        254    2    1    2    0    0  0.19021277810E+03 -0.28821137795E+03  0.17828914503E+04  0.20451003487E+04  0.94047159081E+03 0.  0.
        -24    2    4    4    0    0 -0.11554462044E+03 -0.42780215074E+03  0.35109827340E+03  0.57219007836E+03  0.88126322407E+02 0.  0.
         24    2    4    4    0    0  0.30575739854E+03  0.13959077279E+03  0.14317931769E+04  0.14729102703E+04  0.80372832869E+02 0.  0.
         11    1    3    3    0    0 -0.29833197850E+02  0.44916141427E+02 -0.63029712189E+02  0.82947116124E+02  0.00000000000E+00 0. -1.
        -11    1    3    3    0    0 -0.16037958025E+03  0.24329523652E+03 -0.86760421795E+02  0.30404202450E+03  0.00000000000E+00 0.  1.
          2    1    6    6  502    0  0.19301973357E+03  0.89839857806E+02  0.10618502030E+04  0.10829836893E+04  0.00000000000E+00 0. -1.
          1    1    5    5  503    0 -0.12936803420E+03 -0.35817612110E+03  0.29638217623E+03  0.48256462405E+03  0.00000000000E+00 0. -1.
         -2    1    5    5    0  503  0.13823413753E+02 -0.69626029632E+02  0.54716097175E+02  0.89625454309E+02  0.00000000000E+00 0.  1.
         -1    1    6    6    0  502  0.11273766497E+03  0.49750914981E+02  0.36994297391E+03  0.38992658103E+03  0.00000000000E+00 0.  1.
<mgrwt>
<rscale>  0 0.18022318E+04</rscale>
<asrwt>0</asrwt>
<pdfrwt beam="1">  1        1 0.31270698E+00 0.18022318E+04</pdfrwt>
<pdfrwt beam="2">  1       -1 0.61460630E-01 0.18022318E+04</pdfrwt>
<totfact> 0.71747130E+00</totfact>
</mgrwt>
</event>
<event>
12    1  0.1532786E-007  0.1439356E+04  0.7818608E-02  0.8925813E-01
          2   -1    0    0  501    0  0.00000000000E+00  0.00000000000E+00  0.13885131065E+04  0.13885131065E+04  0.00000000000E+00 0. -1.
         -2   -1    0    0    0  501 -0.00000000000E+00 -0.00000000000E+00 -0.37301495571E+03  0.37301495571E+03  0.00000000000E+00 0.  1.
         23    2    1    2    0    0  0.34401290572E+03 -0.10236582644E+03  0.61496866033E+03  0.71697560830E+03  0.83928111958E+02 0.  0.
        254    2    1    2    0    0 -0.34401290572E+03  0.10236582644E+03  0.40052949049E+03  0.10445524540E+04  0.89545648392E+03 0.  0.
        -24    2    4    4    0    0 -0.36072033553E+03  0.35453713775E+03  0.54095814771E+03  0.74493396391E+03  0.80468319825E+02 0.  0.
         24    2    4    4    0    0  0.16707429812E+02 -0.25217131131E+03 -0.14042865722E+03  0.29961849005E+03  0.78622664386E+02 0.  0.
         11    1    3    3    0    0  0.24542174378E+02 -0.20605900977E+02  0.10408348865E+03  0.10890497734E+03  0.00000000000E+00 0.  1.
        -11    1    3    3    0    0  0.31947073134E+03 -0.81759925462E+02  0.51088517168E+03  0.60807063096E+03  0.00000000000E+00 0. -1.
          4    1    6    6  502    0 -0.23472427317E+01 -0.46103485077E+02 -0.64210116091E+02  0.79082108553E+02  0.00000000000E+00 0. -1.
          1    1    5    5  503    0 -0.10088775110E+02  0.15024149900E+01  0.35780905734E+00  0.10206304980E+02  0.00000000000E+00 0. -1.
         -2    1    5    5    0  503 -0.35063156042E+03  0.35303472276E+03  0.54060033866E+03  0.73472765893E+03  0.00000000000E+00 0.  1.
         -3    1    6    6    0  502  0.19054672544E+02 -0.20606782623E+03 -0.76218541129E+02  0.22053638150E+03  0.00000000000E+00 0.  1.
<mgrwt>
<rscale>  0 0.14393556E+04</rscale>
<asrwt>0</asrwt>
<pdfrwt beam="1">  1        2 0.21361740E+00 0.14393556E+04</pdfrwt>
<pdfrwt beam="2">  1       -2 0.57386917E-01 0.14393556E+04</pdfrwt>
<totfact> 0.40558249E+01</totfact>
</mgrwt>
</event>
<event>
12    1  0.1532786E-007  0.1491095E+04  0.7818608E-02  0.8890397E-01
          1   -1    0    0  501    0  0.00000000000E+00  0.00000000000E+00  0.25462313635E+04  0.25462313635E+04  0.00000000000E+00 0. -1.
         -1   -1    0    0    0  501 -0.00000000000E+00 -0.00000000000E+00 -0.21829939946E+03  0.21829939946E+03  0.00000000000E+00 0.  1.
         23    2    1    2    0    0 -0.18247955277E+03  0.11092839537E+03  0.15175816805E+04  0.15351738837E+04  0.90004445709E+02 0.  0.
        254    2    1    2    0    0  0.18247955277E+03 -0.11092839537E+03  0.81035028355E+03  0.12293568792E+04  0.89947032100E+03 0.  0.
        -24    2    4    4    0    0  0.51119206647E+03  0.25470806122E+02  0.28913142207E+03  0.59322489110E+03  0.79703835613E+02 0.  0.
         24    2    4    4    0    0 -0.32871251370E+03 -0.13639920150E+03  0.52121886148E+03  0.63613198812E+03  0.79612473371E+02 0.  0.
         11    1    3    3    0    0 -0.99488824760E+02  0.11042663092E+03  0.99695050074E+03  0.10079694281E+04  0.00000000000E+00 0. -1.
        -11    1    3    3    0    0 -0.82990728008E+02  0.50176445777E+00  0.52063117977E+03  0.52720445564E+03  0.00000000000E+00 0.  1.
          4    1    6    6  502    0 -0.16659212792E+02 -0.25902592692E+02  0.25207382877E+02  0.39798063150E+02  0.00000000000E+00 0. -1.
          1    1    5    5  503    0  0.94953443494E+00 -0.11466254925E+01 -0.39338004764E+01  0.42060850979E+01  0.00000000000E+00 0. -1.
         -2    1    5    5    0  503  0.51024253203E+03  0.26617431614E+02  0.29306522255E+03  0.58901880600E+03  0.00000000000E+00 0.  1.
         -3    1    6    6    0  502 -0.31205330091E+03 -0.11049660880E+03  0.49601147860E+03  0.59633392497E+03  0.00000000000E+00 0.  1.
<mgrwt>
<rscale>  0 0.14910946E+04</rscale>
<asrwt>0</asrwt>
<pdfrwt beam="1">  1        1 0.39172788E+00 0.14910946E+04</pdfrwt>
<pdfrwt beam="2">  1       -1 0.33584525E-01 0.14910946E+04</pdfrwt>
<totfact> 0.10205494E+01</totfact>
</mgrwt>
</event>
<event>
12    1  0.1532786E-007  0.1465868E+04  0.7818608E-02  0.8907473E-01
         -2   -1    0    0    0  501 -0.00000000000E+00  0.00000000000E+00  0.24266715085E+03  0.24266715085E+03  0.00000000000E+00 0.  1.
          2   -1    0    0  501    0  0.00000000000E+00 -0.00000000000E+00 -0.22136999786E+04  0.22136999786E+04  0.00000000000E+00 0. -1.
         23    2    1    2    0    0 -0.34441081564E+03  0.25587207908E+03 -0.40276046163E+03  0.59583560293E+03  0.93352801154E+02 0.  0.
        254    2    1    2    0    0  0.34441081564E+03 -0.25587207908E+03 -0.15682723661E+04  0.18605315265E+04  0.90443906155E+03 0.  0.
        -24    2    4    4    0    0 -0.17818345982E+03 -0.27020823705E+03 -0.18976958762E+03  0.38376149131E+03  0.80613578900E+02 0.  0.
         24    2    4    4    0    0  0.52259427545E+03  0.14336157971E+02 -0.13785027785E+04  0.14767700352E+04  0.85261505884E+02 0.  0.
         11    1    3    3    0    0 -0.26930071050E+03  0.22034338422E+03 -0.27534313781E+03  0.44372054627E+03  0.00000000000E+00 0.  1.
        -11    1    3    3    0    0 -0.75110105140E+02  0.35528694864E+02 -0.12741732382E+03  0.15211505666E+03  0.00000000000E+00 0. -1.
          4    1    6    6  502    0  0.17726317705E+03  0.75765820953E+01 -0.58598373535E+03  0.61225531981E+03  0.00000000000E+00 0. -1.
          1    1    5    5  503    0  0.40244420176E+01 -0.38248068062E+02 -0.25389895549E+02  0.46084245030E+02  0.00000000000E+00 0. -1.
         -2    1    5    5    0  503 -0.18220790183E+03 -0.23196016899E+03 -0.16437969207E+03  0.33767724628E+03  0.00000000000E+00 0.  1.
         -3    1    6    6    0  502  0.34533109840E+03  0.67595758758E+01 -0.79251904318E+03  0.86451471543E+03  0.00000000000E+00 0.  1.
<mgrwt>
<rscale>  0 0.14658680E+04</rscale>
<asrwt>0</asrwt>
<pdfrwt beam="1">  1        2 0.34056922E+00 0.14658680E+04</pdfrwt>
<pdfrwt beam="2">  1       -2 0.37333408E-01 0.14658680E+04</pdfrwt>
<totfact> 0.33286451E+01</totfact>
</mgrwt>
</event>
<event>
12    1  0.1532786E-007  0.1358722E+04  0.7818608E-02  0.8984252E-01
          1   -1    0    0  501    0  0.00000000000E+00  0.00000000000E+00  0.10909181154E+04  0.10909181154E+04  0.00000000000E+00 0. -1.
         -1   -1    0    0    0  501 -0.00000000000E+00 -0.00000000000E+00 -0.42306703291E+03  0.42306703291E+03  0.00000000000E+00 0.  1.
         23    2    1    2    0    0  0.12548687475E+03  0.35462227220E+03  0.17862131446E+03  0.42654875768E+03  0.92381583787E+02 0.  0.
        254    2    1    2    0    0 -0.12548687475E+03 -0.35462227220E+03  0.48922976804E+03  0.10874363906E+04  0.89535927206E+03 0.  0.
        -24    2    4    4    0    0 -0.45090082545E+03 -0.40612157222E+03  0.20653123581E+03  0.64612488820E+03  0.81092132593E+02 0.  0.
         24    2    4    4    0    0  0.32541395070E+03  0.51499300020E+02  0.28269853222E+03  0.44131150243E+03  0.79315602796E+02 0.  0.
         11    1    3    3    0    0  0.38739309871E+02  0.21355921852E+03  0.13386312149E+03  0.25500511611E+03  0.00000000000E+00 0. -1.
        -11    1    3    3    0    0  0.86747564883E+02  0.14106305368E+03  0.44758192963E+02  0.17154364157E+03  0.00000000000E+00 0.  1.
          4    1    6    6  502    0  0.12277802506E+03  0.50704039821E+02  0.14305173415E+03  0.19521562882E+03  0.00000000000E+00 0. -1.
          1    1    5    5  503    0 -0.22594913615E+03 -0.23595853454E+03  0.76490489127E+02  0.33552978568E+03  0.00000000000E+00 0. -1.
         -2    1    5    5    0  503 -0.22495168930E+03 -0.17016303768E+03  0.13004074669E+03  0.31059510252E+03  0.00000000000E+00 0.  1.
         -3    1    6    6    0  502  0.20263592564E+03  0.79526019915E+00  0.13964679808E+03  0.24609587361E+03  0.00000000000E+00 0.  1.
<mgrwt>
<rscale>  0 0.13587222E+04</rscale>
<asrwt>0</asrwt>
<pdfrwt beam="1">  1        1 0.16783355E+00 0.13587222E+04</pdfrwt>
<pdfrwt beam="2">  1       -1 0.65087236E-01 0.13587222E+04</pdfrwt>
<totfact> 0.30154759E+01</totfact>
</mgrwt>
</event>
<event>
12    1  0.1532786E-007  0.2251634E+04  0.7818608E-02  0.8497239E-01
          1   -1    0    0  501    0  0.00000000000E+00  0.00000000000E+00  0.19803864720E+04  0.19803864720E+04  0.00000000000E+00 0. -1.
         -1   -1    0    0    0  501 -0.00000000000E+00 -0.00000000000E+00 -0.64000863458E+03  0.64000863458E+03  0.00000000000E+00 0.  1.
         23    2    1    2    0    0 -0.66611147901E+03 -0.45352113672E+03 -0.30585688240E+01  0.81096315188E+03  0.90917297317E+02 0.  0.
        254    2    1    2    0    0  0.66611147901E+03  0.45352113672E+03  0.13434364063E+04  0.18094319547E+04  0.90544834040E+03 0.  0.
        -24    2    4    4    0    0  0.65743957652E+03  0.56856001494E+03  0.14025650178E+04  0.16519276187E+04  0.78669820601E+02 0.  0.
         24    2    4    4    0    0  0.86719024863E+01 -0.11503887822E+03 -0.59128611554E+02  0.15750433606E+03  0.89455451369E+02 0.  0.
         11    1    3    3    0    0 -0.23058249734E+02 -0.17554185957E+02  0.17371293034E+02  0.33787485066E+02  0.00000000000E+00 0. -1.
        -11    1    3    3    0    0 -0.64305322927E+03 -0.43596695077E+03 -0.20429861858E+02  0.77717566682E+03  0.00000000000E+00 0.  1.
          2    1    6    6  502    0 -0.25528114687E+02 -0.57249348776E+02 -0.64747109422E+02  0.90118592717E+02  0.00000000000E+00 0. -1.
          3    1    5    5  503    0  0.30595481384E+03  0.24315636425E+03  0.69808281597E+03  0.80003311403E+03  0.00000000000E+00 0. -1.
         -2    1    5    5    0  503  0.35148476268E+03  0.32540365069E+03  0.70448220185E+03  0.85189450462E+03  0.00000000000E+00 0.  1.
         -1    1    6    6    0  502  0.34200017174E+02 -0.57789529444E+02  0.56184978685E+01  0.67385743346E+02  0.00000000000E+00 0.  1.
<mgrwt>
<rscale>  0 0.22516345E+04</rscale>
<asrwt>0</asrwt>
<pdfrwt beam="1">  1        1 0.30467484E+00 0.22516345E+04</pdfrwt>
<pdfrwt beam="2">  1       -1 0.98462868E-01 0.22516345E+04</pdfrwt>
<totfact> 0.27534827E+00</totfact>
</mgrwt>
</event>
<event>
12    1  0.1532786E-007  0.2120366E+04  0.7818608E-02  0.8552325E-01
          1   -1    0    0  501    0  0.00000000000E+00  0.00000000000E+00  0.16779264826E+04  0.16779264826E+04  0.00000000000E+00 0. -1.
         -1   -1    0    0    0  501 -0.00000000000E+00 -0.00000000000E+00 -0.66986729434E+03  0.66986729434E+03  0.00000000000E+00 0.  1.
         23    2    1    2    0    0 -0.48715014546E+02  0.79629650279E+03  0.35923606505E+02  0.80355760109E+03  0.89179817042E+02 0.  0.
        254    2    1    2    0    0  0.48715014546E+02 -0.79629650279E+03  0.97213558176E+03  0.15442361759E+04  0.89618999354E+03 0.  0.
        -24    2    4    4    0    0  0.11894902199E+03 -0.97721092047E+03  0.76480971412E+03  0.12491516555E+04  0.79723940495E+02 0.  0.
         24    2    4    4    0    0 -0.70234007443E+02  0.18091441768E+03  0.20732586765E+03  0.29508452037E+03  0.80174911566E+02 0.  0.
         13    1    3    3    0    0 -0.59271608155E+02  0.58240541146E+03  0.57957253760E+02  0.58827564125E+03  0.00000000000E+00 0.  1.
        -13    1    3    3    0    0  0.10556593608E+02  0.21389109133E+03 -0.22033647255E+02  0.21528195984E+03  0.00000000000E+00 0. -1.
          4    1    6    6  502    0  0.11041408762E+02  0.62159436114E+02  0.41629873408E+02  0.75622447497E+02  0.00000000000E+00 0. -1.
          3    1    5    5  503    0  0.45952404425E+02 -0.19058061387E+03  0.12445637054E+03  0.23221107214E+03  0.00000000000E+00 0. -1.
         -4    1    5    5    0  503  0.72996617565E+02 -0.78663030660E+03  0.64035334358E+03  0.10169405834E+04  0.00000000000E+00 0.  1.
         -3    1    6    6    0  502 -0.81275416205E+02  0.11875498156E+03  0.16569599424E+03  0.21946207288E+03  0.00000000000E+00 0.  1.
<mgrwt>
<rscale>  0 0.21203661E+04</rscale>
<asrwt>0</asrwt>
<pdfrwt beam="1">  1        1 0.25814254E+00 0.21203661E+04</pdfrwt>
<pdfrwt beam="2">  1       -1 0.10305651E+00 0.21203661E+04</pdfrwt>
<totfact> 0.40276178E+00</totfact>
</mgrwt>
</event>
<event>
12    1  0.1532786E-007  0.1259352E+04  0.7818608E-02  0.9062435E-01
         -1   -1    0    0    0  501 -0.00000000000E+00  0.00000000000E+00  0.19269899538E+03  0.19269899538E+03  0.00000000000E+00 0.  1.
          1   -1    0    0  501    0  0.00000000000E+00 -0.00000000000E+00 -0.20575713460E+04  0.20575713460E+04  0.00000000000E+00 0. -1.
         23    2    1    2    0    0 -0.10076182494E+03  0.21480401777E+03 -0.13968007007E+03  0.29027801625E+03  0.91962456088E+02 0.  0.
        254    2    1    2    0    0  0.10076182494E+03 -0.21480401777E+03 -0.17251922805E+04  0.19599923251E+04  0.89943748992E+03 0.  0.
        -24    2    4    4    0    0  0.17262691348E+03 -0.11189269000E+03  0.77687718694E+01  0.22067376707E+03  0.79476614955E+02 0.  0.
         24    2    4    4    0    0 -0.71865088545E+02 -0.10291132777E+03 -0.17329610524E+04  0.17393185580E+04  0.79496571365E+02 0.  0.
         13    1    3    3    0    0 -0.26778589058E+01  0.46402365854E+02  0.61340391295E+01  0.46882586546E+02  0.00000000000E+00 0. -1.
        -13    1    3    3    0    0 -0.98083966032E+02  0.16840165191E+03 -0.14581410920E+03  0.24339542970E+03  0.00000000000E+00 0.  1.
          2    1    6    6  502    0 -0.85419076913E+02 -0.62523313329E+02 -0.12665160243E+04  0.12709321080E+04  0.00000000000E+00 0. -1.
          3    1    5    5  503    0  0.11149734674E+03 -0.51512684747E+02 -0.30596648226E+02  0.12657555017E+03  0.00000000000E+00 0. -1.
         -4    1    5    5    0  503  0.61129566745E+02 -0.60380005250E+02  0.38365420095E+02  0.94098216899E+02  0.00000000000E+00 0.  1.
         -3    1    6    6    0  502  0.13553988368E+02 -0.40388014440E+02 -0.46644502807E+03  0.46838644998E+03  0.00000000000E+00 0.  1.
<mgrwt>
<rscale>  0 0.12593521E+04</rscale>
<asrwt>0</asrwt>
<pdfrwt beam="1">  1        1 0.31654945E+00 0.12593521E+04</pdfrwt>
<pdfrwt beam="2">  1       -1 0.29645998E-01 0.12593521E+04</pdfrwt>
<totfact> 0.28013763E+01</totfact>
</mgrwt>
</event>
<event>
12    1  0.1532786E-007  0.1369658E+04  0.7818608E-02  0.8976079E-01
         -2   -1    0    0    0  501 -0.00000000000E+00  0.00000000000E+00  0.37387065451E+03  0.37387065451E+03  0.00000000000E+00 0.  1.
          2   -1    0    0  501    0  0.00000000000E+00 -0.00000000000E+00 -0.12544206504E+04  0.12544206504E+04  0.00000000000E+00 0. -1.
         23    2    1    2    0    0  0.11594744937E+03  0.31670670688E+02 -0.74610543803E+03  0.76123309288E+03  0.91409269968E+02 0.  0.
        254    2    1    2    0    0 -0.11594744937E+03 -0.31670670688E+02 -0.13444455784E+03  0.86705821201E+03  0.84809655198E+03 0.  0.
        -24    2    4    4    0    0  0.49847802448E+02  0.21435712547E+03 -0.39859471313E+03  0.46155815706E+03  0.75659806784E+02 0.  0.
         24    2    4    4    0    0 -0.16579525182E+03 -0.24602779616E+03  0.26415015530E+03  0.40550005495E+03  0.81469307167E+02 0.  0.
         13    1    3    3    0    0  0.12200308768E+03  0.41519591961E+02 -0.55450467109E+03  0.56928381339E+03  0.00000000000E+00 0. -1.
        -13    1    3    3    0    0 -0.60556383153E+01 -0.98489212725E+01 -0.19160076694E+03  0.19194927949E+03  0.00000000000E+00 0.  1.
          2    1    6    6  502    0 -0.11487932474E+03 -0.22389307328E+03  0.20726708674E+03  0.32601382295E+03  0.00000000000E+00 0. -1.
          3    1    5    5  503    0  0.38969166223E+02  0.21607028348E+03 -0.36235030310E+03  0.42367759614E+03  0.00000000000E+00 0. -1.
         -4    1    5    5    0  503  0.10878636225E+02 -0.17131580108E+01 -0.36244410036E+02  0.37880560917E+02  0.00000000000E+00 0.  1.
         -1    1    6    6    0  502 -0.50915927082E+02 -0.22134722885E+02  0.56883068559E+02  0.79486231993E+02  0.00000000000E+00 0.  1.
<mgrwt>
<rscale>  0 0.13696585E+04</rscale>
<asrwt>0</asrwt>
<pdfrwt beam="1">  1        2 0.19298779E+00 0.13696585E+04</pdfrwt>
<pdfrwt beam="2">  1       -2 0.57518563E-01 0.13696585E+04</pdfrwt>
<totfact> 0.48548714E+01</totfact>
</mgrwt>
</event>
<event>
12    1  0.1532786E-007  0.3383262E+04  0.7818608E-02  0.8142027E-01
         -1   -1    0    0    0  501 -0.00000000000E+00  0.00000000000E+00  0.98263158698E+03  0.98263158698E+03  0.00000000000E+00 0.  1.
          1   -1    0    0  501    0  0.00000000000E+00 -0.00000000000E+00 -0.29121954035E+04  0.29121954035E+04  0.00000000000E+00 0. -1.
         23    2    1    2    0    0  0.14460574010E+04  0.15722066392E+01 -0.19506113137E+03  0.14622153804E+04  0.94554190175E+02 0.  0.
        254    2    1    2    0    0 -0.14460574010E+04 -0.15722066392E+01 -0.17345026851E+04  0.24326116101E+04  0.90444192834E+03 0.  0.
        -24    2    4    4    0    0 -0.10969497373E+03 -0.18245427826E+03 -0.68516578738E+03  0.72172951714E+03  0.78222687238E+02 0.  0.
         24    2    4    4    0    0 -0.13363624273E+04  0.18088207162E+03 -0.10493368978E+04  0.17108820929E+04  0.86178593279E+02 0.  0.
         13    1    3    3    0    0  0.24845267454E+03 -0.33189397253E-01  0.22591895176E+01  0.24846294799E+03  0.00000000000E+00 0.  1.
        -13    1    3    3    0    0  0.11976047265E+04  0.16053960365E+01 -0.19732032089E+03  0.12137524324E+04  0.00000000000E+00 0. -1.
          2    1    6    6  502    0 -0.13074537154E+04  0.17418522088E+03 -0.10402432009E+04  0.16798457150E+04  0.00000000000E+00 0. -1.
          1    1    5    5  503    0 -0.12163216402E+03 -0.16555864077E+03 -0.63703624597E+03  0.66934238289E+03  0.00000000000E+00 0. -1.
         -2    1    5    5    0  503  0.11937190292E+02 -0.16895637491E+02 -0.48129541409E+02  0.52387134246E+02  0.00000000000E+00 0.  1.
         -1    1    6    6    0  502 -0.28908711857E+02  0.66968507402E+01 -0.90936968368E+01  0.31036377901E+02  0.00000000000E+00 0.  1.
<mgrwt>
<rscale>  0 0.33832619E+04</rscale>
<asrwt>0</asrwt>
<pdfrwt beam="1">  1        1 0.44803006E+00 0.33832619E+04</pdfrwt>
<pdfrwt beam="2">  1       -1 0.15117409E+00 0.33832619E+04</pdfrwt>
<totfact> 0.19471021E-01</totfact>
</mgrwt>
</event>
<event>
12    1  0.1532786E-007  0.1405218E+04  0.7818608E-02  0.8950050E-01
         -2   -1    0    0    0  501 -0.00000000000E+00  0.00000000000E+00  0.35507873655E+03  0.35507873655E+03  0.00000000000E+00 0. -1.
          2   -1    0    0  501    0  0.00000000000E+00 -0.00000000000E+00 -0.13902815755E+04  0.13902815755E+04  0.00000000000E+00 0.  1.
         23    2    1    2    0    0  0.63107446251E+02  0.68831519840E+02  0.18193013873E+03  0.22375777340E+03  0.90822012109E+02 0.  0.
        254    2    1    2    0    0 -0.63107446251E+02 -0.68831519840E+02 -0.12171329777E+04  0.15216025387E+04  0.90837287078E+03 0.  0.
        -24    2    4    4    0    0 -0.26323033252E+02 -0.36404629364E+03 -0.13598713560E+03  0.39737816813E+03  0.78703884720E+02 0.  0.
         24    2    4    4    0    0 -0.36784413000E+02  0.29521477380E+03 -0.10811458421E+04  0.11242243705E+04  0.80617911744E+02 0.  0.
         13    1    3    3    0    0  0.51662354158E+02  0.49825076519E+02  0.44286672323E+02  0.84337692835E+02  0.00000000000E+00 0. -1.
        -13    1    3    3    0    0  0.11445092094E+02  0.19006443321E+02  0.13764346641E+03  0.13942008057E+03  0.00000000000E+00 0.  1.
          4    1    6    6  502    0 -0.26918973249E+02  0.28985021033E+03 -0.10678743658E+04  0.11068393906E+04  0.00000000000E+00 0. -1.
          1    1    5    5  503    0 -0.50311386234E+02 -0.23142503075E+03 -0.10513843869E+03  0.25911941597E+03  0.00000000000E+00 0. -1.
         -2    1    5    5    0  503  0.23988352983E+02 -0.13262126289E+03 -0.30848696906E+02  0.13825875216E+03  0.00000000000E+00 0.  1.
         -3    1    6    6    0  502 -0.98654397512E+01  0.53645634667E+01 -0.13271476337E+02  0.17384979921E+02  0.00000000000E+00 0.  1.
<mgrwt>
<rscale>  0 0.14052180E+04</rscale>
<asrwt>0</asrwt>
<pdfrwt beam="1">  1        2 0.21388947E+00 0.14052180E+04</pdfrwt>
<pdfrwt beam="2">  1       -2 0.54627498E-01 0.14052180E+04</pdfrwt>
<totfact> 0.44960558E+01</totfact>
</mgrwt>
</event>
<event>
12    1  0.1532786E-007  0.2332733E+04  0.7818608E-02  0.8465126E-01
         -1   -1    0    0    0  501 -0.00000000000E+00  0.00000000000E+00  0.98387236014E+03  0.98387236014E+03  0.00000000000E+00 0.  1.
          1   -1    0    0  501    0  0.00000000000E+00 -0.00000000000E+00 -0.13827100961E+04  0.13827100961E+04  0.00000000000E+00 0. -1.
         23    2    1    2    0    0  0.63259390398E+03  0.67691373157E+03 -0.48607548527E+03  0.10504970181E+04  0.94272797265E+02 0.  0.
        254    2    1    2    0    0 -0.63259390398E+03 -0.67691373157E+03  0.87237749320E+02  0.13160854381E+04  0.93063591602E+03 0.  0.
        -24    2    4    4    0    0 -0.98610143921E+02 -0.27553321982E+02  0.39631448611E+03  0.41693643683E+03  0.79294857443E+02 0.  0.
         24    2    4    4    0    0 -0.53398376006E+03 -0.64936040959E+03 -0.30907673679E+03  0.89914900129E+03  0.78312832586E+02 0.  0.
         11    1    3    3    0    0  0.44067424684E+03  0.51151717593E+03 -0.38880499515E+03  0.77911034992E+03  0.00000000000E+00 0.  1.
        -11    1    3    3    0    0  0.19191965714E+03  0.16539655564E+03 -0.97270490122E+02  0.27138666818E+03  0.00000000000E+00 0. -1.
          4    1    6    6  502    0 -0.44817420901E+02 -0.44271646615E+02 -0.45207235854E+02  0.77538855316E+02  0.00000000000E+00 0. -1.
          3    1    5    5  503    0 -0.60920763663E+02 -0.39521809271E+02  0.14123610977E+03  0.15881105616E+03  0.00000000000E+00 0. -1.
         -4    1    5    5    0  503 -0.37689380258E+02  0.11968487288E+02  0.25507837634E+03  0.25812538067E+03  0.00000000000E+00 0.  1.
         -3    1    6    6    0  502 -0.48916633916E+03 -0.60508876297E+03 -0.26386950094E+03  0.82161014598E+03  0.00000000000E+00 0.  1.
<mgrwt>
<rscale>  0 0.23327325E+04</rscale>
<asrwt>0</asrwt>
<pdfrwt beam="1">  1        1 0.21272463E+00 0.23327325E+04</pdfrwt>
<pdfrwt beam="2">  1       -1 0.15136498E+00 0.23327325E+04</pdfrwt>
<totfact> 0.24247712E+00</totfact>
</mgrwt>
</event>
<event>
12    1  0.1532786E-007  0.1288810E+04  0.7818608E-02  0.9038486E-01
         -2   -1    0    0    0  501 -0.00000000000E+00  0.00000000000E+00  0.14639588550E+03  0.14639588550E+03  0.00000000000E+00 0. -1.
          2   -1    0    0  501    0  0.00000000000E+00 -0.00000000000E+00 -0.28365414567E+04  0.28365414567E+04  0.00000000000E+00 0.  1.
         23    2    1    2    0    0 -0.72876312589E+02  0.13887230318E+03 -0.12102205758E+04  0.12240739553E+04  0.95533933319E+02 0.  0.
        254    2    1    2    0    0  0.72876312589E+02 -0.13887230318E+03 -0.14799249954E+04  0.17588633869E+04  0.93745717141E+03 0.  0.
        -24    2    4    4    0    0 -0.20718791084E+03 -0.24515564938E+03 -0.14005535625E+04  0.14389495839E+04  0.77443531909E+02 0.  0.
         24    2    4    4    0    0  0.28006422343E+03  0.10628334620E+03 -0.79371432879E+02  0.31991380302E+03  0.79453748068E+02 0.  0.
         11    1    3    3    0    0  0.12359983730E+02  0.43040510312E+02 -0.16336225075E+03  0.16938854653E+03  0.00000000000E+00 0. -1.
        -11    1    3    3    0    0 -0.85236296318E+02  0.95831792872E+02 -0.10468583251E+04  0.10546854088E+04  0.00000000000E+00 0.  1.
          4    1    6    6  502    0  0.17707559914E+03  0.25580018742E+02 -0.40834596661E+02  0.18351449386E+03  0.00000000000E+00 0. -1.
          3    1    5    5  503    0 -0.13144911768E+03 -0.95884767403E+02 -0.70801083271E+03  0.72646548328E+03  0.00000000000E+00 0. -1.
         -4    1    5    5    0  503 -0.75738793155E+02 -0.14927088198E+03 -0.69254272981E+03  0.71248410060E+03  0.00000000000E+00 0.  1.
         -3    1    6    6    0  502  0.10298862428E+03  0.80703327458E+02 -0.38536836218E+02  0.13639930916E+03  0.00000000000E+00 0.  1.
<mgrwt>
<rscale>  0 0.12888103E+04</rscale>
<asrwt>0</asrwt>
<pdfrwt beam="1">  1        2 0.43639101E+00 0.12888103E+04</pdfrwt>
<pdfrwt beam="2">  1       -2 0.22522443E-01 0.12888103E+04</pdfrwt>
<totfact> 0.37662174E+01</totfact>
</mgrwt>
</event>
<event>
12    1  0.1532786E-007  0.1143675E+04  0.7818608E-02  0.9163639E-01
          1   -1    0    0  501    0  0.00000000000E+00  0.00000000000E+00  0.10631665578E+04  0.10631665578E+04  0.00000000000E+00 0. -1.
         -1   -1    0    0    0  501 -0.00000000000E+00 -0.00000000000E+00 -0.30756980829E+03  0.30756980829E+03  0.00000000000E+00 0.  1.
         23    2    1    2    0    0  0.12569635447E+03  0.18105032369E+03  0.22556063888E+03  0.32707804533E+03  0.86738991732E+02 0.  0.
        254    2    1    2    0    0 -0.12569635447E+03 -0.18105032369E+03  0.53003611067E+03  0.10436583208E+04  0.87161093312E+03 0.  0.
        -24    2    4    4    0    0 -0.44089346725E+03 -0.20775980920E+03  0.51964233237E+03  0.71690071494E+03  0.79795323808E+02 0.  0.
         24    2    4    4    0    0  0.31519711278E+03  0.26709485504E+02  0.10393778297E+02  0.32675760587E+03  0.81239681452E+02 0.  0.
         11    1    3    3    0    0 -0.34380128282E+01  0.22114275424E+02 -0.59712199361E-01  0.22380006150E+02  0.00000000000E+00 0.  1.
        -11    1    3    3    0    0  0.12913436730E+03  0.15893604827E+03  0.22562035108E+03  0.30469803918E+03  0.00000000000E+00 0. -1.
          2    1    6    6  502    0  0.31296527262E+03  0.30416529929E+02  0.21163366434E+02  0.31515125771E+03  0.00000000000E+00 0. -1.
          1    1    5    5  503    0 -0.33898308743E+03 -0.19129348476E+03  0.43195843643E+03  0.58145577792E+03  0.00000000000E+00 0. -1.
         -2    1    5    5    0  503 -0.10191037982E+03 -0.16466324438E+02  0.87683895948E+02  0.13544493702E+03  0.00000000000E+00 0.  1.
         -1    1    6    6    0  502  0.22318401642E+01 -0.37070444251E+01 -0.10769588137E+02  0.11606348156E+02  0.00000000000E+00 0.  1.
<mgrwt>
<rscale>  0 0.11436747E+04</rscale>
<asrwt>0</asrwt>
<pdfrwt beam="1">  1        1 0.16356408E+00 0.11436747E+04</pdfrwt>
<pdfrwt beam="2">  1       -1 0.47318433E-01 0.11436747E+04</pdfrwt>
<totfact> 0.59845718E+01</totfact>
</mgrwt>
</event>
<event>
12    1  0.1532786E-007  0.2519179E+04  0.7818608E-02  0.8396185E-01
         -3   -1    0    0    0  501 -0.00000000000E+00  0.00000000000E+00  0.10992096283E+04  0.10992096283E+04  0.00000000000E+00 0.  1.
          3   -1    0    0  501    0  0.00000000000E+00 -0.00000000000E+00 -0.14433699394E+04  0.14433699394E+04  0.00000000000E+00 0. -1.
         23    2    1    2    0    0  0.57927705779E+03  0.47076510875E+03 -0.93164065390E+03  0.11971458754E+04  0.89566968057E+02 0.  0.
        254    2    1    2    0    0 -0.57927705779E+03 -0.47076510875E+03  0.58748034273E+03  0.13454336923E+04  0.95282578150E+03 0.  0.
        -24    2    4    4    0    0 -0.46630739656E+03  0.20112596597E+03  0.33953095641E+03  0.61605884403E+03  0.79705625145E+02 0.  0.
         24    2    4    4    0    0 -0.11296966123E+03 -0.67189107472E+03  0.24794938633E+03  0.72937484823E+03  0.79429279272E+02 0.  0.
         13    1    3    3    0    0  0.23189503255E+02  0.33553337085E+02 -0.81967602164E+02  0.91554722955E+02  0.00000000000E+00 0.  1.
        -13    1    3    3    0    0  0.55608755453E+03  0.43721177167E+03 -0.84967305174E+03  0.11055911525E+04  0.00000000000E+00 0. -1.
          4    1    6    6  502    0 -0.15238224772E+02 -0.11439964965E+03  0.11514715271E+02  0.11598306774E+03  0.00000000000E+00 0. -1.
          1    1    5    5  503    0 -0.26153863324E+03  0.12900890698E+03  0.23788548308E+03  0.37634459983E+03  0.00000000000E+00 0. -1.
         -2    1    5    5    0  503 -0.20476876331E+03  0.72117058989E+02  0.10164547333E+03  0.23971424420E+03  0.00000000000E+00 0.  1.
         -3    1    6    6    0  502 -0.97731436455E+02 -0.55749142507E+03  0.23643467106E+03  0.61339178049E+03  0.00000000000E+00 0.  1.
<mgrwt>
<rscale>  0 0.25191793E+04</rscale>
<asrwt>0</asrwt>
<pdfrwt beam="1">  1        3 0.22205691E+00 0.25191793E+04</pdfrwt>
<pdfrwt beam="2">  1       -3 0.16910917E+00 0.25191793E+04</pdfrwt>
<totfact> 0.58634357E-02</totfact>
</mgrwt>
</event>
<event>
12    1  0.1532786E-007  0.1264211E+04  0.7818608E-02  0.9058438E-01
          1   -1    0    0  501    0  0.00000000000E+00  0.00000000000E+00  0.48836889801E+03  0.48836889801E+03  0.00000000000E+00 0. -1.
         -1   -1    0    0    0  501 -0.00000000000E+00 -0.00000000000E+00 -0.81814640675E+03  0.81814640675E+03  0.00000000000E+00 0.  1.
         23    2    1    2    0    0 -0.18788230615E+03 -0.22951072017E+03 -0.35248032351E+02  0.31170352948E+03  0.89116411908E+02 0.  0.
        254    2    1    2    0    0  0.18788230615E+03  0.22951072017E+03 -0.29452947639E+03  0.99481177529E+03  0.90273358426E+03 0.  0.
        -24    2    4    4    0    0 -0.21823029004E+03  0.23361878159E+03  0.17173582495E+03  0.37144787032E+03  0.79234665319E+02 0.  0.
         24    2    4    4    0    0  0.40611259619E+03 -0.41080614230E+01 -0.46626530134E+03  0.62336390497E+03  0.78961445255E+02 0.  0.
         13    1    3    3    0    0 -0.14442459613E+02 -0.27302369138E+02 -0.33129048985E+02  0.45293905626E+02  0.00000000000E+00 0. -1.
        -13    1    3    3    0    0 -0.17343984653E+03 -0.20220835103E+03 -0.21189833661E+01  0.26640962386E+03  0.00000000000E+00 0.  1.
          2    1    6    6  502    0  0.88452698187E+02  0.17229310211E+02 -0.64873525007E+02  0.11103739547E+03  0.00000000000E+00 0. -1.
          1    1    5    5  503    0 -0.17350260619E+02  0.56609571251E+02  0.14526607054E+02  0.60964722695E+02  0.00000000000E+00 0. -1.
         -2    1    5    5    0  503 -0.20088002942E+03  0.17700921034E+03  0.15720921789E+03  0.31048314762E+03  0.00000000000E+00 0.  1.
         -3    1    6    6    0  502  0.31765989800E+03 -0.21337371634E+02 -0.40139177633E+03  0.51232650950E+03  0.00000000000E+00 0.  1.
<mgrwt>
<rscale>  0 0.12642108E+04</rscale>
<asrwt>0</asrwt>
<pdfrwt beam="1">  1        1 0.75133677E-01 0.12642108E+04</pdfrwt>
<pdfrwt beam="2">  1       -1 0.12586868E+00 0.12642108E+04</pdfrwt>
<totfact> 0.24817838E+01</totfact>
</mgrwt>
</event>
<event>
12    1  0.1532786E-007  0.2756697E+04  0.7818608E-02  0.8316840E-01
         -2   -1    0    0    0  501 -0.00000000000E+00  0.00000000000E+00  0.12586178375E+04  0.12586178375E+04  0.00000000000E+00 0.  1.
          2   -1    0    0  501    0  0.00000000000E+00 -0.00000000000E+00 -0.15094692230E+04  0.15094692230E+04  0.00000000000E+00 0. -1.
         23    2    1    2    0    0 -0.95897879772E+03  0.64518520090E+03 -0.53372759918E+03  0.12767762752E+04  0.96892872949E+02 0.  0.
        254    2    1    2    0    0  0.95897879772E+03 -0.64518520090E+03  0.28287621367E+03  0.14913107852E+04  0.89893527463E+03 0.  0.
        -24    2    4    4    0    0 -0.10094535547E+03 -0.18156550960E+02 -0.13498720596E+03  0.18813793525E+03  0.81576416753E+02 0.  0.
         24    2    4    4    0    0  0.10599241532E+04 -0.62702864994E+03  0.41786341963E+03  0.13031728500E+04  0.83937483417E+02 0.  0.
         11    1    3    3    0    0 -0.58671136400E+03  0.40417643005E+03 -0.27738774904E+03  0.76454743121E+03  0.00000000000E+00 0. -1.
        -11    1    3    3    0    0 -0.37226743372E+03  0.24100877085E+03 -0.25633985014E+03  0.51222884399E+03  0.00000000000E+00 0.  1.
          2    1    6    6  502    0  0.67221048182E+03 -0.35138041907E+03  0.26632875571E+03  0.80390679615E+03  0.00000000000E+00 0. -1.
          3    1    5    5  503    0 -0.63576408914E+02  0.28816772893E+02 -0.85274039906E+02  0.11019994579E+03  0.00000000000E+00 0. -1.
         -4    1    5    5    0  503 -0.37368946559E+02 -0.46973323854E+02 -0.49713166058E+02  0.77937989455E+02  0.00000000000E+00 0.  1.
         -1    1    6    6    0  502  0.38771367138E+03 -0.27564823087E+03  0.15153466392E+03  0.49926605385E+03  0.00000000000E+00 0.  1.
<mgrwt>
<rscale>  0 0.27566972E+04</rscale>
<asrwt>0</asrwt>
<pdfrwt beam="1">  1        2 0.23222603E+00 0.27566972E+04</pdfrwt>
<pdfrwt beam="2">  1       -2 0.19363351E+00 0.27566972E+04</pdfrwt>
<totfact> 0.16048708E+00</totfact>
</mgrwt>
</event>
<event>
12    1  0.1532786E-007  0.2239305E+04  0.7818608E-02  0.8502244E-01
          2   -1    0    0  501    0  0.00000000000E+00  0.00000000000E+00  0.13275897157E+04  0.13275897157E+04  0.00000000000E+00 0. -1.
         -2   -1    0    0    0  501 -0.00000000000E+00 -0.00000000000E+00 -0.94428378238E+03  0.94428378238E+03  0.00000000000E+00 0.  1.
         23    2    1    2    0    0  0.20752878200E+03 -0.77733425181E+03  0.65244600333E+03  0.10407318204E+04  0.10059920664E+03 0.  0.
        254    2    1    2    0    0 -0.20752878200E+03  0.77733425181E+03 -0.26914007004E+03  0.12311416776E+04  0.89216406491E+03 0.  0.
        -24    2    4    4    0    0 -0.23654116295E+03  0.95218142355E+03 -0.13017874870E+03  0.99279087064E+03  0.78012954720E+02 0.  0.
         24    2    4    4    0    0  0.29012380947E+02 -0.17484717174E+03 -0.13896132135E+03  0.23835080699E+03  0.78023116117E+02 0.  0.
         13    1    3    3    0    0  0.65310905609E+02 -0.14115555054E+03  0.16506719525E+03  0.22679855111E+03  0.00000000000E+00 0.  1.
        -13    1    3    3    0    0  0.14221787639E+03 -0.63617870127E+03  0.48737880807E+03  0.81393326930E+03  0.00000000000E+00 0. -1.
          2    1    6    6  502    0 -0.23819493496E+02 -0.44127940458E+02 -0.54210252578E+02  0.73847104778E+02  0.00000000000E+00 0. -1.
          3    1    5    5  503    0 -0.13300747776E+03  0.54925474293E+03 -0.36173911938E+02  0.56628642371E+03  0.00000000000E+00 0. -1.
         -4    1    5    5    0  503 -0.10353368519E+03  0.40292668062E+03 -0.94004836760E+02  0.42650444694E+03  0.00000000000E+00 0.  1.
         -1    1    6    6    0  502  0.52831874442E+02 -0.13071923128E+03 -0.84751068769E+02  0.16450370221E+03  0.00000000000E+00 0.  1.
<mgrwt>
<rscale>  0 0.22393047E+04</rscale>
<asrwt>0</asrwt>
<pdfrwt beam="1">  1        2 0.20424457E+00 0.22393047E+04</pdfrwt>
<pdfrwt beam="2">  1       -2 0.14527443E+00 0.22393047E+04</pdfrwt>
<totfact> 0.47333700E+00</totfact>
</mgrwt>
</event>
<event>
12    1  0.1532786E-007  0.1217283E+04  0.7818608E-02  0.9097862E-01
          4   -1    0    0  501    0  0.00000000000E+00  0.00000000000E+00  0.22248334545E+03  0.22248334545E+03  0.00000000000E+00 0. -1.
         -4   -1    0    0    0  501 -0.00000000000E+00 -0.00000000000E+00 -0.16650441707E+04  0.16650441707E+04  0.00000000000E+00 0.  1.
         23    2    1    2    0    0  0.47634347308E+02  0.14146160745E+03 -0.65744763987E+03  0.67990372838E+03  0.88041258875E+02 0.  0.
        254    2    1    2    0    0 -0.47634347308E+02 -0.14146160745E+03 -0.78511318538E+03  0.12076237878E+04  0.90535743301E+03 0.  0.
        -24    2    4    4    0    0 -0.17854002513E+03 -0.49121758230E+03 -0.52735530615E+03  0.74682910242E+03  0.80491214232E+02 0.  0.
         24    2    4    4    0    0  0.13090567782E+03  0.34975597485E+03 -0.25775787923E+03  0.46079468535E+03  0.80169067038E+02 0.  0.
         11    1    3    3    0    0  0.19646374616E+02  0.10165209822E+03 -0.26592770894E+03  0.28537111888E+03  0.00000000000E+00 0. -1.
        -11    1    3    3    0    0  0.27987972691E+02  0.39809509222E+02 -0.39151993093E+03  0.39453260950E+03  0.00000000000E+00 0.  1.
          2    1    6    6  502    0  0.26801479713E+02  0.64806165217E+02 -0.90105865370E+02  0.11418066973E+03  0.00000000000E+00 0. -1.
          3    1    5    5  503    0  0.72649457236E+00 -0.25293809113E+02 -0.50366432428E+02  0.56365610875E+02  0.00000000000E+00 0. -1.
         -4    1    5    5    0  503 -0.17926651970E+03 -0.46592377318E+03 -0.47698887372E+03  0.69046349155E+03  0.00000000000E+00 0.  1.
         -1    1    6    6    0  502  0.10410419811E+03  0.28494980963E+03 -0.16765201386E+03  0.34661401562E+03  0.00000000000E+00 0.  1.
<mgrwt>
<rscale>  0 0.12172832E+04</rscale>
<asrwt>0</asrwt>
<pdfrwt beam="1">  1        4 0.34228208E-01 0.12172832E+04</pdfrwt>
<pdfrwt beam="2">  1       -4 0.25616063E+00 0.12172832E+04</pdfrwt>
<totfact> 0.95243075E-01</totfact>
</mgrwt>
</event>
<event>
12    1  0.1532786E-007  0.2169627E+04  0.7818608E-02  0.8531178E-01
         -1   -1    0    0    0  501 -0.00000000000E+00  0.00000000000E+00  0.14218900235E+04  0.14218900235E+04  0.00000000000E+00 0.  1.
          1   -1    0    0  501    0  0.00000000000E+00 -0.00000000000E+00 -0.82764482538E+03  0.82764482538E+03  0.00000000000E+00 0. -1.
         23    2    1    2    0    0  0.57798012553E+03 -0.44469313567E+03 -0.29243313564E+03  0.79224962170E+03  0.10163323192E+03 0.  0.
        254    2    1    2    0    0 -0.57798012553E+03  0.44469313567E+03  0.88667833373E+03  0.14572852271E+04  0.89759052766E+03 0.  0.
        -24    2    4    4    0    0  0.39724835932E+02 -0.22473584226E+03  0.19186326879E+03  0.30862851076E+03  0.79723160743E+02 0.  0.
         24    2    4    4    0    0 -0.61770496147E+03  0.66942897793E+03  0.69481506494E+03  0.11486567164E+04  0.83364871091E+02 0.  0.
         13    1    3    3    0    0  0.54278341339E+03 -0.39551164671E+03 -0.24323464228E+03  0.71428732856E+03  0.00000000000E+00 0. -1.
        -13    1    3    3    0    0  0.35196712144E+02 -0.49181488958E+02 -0.49198493362E+02  0.77962293136E+02  0.00000000000E+00 0.  1.
          4    1    6    6  502    0 -0.76092862624E+02  0.89458240732E+02  0.56911048263E+02  0.13050581593E+03  0.00000000000E+00 0. -1.
          1    1    5    5  503    0  0.12835883636E+02 -0.86699230220E+02  0.12562972411E+03  0.15318075601E+03  0.00000000000E+00 0. -1.
         -4    1    5    5    0  503  0.26888952296E+02 -0.13803661204E+03  0.66233544678E+02  0.15544775476E+03  0.00000000000E+00 0.  1.
         -3    1    6    6    0  502 -0.54161209884E+03  0.57997073720E+03  0.63790401667E+03  0.10181509005E+04  0.00000000000E+00 0.  1.
<mgrwt>
<rscale>  0 0.21696266E+04</rscale>
<asrwt>0</asrwt>
<pdfrwt beam="1">  1        1 0.12732997E+00 0.21696266E+04</pdfrwt>
<pdfrwt beam="2">  1       -1 0.21875231E+00 0.21696266E+04</pdfrwt>
<totfact> 0.21458220E+00</totfact>
</mgrwt>
</event>
<event>
12    1  0.1532786E-007  0.1930813E+04  0.7818608E-02  0.8639669E-01
         -2   -1    0    0    0  501 -0.00000000000E+00  0.00000000000E+00  0.20502253852E+04  0.20502253852E+04  0.00000000000E+00 0.  1.
          2   -1    0    0  501    0  0.00000000000E+00 -0.00000000000E+00 -0.45458912529E+03  0.45458912529E+03  0.00000000000E+00 0. -1.
         23    2    1    2    0    0  0.22626554041E+03  0.44467229201E+03  0.13626342376E+04  0.14537581725E+04  0.87813533653E+02 0.  0.
        254    2    1    2    0    0 -0.22626554041E+03 -0.44467229201E+03  0.23300202235E+03  0.10510563380E+04  0.89526529091E+03 0.  0.
        -24    2    4    4    0    0  0.28835539332E+03 -0.36292993466E+03  0.23024573373E+03  0.52364881321E+03  0.79548798504E+02 0.  0.
         24    2    4    4    0    0 -0.51462093373E+03 -0.81742357357E+02  0.27562886132E+01  0.52740752477E+03  0.81452941205E+02 0.  0.
         11    1    3    3    0    0  0.20058111278E+03  0.42971868107E+03  0.13116204371E+04  0.13947182865E+04  0.00000000000E+00 0.  1.
        -11    1    3    3    0    0  0.25684427632E+02  0.14953610947E+02  0.51013800490E+02  0.59039886040E+02  0.00000000000E+00 0. -1.
          2    1    6    6  502    0 -0.85714996443E+02 -0.44935498681E+02 -0.41738904172E+01  0.96869401867E+02  0.00000000000E+00 0. -1.
          1    1    5    5  503    0  0.83204253798E+01 -0.49349864101E+01  0.21333887940E+02  0.23424737864E+02  0.00000000000E+00 0. -1.
         -2    1    5    5    0  503  0.28003496794E+03 -0.35799494825E+03  0.20891184579E+03  0.50022407534E+03  0.00000000000E+00 0.  1.
         -1    1    6    6    0  502 -0.42890593729E+03 -0.36806858677E+02  0.69301790304E+01  0.43053812290E+03  0.00000000000E+00 0.  1.
<mgrwt>
<rscale>  0 0.19308135E+04</rscale>
<asrwt>0</asrwt>
<pdfrwt beam="1">  1        2 0.69936790E-01 0.19308135E+04</pdfrwt>
<pdfrwt beam="2">  1       -2 0.31541929E+00 0.19308135E+04</pdfrwt>
<totfact> 0.16440748E+00</totfact>
</mgrwt>
</event>
<event>
12    1  0.1532786E-007  0.1319556E+04  0.7818608E-02  0.9014199E-01
          1   -1    0    0  501    0  0.00000000000E+00  0.00000000000E+00  0.88800797993E+03  0.88800797993E+03  0.00000000000E+00 0. -1.
         -1   -1    0    0    0  501 -0.00000000000E+00 -0.00000000000E+00 -0.49020605134E+03  0.49020605134E+03  0.00000000000E+00 0.  1.
         23    2    1    2    0    0  0.23251578444E+03 -0.26405088725E+03  0.64353369824E+02  0.36632344346E+03  0.79152055897E+02 0.  0.
        254    2    1    2    0    0 -0.23251578444E+03  0.26405088725E+03  0.33344855877E+03  0.10118905878E+04  0.88822753800E+03 0.  0.
        -24    2    4    4    0    0 -0.92894446280E+02 -0.88993713754E+02 -0.26097196417E+03  0.30197255755E+03  0.80819553281E+02 0.  0.
         24    2    4    4    0    0 -0.13962133816E+03  0.35304460100E+03  0.59442052293E+03  0.70991803025E+03  0.80704666712E+02 0.  0.
         13    1    3    3    0    0 -0.62983988156E+01 -0.10993800701E+02  0.26197262132E+01  0.12938177883E+02  0.00000000000E+00 0. -1.
        -13    1    3    3    0    0  0.23881418326E+03 -0.25305708654E+03  0.61733643611E+02  0.35338526558E+03  0.00000000000E+00 0.  1.
          2    1    6    6  502    0 -0.12959341247E+03  0.22540898895E+03  0.39075198702E+03  0.46935144637E+03  0.00000000000E+00 0. -1.
          1    1    5    5  503    0 -0.78739133436E+02 -0.84407042611E+02 -0.26274912675E+03  0.28698693975E+03  0.00000000000E+00 0. -1.
         -2    1    5    5    0  503 -0.14155312844E+02 -0.45866711435E+01  0.17771625876E+01  0.14985617797E+02  0.00000000000E+00 0.  1.
         -1    1    6    6    0  502 -0.10027925690E+02  0.12763561205E+03  0.20366853592E+03  0.24056658388E+03  0.00000000000E+00 0.  1.
<mgrwt>
<rscale>  0 0.13195558E+04</rscale>
<asrwt>0</asrwt>
<pdfrwt beam="1">  1        1 0.13661661E+00 0.13195558E+04</pdfrwt>
<pdfrwt beam="2">  1       -1 0.75416315E-01 0.13195558E+04</pdfrwt>
<totfact> 0.32286178E+01</totfact>
</mgrwt>
</event>
<event>
12    1  0.1532786E-007  0.2610783E+04  0.7818608E-02  0.8364548E-01
          2   -1    0    0  501    0  0.00000000000E+00  0.00000000000E+00  0.31382901438E+04  0.31382901438E+04  0.00000000000E+00 0. -1.
         -2   -1    0    0    0  501 -0.00000000000E+00 -0.00000000000E+00 -0.54298577690E+03  0.54298577690E+03  0.00000000000E+00 0.  1.
         23    2    1    2    0    0  0.40331912927E+03 -0.20023650022E+03  0.24889947327E+04  0.25310790242E+04  0.92224028386E+02 0.  0.
        254    2    1    2    0    0 -0.40331912927E+03  0.20023650022E+03  0.10630963426E+03  0.11501968965E+04  0.10530385493E+04 0.  0.
        -24    2    4    4    0    0 -0.37855855294E+02 -0.36884994192E+03 -0.16896026137E+03  0.41600298800E+03  0.83830606992E+02 0.  0.
         24    2    4    4    0    0 -0.36546327397E+03  0.56908644214E+03  0.27526989563E+03  0.73419390853E+03  0.76448653500E+02 0.  0.
         11    1    3    3    0    0  0.40538134821E+03 -0.20503785164E+03  0.24663620744E+04  0.25078509605E+04  0.00000000000E+00 0. -1.
        -11    1    3    3    0    0 -0.20622189402E+01  0.48013514151E+01  0.22632658288E+02  0.23228063707E+02  0.00000000000E+00 0.  1.
          2    1    6    6  502    0 -0.25950412586E+03  0.43657327897E+03  0.23605191824E+03  0.56005278979E+03  0.00000000000E+00 0. -1.
          1    1    5    5  503    0 -0.28475314310E+02 -0.36671531374E+03 -0.17181268269E+03  0.40596867218E+03  0.00000000000E+00 0. -1.
         -2    1    5    5    0  503 -0.93805409834E+01 -0.21346281772E+01  0.28524213197E+01  0.10034315820E+02  0.00000000000E+00 0.  1.
         -1    1    6    6    0  502 -0.10595914812E+03  0.13251316318E+03  0.39217977390E+02  0.17414111874E+03  0.00000000000E+00 0.  1.
<mgrwt>
<rscale>  0 0.26107830E+04</rscale>
<asrwt>0</asrwt>
<pdfrwt beam="1">  1        2 0.48281386E+00 0.26107830E+04</pdfrwt>
<pdfrwt beam="2">  1       -2 0.83536275E-01 0.26107830E+04</pdfrwt>
<totfact> 0.15753423E+00</totfact>
</mgrwt>
</event>
<event>
12    1  0.1532786E-007  0.3016046E+04  0.7818608E-02  0.8239164E-01
          1   -1    0    0  501    0  0.00000000000E+00  0.00000000000E+00  0.14143068554E+04  0.14143068554E+04  0.00000000000E+00 0. -1.
         -1   -1    0    0    0  501 -0.00000000000E+00 -0.00000000000E+00 -0.16079486132E+04  0.16079486132E+04  0.00000000000E+00 0.  1.
         23    2    1    2    0    0  0.12838242908E+04 -0.30701011400E+03  0.27364538523E+03  0.13497409514E+04  0.66774389311E+02 0.  0.
        254    2    1    2    0    0 -0.12838242908E+04  0.30701011400E+03 -0.46728714305E+03  0.16725145172E+04  0.91459691461E+03 0.  0.
        -24    2    4    4    0    0 -0.60583320172E+03  0.47771200828E+03 -0.56960468023E+03  0.96226302370E+03  0.79107546305E+02 0.  0.
         24    2    4    4    0    0 -0.67799108912E+03 -0.17070189429E+03  0.10231753718E+03  0.71025149346E+03  0.71953122987E+02 0.  0.
         13    1    3    3    0    0  0.94067462778E+02 -0.15939706959E+02  0.36493292359E+02  0.10214950905E+03  0.00000000000E+00 0.  1.
        -13    1    3    3    0    0  0.11897568281E+04 -0.29107040704E+03  0.23715209287E+03  0.12475914423E+04  0.00000000000E+00 0. -1.
          2    1    6    6  502    0 -0.67418408029E+03 -0.16225640749E+03  0.10259804512E+03  0.70098336268E+03  0.00000000000E+00 0. -1.
          1    1    5    5  503    0 -0.57519479114E+03  0.42974778057E+03 -0.53761898797E+03  0.89697624209E+03  0.00000000000E+00 0. -1.
         -2    1    5    5    0  503 -0.30638410581E+02  0.47964227719E+02 -0.31985692255E+02  0.65286781607E+02  0.00000000000E+00 0.  1.
         -1    1    6    6    0  502 -0.38070088317E+01 -0.84454868005E+01 -0.28050793813E+00  0.92681307848E+01  0.00000000000E+00 0.  1.
<mgrwt>
<rscale>  0 0.30160456E+04</rscale>
<asrwt>0</asrwt>
<pdfrwt beam="1">  1        1 0.21758567E+00 0.30160456E+04</pdfrwt>
<pdfrwt beam="2">  1       -1 0.24737671E+00 0.30160456E+04</pdfrwt>
<totfact> 0.46275203E-01</totfact>
</mgrwt>
</event>
<event>
12    1  0.1532786E-007  0.1330863E+04  0.7818608E-02  0.9005442E-01
          1   -1    0    0  501    0  0.00000000000E+00  0.00000000000E+00  0.10055458326E+04  0.10055458326E+04  0.00000000000E+00 0. -1.
         -1   -1    0    0    0  501 -0.00000000000E+00 -0.00000000000E+00 -0.44035685686E+03  0.44035685686E+03  0.00000000000E+00 0.  1.
         23    2    1    2    0    0  0.74159903920E+02  0.20779511743E+02  0.50191509121E+03  0.51589036212E+03  0.91063864897E+02 0.  0.
        254    2    1    2    0    0 -0.74159903920E+02 -0.20779511743E+02  0.63273884569E+02  0.93001232738E+03  0.92465553865E+03 0.  0.
        -24    2    4    4    0    0 -0.26396313911E+03 -0.13669580289E+03 -0.34231100525E+03  0.46009805441E+03  0.78429038083E+02 0.  0.
         24    2    4    4    0    0  0.18980323519E+03  0.11591629115E+03  0.40558488982E+03  0.46991427297E+03  0.82815858687E+02 0.  0.
         11    1    3    3    0    0  0.18108831710E+02 -0.35190367906E+02  0.18964470828E+03  0.19373024327E+03  0.00000000000E+00 0. -1.
        -11    1    3    3    0    0  0.56051072210E+02  0.55969879649E+02  0.31227038293E+03  0.32216011885E+03  0.00000000000E+00 0.  1.
          2    1    6    6  502    0  0.88829341489E+02  0.75391298636E+02  0.13529575324E+03  0.17854814662E+03  0.00000000000E+00 0. -1.
          1    1    5    5  503    0 -0.37069857602E+02 -0.41774016206E+02 -0.32814049530E+02  0.64776574617E+02  0.00000000000E+00 0. -1.
         -2    1    5    5    0  503 -0.22689328151E+03 -0.94921786688E+02 -0.30949695572E+03  0.39532147979E+03  0.00000000000E+00 0.  1.
         -1    1    6    6    0  502  0.10097389370E+03  0.40524992516E+02  0.27028913659E+03  0.29136612635E+03  0.00000000000E+00 0.  1.
<mgrwt>
<rscale>  0 0.13308629E+04</rscale>
<asrwt>0</asrwt>
<pdfrwt beam="1">  1        1 0.15469936E+00 0.13308629E+04</pdfrwt>
<pdfrwt beam="2">  1       -1 0.67747209E-01 0.13308629E+04</pdfrwt>
<totfact> 0.32403025E+01</totfact>
</mgrwt>
</event>
<event>
12    1  0.1532786E-007  0.2684674E+04  0.7818608E-02  0.8339995E-01
          2   -1    0    0  501    0  0.00000000000E+00  0.00000000000E+00  0.13348570543E+04  0.13348570543E+04  0.00000000000E+00 0. -1.
         -2   -1    0    0    0  501 -0.00000000000E+00 -0.00000000000E+00 -0.13498592049E+04  0.13498592049E+04  0.00000000000E+00 0.  1.
         23    2    1    2    0    0 -0.27148063990E+03 -0.10473940694E+03  0.11478939683E+04  0.11877745722E+04  0.92064058509E+02 0.  0.
        254    2    1    2    0    0  0.27148063990E+03  0.10473940694E+03 -0.11628961189E+04  0.14969416869E+04  0.89656842987E+03 0.  0.
        -24    2    4    4    0    0  0.45253858392E+03  0.26346913673E+03 -0.32628829240E+03  0.62274983110E+03  0.84534882985E+02 0.  0.
         24    2    4    4    0    0 -0.18105794402E+03 -0.15872972979E+03 -0.83660782646E+03  0.87419185577E+03  0.79508736559E+02 0.  0.
         13    1    3    3    0    0 -0.12603813799E+02  0.10482916879E+02  0.13499334001E+03  0.13598510770E+03  0.00000000000E+00 0.  1.
        -13    1    3    3    0    0 -0.25887682610E+03 -0.11522232382E+03  0.10129006283E+04  0.10517894645E+04  0.00000000000E+00 0. -1.
          2    1    6    6  502    0 -0.33778822054E+01  0.72726929408E+01 -0.11643146783E+02  0.14137362477E+02  0.00000000000E+00 0. -1.
          3    1    5    5  503    0  0.20879163730E+03  0.12467982601E+03 -0.20121600582E+03  0.31563727255E+03  0.00000000000E+00 0. -1.
         -4    1    5    5    0  503  0.24374694662E+03  0.13878931071E+03 -0.12507228657E+03  0.30711255856E+03  0.00000000000E+00 0.  1.
         -1    1    6    6    0  502 -0.17768006182E+03 -0.16600242273E+03 -0.82496467968E+03  0.86005449330E+03  0.00000000000E+00 0.  1.
<mgrwt>
<rscale>  0 0.26846743E+04</rscale>
<asrwt>0</asrwt>
<pdfrwt beam="1">  1        2 0.20536262E+00 0.26846743E+04</pdfrwt>
<pdfrwt beam="2">  1       -2 0.20767065E+00 0.26846743E+04</pdfrwt>
<totfact> 0.16428812E+00</totfact>
</mgrwt>
</event>
<event>
12    1  0.1532786E-007  0.1667176E+04  0.7818608E-02  0.8780310E-01
         -2   -1    0    0    0  501 -0.00000000000E+00  0.00000000000E+00  0.76197028933E+03  0.76197028933E+03  0.00000000000E+00 0.  1.
          2   -1    0    0  501    0  0.00000000000E+00 -0.00000000000E+00 -0.91193721272E+03  0.91193721272E+03  0.00000000000E+00 0. -1.
         23    2    1    2    0    0 -0.11228248550E+03  0.41231364889E+03  0.34122498018E+03  0.55445420832E+03  0.91515465436E+02 0.  0.
        254    2    1    2    0    0  0.11228248550E+03 -0.41231364889E+03 -0.49119190357E+03  0.11194532937E+04  0.91065706449E+03 0.  0.
        -24    2    4    4    0    0  0.43332135138E+03 -0.90278168087E+02 -0.48003994265E+03  0.65787267557E+03  0.80253159036E+02 0.  0.
         24    2    4    4    0    0 -0.32103886588E+03 -0.32203548080E+03 -0.11151960921E+02  0.46158061816E+03  0.78482459985E+02 0.  0.
         13    1    3    3    0    0 -0.49926827839E+02  0.14448222113E+03  0.69723432092E+02  0.16801534853E+03  0.00000000000E+00 0. -1.
        -13    1    3    3    0    0 -0.62355657665E+02  0.26783142776E+03  0.27150154809E+03  0.38643885979E+03  0.00000000000E+00 0.  1.
          4    1    6    6  502    0 -0.30437048227E+03 -0.28903096353E+03 -0.28568073470E+02  0.42070942844E+03  0.00000000000E+00 0. -1.
          1    1    5    5  503    0  0.38929710609E+03 -0.93209396076E+02 -0.39667858208E+03  0.56355490044E+03  0.00000000000E+00 0. -1.
         -2    1    5    5    0  503  0.44024245289E+02  0.29312279888E+01 -0.83361360568E+02  0.94317775135E+02  0.00000000000E+00 0.  1.
         -3    1    6    6    0  502 -0.16668383606E+02 -0.33004517273E+02  0.17416112549E+02  0.40871189716E+02  0.00000000000E+00 0.  1.
<mgrwt>
<rscale>  0 0.16671761E+04</rscale>
<asrwt>0</asrwt>
<pdfrwt beam="1">  1        2 0.14029803E+00 0.16671761E+04</pdfrwt>
<pdfrwt beam="2">  1       -2 0.11722620E+00 0.16671761E+04</pdfrwt>
<totfact> 0.15448535E+01</totfact>
</mgrwt>
</event>
<event>
12    1  0.1532786E-007  0.3914343E+04  0.7818608E-02  0.8022053E-01
          4   -1    0    0  501    0  0.00000000000E+00  0.00000000000E+00  0.18693005856E+04  0.18693005856E+04  0.00000000000E+00 0. -1.
         -4   -1    0    0    0  501 -0.00000000000E+00 -0.00000000000E+00 -0.20491726887E+04  0.20491726887E+04  0.00000000000E+00 0.  1.
         23    2    1    2    0    0  0.14693873082E+04 -0.10311809497E+04 -0.54098891053E+03  0.18770878853E+04  0.91415070804E+02 0.  0.
        254    2    1    2    0    0 -0.14693873082E+04  0.10311809497E+04  0.36111680747E+03  0.20413853890E+04  0.90244985733E+03 0.  0.
        -24    2    4    4    0    0 -0.11866444369E+04  0.10814586163E+04  0.53601032224E+03  0.16944687328E+04  0.78990268882E+02 0.  0.
         24    2    4    4    0    0 -0.28274287130E+03 -0.50277666513E+02 -0.17489351478E+03  0.34691665616E+03  0.85393499684E+02 0.  0.
         13    1    3    3    0    0  0.52306676521E+03 -0.40035822660E+03 -0.16237088792E+03  0.67841716939E+03  0.00000000000E+00 0. -1.
        -13    1    3    3    0    0  0.94632054298E+03 -0.63082272314E+03 -0.37861802261E+03  0.11986707159E+04  0.00000000000E+00 0.  1.
          2    1    6    6  502    0 -0.75542349516E+02  0.15307060927E+02 -0.18799122630E+02  0.79337000802E+02  0.00000000000E+00 0. -1.
          3    1    5    5  503    0 -0.53339376477E+01  0.85063523881E+01  0.99951045896E+01  0.14167252293E+02  0.00000000000E+00 0. -1.
         -4    1    5    5    0  503 -0.11813104993E+04  0.10729522639E+04  0.52601521765E+03  0.16803014805E+04  0.00000000000E+00 0.  1.
         -1    1    6    6    0  502 -0.20720052178E+03 -0.65584727440E+02 -0.15609439215E+03  0.26757965536E+03  0.00000000000E+00 0.  1.
<mgrwt>
<rscale>  0 0.39143427E+04</rscale>
<asrwt>0</asrwt>
<pdfrwt beam="1">  1        4 0.28758470E+00 0.39143427E+04</pdfrwt>
<pdfrwt beam="2">  1       -4 0.31525734E+00 0.39143427E+04</pdfrwt>
<totfact> 0.14234349E-03</totfact>
</mgrwt>
</event>
<event>
12    1  0.1532786E-007  0.2022433E+04  0.7818608E-02  0.8596204E-01
          2   -1    0    0  501    0  0.00000000000E+00  0.00000000000E+00  0.19310743807E+04  0.19310743807E+04  0.00000000000E+00 0. -1.
         -2   -1    0    0    0  501 -0.00000000000E+00 -0.00000000000E+00 -0.52952850330E+03  0.52952850330E+03  0.00000000000E+00 0.  1.
         23    2    1    2    0    0 -0.37662861388E+03  0.26273089491E+03  0.13714650329E+04  0.14491154551E+04  0.90236521891E+02 0.  0.
        254    2    1    2    0    0  0.37662861388E+03 -0.26273089491E+03  0.30080844519E+02  0.10114874289E+04  0.90073599110E+03 0.  0.
        -24    2    4    4    0    0  0.60287208904E+03 -0.14353871863E+03  0.24038432626E+03  0.67062660416E+03  0.88866745235E+02 0.  0.
         24    2    4    4    0    0 -0.22624347516E+03 -0.11919217628E+03 -0.21030348174E+03  0.34086082473E+03  0.81028775542E+02 0.  0.
         13    1    3    3    0    0 -0.25221223064E+03  0.19973532699E+03  0.10623995352E+04  0.11100441354E+04  0.00000000000E+00 0.  1.
        -13    1    3    3    0    0 -0.12441638324E+03  0.62995567919E+02  0.30906549775E+03  0.33907131978E+03  0.00000000000E+00 0. -1.
          2    1    6    6  502    0 -0.11997011559E+03 -0.10729412358E+03 -0.11760497373E+03  0.19933837422E+03  0.00000000000E+00 0. -1.
          3    1    5    5  503    0  0.30045024983E+00 -0.13455438260E+01  0.98987064482E+01  0.99942557446E+01  0.00000000000E+00 0. -1.
         -4    1    5    5    0  503  0.60257163879E+03 -0.14219317481E+03  0.23048561981E+03  0.66063234842E+03  0.00000000000E+00 0.  1.
         -1    1    6    6    0  502 -0.10627335957E+03 -0.11898052700E+02 -0.92698508015E+02  0.14152245052E+03  0.00000000000E+00 0.  1.
<mgrwt>
<rscale>  0 0.20224331E+04</rscale>
<asrwt>0</asrwt>
<pdfrwt beam="1">  1        2 0.29708836E+00 0.20224331E+04</pdfrwt>
<pdfrwt beam="2">  1       -2 0.81465925E-01 0.20224331E+04</pdfrwt>
<totfact> 0.89787002E+00</totfact>
</mgrwt>
</event>
<event>
12    1  0.2036201E-007  0.1744764E+04  0.7818608E-02  0.8736238E-01
          2   -1    0    0  501    0  0.00000000000E+00  0.00000000000E+00  0.12525206116E+04  0.12525206116E+04  0.00000000000E+00 0. -1.
         -2   -1    0    0    0  501 -0.00000000000E+00 -0.00000000000E+00 -0.60761503478E+03  0.60761503478E+03  0.00000000000E+00 0.  1.
         23    2    1    2    0    0 -0.23236999315E+03 -0.59633418675E+03  0.25535795829E+03  0.69655115001E+03  0.10181130446E+03 0.  0.
        254    2    1    2    0    0  0.23236999315E+03  0.59633418675E+03  0.38954761857E+03  0.11635844964E+04  0.89026471184E+03 0.  0.
        -24    2    4    4    0    0  0.50640935985E+03  0.30520656118E+03  0.45531270685E+03  0.75049298820E+03  0.79552370117E+02 0.  0.
         24    2    4    4    0    0 -0.27403936671E+03  0.29112762557E+03 -0.65765088281E+02  0.41309150820E+03  0.80415660423E+02 0.  0.
         11    1    3    3    0    0 -0.92187667471E+02 -0.19438590787E+03  0.37610105740E+02  0.21840093238E+03  0.00000000000E+00 0.  1.
        -11    1    3    3    0    0 -0.14018232568E+03 -0.40194827888E+03  0.21774785255E+03  0.47815021762E+03  0.00000000000E+00 0. -1.
          4    1    6    6  502    0 -0.27005342530E+03  0.29594081523E+03 -0.61046929968E+02  0.40526108411E+03  0.00000000000E+00 0. -1.
          1    1    5    5  503    0  0.50926464381E+03  0.30252100564E+03  0.45414551802E+03  0.74640310009E+03  0.00000000000E+00 0. -1.
         -2    1    5    5    0  503 -0.28552839553E+01  0.26855555414E+01  0.11671888311E+01  0.40898881157E+01  0.00000000000E+00 0.  1.
         -3    1    6    6    0  502 -0.39859414064E+01 -0.48131896640E+01 -0.47181583123E+01  0.78304240943E+01  0.00000000000E+00 0.  1.
<mgrwt>
<rscale>  0 0.17447640E+04</rscale>
<asrwt>0</asrwt>
<pdfrwt beam="1">  1        2 0.19269548E+00 0.17447640E+04</pdfrwt>
<pdfrwt beam="2">  1       -2 0.93479236E-01 0.17447640E+04</pdfrwt>
<totfact> 0.16178406E+01</totfact>
</mgrwt>
</event>
<event>
12    1  0.1532786E-007  0.2992942E+04  0.7818608E-02  0.8245749E-01
          2   -1    0    0  501    0  0.00000000000E+00  0.00000000000E+00  0.16570439981E+04  0.16570439981E+04  0.00000000000E+00 0. -1.
         -2   -1    0    0    0  501 -0.00000000000E+00 -0.00000000000E+00 -0.13514579350E+04  0.13514579350E+04  0.00000000000E+00 0.  1.
         23    2    1    2    0    0 -0.62473987204E+03 -0.47070038775E+03  0.12582172141E+04  0.14843331995E+04  0.90971021184E+02 0.  0.
        254    2    1    2    0    0  0.62473987204E+03  0.47070038775E+03 -0.95263115087E+03  0.15241687336E+04  0.89650736531E+03 0.  0.
        -24    2    4    4    0    0  0.39126484784E+03 -0.21973513308E+03 -0.38502354127E+03  0.59663558996E+03  0.79744529653E+02 0.  0.
         24    2    4    4    0    0  0.23347502420E+03  0.69043552084E+03 -0.56760760960E+03  0.92753314362E+03  0.83231836895E+02 0.  0.
         11    1    3    3    0    0 -0.34058555669E+03 -0.19979963124E+03  0.63695839761E+03  0.74942272073E+03  0.00000000000E+00 0. -1.
        -11    1    3    3    0    0 -0.28415431535E+03 -0.27090075651E+03  0.62125881646E+03  0.73491047879E+03  0.00000000000E+00 0.  1.
          4    1    6    6  502    0  0.32557294865E+02  0.15439861964E+03 -0.87689193309E+02  0.18052231391E+03  0.00000000000E+00 0. -1.
          1    1    5    5  503    0  0.23322422718E+03 -0.12179002328E+03 -0.27498869303E+03  0.38058524828E+03  0.00000000000E+00 0. -1.
         -2    1    5    5    0  503  0.15804062066E+03 -0.97945109802E+02 -0.11003484824E+03  0.21605034168E+03  0.00000000000E+00 0.  1.
         -3    1    6    6    0  502  0.20091772933E+03  0.53603690120E+03 -0.47991841629E+03  0.74701082971E+03  0.00000000000E+00 0.  1.
<mgrwt>
<rscale>  0 0.29929419E+04</rscale>
<asrwt>0</asrwt>
<pdfrwt beam="1">  1        2 0.25492985E+00 0.29929419E+04</pdfrwt>
<pdfrwt beam="2">  1       -2 0.20791660E+00 0.29929419E+04</pdfrwt>
<totfact> 0.10483915E+00</totfact>
</mgrwt>
</event>
<event>
12    1  0.1532786E-007  0.1425611E+04  0.7818608E-02  0.8935486E-01
          2   -1    0    0  501    0  0.00000000000E+00  0.00000000000E+00  0.52419082424E+03  0.52419082424E+03  0.00000000000E+00 0. -1.
         -2   -1    0    0    0  501 -0.00000000000E+00 -0.00000000000E+00 -0.96928739573E+03  0.96928739573E+03  0.00000000000E+00 0.  1.
         23    2    1    2    0    0  0.37508938838E+03 -0.73203398417E+02 -0.35670056917E+03  0.53102051980E+03  0.93256150423E+02 0.  0.
        254    2    1    2    0    0 -0.37508938838E+03  0.73203398417E+02 -0.88396002316E+02  0.96245770017E+03  0.87889714107E+03 0.  0.
        -24    2    4    4    0    0 -0.32704159986E+03 -0.18834320169E+03 -0.39268743369E+03  0.55066369151E+03  0.81226294387E+02 0.  0.
         24    2    4    4    0    0 -0.48047788513E+02  0.26154660011E+03  0.30429143138E+03  0.41179400866E+03  0.79156909670E+02 0.  0.
         13    1    3    3    0    0  0.33605100122E+03 -0.86410133365E+02 -0.34218538237E+03  0.48732722320E+03  0.00000000000E+00 0.  1.
        -13    1    3    3    0    0  0.39038387161E+02  0.13206734949E+02 -0.14515186808E+02  0.43693296605E+02  0.00000000000E+00 0. -1.
          4    1    6    6  502    0 -0.15226260829E+02  0.18574247302E+01  0.12374680322E+02  0.19708418469E+02  0.00000000000E+00 0. -1.
          1    1    5    5  503    0 -0.19842192856E+03 -0.73329071788E+02 -0.24363368497E+03  0.32265428396E+03  0.00000000000E+00 0. -1.
         -2    1    5    5    0  503 -0.12861967131E+03 -0.11501412991E+03 -0.14905374872E+03  0.22800940755E+03  0.00000000000E+00 0.  1.
         -3    1    6    6    0  502 -0.32821527683E+02  0.25968917538E+03  0.29191675105E+03  0.39208559019E+03  0.00000000000E+00 0.  1.
<mgrwt>
<rscale>  0 0.14256108E+04</rscale>
<asrwt>0</asrwt>
<pdfrwt beam="1">  1        2 0.80644742E-01 0.14256108E+04</pdfrwt>
<pdfrwt beam="2">  1       -2 0.14912114E+00 0.14256108E+04</pdfrwt>
<totfact> 0.17212437E+01</totfact>
</mgrwt>
</event>
<event>
12    1  0.1532786E-007  0.1609201E+04  0.7818608E-02  0.8814915E-01
         -1   -1    0    0    0  501 -0.00000000000E+00  0.00000000000E+00  0.53653775703E+03  0.53653775703E+03  0.00000000000E+00 0.  1.
          1   -1    0    0  501    0  0.00000000000E+00 -0.00000000000E+00 -0.12065921248E+04  0.12065921248E+04  0.00000000000E+00 0. -1.
         23    2    1    2    0    0  0.53576573820E+03  0.60583082993E+02 -0.27506475829E+03  0.61224888769E+03  0.92048047489E+02 0.  0.
        254    2    1    2    0    0 -0.53576573820E+03 -0.60583082993E+02 -0.39498960945E+03  0.11308809941E+04  0.91222792935E+03 0.  0.
        -24    2    4    4    0    0 -0.62128541391E+03 -0.14688120472E+02  0.87129806988E+02  0.63260972789E+03  0.79950973344E+02 0.  0.
         24    2    4    4    0    0  0.85519675708E+02 -0.45894962520E+02 -0.48211941644E+03  0.49827126622E+03  0.80094697170E+02 0.  0.
         11    1    3    3    0    0  0.47954264770E+03  0.55964843619E+02 -0.21101175995E+03  0.52689579380E+03  0.00000000000E+00 0.  1.
        -11    1    3    3    0    0  0.56223090504E+02  0.46182393733E+01 -0.64052998340E+02  0.85353093893E+02  0.00000000000E+00 0. -1.
          2    1    6    6  502    0  0.59914751747E+02 -0.35543973625E+02 -0.45227454951E+03  0.45760836932E+03  0.00000000000E+00 0. -1.
          1    1    5    5  503    0 -0.14270473408E+03 -0.88002562737E+01 -0.13220960731E+02  0.14358579123E+03  0.00000000000E+00 0. -1.
         -2    1    5    5    0  503 -0.47858067982E+03 -0.58878641985E+01  0.10035076772E+03  0.48902393666E+03  0.00000000000E+00 0.  1.
         -1    1    6    6    0  502  0.25604923961E+02 -0.10350988896E+02 -0.29844866928E+02  0.40662896898E+02  0.00000000000E+00 0.  1.
<mgrwt>
<rscale>  0 0.16092013E+04</rscale>
<asrwt>0</asrwt>
<pdfrwt beam="1">  1        1 0.18562955E+00 0.16092013E+04</pdfrwt>
<pdfrwt beam="2">  1       -1 0.82544272E-01 0.16092013E+04</pdfrwt>
<totfact> 0.14781273E+01</totfact>
</mgrwt>
</event>
<event>
12    1  0.1532786E-007  0.1855012E+04  0.7818608E-02  0.8677580E-01
         -2   -1    0    0    0  501 -0.00000000000E+00  0.00000000000E+00  0.32431480777E+03  0.32431480777E+03  0.00000000000E+00 0.  1.
          2   -1    0    0  501    0  0.00000000000E+00 -0.00000000000E+00 -0.26525695068E+04  0.26525695068E+04  0.00000000000E+00 0. -1.
         23    2    1    2    0    0 -0.60863235594E+03 -0.21940292788E+03 -0.44101358438E+03  0.78828501255E+03  0.91264943656E+02 0.  0.
        254    2    1    2    0    0  0.60863235594E+03  0.21940292788E+03 -0.18872411146E+04  0.21885993020E+04  0.89984270321E+03 0.  0.
        -24    2    4    4    0    0 -0.19192333382E+03 -0.10743915041E+03 -0.31055618155E+03  0.38869653608E+03  0.79133546317E+02 0.  0.
         24    2    4    4    0    0  0.80055568976E+03  0.32684207829E+03 -0.15766849331E+04  0.17999027659E+04  0.77456000627E+02 0.  0.
         13    1    3    3    0    0 -0.51780052882E+03 -0.20488642409E+03 -0.34375666904E+03  0.65441919435E+03  0.00000000000E+00 0.  1.
        -13    1    3    3    0    0 -0.90831827113E+02 -0.14516503788E+02 -0.97256915343E+02  0.13386581819E+03  0.00000000000E+00 0. -1.
          2    1    6    6  502    0  0.58684865625E+03  0.25486767658E+03 -0.12274738869E+04  0.13842113354E+04  0.00000000000E+00 0. -1.
          1    1    5    5  503    0 -0.18198824127E+03 -0.81596776566E+02 -0.29729702141E+03  0.35799898442E+03  0.00000000000E+00 0. -1.
         -2    1    5    5    0  503 -0.99350925513E+01 -0.25842373846E+02 -0.13259160135E+02  0.30697551653E+02  0.00000000000E+00 0.  1.
         -3    1    6    6    0  502  0.21370703351E+03  0.71974401707E+02 -0.34921104617E+03  0.41569143055E+03  0.00000000000E+00 0.  1.
<mgrwt>
<rscale>  0 0.18550122E+04</rscale>
<asrwt>0</asrwt>
<pdfrwt beam="1">  1        2 0.40808763E+00 0.18550122E+04</pdfrwt>
<pdfrwt beam="2">  1       -2 0.49894584E-01 0.18550122E+04</pdfrwt>
<totfact> 0.10137908E+01</totfact>
</mgrwt>
</event>
<event>
12    1  0.1532786E-007  0.4266426E+04  0.7818608E-02  0.7952856E-01
          1   -1    0    0  501    0  0.00000000000E+00  0.00000000000E+00  0.16555803506E+04  0.16555803506E+04  0.00000000000E+00 0. -1.
         -1   -1    0    0    0  501 -0.00000000000E+00 -0.00000000000E+00 -0.27486422620E+04  0.27486422620E+04  0.00000000000E+00 0.  1.
         23    2    1    2    0    0 -0.12390621400E+04 -0.72284294366E+03 -0.19823441858E+04  0.24488543670E+04  0.97068695110E+02 0.  0.
        254    2    1    2    0    0  0.12390621400E+04  0.72284294366E+03  0.88928227448E+03  0.19553682456E+04  0.98735257336E+03 0.  0.
        -24    2    4    4    0    0  0.19372614904E+03 -0.20785805155E+03  0.33843441762E+03  0.44916226838E+03  0.80461779069E+02 0.  0.
         24    2    4    4    0    0  0.10453359910E+04  0.93070099521E+03  0.55084785685E+03  0.15062059772E+04  0.79318395446E+02 0.  0.
         11    1    3    3    0    0 -0.82899446594E+03 -0.51654656064E+03 -0.14075769835E+04  0.17132790603E+04  0.00000000000E+00 0.  1.
        -11    1    3    3    0    0 -0.41006767410E+03 -0.20629638302E+03 -0.57476720227E+03  0.73557530668E+03  0.00000000000E+00 0. -1.
          2    1    6    6  502    0  0.45158314724E+03  0.43695478157E+03  0.27900791237E+03  0.68753344295E+03  0.00000000000E+00 0. -1.
          1    1    5    5  503    0  0.40685222622E+02 -0.68124105725E+02  0.49255009456E+02  0.93392917704E+02  0.00000000000E+00 0. -1.
         -2    1    5    5    0  503  0.15304092642E+03 -0.13973394582E+03  0.28917940817E+03  0.35576935068E+03  0.00000000000E+00 0.  1.
         -1    1    6    6    0  502  0.59375284376E+03  0.49374621364E+03  0.27183994448E+03  0.81867253427E+03  0.00000000000E+00 0.  1.
<mgrwt>
<rscale>  0 0.42664262E+04</rscale>
<asrwt>0</asrwt>
<pdfrwt beam="1">  1        1 0.25470467E+00 0.42664262E+04</pdfrwt>
<pdfrwt beam="2">  1       -1 0.42286803E+00 0.42664262E+04</pdfrwt>
<totfact> 0.19495267E-02</totfact>
</mgrwt>
</event>
<event>
12    1  0.1532786E-007  0.1220204E+04  0.7818608E-02  0.9095353E-01
         -1   -1    0    0    0  501 -0.00000000000E+00  0.00000000000E+00  0.24784616967E+03  0.24784616967E+03  0.00000000000E+00 0.  1.
          1   -1    0    0  501    0  0.00000000000E+00 -0.00000000000E+00 -0.15018371593E+04  0.15018371593E+04  0.00000000000E+00 0. -1.
         23    2    1    2    0    0 -0.16250827740E+03  0.11688652175E+03 -0.36034907577E+02  0.22296863711E+03  0.91351515472E+02 0.  0.
        254    2    1    2    0    0  0.16250827740E+03 -0.11688652175E+03 -0.12179560821E+04  0.15267146919E+04  0.89853733000E+03 0.  0.
        -24    2    4    4    0    0  0.41647611521E+02  0.36279012350E+03 -0.76330172388E+03  0.84997013944E+03  0.80427103743E+02 0.  0.
         24    2    4    4    0    0  0.12086066588E+03 -0.47967664524E+03 -0.45465435822E+03  0.67674455247E+03  0.81090192423E+02 0.  0.
         13    1    3    3    0    0 -0.51856085182E+02  0.24294567574E+02  0.29596436923E+02  0.64461063151E+02  0.00000000000E+00 0.  1.
        -13    1    3    3    0    0 -0.11065219222E+03  0.92591954171E+02 -0.65631344499E+02  0.15850757396E+03  0.00000000000E+00 0. -1.
          2    1    6    6  502    0  0.51130876595E+02 -0.34197847828E+03 -0.29282716059E+03  0.45311300150E+03  0.00000000000E+00 0. -1.
          3    1    5    5  503    0  0.32749628644E+02  0.10555795085E+03 -0.30399611035E+03  0.32346352850E+03  0.00000000000E+00 0. -1.
         -4    1    5    5    0  503  0.88979828779E+01  0.25723217265E+03 -0.45930561353E+03  0.52650661094E+03  0.00000000000E+00 0.  1.
         -1    1    6    6    0  502  0.69729789287E+02 -0.13769816696E+03 -0.16182719763E+03  0.22363155097E+03  0.00000000000E+00 0.  1.
<mgrwt>
<rscale>  0 0.12202042E+04</rscale>
<asrwt>0</asrwt>
<pdfrwt beam="1">  1        1 0.23105187E+00 0.12202042E+04</pdfrwt>
<pdfrwt beam="2">  1       -1 0.38130180E-01 0.12202042E+04</pdfrwt>
<totfact> 0.42839938E+01</totfact>
</mgrwt>
</event>
<event>
12    1  0.1532786E-007  0.1642346E+04  0.7818608E-02  0.8794947E-01
         -2   -1    0    0    0  501 -0.00000000000E+00  0.00000000000E+00  0.12815651316E+04  0.12815651316E+04  0.00000000000E+00 0.  1.
          2   -1    0    0  501    0  0.00000000000E+00 -0.00000000000E+00 -0.52617330048E+03  0.52617330048E+03  0.00000000000E+00 0. -1.
         23    2    1    2    0    0 -0.13564267825E+03  0.22396893014E+03 -0.29351190816E+03  0.40441521382E+03  0.94028756835E+02 0.  0.
        254    2    1    2    0    0  0.13564267825E+03 -0.22396893014E+03  0.10489037393E+04  0.14033232183E+04  0.89473794085E+03 0.  0.
        -24    2    4    4    0    0 -0.16189211002E+03  0.25988216621E+03  0.58953915760E+03  0.66893754760E+03  0.78569896568E+02 0.  0.
         24    2    4    4    0    0  0.29753478826E+03 -0.48385109635E+03  0.45936458171E+03  0.73438567068E+03  0.75283867467E+02 0.  0.
         11    1    3    3    0    0 -0.10895611186E+03  0.15012587429E+03 -0.25917630397E+03  0.31871863607E+03  0.00000000000E+00 0. -1.
        -11    1    3    3    0    0 -0.26686566387E+02  0.73843055853E+02 -0.34335604191E+02  0.85696577752E+02  0.00000000000E+00 0.  1.
          4    1    6    6  502    0  0.26396566988E+03 -0.43319589663E+03  0.37701561160E+03  0.63204219093E+03  0.00000000000E+00 0. -1.
          1    1    5    5  503    0 -0.16269402268E+03  0.21640011274E+03  0.53071895539E+03  0.59578600472E+03  0.00000000000E+00 0. -1.
         -2    1    5    5    0  503  0.80191266303E+00  0.43482053470E+02  0.58820202212E+02  0.73151542883E+02  0.00000000000E+00 0.  1.
         -3    1    6    6    0  502  0.33569118387E+02 -0.50655199722E+02  0.82348970109E+02  0.10234347974E+03  0.00000000000E+00 0.  1.
<mgrwt>
<rscale>  0 0.16423463E+04</rscale>
<asrwt>0</asrwt>
<pdfrwt beam="1">  1        2 0.80949739E-01 0.16423463E+04</pdfrwt>
<pdfrwt beam="2">  1       -2 0.19716387E+00 0.16423463E+04</pdfrwt>
<totfact> 0.76913935E+00</totfact>
</mgrwt>
</event>
<event>
12    1  0.1532786E-007  0.1198271E+04  0.7818608E-02  0.9114371E-01
          3   -1    0    0  501    0  0.00000000000E+00  0.00000000000E+00  0.22972372583E+03  0.22972372583E+03  0.00000000000E+00 0. -1.
         -3   -1    0    0    0  501 -0.00000000000E+00 -0.00000000000E+00 -0.15625869164E+04  0.15625869164E+04  0.00000000000E+00 0.  1.
         23    2    1    2    0    0 -0.20001540781E+03 -0.39329943128E+02 -0.49460731741E+03  0.54417280508E+03  0.99672642009E+02 0.  0.
        254    2    1    2    0    0  0.20001540781E+03  0.39329943128E+02 -0.83825587317E+03  0.12481378372E+04  0.90201005751E+03 0.  0.
        -24    2    4    4    0    0 -0.32189434063E+03  0.12865794610E+03 -0.50196955357E+03  0.61548558266E+03  0.81732711438E+02 0.  0.
         24    2    4    4    0    0  0.52190974844E+03 -0.89328002973E+02 -0.33628631960E+03  0.63265225450E+03  0.82408183708E+02 0.  0.
         13    1    3    3    0    0 -0.17493811278E+03 -0.31788847982E+02 -0.30719898239E+03  0.35494378279E+03  0.00000000000E+00 0. -1.
        -13    1    3    3    0    0 -0.25077295030E+02 -0.75410951463E+01 -0.18740833502E+03  0.18922902229E+03  0.00000000000E+00 0.  1.
          4    1    6    6  502    0  0.36895598154E+02 -0.27123477262E+02 -0.40720537925E+02  0.61279118718E+02  0.00000000000E+00 0. -1.
          1    1    5    5  503    0 -0.19212728278E+02 -0.94277923474E+01 -0.48972362638E+02  0.53444405683E+02  0.00000000000E+00 0. -1.
         -2    1    5    5    0  503 -0.30268161235E+03  0.13808573845E+03 -0.45299719093E+03  0.56204117697E+03  0.00000000000E+00 0.  1.
         -3    1    6    6    0  502  0.48501415029E+03 -0.62204525711E+02 -0.29556578168E+03  0.57137313578E+03  0.00000000000E+00 0.  1.
<mgrwt>
<rscale>  0 0.11982709E+04</rscale>
<asrwt>0</asrwt>
<pdfrwt beam="1">  1        3 0.35342112E-01 0.11982709E+04</pdfrwt>
<pdfrwt beam="2">  1       -3 0.24039798E+00 0.11982709E+04</pdfrwt>
<totfact> 0.17110194E+00</totfact>
</mgrwt>
</event>
<event>
12    1  0.1532786E-007  0.1489747E+04  0.7818608E-02  0.8891300E-01
         -1   -1    0    0    0  501 -0.00000000000E+00  0.00000000000E+00  0.15286495247E+03  0.15286495247E+03  0.00000000000E+00 0.  1.
          1   -1    0    0  501    0  0.00000000000E+00 -0.00000000000E+00 -0.36295848312E+04  0.36295848312E+04  0.00000000000E+00 0. -1.
         23    2    1    2    0    0  0.38179104354E+03 -0.22335999761E+03 -0.76806808622E+03  0.89115175479E+03  0.92567680812E+02 0.  0.
        254    2    1    2    0    0 -0.38179104354E+03  0.22335999761E+03 -0.27086517925E+04  0.28912980289E+04  0.90948098896E+03 0.  0.
        -24    2    4    4    0    0  0.98781471380E+02 -0.28182153452E+03 -0.80423377465E+03  0.86162896547E+03  0.80195719595E+02 0.  0.
         24    2    4    4    0    0 -0.48057251492E+03  0.50518153213E+03 -0.19044180179E+04  0.20296690634E+04  0.81180032803E+02 0.  0.
         13    1    3    3    0    0  0.21241970922E+03 -0.94101705351E+02 -0.32482297011E+03  0.39935851778E+03  0.00000000000E+00 0.  1.
        -13    1    3    3    0    0  0.16937133432E+03 -0.12925829226E+03 -0.44324511611E+03  0.49179323701E+03  0.00000000000E+00 0. -1.
          4    1    6    6  502    0 -0.27745868944E+03  0.30911086662E+03 -0.10217417094E+04  0.11029455893E+04  0.00000000000E+00 0. -1.
          3    1    5    5  503    0  0.78043775391E+02 -0.19924406742E+03 -0.46498722241E+03  0.51186145223E+03  0.00000000000E+00 0. -1.
         -4    1    5    5    0  503  0.20737695990E+02 -0.82577467096E+02 -0.33924655224E+03  0.34976751324E+03  0.00000000000E+00 0.  1.
         -3    1    6    6    0  502 -0.20311382548E+03  0.19607066551E+03 -0.88267630843E+03  0.92672347409E+03  0.00000000000E+00 0.  1.
<mgrwt>
<rscale>  0 0.14897467E+04</rscale>
<asrwt>0</asrwt>
<pdfrwt beam="1">  1        1 0.55839763E+00 0.14897467E+04</pdfrwt>
<pdfrwt beam="2">  1       -1 0.23517687E-01 0.14897467E+04</pdfrwt>
<totfact> 0.30059214E+00</totfact>
</mgrwt>
</event>
<event>
12    1  0.1532786E-007  0.1656441E+04  0.7818608E-02  0.8786605E-01
          1   -1    0    0  501    0  0.00000000000E+00  0.00000000000E+00  0.94476637356E+03  0.94476637356E+03  0.00000000000E+00 0. -1.
         -1   -1    0    0    0  501 -0.00000000000E+00 -0.00000000000E+00 -0.72605184277E+03  0.72605184277E+03  0.00000000000E+00 0.  1.
         23    2    1    2    0    0 -0.97807388742E+02  0.47036867135E+03  0.40752930904E+03  0.63701815220E+03  0.94334597198E+02 0.  0.
        254    2    1    2    0    0  0.97807388742E+02 -0.47036867135E+03 -0.18881477825E+03  0.10338000641E+04  0.89570005014E+03 0.  0.
        -24    2    4    4    0    0  0.31714635807E+03 -0.58255687104E+03  0.66715118170E+02  0.67171175170E+03  0.82410253862E+02 0.  0.
         24    2    4    4    0    0 -0.21933896933E+03  0.11218819969E+03 -0.25552989642E+03  0.36208831242E+03  0.71530709545E+02 0.  0.
         13    1    3    3    0    0 -0.10192537079E+03  0.43021994198E+03  0.39946511187E+03  0.59586102011E+03  0.00000000000E+00 0.  1.
        -13    1    3    3    0    0  0.41179820447E+01  0.40148729368E+02  0.80641971750E+01  0.41157132093E+02  0.00000000000E+00 0. -1.
          2    1    6    6  502    0 -0.89848502750E+02  0.18911581228E+02 -0.12944718683E+03  0.15870405013E+03  0.00000000000E+00 0. -1.
          1    1    5    5  503    0  0.47968791395E+01 -0.34014868675E+02 -0.10130643543E+02  0.35814121224E+02  0.00000000000E+00 0. -1.
         -2    1    5    5    0  503  0.31234947893E+03 -0.54854200237E+03  0.76845761713E+02  0.63589763048E+03  0.00000000000E+00 0.  1.
         -1    1    6    6    0  502 -0.12949046658E+03  0.93276618466E+02 -0.12608270960E+03  0.20338426229E+03  0.00000000000E+00 0.  1.
<mgrwt>
<rscale>  0 0.16564412E+04</rscale>
<asrwt>0</asrwt>
<pdfrwt beam="1">  1        1 0.14534867E+00 0.16564412E+04</pdfrwt>
<pdfrwt beam="2">  1       -1 0.11170028E+00 0.16564412E+04</pdfrwt>
<totfact> 0.11765129E+01</totfact>
</mgrwt>
</event>
<event>
12    1  0.1532786E-007  0.2472083E+04  0.7818608E-02  0.8412999E-01
          1   -1    0    0  501    0  0.00000000000E+00  0.00000000000E+00  0.19420485058E+04  0.19420485058E+04  0.00000000000E+00 0.  1.
         -1   -1    0    0    0  501 -0.00000000000E+00 -0.00000000000E+00 -0.78669418386E+03  0.78669418386E+03  0.00000000000E+00 0. -1.
         23    2    1    2    0    0 -0.91376369015E+03  0.41550771706E+03  0.91268553638E+03  0.13597608339E+04  0.91344911217E+02 0.  0.
        254    2    1    2    0    0  0.91376369015E+03 -0.41550771706E+03  0.24266878555E+03  0.13689818557E+04  0.89867259746E+03 0.  0.
        -24    2    4    4    0    0  0.75079853949E+03  0.30285188472E+02  0.40980129324E+03  0.85905574720E+03  0.73648064005E+02 0.  0.
         24    2    4    4    0    0  0.16296515066E+03 -0.44579290553E+03 -0.16713250768E+03  0.50992610851E+03  0.82476700143E+02 0.  0.
         13    1    3    3    0    0 -0.72297017405E+03  0.28830461218E+03  0.69089640533E+03  0.10407416898E+04  0.00000000000E+00 0.  1.
        -13    1    3    3    0    0 -0.19079351610E+03  0.12720310488E+03  0.22178913105E+03  0.31901914414E+03  0.00000000000E+00 0. -1.
          4    1    6    6  502    0  0.42185397215E+02 -0.19434024669E+03 -0.37711243158E+02  0.20241017040E+03  0.00000000000E+00 0. -1.
          3    1    5    5  503    0  0.45216829980E+03  0.43232911699E+02  0.21739391051E+03  0.50357260482E+03  0.00000000000E+00 0. -1.
         -4    1    5    5    0  503  0.29863023968E+03 -0.12947723227E+02  0.19240738273E+03  0.35548314238E+03  0.00000000000E+00 0.  1.
         -3    1    6    6    0  502  0.12077975345E+03 -0.25145265884E+03 -0.12942126452E+03  0.30751593811E+03  0.00000000000E+00 0.  1.
<mgrwt>
<rscale>  0 0.24720827E+04</rscale>
<asrwt>0</asrwt>
<pdfrwt beam="1">  1        1 0.29877669E+00 0.24720827E+04</pdfrwt>
<pdfrwt beam="2">  1       -1 0.12102987E+00 0.24720827E+04</pdfrwt>
<totfact> 0.17610472E+00</totfact>
</mgrwt>
</event>
<event>
12    1  0.1532786E-007  0.1317749E+04  0.7818608E-02  0.9015607E-01
          2   -1    0    0  501    0  0.00000000000E+00  0.00000000000E+00  0.12634736863E+04  0.12634736863E+04  0.00000000000E+00 0. -1.
         -2   -1    0    0    0  501 -0.00000000000E+00 -0.00000000000E+00 -0.34358889456E+03  0.34358889456E+03  0.00000000000E+00 0.  1.
         23    2    1    2    0    0 -0.12652985984E+03  0.18874437133E+03 -0.59546624641E+02  0.25254754292E+03  0.92737359197E+02 0.  0.
        254    2    1    2    0    0  0.12652985984E+03 -0.18874437133E+03  0.97943141635E+03  0.13545150379E+04  0.90762924448E+03 0.  0.
        -24    2    4    4    0    0  0.91776125351E+02  0.27412083772E+03  0.39252669977E+02  0.30293789695E+03  0.81642552923E+02 0.  0.
         24    2    4    4    0    0  0.34753734488E+02 -0.46286520905E+03  0.94017874638E+03  0.10515771410E+04  0.80164733133E+02 0.  0.
         11    1    3    3    0    0 -0.99569694022E+01  0.94231423628E+02 -0.31661735707E+02  0.99905795360E+02  0.00000000000E+00 0. -1.
        -11    1    3    3    0    0 -0.11657289044E+03  0.94512947701E+02 -0.27884888935E+02  0.15264174756E+03  0.00000000000E+00 0.  1.
          4    1    6    6  502    0  0.54599684642E+02 -0.26835087725E+03  0.50440585176E+03  0.57394998229E+03  0.00000000000E+00 0. -1.
          3    1    5    5  503    0 -0.61752964540E+01  0.10098186180E+03  0.69805816407E+01  0.10141104092E+03  0.00000000000E+00 0. -1.
         -4    1    5    5    0  503  0.97951421805E+02  0.17313897592E+03  0.32272088336E+02  0.20152685603E+03  0.00000000000E+00 0.  1.
         -3    1    6    6    0  502 -0.19845950153E+02 -0.19451433181E+03  0.43577289461E+03  0.47762715867E+03  0.00000000000E+00 0.  1.
<mgrwt>
<rscale>  0 0.13177489E+04</rscale>
<asrwt>0</asrwt>
<pdfrwt beam="1">  1        2 0.19438056E+00 0.13177489E+04</pdfrwt>
<pdfrwt beam="2">  1       -2 0.52859831E-01 0.13177489E+04</pdfrwt>
<totfact> 0.57382012E+01</totfact>
</mgrwt>
</event>
<event>
12    1  0.1532786E-007  0.1391107E+04  0.7818608E-02  0.8960281E-01
          1   -1    0    0  501    0  0.00000000000E+00  0.00000000000E+00  0.21457661212E+04  0.21457661212E+04  0.00000000000E+00 0. -1.
         -1   -1    0    0    0  501 -0.00000000000E+00 -0.00000000000E+00 -0.22546491981E+03  0.22546491981E+03  0.00000000000E+00 0.  1.
         23    2    1    2    0    0 -0.23733954396E+02  0.24583114061E+01 -0.11189833883E+03  0.15025307425E+03  0.97393039800E+02 0.  0.
        254    2    1    2    0    0  0.23733954396E+02 -0.24583114061E+01  0.20321995402E+04  0.22209779667E+04  0.89573367341E+03 0.  0.
        -24    2    4    4    0    0  0.68479301025E+02 -0.18759794343E+03  0.20000799865E+04  0.20115354133E+04  0.77925371275E+02 0.  0.
         24    2    4    4    0    0 -0.44745346628E+02  0.18513963202E+03  0.32119553713E+02  0.20944255346E+03  0.80967203728E+02 0.  0.
         11    1    3    3    0    0 -0.14082627551E+02 -0.41375020272E+00 -0.12934445677E+03  0.13010949268E+03  0.00000000000E+00 0.  1.
        -11    1    3    3    0    0 -0.96513268458E+01  0.28720616088E+01  0.17446117932E+02  0.20143581575E+02  0.00000000000E+00 0. -1.
          2    1    6    6  502    0 -0.57391899244E+02  0.16799982055E+03  0.46770530659E+02  0.18358990261E+03  0.00000000000E+00 0. -1.
          3    1    5    5  503    0  0.86027705707E+02 -0.15947438479E+03  0.16799850271E+04  0.16897285394E+04  0.00000000000E+00 0. -1.
         -4    1    5    5    0  503 -0.17548404682E+02 -0.28123558641E+02  0.32009495937E+03  0.32180687388E+03  0.00000000000E+00 0.  1.
         -1    1    6    6    0  502  0.12646552616E+02  0.17139811475E+02 -0.14650976946E+02  0.25852650850E+02  0.00000000000E+00 0.  1.
<mgrwt>
<rscale>  0 0.13911075E+04</rscale>
<asrwt>0</asrwt>
<pdfrwt beam="1">  1        1 0.33011785E+00 0.13911075E+04</pdfrwt>
<pdfrwt beam="2">  1       -1 0.34686912E-01 0.13911075E+04</pdfrwt>
<totfact> 0.18280576E+01</totfact>
</mgrwt>
</event>
<event>
12    1  0.1532786E-007  0.2431420E+04  0.7818608E-02  0.8427833E-01
          2   -1    0    0  501    0  0.00000000000E+00  0.00000000000E+00  0.12426053662E+04  0.12426053662E+04  0.00000000000E+00 0. -1.
         -2   -1    0    0    0  501 -0.00000000000E+00 -0.00000000000E+00 -0.11893969102E+04  0.11893969102E+04  0.00000000000E+00 0.  1.
         23    2    1    2    0    0 -0.42469477677E+03  0.40064748958E+03 -0.83921283680E+03  0.10262461954E+04  0.89548890077E+02 0.  0.
        254    2    1    2    0    0  0.42469477677E+03 -0.40064748958E+03  0.89242129275E+03  0.14057560811E+04  0.91588772858E+03 0.  0.
        -24    2    4    4    0    0  0.24637808280E+03  0.15361138274E+03 -0.39199340956E+02  0.30426929692E+03  0.82125514436E+02 0.  0.
         24    2    4    4    0    0  0.17831669397E+03 -0.55425887232E+03  0.93162063370E+03  0.11014867841E+04  0.79726969084E+02 0.  0.
         11    1    3    3    0    0 -0.77173730998E+02  0.63819290385E+02 -0.20798845677E+03  0.23084168760E+03  0.00000000000E+00 0. -1.
        -11    1    3    3    0    0 -0.34752104577E+03  0.33682819919E+03 -0.63122438003E+03  0.79540450776E+03  0.00000000000E+00 0.  1.
          2    1    6    6  502    0 -0.17783504733E+01 -0.71367558349E+01  0.35200404659E+02  0.35960593744E+02  0.00000000000E+00 0. -1.
          1    1    5    5  503    0  0.11620562940E+03  0.36532783660E+02 -0.42916599164E+02  0.12915195341E+03  0.00000000000E+00 0. -1.
         -2    1    5    5    0  503  0.13017245340E+03  0.11707859908E+03  0.37172582071E+01  0.17511734350E+03  0.00000000000E+00 0.  1.
         -1    1    6    6    0  502  0.18009504444E+03 -0.54712211649E+03  0.89642022905E+03  0.10655261904E+04  0.00000000000E+00 0.  1.
<mgrwt>
<rscale>  0 0.24314201E+04</rscale>
<asrwt>0</asrwt>
<pdfrwt beam="1">  1        2 0.19117006E+00 0.24314201E+04</pdfrwt>
<pdfrwt beam="2">  1       -2 0.18298414E+00 0.24314201E+04</pdfrwt>
<totfact> 0.27715902E+00</totfact>
</mgrwt>
</event>
<event>
12    1  0.1532786E-007  0.1063992E+04  0.7818608E-02  0.9241017E-01
          1   -1    0    0  501    0  0.00000000000E+00  0.00000000000E+00  0.44319111417E+03  0.44319111417E+03  0.00000000000E+00 0. -1.
         -1   -1    0    0    0  501 -0.00000000000E+00 -0.00000000000E+00 -0.63859479178E+03  0.63859479178E+03  0.00000000000E+00 0.  1.
         23    2    1    2    0    0  0.13277561459E+03 -0.61011952084E+01 -0.11454677000E+02  0.16145936137E+03  0.90946837965E+02 0.  0.
        254    2    1    2    0    0 -0.13277561459E+03  0.61011952084E+01 -0.18394900061E+03  0.92032654458E+03  0.89190645553E+03 0.  0.
        -24    2    4    4    0    0  0.34769218187E+03 -0.51127620349E+02  0.70983220750E+02  0.36757327061E+03  0.81040759766E+02 0.  0.
         24    2    4    4    0    0 -0.48046779646E+03  0.57228815558E+02 -0.25493222136E+03  0.55275327397E+03  0.80133037074E+02 0.  0.
         11    1    3    3    0    0  0.14308537300E+03 -0.12291963154E+02 -0.22217432733E+02  0.14532078531E+03  0.00000000000E+00 0.  1.
        -11    1    3    3    0    0 -0.10309758413E+02  0.61907679457E+01  0.10762755732E+02  0.16138576060E+02  0.00000000000E+00 0. -1.
          4    1    6    6  502    0 -0.41250337872E+03  0.59947342796E+02 -0.18781275704E+03  0.45719399938E+03  0.00000000000E+00 0. -1.
          1    1    5    5  503    0  0.31257848848E+03 -0.20284227733E+02  0.69279508602E+02  0.32080587848E+03  0.00000000000E+00 0. -1.
         -2    1    5    5    0  503  0.35113693388E+02 -0.30843392617E+02  0.17037121475E+01  0.46767392129E+02  0.00000000000E+00 0.  1.
         -3    1    6    6    0  502 -0.67964417741E+02 -0.27185272382E+01 -0.67119464320E+02  0.95559274588E+02  0.00000000000E+00 0.  1.
<mgrwt>
<rscale>  0 0.10639916E+04</rscale>
<asrwt>0</asrwt>
<pdfrwt beam="1">  1        1 0.68183248E-01 0.10639916E+04</pdfrwt>
<pdfrwt beam="2">  1       -1 0.98245353E-01 0.10639916E+04</pdfrwt>
<totfact> 0.51843400E+01</totfact>
</mgrwt>
</event>
<event>
12    1  0.1532786E-007  0.2766681E+04  0.7818608E-02  0.8313688E-01
          2   -1    0    0  501    0  0.00000000000E+00  0.00000000000E+00  0.14344795246E+04  0.14344795246E+04  0.00000000000E+00 0. -1.
         -2   -1    0    0    0  501 -0.00000000000E+00 -0.00000000000E+00 -0.13340246609E+04  0.13340246609E+04  0.00000000000E+00 0.  1.
         23    2    1    2    0    0 -0.83917779004E+03 -0.47122990873E+03 -0.73045297125E+03  0.12116105422E+04  0.90341422439E+02 0.  0.
        254    2    1    2    0    0  0.83917779004E+03  0.47122990873E+03  0.83090783494E+03  0.15568936433E+04  0.89846146057E+03 0.  0.
        -24    2    4    4    0    0  0.42297619921E+03  0.70797301501E+03  0.57052997162E+03  0.10060179518E+04  0.80206083170E+02 0.  0.
         24    2    4    4    0    0  0.41620159083E+03 -0.23674310628E+03  0.26037786332E+03  0.55087569146E+03  0.79977078931E+02 0.  0.
         13    1    3    3    0    0 -0.36880232100E+03 -0.16030378364E+03 -0.32652841158E+03  0.51800893679E+03  0.00000000000E+00 0. -1.
        -13    1    3    3    0    0 -0.47037546904E+03 -0.31092612509E+03 -0.40392455967E+03  0.69360160542E+03  0.00000000000E+00 0.  1.
          2    1    6    6  502    0  0.58709832832E+02 -0.38399449301E+02  0.72697876740E+02  0.10102644931E+03  0.00000000000E+00 0. -1.
          1    1    5    5  503    0  0.18987676648E+03  0.32188745534E+03  0.21037288332E+03  0.42886066547E+03  0.00000000000E+00 0. -1.
         -2    1    5    5    0  503  0.23309943273E+03  0.38608555967E+03  0.36015708830E+03  0.57715728635E+03  0.00000000000E+00 0.  1.
         -1    1    6    6    0  502  0.35749175800E+03 -0.19834365698E+03  0.18767998658E+03  0.44984924215E+03  0.00000000000E+00 0.  1.
<mgrwt>
<rscale>  0 0.27666811E+04</rscale>
<asrwt>0</asrwt>
<pdfrwt beam="1">  1        2 0.22068916E+00 0.27666811E+04</pdfrwt>
<pdfrwt beam="2">  1       -2 0.20523456E+00 0.27666811E+04</pdfrwt>
<totfact> 0.14833649E+00</totfact>
</mgrwt>
</event>
<event>
12    1  0.1532786E-007  0.2562604E+04  0.7818608E-02  0.8381016E-01
          2   -1    0    0  501    0  0.00000000000E+00  0.00000000000E+00  0.29106926085E+04  0.29106926085E+04  0.00000000000E+00 0. -1.
         -2   -1    0    0    0  501 -0.00000000000E+00 -0.00000000000E+00 -0.56403582736E+03  0.56403582736E+03  0.00000000000E+00 0.  1.
         23    2    1    2    0    0 -0.46171120170E+03  0.63027936020E+03 -0.62330845301E+02  0.78910201383E+03  0.91474304008E+02 0.  0.
        254    2    1    2    0    0  0.46171120170E+03 -0.63027936020E+03  0.24089876264E+04  0.26856264220E+04  0.89383364709E+03 0.  0.
        -24    2    4    4    0    0  0.15653891573E+03 -0.16656534223E+02 -0.53540077428E+01  0.17463873152E+03  0.75419817538E+02 0.  0.
         24    2    4    4    0    0  0.30517228597E+03 -0.61362282598E+03  0.24143416342E+04  0.25109876905E+04  0.79690392418E+02 0.  0.
         11    1    3    3    0    0 -0.26167523798E+03  0.42871708379E+03 -0.51811259432E+02  0.50493234666E+03  0.00000000000E+00 0.  1.
        -11    1    3    3    0    0 -0.20003596372E+03  0.20156227642E+03 -0.10519585869E+02  0.28416966717E+03  0.00000000000E+00 0. -1.
          2    1    6    6  502    0  0.93726458427E+02 -0.27581004265E+03  0.99780282403E+03  0.10394548111E+04  0.00000000000E+00 0. -1.
          1    1    5    5  503    0  0.46286199848E+02  0.12340253522E+02  0.28470124569E+02  0.55724699607E+02  0.00000000000E+00 0. -1.
         -2    1    5    5    0  503  0.11025271588E+03 -0.28996787745E+02 -0.33824132312E+02  0.11891403191E+03  0.00000000000E+00 0.  1.
         -3    1    6    6    0  502  0.21144582754E+03 -0.33781278333E+03  0.14165388101E+04  0.14715328794E+04  0.00000000000E+00 0.  1.
<mgrwt>
<rscale>  0 0.25626041E+04</rscale>
<asrwt>0</asrwt>
<pdfrwt beam="1">  1        2 0.44779885E+00 0.25626041E+04</pdfrwt>
<pdfrwt beam="2">  1       -2 0.86774744E-01 0.25626041E+04</pdfrwt>
<totfact> 0.20178268E+00</totfact>
</mgrwt>
</event>
<event>
12    1  0.1532786E-007  0.1739979E+04  0.7818608E-02  0.8738886E-01
          1   -1    0    0  501    0  0.00000000000E+00  0.00000000000E+00  0.87801928961E+03  0.87801928961E+03  0.00000000000E+00 0. -1.
         -1   -1    0    0    0  501 -0.00000000000E+00 -0.00000000000E+00 -0.86203280787E+03  0.86203280787E+03  0.00000000000E+00 0.  1.
         23    2    1    2    0    0  0.41908821753E+03  0.30378612936E+03 -0.36071142331E+03  0.63778406934E+03  0.93460375192E+02 0.  0.
        254    2    1    2    0    0 -0.41908821753E+03 -0.30378612936E+03  0.37669790505E+03  0.11022680281E+04  0.89731407419E+03 0.  0.
        -24    2    4    4    0    0  0.17404645545E+03 -0.32253483167E+03 -0.32606489480E+02  0.37652113413E+03  0.79900531900E+02 0.  0.
         24    2    4    4    0    0 -0.59313467297E+03  0.18748702304E+02  0.40930439453E+03  0.72574689402E+03  0.83774773495E+02 0.  0.
         11    1    3    3    0    0  0.39983576833E+03  0.29393163941E+03 -0.36462482583E+03  0.61580493169E+03  0.00000000000E+00 0.  1.
        -11    1    3    3    0    0  0.19252449194E+02  0.98544899493E+01  0.39134025245E+01  0.21979137641E+02  0.00000000000E+00 0. -1.
          4    1    6    6  502    0 -0.29645615707E+03  0.50021798081E+02  0.19311537261E+03  0.35732615422E+03  0.00000000000E+00 0. -1.
          3    1    5    5  503    0  0.20500557432E+02 -0.10832311718E+03  0.46420759893E+01  0.11034364250E+03  0.00000000000E+00 0. -1.
         -2    1    5    5    0  503  0.15354589801E+03 -0.21421171448E+03 -0.37248565469E+02  0.26617749163E+03  0.00000000000E+00 0.  1.
         -3    1    6    6    0  502 -0.29667851590E+03 -0.31273095778E+02  0.21618902192E+03  0.36842073980E+03  0.00000000000E+00 0.  1.
<mgrwt>
<rscale>  0 0.17399787E+04</rscale>
<asrwt>0</asrwt>
<pdfrwt beam="1">  1        1 0.13507989E+00 0.17399787E+04</pdfrwt>
<pdfrwt beam="2">  1       -1 0.13262043E+00 0.17399787E+04</pdfrwt>
<totfact> 0.86765721E+00</totfact>
</mgrwt>
</event>
<event>
12    1  0.1532786E-007  0.3003151E+04  0.7818608E-02  0.8242832E-01
         -2   -1    0    0    0  501 -0.00000000000E+00  0.00000000000E+00  0.19021507786E+04  0.19021507786E+04  0.00000000000E+00 0. -1.
          2   -1    0    0  501    0  0.00000000000E+00 -0.00000000000E+00 -0.11853576731E+04  0.11853576731E+04  0.00000000000E+00 0.  1.
         23    2    1    2    0    0  0.10327921674E+04 -0.68684651496E+03 -0.26399135814E+03  0.12712247458E+04  0.88899499359E+02 0.  0.
        254    2    1    2    0    0 -0.10327921674E+04  0.68684651496E+03  0.98078446364E+03  0.18162837059E+04  0.89360536041E+03 0.  0.
        -24    2    4    4    0    0  0.62003652431E+02  0.20193409016E+03 -0.52158342030E+02  0.23306118036E+03  0.83517611702E+02 0.  0.
         24    2    4    4    0    0 -0.10947958198E+04  0.48491242480E+03  0.10329428057E+04  0.15832225256E+04  0.76842558733E+02 0.  0.
         11    1    3    3    0    0  0.86646535635E+03 -0.59169406590E+03 -0.25297707267E+03  0.10792874875E+04  0.00000000000E+00 0.  1.
        -11    1    3    3    0    0  0.16632681105E+03 -0.95152449058E+02 -0.11014285466E+02  0.19193725829E+03  0.00000000000E+00 0. -1.
          4    1    6    6  502    0 -0.98349121819E+03  0.43583594799E+03  0.95705717946E+03  0.14398494347E+04  0.00000000000E+00 0. -1.
          3    1    5    5  503    0  0.40040215782E+02  0.19071013214E+03 -0.64781045501E+02  0.20535373685E+03  0.00000000000E+00 0. -1.
         -4    1    5    5    0  503  0.21963436649E+02  0.11223958016E+02  0.12622703471E+02  0.27707443511E+02  0.00000000000E+00 0.  1.
         -3    1    6    6    0  502 -0.11130460165E+03  0.49076476812E+02  0.75885626209E+02  0.14337309088E+03  0.00000000000E+00 0.  1.
<mgrwt>
<rscale>  0 0.30031510E+04</rscale>
<asrwt>0</asrwt>
<pdfrwt beam="1">  1        2 0.18236272E+00 0.30031510E+04</pdfrwt>
<pdfrwt beam="2">  1       -2 0.29263858E+00 0.30031510E+04</pdfrwt>
<totfact> 0.58312481E-01</totfact>
</mgrwt>
</event>
<event>
12    1  0.1532786E-007  0.3337651E+04  0.7818608E-02  0.8153381E-01
         -2   -1    0    0    0  501 -0.00000000000E+00  0.00000000000E+00  0.30049524162E+04  0.30049524162E+04  0.00000000000E+00 0.  1.
          2   -1    0    0  501    0  0.00000000000E+00 -0.00000000000E+00 -0.92679644403E+03  0.92679644403E+03  0.00000000000E+00 0. -1.
         23    2    1    2    0    0 -0.40545323614E+03 -0.14138058448E+04  0.15498341858E+04  0.21385556391E+04  0.90525820842E+02 0.  0.
        254    2    1    2    0    0  0.40545323614E+03  0.14138058448E+04  0.52832178633E+03  0.17931932212E+04  0.87930581993E+03 0.  0.
        -24    2    4    4    0    0  0.47415337978E+03  0.24790398391E+03  0.20830650325E+03  0.57977179507E+03  0.80410958645E+02 0.  0.
         24    2    4    4    0    0 -0.68700143634E+02  0.11659018609E+04  0.32001528308E+03  0.12134214261E+04  0.77038411704E+02 0.  0.
         13    1    3    3    0    0 -0.35135377539E+03 -0.12514596854E+04  0.13265422779E+04  0.18572332204E+04  0.00000000000E+00 0.  1.
        -13    1    3    3    0    0 -0.54099460750E+02 -0.16234615943E+03  0.22329190788E+03  0.28132241870E+03  0.00000000000E+00 0. -1.
          2    1    6    6  502    0 -0.42134827874E+02  0.56660923222E+03  0.19456019696E+03  0.60056226655E+03  0.00000000000E+00 0. -1.
          3    1    5    5  503    0  0.21506624102E+03  0.81151360125E+02  0.58618450797E+02  0.23722384798E+03  0.00000000000E+00 0. -1.
         -4    1    5    5    0  503  0.25908713876E+03  0.16675262379E+03  0.14968805245E+03  0.34254794709E+03  0.00000000000E+00 0.  1.
         -1    1    6    6    0  502 -0.26565315760E+02  0.59929262869E+03  0.12545508613E+03  0.61285915955E+03  0.00000000000E+00 0.  1.
<mgrwt>
<rscale>  0 0.33376514E+04</rscale>
<asrwt>0</asrwt>
<pdfrwt beam="1">  1        2 0.14258407E+00 0.33376514E+04</pdfrwt>
<pdfrwt beam="2">  1       -2 0.46230037E+00 0.33376514E+04</pdfrwt>
<totfact> 0.67349950E-02</totfact>
</mgrwt>
</event>
<event>
12    1  0.1532786E-007  0.1260934E+04  0.7818608E-02  0.9061132E-01
         -2   -1    0    0    0  501 -0.00000000000E+00  0.00000000000E+00  0.24104155218E+03  0.24104155218E+03  0.00000000000E+00 0.  1.
          2   -1    0    0  501    0  0.00000000000E+00 -0.00000000000E+00 -0.16490455030E+04  0.16490455030E+04  0.00000000000E+00 0. -1.
         23    2    1    2    0    0  0.12901570764E+03 -0.19217571529E+03 -0.66948655867E+03  0.71440404027E+03  0.92651617060E+02 0.  0.
        254    2    1    2    0    0 -0.12901570764E+03  0.19217571529E+03 -0.73851739217E+03  0.11756830149E+04  0.88501189522E+03 0.  0.
        -24    2    4    4    0    0 -0.95216455278E+02  0.29084999981E+02  0.19129768452E+03  0.22773261898E+03  0.73179444295E+02 0.  0.
         24    2    4    4    0    0 -0.33799252361E+02  0.16309071531E+03 -0.92981507669E+03  0.94795039594E+03  0.79453794423E+02 0.  0.
         13    1    3    3    0    0 -0.12254185152E+02 -0.30318241334E+02 -0.12106839493E+03  0.12540700564E+03  0.00000000000E+00 0.  1.
        -13    1    3    3    0    0  0.14126989279E+03 -0.16185747395E+03 -0.54841816374E+03  0.58899703463E+03  0.00000000000E+00 0. -1.
          4    1    6    6  502    0  0.25117578229E+02  0.40519331920E+02 -0.20312570506E+03  0.20864505997E+03  0.00000000000E+00 0. -1.
          1    1    5    5  503    0 -0.96031735173E+01 -0.13867774800E+02  0.75948984172E+02  0.77799642134E+02  0.00000000000E+00 0. -1.
         -2    1    5    5    0  503 -0.85613281761E+02  0.42952774781E+02  0.11534870035E+03  0.14993297685E+03  0.00000000000E+00 0.  1.
         -3    1    6    6    0  502 -0.58916830589E+02  0.12257138339E+03 -0.72668937163E+03  0.73930533597E+03  0.00000000000E+00 0.  1.
<mgrwt>
<rscale>  0 0.12609338E+04</rscale>
<asrwt>0</asrwt>
<pdfrwt beam="1">  1        2 0.25369930E+00 0.12609338E+04</pdfrwt>
<pdfrwt beam="2">  1       -2 0.37083316E-01 0.12609338E+04</pdfrwt>
<totfact> 0.70501880E+01</totfact>
</mgrwt>
</event>
<event>
12    1  0.1532786E-007  0.2711004E+04  0.7818608E-02  0.8331443E-01
         -1   -1    0    0    0  501 -0.00000000000E+00  0.00000000000E+00  0.12551370016E+04  0.12551370016E+04  0.00000000000E+00 0.  1.
          1   -1    0    0  501    0  0.00000000000E+00 -0.00000000000E+00 -0.14638924774E+04  0.14638924774E+04  0.00000000000E+00 0. -1.
         23    2    1    2    0    0 -0.11513801015E+04 -0.31801623292E+03  0.10925942203E+03  0.12028508931E+04  0.90012149566E+02 0.  0.
        254    2    1    2    0    0  0.11513801015E+04  0.31801623292E+03 -0.31801489780E+03  0.15161785859E+04  0.87798266871E+03 0.  0.
        -24    2    4    4    0    0  0.10664452450E+04 -0.16006064158E+02 -0.41851095827E+03  0.11485649845E+04  0.80550895330E+02 0.  0.
         24    2    4    4    0    0  0.84934856519E+02  0.33402229708E+03  0.10049606046E+03  0.36761360141E+03  0.79091573349E+02 0.  0.
         11    1    3    3    0    0 -0.14888960132E+03 -0.15733278621E+02 -0.32235701337E+01  0.14975326655E+03  0.00000000000E+00 0.  1.
        -11    1    3    3    0    0 -0.10024905002E+04 -0.30228295430E+03  0.11248299217E+03  0.10530976265E+04  0.00000000000E+00 0. -1.
          2    1    6    6  502    0  0.97500108659E+02  0.31914340005E+03  0.99006269467E+02  0.34808191906E+03  0.00000000000E+00 0. -1.
          1    1    5    5  503    0  0.96690630874E+03 -0.21274379670E+02 -0.35429719801E+03  0.10299936474E+04  0.00000000000E+00 0. -1.
         -2    1    5    5    0  503  0.99538936279E+02  0.52683155117E+01 -0.64213760258E+02  0.11857133714E+03  0.00000000000E+00 0.  1.
         -1    1    6    6    0  502 -0.12565252140E+02  0.14878897033E+02  0.14897909953E+01  0.19531682351E+02  0.00000000000E+00 0.  1.
<mgrwt>
<rscale>  0 0.27110040E+04</rscale>
<asrwt>0</asrwt>
<pdfrwt beam="1">  1        1 0.22521423E+00 0.27110040E+04</pdfrwt>
<pdfrwt beam="2">  1       -1 0.19309800E+00 0.27110040E+04</pdfrwt>
<totfact> 0.10163030E+00</totfact>
</mgrwt>
</event>
<event>
12    1  0.1532786E-007  0.2355336E+04  0.7818608E-02  0.8456417E-01
          2   -1    0    0  501    0  0.00000000000E+00  0.00000000000E+00  0.18273943748E+04  0.18273943748E+04  0.00000000000E+00 0. -1.
         -2   -1    0    0    0  501 -0.00000000000E+00 -0.00000000000E+00 -0.75895076063E+03  0.75895076063E+03  0.00000000000E+00 0.  1.
         23    2    1    2    0    0  0.13905656847E+02 -0.52051342677E+03 -0.47880153242E+03  0.71310993255E+03  0.90262249681E+02 0.  0.
        254    2    1    2    0    0 -0.13905656847E+02  0.52051342677E+03  0.15472451465E+04  0.18732352028E+04  0.91864845665E+03 0.  0.
        -24    2    4    4    0    0 -0.37694873835E+03 -0.65774760832E+01  0.38844858442E+03  0.54690846441E+03  0.77993276424E+02 0.  0.
         24    2    4    4    0    0  0.36304308151E+03  0.52709090286E+03  0.11587965621E+04  0.13263267384E+04  0.81902660361E+02 0.  0.
         11    1    3    3    0    0 -0.94646936004E+01 -0.46313603744E+03 -0.44585729296E+03  0.64294112894E+03  0.00000000000E+00 0.  1.
        -11    1    3    3    0    0  0.23370350447E+02 -0.57377389334E+02 -0.32944239458E+02  0.70168803611E+02  0.00000000000E+00 0. -1.
          4    1    6    6  502    0  0.27736570950E+03  0.43876255594E+03  0.88201210554E+03  0.10234205742E+04  0.00000000000E+00 0. -1.
          3    1    5    5  503    0 -0.23430259127E+03 -0.20291817634E+02  0.19118003727E+03  0.30308294045E+03  0.00000000000E+00 0. -1.
         -4    1    5    5    0  503 -0.14264614708E+03  0.13714341551E+02  0.19726854714E+03  0.24382552396E+03  0.00000000000E+00 0.  1.
         -3    1    6    6    0  502  0.85677372009E+02  0.88328346915E+02  0.27678445658E+03  0.30290616426E+03  0.00000000000E+00 0.  1.
<mgrwt>
<rscale>  0 0.23553364E+04</rscale>
<asrwt>0</asrwt>
<pdfrwt beam="1">  1        2 0.28113759E+00 0.23553364E+04</pdfrwt>
<pdfrwt beam="2">  1       -2 0.11676166E+00 0.23553364E+04</pdfrwt>
<totfact> 0.42722956E+00</totfact>
</mgrwt>
</event>
<event>
12    1  0.1532786E-007  0.2280214E+04  0.7818608E-02  0.8485764E-01
          2   -1    0    0  501    0  0.00000000000E+00  0.00000000000E+00  0.21012138000E+04  0.21012138000E+04  0.00000000000E+00 0. -1.
         -2   -1    0    0    0  501 -0.00000000000E+00 -0.00000000000E+00 -0.61861573423E+03  0.61861573423E+03  0.00000000000E+00 0.  1.
         23    2    1    2    0    0  0.38685311967E+03 -0.82398323815E+03  0.25109836592E+03  0.94879320430E+03  0.92490227615E+02 0.  0.
        254    2    1    2    0    0 -0.38685311967E+03  0.82398323815E+03  0.12314996999E+04  0.17710363299E+04  0.88959229890E+03 0.  0.
        -24    2    4    4    0    0  0.41928675388E+02  0.62091774438E+03  0.11094885612E+04  0.12746346939E+04  0.80198979515E+02 0.  0.
         24    2    4    4    0    0 -0.42878179505E+03  0.20306549378E+03  0.12201113866E+03  0.49640163606E+03  0.80239913969E+02 0.  0.
         11    1    3    3    0    0  0.12054001486E+03 -0.17807023895E+03  0.80496372829E+02  0.22960525085E+03  0.00000000000E+00 0. -1.
        -11    1    3    3    0    0  0.26631310481E+03 -0.64591299921E+03  0.17060199309E+03  0.71918795345E+03  0.00000000000E+00 0.  1.
          4    1    6    6  502    0 -0.34825248781E+03  0.14460367321E+03  0.12376829653E+03  0.39687354258E+03  0.00000000000E+00 0. -1.
          3    1    5    5  503    0  0.64081218230E+02  0.49131108325E+03  0.85515501691E+03  0.98832337117E+03  0.00000000000E+00 0. -1.
         -4    1    5    5    0  503 -0.22152542843E+02  0.12960666113E+03  0.25433354428E+03  0.28631132271E+03  0.00000000000E+00 0.  1.
         -3    1    6    6    0  502 -0.80529307245E+02  0.58461820563E+02 -0.17571578640E+01  0.99528093484E+02  0.00000000000E+00 0.  1.
<mgrwt>
<rscale>  0 0.22802140E+04</rscale>
<asrwt>0</asrwt>
<pdfrwt beam="1">  1        2 0.32326366E+00 0.22802140E+04</pdfrwt>
<pdfrwt beam="2">  1       -2 0.95171653E-01 0.22802140E+04</pdfrwt>
<totfact> 0.49437207E+00</totfact>
</mgrwt>
</event>
<event>
12    1  0.1532786E-007  0.1600458E+04  0.7818608E-02  0.8820267E-01
         -1   -1    0    0    0  501 -0.00000000000E+00  0.00000000000E+00  0.61275944005E+03  0.61275944005E+03  0.00000000000E+00 0.  1.
          1   -1    0    0  501    0  0.00000000000E+00 -0.00000000000E+00 -0.10450539249E+04  0.10450539249E+04  0.00000000000E+00 0. -1.
         23    2    1    2    0    0 -0.52969273836E+03  0.10201352317E+03 -0.23328496709E+03  0.59493233980E+03  0.92420003778E+02 0.  0.
        254    2    1    2    0    0  0.52969273836E+03 -0.10201352317E+03 -0.19900951776E+03  0.10628810251E+04  0.89394078633E+03 0.  0.
        -24    2    4    4    0    0  0.44246978371E+03  0.31586785600E+03  0.68046481271E+02  0.55349942671E+03  0.78608395283E+02 0.  0.
         24    2    4    4    0    0  0.87222954653E+02 -0.41788137917E+03 -0.26705599903E+03  0.50938159843E+03  0.76928637872E+02 0.  0.
         11    1    3    3    0    0 -0.30313574007E+03  0.31026221562E+02 -0.90450991037E+02  0.31786048058E+03  0.00000000000E+00 0. -1.
        -11    1    3    3    0    0 -0.22655699829E+03  0.70987301604E+02 -0.14283397605E+03  0.27707185923E+03  0.00000000000E+00 0.  1.
          2    1    6    6  502    0  0.95468980283E+02 -0.35449322095E+03 -0.24663522752E+03  0.44227672938E+03  0.00000000000E+00 0. -1.
          1    1    5    5  503    0  0.34037011663E+02  0.51265029934E+02 -0.33977200419E+01  0.61629262194E+02  0.00000000000E+00 0. -1.
         -2    1    5    5    0  503  0.40843277204E+03  0.26460282607E+03  0.71444201313E+02  0.49187016452E+03  0.00000000000E+00 0.  1.
         -1    1    6    6    0  502 -0.82460256302E+01 -0.63388158219E+02 -0.20420771508E+02  0.67104869049E+02  0.00000000000E+00 0.  1.
<mgrwt>
<rscale>  0 0.16004583E+04</rscale>
<asrwt>0</asrwt>
<pdfrwt beam="1">  1        1 0.16077753E+00 0.16004583E+04</pdfrwt>
<pdfrwt beam="2">  1       -1 0.94270684E-01 0.16004583E+04</pdfrwt>
<totfact> 0.14596743E+01</totfact>
</mgrwt>
</event>
<event>
12    1  0.2186880E-007  0.1809212E+04  0.7818608E-02  0.8701416E-01
         -2   -1    0    0    0  501 -0.00000000000E+00  0.00000000000E+00  0.66279723556E+03  0.66279723556E+03  0.00000000000E+00 0. -1.
          2   -1    0    0  501    0  0.00000000000E+00 -0.00000000000E+00 -0.12346336715E+04  0.12346336715E+04  0.00000000000E+00 0.  1.
         23    2    1    2    0    0 -0.43719625236E+03  0.20750094084E+03 -0.70823021114E+03  0.86282422222E+03  0.93157946324E+02 0.  0.
        254    2    1    2    0    0  0.43719625236E+03 -0.20750094084E+03  0.13639377522E+03  0.10346066848E+04  0.90421818540E+03 0.  0.
        -24    2    4    4    0    0  0.50358415151E+03 -0.33786802043E+03 -0.21282217631E+03  0.64761518702E+03  0.79751832842E+02 0.  0.
         24    2    4    4    0    0 -0.66387899157E+02  0.13036707960E+03  0.34921595153E+03  0.38699149779E+03  0.80048172781E+02 0.  0.
         13    1    3    3    0    0 -0.10777643596E+02  0.16593197878E+02 -0.64184795669E+02  0.67165317034E+02  0.00000000000E+00 0. -1.
        -13    1    3    3    0    0 -0.42641860876E+03  0.19090774296E+03 -0.64404541547E+03  0.79565890519E+03  0.00000000000E+00 0.  1.
          2    1    6    6  502    0 -0.79996124750E+02  0.11469930204E+03  0.33119280990E+03  0.35950519772E+03  0.00000000000E+00 0. -1.
          3    1    5    5  503    0  0.46386444795E+03 -0.32118920412E+03 -0.21662840391E+03  0.60436793122E+03  0.00000000000E+00 0. -1.
         -4    1    5    5    0  503  0.39719703566E+02 -0.16678816317E+02  0.38062276065E+01  0.43247255794E+02  0.00000000000E+00 0.  1.
         -1    1    6    6    0  502  0.13608225593E+02  0.15667777551E+02  0.18023141635E+02  0.27486300070E+02  0.00000000000E+00 0.  1.
<mgrwt>
<rscale>  0 0.18092117E+04</rscale>
<asrwt>0</asrwt>
<pdfrwt beam="1">  1        2 0.18994364E+00 0.18092117E+04</pdfrwt>
<pdfrwt beam="2">  1       -2 0.10196881E+00 0.18092117E+04</pdfrwt>
<totfact> 0.13438103E+01</totfact>
</mgrwt>
</event>
<event>
12    1  0.1532786E-007  0.1650929E+04  0.7818608E-02  0.8789857E-01
         -1   -1    0    0    0  501 -0.00000000000E+00  0.00000000000E+00  0.59954304960E+03  0.59954304960E+03  0.00000000000E+00 0.  1.
          1   -1    0    0  501    0  0.00000000000E+00 -0.00000000000E+00 -0.11365180917E+04  0.11365180917E+04  0.00000000000E+00 0. -1.
         23    2    1    2    0    0 -0.29787617685E+03  0.44828549227E+03  0.26527158117E+02  0.54657391719E+03  0.91374271671E+02 0.  0.
        254    2    1    2    0    0  0.29787617685E+03 -0.44828549227E+03 -0.56350220023E+03  0.11894872241E+04  0.89869629319E+03 0.  0.
        -24    2    4    4    0    0 -0.80127399909E+02  0.33601891028E+02  0.18567006190E+03  0.21858529972E+03  0.75872749186E+02 0.  0.
         24    2    4    4    0    0  0.37800357676E+03 -0.48188738329E+03 -0.74917226213E+03  0.97090192442E+03  0.79305196964E+02 0.  0.
         11    1    3    3    0    0 -0.37753286650E+02  0.53607104008E+02 -0.26909047460E+02  0.70874036771E+02  0.00000000000E+00 0. -1.
        -11    1    3    3    0    0 -0.26012289020E+03  0.39467838826E+03  0.53436205577E+02  0.47569988042E+03  0.00000000000E+00 0.  1.
          2    1    6    6  502    0  0.29740940973E+03 -0.42555074145E+03 -0.62492612793E+03  0.81245212531E+03  0.00000000000E+00 0. -1.
          1    1    5    5  503    0 -0.63433147644E+02  0.68837102519E+01  0.17341511031E+03  0.18478081656E+03  0.00000000000E+00 0. -1.
         -2    1    5    5    0  503 -0.16694252264E+02  0.26718180776E+02  0.12254951592E+02  0.33804483152E+02  0.00000000000E+00 0.  1.
         -1    1    6    6    0  502  0.80594167034E+02 -0.56336641841E+02 -0.12424613420E+03  0.15844979911E+03  0.00000000000E+00 0.  1.
<mgrwt>
<rscale>  0 0.16509289E+04</rscale>
<asrwt>0</asrwt>
<pdfrwt beam="1">  1        1 0.17484894E+00 0.16509289E+04</pdfrwt>
<pdfrwt beam="2">  1       -1 0.92237393E-01 0.16509289E+04</pdfrwt>
<totfact> 0.13013018E+01</totfact>
</mgrwt>
</event>
<event>
12    1  0.1532786E-007  0.2377043E+04  0.7818608E-02  0.8448149E-01
         -1   -1    0    0    0  501 -0.00000000000E+00  0.00000000000E+00  0.54625080735E+03  0.54625080735E+03  0.00000000000E+00 0.  1.
          1   -1    0    0  501    0  0.00000000000E+00 -0.00000000000E+00 -0.25859604773E+04  0.25859604773E+04  0.00000000000E+00 0. -1.
         23    2    1    2    0    0  0.38935659209E+03  0.51934692854E+03 -0.19061581489E+04  0.20157441749E+04  0.92010336303E+02 0.  0.
        254    2    1    2    0    0 -0.38935659209E+03 -0.51934692854E+03 -0.13355152103E+03  0.11164671097E+04  0.89852268216E+03 0.  0.
        -24    2    4    4    0    0 -0.48850901380E+03 -0.49428868992E+03 -0.41029186794E+03  0.81103582461E+03  0.80481838682E+02 0.  0.
         24    2    4    4    0    0  0.99152421710E+02 -0.25058238617E+02  0.27674034691E+03  0.30543128512E+03  0.79018556503E+02 0.  0.
         13    1    3    3    0    0  0.21190629758E+03  0.23360647598E+03 -0.81413402794E+03  0.87309248080E+03  0.00000000000E+00 0. -1.
        -13    1    3    3    0    0  0.17745029451E+03  0.28574045256E+03 -0.10920241210E+04  0.11426516941E+04  0.00000000000E+00 0.  1.
          4    1    6    6  502    0  0.11109257964E+03 -0.22274927124E+02  0.26602337586E+03  0.28914731563E+03  0.00000000000E+00 0. -1.
          3    1    5    5  503    0 -0.30936656313E+03 -0.35662251717E+03 -0.25182960402E+03  0.53507517191E+03  0.00000000000E+00 0. -1.
         -4    1    5    5    0  503 -0.17914245067E+03 -0.13766617275E+03 -0.15846226391E+03  0.27596065270E+03  0.00000000000E+00 0.  1.
         -3    1    6    6    0  502 -0.11940157927E+02 -0.27833114926E+01  0.10716971044E+02  0.16283969496E+02  0.00000000000E+00 0.  1.
<mgrwt>
<rscale>  0 0.23770427E+04</rscale>
<asrwt>0</asrwt>
<pdfrwt beam="1">  1        1 0.39784007E+00 0.23770427E+04</pdfrwt>
<pdfrwt beam="2">  1       -1 0.84038586E-01 0.23770427E+04</pdfrwt>
<totfact> 0.14868670E+00</totfact>
</mgrwt>
</event>
<event>
12    1  0.1532786E-007  0.1200461E+04  0.7818608E-02  0.9112453E-01
          2   -1    0    0  501    0  0.00000000000E+00  0.00000000000E+00  0.18350753965E+04  0.18350753965E+04  0.00000000000E+00 0. -1.
         -2   -1    0    0    0  501 -0.00000000000E+00 -0.00000000000E+00 -0.19632801173E+03  0.19632801173E+03  0.00000000000E+00 0.  1.
         23    2    1    2    0    0  0.10356125723E+03  0.15106082361E+03  0.70787032748E+02  0.21659192860E+03  0.91416372160E+02 0.  0.
        254    2    1    2    0    0 -0.10356125723E+03 -0.15106082361E+03  0.15679603520E+04  0.18148114796E+04  0.89526350012E+03 0.  0.
        -24    2    4    4    0    0 -0.22921388391E+03 -0.45179873405E+03  0.12546976642E+04  0.13554995415E+04  0.80322335583E+02 0.  0.
         24    2    4    4    0    0  0.12565262668E+03  0.30073791044E+03  0.31326268778E+03  0.45931193816E+03  0.81253132985E+02 0.  0.
         13    1    3    3    0    0  0.15780451085E+02  0.10163100904E+03  0.47007915403E+02  0.11308239803E+03  0.00000000000E+00 0. -1.
        -13    1    3    3    0    0  0.87780806141E+02  0.49429814576E+02  0.23779117345E+02  0.10350953056E+03  0.00000000000E+00 0.  1.
          2    1    6    6  502    0  0.11714969238E+03  0.19471289821E+03  0.23766074718E+03  0.32881574461E+03  0.00000000000E+00 0. -1.
          3    1    5    5  503    0 -0.21700733370E+03 -0.45029035158E+03  0.12110225557E+04  0.13101256482E+04  0.00000000000E+00 0. -1.
         -4    1    5    5    0  503 -0.12206550209E+02 -0.15083824680E+01  0.43675108538E+02  0.45373893281E+02  0.00000000000E+00 0.  1.
         -1    1    6    6    0  502  0.85029342972E+01  0.10602501222E+03  0.75601940601E+02  0.13049619355E+03  0.00000000000E+00 0.  1.
<mgrwt>
<rscale>  0 0.12004611E+04</rscale>
<asrwt>0</asrwt>
<pdfrwt beam="1">  1        2 0.28231928E+00 0.12004611E+04</pdfrwt>
<pdfrwt beam="2">  1       -2 0.30204311E-01 0.12004611E+04</pdfrwt>
<totfact> 0.82460102E+01</totfact>
</mgrwt>
</event>
<event>
12    1  0.1532786E-007  0.2494318E+04  0.7818608E-02  0.8405013E-01
         -1   -1    0    0    0  501 -0.00000000000E+00  0.00000000000E+00  0.82956048891E+03  0.82956048891E+03  0.00000000000E+00 0.  1.
          1   -1    0    0  501    0  0.00000000000E+00 -0.00000000000E+00 -0.18749755570E+04  0.18749755570E+04  0.00000000000E+00 0. -1.
         23    2    1    2    0    0 -0.71081059968E+03  0.10626631388E+03 -0.13329297332E+04  0.15171780393E+04  0.92646053419E+02 0.  0.
        254    2    1    2    0    0  0.71081059968E+03 -0.10626631388E+03  0.28751466513E+03  0.11873580066E+04  0.90033888900E+03 0.  0.
        -24    2    4    4    0    0  0.57105896862E+03  0.84917403771E+02 -0.21941622568E+03  0.62273092073E+03  0.79567634359E+02 0.  0.
         24    2    4    4    0    0  0.13975163106E+03 -0.19118371765E+03  0.50693089081E+03  0.56462708585E+03  0.75783149476E+02 0.  0.
         13    1    3    3    0    0 -0.41176579762E+03  0.10119064695E+03 -0.82999005102E+03  0.93202687939E+03  0.00000000000E+00 0.  1.
        -13    1    3    3    0    0 -0.29904480207E+03  0.50756669349E+01 -0.50293968220E+03  0.58515115993E+03  0.00000000000E+00 0. -1.
          4    1    6    6  502    0  0.39617147791E+02 -0.80821515136E+02  0.27117555599E+03  0.28572332399E+03  0.00000000000E+00 0. -1.
          3    1    5    5  503    0  0.39483485565E+03  0.33254323060E+02 -0.12053472219E+03  0.41416063610E+03  0.00000000000E+00 0. -1.
         -4    1    5    5    0  503  0.17622411297E+03  0.51663080710E+02 -0.98881503481E+02  0.20857028463E+03  0.00000000000E+00 0.  1.
         -3    1    6    6    0  502  0.10013448327E+03 -0.11036220251E+03  0.23575533482E+03  0.27890376186E+03  0.00000000000E+00 0.  1.
<mgrwt>
<rscale>  0 0.24943181E+04</rscale>
<asrwt>0</asrwt>
<pdfrwt beam="1">  1        1 0.28845778E+00 0.24943181E+04</pdfrwt>
<pdfrwt beam="2">  1       -1 0.12762469E+00 0.24943181E+04</pdfrwt>
<totfact> 0.17107006E+00</totfact>
</mgrwt>
</event>
<event>
12    1  0.1532786E-007  0.2396548E+04  0.7818608E-02  0.8440797E-01
          3   -1    0    0  501    0  0.00000000000E+00  0.00000000000E+00  0.88859834657E+03  0.88859834657E+03  0.00000000000E+00 0. -1.
         -3   -1    0    0    0  501 -0.00000000000E+00 -0.00000000000E+00 -0.16158708809E+04  0.16158708809E+04  0.00000000000E+00 0.  1.
         23    2    1    2    0    0 -0.77860933347E+03 -0.19939406861E+03  0.29291799523E+03  0.86109452503E+03  0.98449684251E+02 0.  0.
        254    2    1    2    0    0  0.77860933347E+03  0.19939406861E+03 -0.10201905295E+04  0.16433747024E+04  0.10069266146E+04 0.  0.
        -24    2    4    4    0    0 -0.63615453946E+02  0.39966743082E+03 -0.25200282257E+03  0.48337948487E+03  0.79808035723E+02 0.  0.
         24    2    4    4    0    0  0.84222478742E+03 -0.20027336221E+03 -0.76818770695E+03  0.11599952175E+04  0.77617906616E+02 0.  0.
         11    1    3    3    0    0 -0.57266390768E+03 -0.13541530599E+03  0.25841665090E+03  0.64269776856E+03  0.00000000000E+00 0. -1.
        -11    1    3    3    0    0 -0.20594542580E+03 -0.63978762627E+02  0.34501344332E+02  0.21839675646E+03  0.00000000000E+00 0.  1.
          4    1    6    6  502    0  0.66243247624E+03 -0.18706790926E+03 -0.62543465722E+03  0.93004284778E+03  0.00000000000E+00 0. -1.
          1    1    5    5  503    0 -0.13711983557E+02  0.27944400353E+03 -0.14644737828E+03  0.31579076017E+03  0.00000000000E+00 0. -1.
         -2    1    5    5    0  503 -0.49903470389E+02  0.12022342729E+03 -0.10555544429E+03  0.16758872470E+03  0.00000000000E+00 0.  1.
         -3    1    6    6    0  502  0.17979231118E+03 -0.13205452950E+02 -0.14275304973E+03  0.22995236975E+03  0.00000000000E+00 0.  1.
<mgrwt>
<rscale>  0 0.23965477E+04</rscale>
<asrwt>0</asrwt>
<pdfrwt beam="1">  1        3 0.13670744E+00 0.23965477E+04</pdfrwt>
<pdfrwt beam="2">  1       -3 0.24859552E+00 0.23965477E+04</pdfrwt>
<totfact> 0.71650677E-02</totfact>
</mgrwt>
</event>
<event>
12    1  0.1532786E-007  0.2703266E+04  0.7818608E-02  0.8333946E-01
         -1   -1    0    0    0  501 -0.00000000000E+00  0.00000000000E+00  0.19937945108E+04  0.19937945108E+04  0.00000000000E+00 0.  1.
          1   -1    0    0  501    0  0.00000000000E+00 -0.00000000000E+00 -0.91629926150E+03  0.91629926150E+03  0.00000000000E+00 0. -1.
         23    2    1    2    0    0 -0.35652486204E+03  0.51988834735E+03 -0.62273323947E+03  0.89070135937E+03  0.90323602006E+02 0.  0.
        254    2    1    2    0    0  0.35652486204E+03 -0.51988834735E+03  0.17002284888E+04  0.20193924129E+04  0.88869282230E+03 0.  0.
        -24    2    4    4    0    0  0.38836815176E+03  0.11099466546E+03  0.94846519683E+03  0.10338756982E+04  0.78505366592E+02 0.  0.
         24    2    4    4    0    0 -0.31843289727E+02 -0.63088301281E+03  0.75176329193E+03  0.98551671476E+03  0.84070072124E+02 0.  0.
         13    1    3    3    0    0 -0.18417310703E+01  0.13082517641E+02 -0.35053846828E+02  0.37460865161E+02  0.00000000000E+00 0.  1.
        -13    1    3    3    0    0 -0.35468313096E+03  0.50680582971E+03 -0.58767939264E+03  0.85324049421E+03  0.00000000000E+00 0. -1.
          2    1    6    6  502    0  0.26834378892E+02 -0.14779004702E+03  0.16262662144E+03  0.22138066738E+03  0.00000000000E+00 0. -1.
          1    1    5    5  503    0  0.66342972398E+02  0.10203181614E+00  0.10451095694E+03  0.12378990475E+03  0.00000000000E+00 0. -1.
         -2    1    5    5    0  503  0.32202517936E+03  0.11089263364E+03  0.84395423989E+03  0.91008579341E+03  0.00000000000E+00 0.  1.
         -1    1    6    6    0  502 -0.58677668619E+02 -0.48309296578E+03  0.58913667049E+03  0.76413604738E+03  0.00000000000E+00 0.  1.
<mgrwt>
<rscale>  0 0.27032665E+04</rscale>
<asrwt>0</asrwt>
<pdfrwt beam="1">  1        1 0.14096912E+00 0.27032665E+04</pdfrwt>
<pdfrwt beam="2">  1       -1 0.30673762E+00 0.27032665E+04</pdfrwt>
<totfact> 0.45995042E-01</totfact>
</mgrwt>
</event>
<event>
12    1  0.1532786E-007  0.1845040E+04  0.7818608E-02  0.8682708E-01
          1   -1    0    0  501    0  0.00000000000E+00  0.00000000000E+00  0.43837499136E+04  0.43837499136E+04  0.00000000000E+00 0.  1.
         -1   -1    0    0    0  501 -0.00000000000E+00 -0.00000000000E+00 -0.19413589521E+03  0.19413589521E+03  0.00000000000E+00 0. -1.
         23    2    1    2    0    0  0.40949124339E+03 -0.23931381765E+03  0.29026281793E+04  0.29425885124E+04  0.92858084977E+02 0.  0.
        254    2    1    2    0    0 -0.40949124339E+03  0.23931381765E+03  0.12869858391E+04  0.16352972965E+04  0.89045522971E+03 0.  0.
        -24    2    4    4    0    0  0.25377461550E+03  0.30211579859E+02  0.58934258648E+03  0.64692904172E+03  0.76669457720E+02 0.  0.
         24    2    4    4    0    0 -0.66326585889E+03  0.20910223779E+03  0.69764325261E+03  0.98836825476E+03  0.80748707038E+02 0.  0.
         11    1    3    3    0    0  0.20595056324E+02  0.54432667128E+01  0.79289684550E+02  0.82101398121E+02  0.00000000000E+00 0. -1.
        -11    1    3    3    0    0  0.38889618707E+03 -0.24475708437E+03  0.28233384948E+04  0.28604871142E+04  0.00000000000E+00 0.  1.
          2    1    6    6  502    0 -0.38889522493E+03  0.16384212094E+03  0.42569539244E+03  0.59941663616E+03  0.00000000000E+00 0. -1.
          3    1    5    5  503    0  0.25406405069E+03  0.33524438216E+02  0.59025103473E+03  0.64348171210E+03  0.00000000000E+00 0. -1.
         -4    1    5    5    0  503 -0.28943519394E+00 -0.33128583577E+01 -0.90844825008E+00  0.34473296118E+01  0.00000000000E+00 0.  1.
         -1    1    6    6    0  502 -0.27437063396E+03  0.45260116856E+02  0.27194786017E+03  0.38895161860E+03  0.00000000000E+00 0.  1.
<mgrwt>
<rscale>  0 0.18450401E+04</rscale>
<asrwt>0</asrwt>
<pdfrwt beam="1">  1        1 0.67442299E+00 0.18450401E+04</pdfrwt>
<pdfrwt beam="2">  1       -1 0.29867064E-01 0.18450401E+04</pdfrwt>
<totfact> 0.41412300E-01</totfact>
</mgrwt>
</event>
<event>
12    1  0.1532786E-007  0.2003241E+04  0.7818608E-02  0.8605107E-01
          2   -1    0    0  501    0  0.00000000000E+00  0.00000000000E+00  0.21784072652E+04  0.21784072652E+04  0.00000000000E+00 0. -1.
         -2   -1    0    0    0  501 -0.00000000000E+00 -0.00000000000E+00 -0.46053999790E+03  0.46053999790E+03  0.00000000000E+00 0.  1.
         23    2    1    2    0    0  0.61067858855E+02 -0.19330347582E+03 -0.32243744574E+03  0.39032089499E+03  0.85375508794E+02 0.  0.
        254    2    1    2    0    0 -0.61067858855E+02  0.19330347582E+03  0.20403047131E+04  0.22486263682E+04  0.92324520262E+03 0.  0.
        -24    2    4    4    0    0  0.17562467689E+03 -0.13885857217E+02  0.18726614989E+04  0.18826608102E+04  0.80708070741E+02 0.  0.
         24    2    4    4    0    0 -0.23669253574E+03  0.20718933303E+03  0.16764321421E+03  0.36596555797E+03  0.82920239673E+02 0.  0.
         11    1    3    3    0    0  0.10767843726E+02 -0.13301013139E+03 -0.25051196063E+03  0.28383777749E+03  0.00000000000E+00 0.  1.
        -11    1    3    3    0    0  0.50300015129E+02 -0.60293344428E+02 -0.71925485104E+02  0.10648311750E+03  0.00000000000E+00 0. -1.
          2    1    6    6  502    0 -0.18174637770E+03  0.13737519490E+03  0.80797990486E+02  0.24172712973E+03  0.00000000000E+00 0. -1.
          3    1    5    5  503    0  0.11413656275E+03  0.24534777608E+02  0.13421260619E+04  0.13471939267E+04  0.00000000000E+00 0. -1.
         -4    1    5    5    0  503  0.61488114142E+02 -0.38420634825E+02  0.53053543702E+03  0.53546688347E+03  0.00000000000E+00 0.  1.
         -1    1    6    6    0  502 -0.54946158045E+02  0.69814138133E+02  0.86845223725E+02  0.12423842824E+03  0.00000000000E+00 0.  1.
<mgrwt>
<rscale>  0 0.20032411E+04</rscale>
<asrwt>0</asrwt>
<pdfrwt beam="1">  1        2 0.33513957E+00 0.20032411E+04</pdfrwt>
<pdfrwt beam="2">  1       -2 0.70852308E-01 0.20032411E+04</pdfrwt>
<totfact> 0.89289914E+00</totfact>
</mgrwt>
</event>
<event>
12    1  0.1532786E-007  0.1549310E+04  0.7818608E-02  0.8852308E-01
          2   -1    0    0  501    0  0.00000000000E+00  0.00000000000E+00  0.67482419561E+03  0.67482419561E+03  0.00000000000E+00 0. -1.
         -2   -1    0    0    0  501 -0.00000000000E+00 -0.00000000000E+00 -0.88925493696E+03  0.88925493696E+03  0.00000000000E+00 0.  1.
         23    2    1    2    0    0 -0.31958654628E+03 -0.38582161929E+03  0.11338788009E+02  0.51169499623E+03  0.10348583755E+03 0.  0.
        254    2    1    2    0    0  0.31958654628E+03  0.38582161929E+03 -0.22576952936E+03  0.10523841363E+04  0.89752248304E+03 0.  0.
        -24    2    4    4    0    0 -0.63019352172E+02  0.50496783394E+03  0.10551291783E+03  0.52605988428E+03  0.81498919973E+02 0.  0.
         24    2    4    4    0    0  0.38260589845E+03 -0.11914621465E+03 -0.33128244719E+03  0.52632425207E+03  0.81768358793E+02 0.  0.
         11    1    3    3    0    0 -0.28537677717E+03 -0.31964821351E+03  0.43198038051E+02  0.43067500025E+03  0.00000000000E+00 0. -1.
        -11    1    3    3    0    0 -0.34209769116E+02 -0.66173405781E+02 -0.31859250041E+02  0.81019995981E+02  0.00000000000E+00 0.  1.
          4    1    6    6  502    0  0.42155880718E+02  0.43275587552E+00 -0.10342239292E+02  0.43408149815E+02  0.00000000000E+00 0. -1.
          3    1    5    5  503    0 -0.24996651976E+02  0.34349885444E+02  0.16595548535E+02  0.45608765289E+02  0.00000000000E+00 0. -1.
         -4    1    5    5    0  503 -0.38022700196E+02  0.47061794849E+03  0.88917369295E+02  0.48045111899E+03  0.00000000000E+00 0.  1.
         -3    1    6    6    0  502  0.34045001774E+03 -0.11957897052E+03 -0.32094020790E+03  0.48291610225E+03  0.00000000000E+00 0.  1.
<mgrwt>
<rscale>  0 0.15493105E+04</rscale>
<asrwt>0</asrwt>
<pdfrwt beam="1">  1        2 0.10381911E+00 0.15493105E+04</pdfrwt>
<pdfrwt beam="2">  1       -2 0.13680845E+00 0.15493105E+04</pdfrwt>
<totfact> 0.15742663E+01</totfact>
</mgrwt>
</event>
<event>
12    1  0.1532786E-007  0.1242494E+04  0.7818608E-02  0.9076454E-01
         -2   -1    0    0    0  501 -0.00000000000E+00  0.00000000000E+00  0.10174836509E+03  0.10174836509E+03  0.00000000000E+00 0.  1.
          2   -1    0    0  501    0  0.00000000000E+00 -0.00000000000E+00 -0.37931595345E+04  0.37931595345E+04  0.00000000000E+00 0. -1.
         23    2    1    2    0    0 -0.78393032504E+02 -0.26578478015E+03 -0.86833488256E+03  0.91589519676E+03  0.89841673424E+02 0.  0.
        254    2    1    2    0    0  0.78393032504E+02  0.26578478015E+03 -0.28230762869E+04  0.29790127029E+04  0.90992853860E+03 0.  0.
        -24    2    4    4    0    0  0.12034953587E+03  0.46788603518E+03 -0.75968478256E+03  0.90378186894E+03  0.79368413574E+02 0.  0.
         24    2    4    4    0    0 -0.41956503368E+02 -0.20210125503E+03 -0.20633915043E+04  0.20752308339E+04  0.79957791963E+02 0.  0.
         11    1    3    3    0    0  0.28274812841E+01 -0.10959961413E+02 -0.55492674262E+01  0.12605941994E+02  0.00000000000E+00 0. -1.
        -11    1    3    3    0    0 -0.81220513788E+02 -0.25482481874E+03 -0.86278561513E+03  0.90328925477E+03  0.00000000000E+00 0.  1.
          4    1    6    6  502    0 -0.20234746810E+02 -0.19755613494E+03 -0.18968367732E+04  0.19072041357E+04  0.00000000000E+00 0. -1.
          3    1    5    5  503    0  0.79747231307E+02  0.38957750598E+03 -0.57496340973E+03  0.69908023616E+03  0.00000000000E+00 0. -1.
         -4    1    5    5    0  503  0.40602304564E+02  0.78308529196E+02 -0.18472137283E+03  0.20470163277E+03  0.00000000000E+00 0.  1.
         -3    1    6    6    0  502 -0.21721756558E+02 -0.45451200932E+01 -0.16655473116E+03  0.16802669817E+03  0.00000000000E+00 0.  1.
<mgrwt>
<rscale>  0 0.12424939E+04</rscale>
<asrwt>0</asrwt>
<pdfrwt beam="1">  1        2 0.58356303E+00 0.12424939E+04</pdfrwt>
<pdfrwt beam="2">  1       -2 0.15653594E-01 0.12424939E+04</pdfrwt>
<totfact> 0.16478555E+01</totfact>
</mgrwt>
</event>
<event>
12    1  0.1532786E-007  0.2327217E+04  0.7818608E-02  0.8467266E-01
         -2   -1    0    0    0  501 -0.00000000000E+00  0.00000000000E+00  0.13425194869E+04  0.13425194869E+04  0.00000000000E+00 0. -1.
          2   -1    0    0  501    0  0.00000000000E+00 -0.00000000000E+00 -0.10085404764E+04  0.10085404764E+04  0.00000000000E+00 0.  1.
         23    2    1    2    0    0 -0.16446764862E+03  0.92849350466E+03 -0.14670530310E+03  0.95860510311E+03  0.90837779104E+02 0.  0.
        254    2    1    2    0    0  0.16446764862E+03 -0.92849350466E+03  0.48068431361E+03  0.13924548601E+04  0.90483331754E+03 0.  0.
        -24    2    4    4    0    0  0.44439382526E+03 -0.23918262510E+03  0.38126982357E+03  0.63765120617E+03  0.80859027221E+02 0.  0.
         24    2    4    4    0    0 -0.27992617664E+03 -0.68931087956E+03  0.99414490039E+02  0.75480365397E+03  0.79606294740E+02 0.  0.
         11    1    3    3    0    0  0.48346479411E+01  0.20025125104E+01  0.79291878834E+00  0.52926928187E+01  0.00000000000E+00 0. -1.
        -11    1    3    3    0    0 -0.16930229656E+03  0.92649099215E+03 -0.14749822188E+03  0.95331241029E+03  0.00000000000E+00 0.  1.
          2    1    6    6  502    0 -0.17710501046E+03 -0.40982548503E+03  0.21464986293E+02  0.44697187668E+03  0.00000000000E+00 0. -1.
          3    1    5    5  503    0  0.34655997734E+02 -0.42692422928E+02  0.25915953124E+02  0.60789125513E+02  0.00000000000E+00 0. -1.
         -4    1    5    5    0  503  0.40973782753E+03 -0.19649020217E+03  0.35535387045E+03  0.57686208066E+03  0.00000000000E+00 0.  1.
         -1    1    6    6    0  502 -0.10282116619E+03 -0.27948539454E+03  0.77949503746E+02  0.30783177729E+03  0.00000000000E+00 0.  1.
<mgrwt>
<rscale>  0 0.23272174E+04</rscale>
<asrwt>0</asrwt>
<pdfrwt beam="1">  1        2 0.15516007E+00 0.23272174E+04</pdfrwt>
<pdfrwt beam="2">  1       -2 0.20654146E+00 0.23272174E+04</pdfrwt>
<totfact> 0.27117562E+00</totfact>
</mgrwt>
</event>
<event>
12    1  0.1532786E-007  0.1386126E+04  0.7818608E-02  0.8963923E-01
          2   -1    0    0  501    0  0.00000000000E+00  0.00000000000E+00  0.10834564954E+04  0.10834564954E+04  0.00000000000E+00 0. -1.
         -2   -1    0    0    0  501 -0.00000000000E+00 -0.00000000000E+00 -0.44333685951E+03  0.44333685951E+03  0.00000000000E+00 0.  1.
         23    2    1    2    0    0 -0.10092565812E+03  0.37272541910E+03  0.10491378530E+03  0.41024429799E+03  0.90461346289E+02 0.  0.
        254    2    1    2    0    0  0.10092565812E+03 -0.37272541910E+03  0.53520585057E+03  0.11165490569E+04  0.90062548680E+03 0.  0.
        -24    2    4    4    0    0 -0.36945299731E+03 -0.31984093307E+03  0.32357718754E+03  0.59163374862E+03  0.80836603812E+02 0.  0.
         24    2    4    4    0    0  0.47037865544E+03 -0.52884486029E+02  0.21162866303E+03  0.52491530829E+03  0.81832398859E+02 0.  0.
         13    1    3    3    0    0 -0.51305476221E+02  0.17670057165E+03  0.96720896014E+02  0.20787081478E+03  0.00000000000E+00 0. -1.
        -13    1    3    3    0    0 -0.49620181901E+02  0.19602484745E+03  0.81928892875E+01  0.20237348320E+03  0.00000000000E+00 0.  1.
          2    1    6    6  502    0  0.29738057775E+01 -0.89171209585E+01 -0.11657262075E+01  0.94719314071E+01  0.00000000000E+00 0. -1.
          3    1    5    5  503    0 -0.35942559363E+01  0.49022786613E+01  0.47517309992E+01  0.77155660387E+01  0.00000000000E+00 0. -1.
         -4    1    5    5    0  503 -0.36585874138E+03 -0.32474321173E+03  0.31882545654E+03  0.58391818258E+03  0.00000000000E+00 0.  1.
         -1    1    6    6    0  502  0.46740484966E+03 -0.43967365071E+02  0.21279438924E+03  0.51544337688E+03  0.00000000000E+00 0.  1.
<mgrwt>
<rscale>  0 0.13861258E+04</rscale>
<asrwt>0</asrwt>
<pdfrwt beam="1">  1        2 0.16668561E+00 0.13861258E+04</pdfrwt>
<pdfrwt beam="2">  1       -2 0.68205671E-01 0.13861258E+04</pdfrwt>
<totfact> 0.42760022E+01</totfact>
</mgrwt>
</event>
<event>
12    1  0.1532786E-007  0.1433056E+04  0.7818608E-02  0.8930233E-01
         -1   -1    0    0    0  501 -0.00000000000E+00  0.00000000000E+00  0.53539494618E+03  0.53539494618E+03  0.00000000000E+00 0.  1.
          1   -1    0    0  501    0  0.00000000000E+00 -0.00000000000E+00 -0.95894077108E+03  0.95894077108E+03  0.00000000000E+00 0. -1.
         23    2    1    2    0    0 -0.29177529377E+02 -0.41206994659E+03  0.13213481406E+02  0.42560675736E+03  0.10155563360E+03 0.  0.
        254    2    1    2    0    0  0.29177529377E+02  0.41206994659E+03 -0.43675930630E+03  0.10687289599E+04  0.88361186557E+03 0.  0.
        -24    2    4    4    0    0  0.16018992925E+03  0.48346766770E+03  0.83752625106E+02  0.52173966348E+03  0.76131301663E+02 0.  0.
         24    2    4    4    0    0 -0.13101239988E+03 -0.71397721110E+02 -0.52051193141E+03  0.54698929641E+03  0.77477326668E+02 0.  0.
         11    1    3    3    0    0 -0.23121257350E+02 -0.37942533817E+03 -0.17287058557E+02  0.38052203902E+03  0.00000000000E+00 0.  1.
        -11    1    3    3    0    0 -0.60562720266E+01 -0.32644608421E+02  0.30500539963E+02  0.45084718341E+02  0.00000000000E+00 0. -1.
          2    1    6    6  502    0 -0.13714468620E+03 -0.74758016966E+02 -0.51475631079E+03  0.53793260317E+03  0.00000000000E+00 0. -1.
          3    1    5    5  503    0  0.11231167353E+03  0.35506836841E+03  0.94724269935E+02  0.38426572261E+03  0.00000000000E+00 0. -1.
         -4    1    5    5    0  503  0.47878255724E+02  0.12839929929E+03 -0.10971644829E+02  0.13747394088E+03  0.00000000000E+00 0.  1.
         -1    1    6    6    0  502  0.61322863220E+01  0.33602958563E+01 -0.57556206190E+01  0.90566932424E+01  0.00000000000E+00 0.  1.
<mgrwt>
<rscale>  0 0.14330555E+04</rscale>
<asrwt>0</asrwt>
<pdfrwt beam="1">  1        1 0.14752935E+00 0.14330555E+04</pdfrwt>
<pdfrwt beam="2">  1       -1 0.82368455E-01 0.14330555E+04</pdfrwt>
<totfact> 0.23242475E+01</totfact>
</mgrwt>
</event>
<event>
12    1  0.1532786E-007  0.1705263E+04  0.7818608E-02  0.8758368E-01
         -2   -1    0    0    0  501 -0.00000000000E+00  0.00000000000E+00  0.70793248616E+03  0.70793248616E+03  0.00000000000E+00 0. -1.
          2   -1    0    0  501    0  0.00000000000E+00 -0.00000000000E+00 -0.10269067027E+04  0.10269067027E+04  0.00000000000E+00 0.  1.
         23    2    1    2    0    0  0.22431281318E+03 -0.56364840486E+03 -0.58938415595E+01  0.61363768864E+03  0.92199311732E+02 0.  0.
        254    2    1    2    0    0 -0.22431281318E+03  0.56364840486E+03 -0.31308037494E+03  0.11212015002E+04  0.88941425691E+03 0.  0.
        -24    2    4    4    0    0  0.20177789318E+03 -0.66550778663E+02  0.10419304992E+03  0.24986757054E+03  0.80214006504E+02 0.  0.
         24    2    4    4    0    0 -0.42609070636E+03  0.63019918353E+03 -0.41727342487E+03  0.87133392965E+03  0.80008780087E+02 0.  0.
         13    1    3    3    0    0  0.23307951294E+03 -0.55003963737E+03 -0.46777142485E+01  0.59740400320E+03  0.00000000000E+00 0. -1.
        -13    1    3    3    0    0 -0.87666997519E+01 -0.13608767490E+02 -0.12161273111E+01  0.16233685434E+02  0.00000000000E+00 0.  1.
          2    1    6    6  502    0 -0.89261088109E+02  0.17557305120E+03 -0.13693176954E+03  0.23988277901E+03  0.00000000000E+00 0. -1.
          3    1    5    5  503    0  0.60623459376E+02 -0.49463162000E+02  0.66721512674E+02  0.10282785846E+03  0.00000000000E+00 0. -1.
         -2    1    5    5    0  503  0.14115443380E+03 -0.17087616664E+02  0.37471537250E+02  0.14703971208E+03  0.00000000000E+00 0.  1.
         -1    1    6    6    0  502 -0.33682961825E+03  0.45462613232E+03 -0.28034165533E+03  0.63145115063E+03  0.00000000000E+00 0.  1.
<mgrwt>
<rscale>  0 0.17052632E+04</rscale>
<asrwt>0</asrwt>
<pdfrwt beam="1">  1        2 0.15798565E+00 0.17052632E+04</pdfrwt>
<pdfrwt beam="2">  1       -2 0.10891269E+00 0.17052632E+04</pdfrwt>
<totfact> 0.15499914E+01</totfact>
</mgrwt>
</event>
<event>
12    1  0.1532786E-007  0.1743003E+04  0.7818608E-02  0.8737211E-01
         -2   -1    0    0    0  501 -0.00000000000E+00  0.00000000000E+00  0.18201327861E+03  0.18201327861E+03  0.00000000000E+00 0.  1.
          2   -1    0    0  501    0  0.00000000000E+00 -0.00000000000E+00 -0.41728518461E+04  0.41728518461E+04  0.00000000000E+00 0. -1.
         23    2    1    2    0    0 -0.24949774004E+03  0.40918462806E+03 -0.42982516226E+03  0.64926068639E+03  0.84312434794E+02 0.  0.
        254    2    1    2    0    0  0.24949774004E+03 -0.40918462806E+03 -0.35610134052E+04  0.37056044383E+04  0.90609414462E+03 0.  0.
        -24    2    4    4    0    0  0.23528070737E+03 -0.45403171045E+03 -0.86497313619E+03  0.10079507828E+04  0.79274515435E+02 0.  0.
         24    2    4    4    0    0  0.14217032668E+02  0.44847082396E+02 -0.26960402690E+04  0.26976536555E+04  0.80552642392E+02 0.  0.
         13    1    3    3    0    0 -0.11706823827E+03  0.25897347927E+03 -0.22177505022E+03  0.36049467164E+03  0.00000000000E+00 0. -1.
        -13    1    3    3    0    0 -0.13242950177E+03  0.15021114878E+03 -0.20805011205E+03  0.28876601476E+03  0.00000000000E+00 0.  1.
          2    1    6    6  502    0  0.11114854531E+02  0.61986428586E+02 -0.25124202495E+04  0.25132093760E+04  0.00000000000E+00 0. -1.
          3    1    5    5  503    0  0.81708802191E+02 -0.24372786231E+03 -0.42602040458E+03  0.49756706517E+03  0.00000000000E+00 0. -1.
         -4    1    5    5    0  503  0.15357190518E+03 -0.21030384814E+03 -0.43895273161E+03  0.51038371760E+03  0.00000000000E+00 0.  1.
         -1    1    6    6    0  502  0.31021781379E+01 -0.17139346189E+02 -0.18362001950E+03  0.18444427954E+03  0.00000000000E+00 0.  1.
<mgrwt>
<rscale>  0 0.17430025E+04</rscale>
<asrwt>0</asrwt>
<pdfrwt beam="1">  1        2 0.64197711E+00 0.17430025E+04</pdfrwt>
<pdfrwt beam="2">  1       -2 0.28002047E-01 0.17430025E+04</pdfrwt>
<totfact> 0.27646643E+00</totfact>
</mgrwt>
</event>
<event>
12    1  0.1532786E-007  0.1634408E+04  0.7818608E-02  0.8799684E-01
         -1   -1    0    0    0  501 -0.00000000000E+00  0.00000000000E+00  0.10819606847E+04  0.10819606847E+04  0.00000000000E+00 0.  1.
          1   -1    0    0  501    0  0.00000000000E+00 -0.00000000000E+00 -0.61723368704E+03  0.61723368704E+03  0.00000000000E+00 0. -1.
         23    2    1    2    0    0 -0.29684943233E+03  0.36479707915E+03  0.36732026194E+03  0.60366572750E+03  0.91058449920E+02 0.  0.
        254    2    1    2    0    0  0.29684943233E+03 -0.36479707915E+03  0.97406735768E+02  0.10955286443E+04  0.98463112069E+03 0.  0.
        -24    2    4    4    0    0 -0.26091547030E+03  0.16265120079E+03  0.60885865978E+02  0.32285792403E+03  0.77445817666E+02 0.  0.
         24    2    4    4    0    0  0.55776490263E+03 -0.52744827994E+03  0.36520869790E+02  0.77267072024E+03  0.79893012045E+02 0.  0.
         11    1    3    3    0    0 -0.26429618690E+03  0.34481851114E+03  0.36117908601E+03  0.56498018745E+03  0.00000000000E+00 0.  1.
        -11    1    3    3    0    0 -0.32553245430E+02  0.19978568007E+02  0.61411759257E+01  0.38685540055E+02  0.00000000000E+00 0. -1.
          2    1    6    6  502    0  0.48982697858E+03 -0.48885233505E+03  0.17496723640E+02  0.69225227321E+03  0.00000000000E+00 0. -1.
          1    1    5    5  503    0 -0.15956422089E+03  0.96518078417E+02 -0.19570820411E+01  0.18649479944E+03  0.00000000000E+00 0. -1.
         -4    1    5    5    0  503 -0.10135124942E+03  0.66133122369E+02  0.62842948019E+02  0.13636312459E+03  0.00000000000E+00 0.  1.
         -1    1    6    6    0  502  0.67937924050E+02 -0.38595944888E+02  0.19024146151E+02  0.80418447031E+02  0.00000000000E+00 0.  1.
<mgrwt>
<rscale>  0 0.16344083E+04</rscale>
<asrwt>0</asrwt>
<pdfrwt beam="1">  1        1 0.94959029E-01 0.16344083E+04</pdfrwt>
<pdfrwt beam="2">  1       -1 0.16645549E+00 0.16344083E+04</pdfrwt>
<totfact> 0.82191693E+00</totfact>
</mgrwt>
</event>
<event>
12    1  0.1532786E-007  0.1737274E+04  0.7818608E-02  0.8740386E-01
          2   -1    0    0  501    0  0.00000000000E+00  0.00000000000E+00  0.33622902867E+04  0.33622902867E+04  0.00000000000E+00 0. -1.
         -2   -1    0    0    0  501 -0.00000000000E+00 -0.00000000000E+00 -0.22440969153E+03  0.22440969153E+03  0.00000000000E+00 0.  1.
         23    2    1    2    0    0 -0.38609127278E+03  0.22305383720E+02  0.12338664475E+03  0.41604602836E+03  0.91137437726E+02 0.  0.
        254    2    1    2    0    0  0.38609127278E+03 -0.22305383720E+02  0.30144939504E+04  0.31706539499E+04  0.90349803081E+03 0.  0.
        -24    2    4    4    0    0  0.47725858847E+02  0.39797596541E+03  0.92857126272E+03  0.10146870268E+04  0.81746838951E+02 0.  0.
         24    2    4    4    0    0  0.33836541393E+03 -0.42028134913E+03  0.20859226877E+04  0.21559669231E+04  0.77410262395E+02 0.  0.
         13    1    3    3    0    0 -0.85912297298E+01  0.16653256765E+02 -0.35572324883E+00  0.18742111092E+02  0.00000000000E+00 0. -1.
        -13    1    3    3    0    0 -0.37750004305E+03  0.56521269547E+01  0.12374236800E+03  0.39730391727E+03  0.00000000000E+00 0.  1.
          2    1    6    6  502    0  0.27014673579E+03 -0.33789522959E+03  0.17823758111E+04  0.18341253984E+04  0.00000000000E+00 0. -1.
          3    1    5    5  503    0  0.28212599048E+02  0.32852570184E+03  0.82513634711E+03  0.88858037275E+03  0.00000000000E+00 0. -1.
         -4    1    5    5    0  503  0.19513259799E+02  0.69450263574E+02  0.10343491560E+03  0.12610665400E+03  0.00000000000E+00 0.  1.
         -1    1    6    6    0  502  0.68218678137E+02 -0.82386119546E+02  0.30354687661E+03  0.32184152472E+03  0.00000000000E+00 0.  1.
<mgrwt>
<rscale>  0 0.17372743E+04</rscale>
<asrwt>0</asrwt>
<pdfrwt beam="1">  1        2 0.51727539E+00 0.17372743E+04</pdfrwt>
<pdfrwt beam="2">  1       -2 0.34524570E-01 0.17372743E+04</pdfrwt>
<totfact> 0.76052247E+00</totfact>
</mgrwt>
</event>
<event>
12    1  0.1532786E-007  0.1956669E+04  0.7818608E-02  0.8627152E-01
          2   -1    0    0  501    0  0.00000000000E+00  0.00000000000E+00  0.12594501115E+04  0.12594501115E+04  0.00000000000E+00 0. -1.
         -2   -1    0    0    0  501 -0.00000000000E+00 -0.00000000000E+00 -0.75996525499E+03  0.75996525499E+03  0.00000000000E+00 0.  1.
         23    2    1    2    0    0 -0.18079979430E+03  0.28298094890E+03  0.91167043046E+03  0.97581226552E+03  0.91103351853E+02 0.  0.
        254    2    1    2    0    0  0.18079979430E+03 -0.28298094890E+03 -0.41218557396E+03  0.10436031010E+04  0.89802210546E+03 0.  0.
        -24    2    4    4    0    0  0.15415550558E+02 -0.32297107627E+03  0.20981820400E+03  0.39375111818E+03  0.80425798292E+02 0.  0.
         24    2    4    4    0    0  0.16538424374E+03  0.39990127374E+02 -0.62200377797E+03  0.64985198278E+03  0.80422269041E+02 0.  0.
         11    1    3    3    0    0 -0.17941141944E+03  0.24644499318E+03  0.86067890234E+03  0.91306722919E+03  0.00000000000E+00 0. -1.
        -11    1    3    3    0    0 -0.13883748599E+01  0.36535955713E+02  0.50991528121E+02  0.62745036336E+02  0.00000000000E+00 0.  1.
          4    1    6    6  502    0  0.81325625818E+02  0.19357569214E+02 -0.16775717705E+03  0.18743277022E+03  0.00000000000E+00 0. -1.
          3    1    5    5  503    0 -0.20791180154E+02 -0.23679564945E+03  0.16952163659E+03  0.29196239148E+03  0.00000000000E+00 0. -1.
         -4    1    5    5    0  503  0.36206730712E+02 -0.86175426822E+02  0.40296567413E+02  0.10178872669E+03  0.00000000000E+00 0.  1.
         -3    1    6    6    0  502  0.84058617920E+02  0.20632558159E+02 -0.45424660092E+03  0.46241921256E+03  0.00000000000E+00 0.  1.
<mgrwt>
<rscale>  0 0.19566689E+04</rscale>
<asrwt>0</asrwt>
<pdfrwt beam="1">  1        2 0.19376156E+00 0.19566689E+04</pdfrwt>
<pdfrwt beam="2">  1       -2 0.11691773E+00 0.19566689E+04</pdfrwt>
<totfact> 0.92203078E+00</totfact>
</mgrwt>
</event>
<event>
12    1  0.1532786E-007  0.1273306E+04  0.7818608E-02  0.9051006E-01
         -1   -1    0    0    0  501 -0.00000000000E+00  0.00000000000E+00  0.14526886408E+04  0.14526886408E+04  0.00000000000E+00 0.  1.
          1   -1    0    0  501    0  0.00000000000E+00 -0.00000000000E+00 -0.27901863888E+03  0.27901863888E+03  0.00000000000E+00 0. -1.
         23    2    1    2    0    0  0.10885861266E+02 -0.13304402846E+03  0.67635489329E+03  0.69534950534E+03  0.90751184091E+02 0.  0.
        254    2    1    2    0    0 -0.10885861266E+02  0.13304402846E+03  0.49731510861E+03  0.10363577743E+04  0.89938640397E+03 0.  0.
        -24    2    4    4    0    0 -0.11720590714E+03 -0.16308576673E+03  0.64464043364E+03  0.67993482268E+03  0.80099203646E+02 0.  0.
         24    2    4    4    0    0  0.10632004588E+03  0.29612979519E+03 -0.14732532504E+03  0.35642295163E+03  0.79597495573E+02 0.  0.
         13    1    3    3    0    0 -0.98826866502E+01  0.67340942194E+01  0.14606982981E+03  0.14655855725E+03  0.00000000000E+00 0. -1.
        -13    1    3    3    0    0  0.20768547916E+02 -0.13977812268E+03  0.53028506347E+03  0.54879094809E+03  0.00000000000E+00 0.  1.
          2    1    6    6  502    0  0.44679292037E+02  0.10337176448E+03 -0.12626027779E+02  0.11331980147E+03  0.00000000000E+00 0. -1.
          3    1    5    5  503    0 -0.78976074767E+02 -0.48394252071E+02  0.22761969087E+03  0.24574366257E+03  0.00000000000E+00 0. -1.
         -4    1    5    5    0  503 -0.38229832377E+02 -0.11469151465E+03  0.41702074277E+03  0.43419116011E+03  0.00000000000E+00 0.  1.
         -1    1    6    6    0  502  0.61640753841E+02  0.19275803071E+03 -0.13469929726E+03  0.24310315016E+03  0.00000000000E+00 0.  1.
<mgrwt>
<rscale>  0 0.12733063E+04</rscale>
<asrwt>0</asrwt>
<pdfrwt beam="1">  1        1 0.42925945E-01 0.12733063E+04</pdfrwt>
<pdfrwt beam="2">  1       -1 0.22349056E+00 0.12733063E+04</pdfrwt>
<totfact> 0.99017104E+00</totfact>
</mgrwt>
</event>
<event>
12    1  0.1532786E-007  0.1744748E+04  0.7818608E-02  0.8736247E-01
         -1   -1    0    0    0  501 -0.00000000000E+00  0.00000000000E+00  0.59344359208E+03  0.59344359208E+03  0.00000000000E+00 0.  1.
          1   -1    0    0  501    0  0.00000000000E+00 -0.00000000000E+00 -0.12824073478E+04  0.12824073478E+04  0.00000000000E+00 0. -1.
         23    2    1    2    0    0 -0.12925536587E+03 -0.59454551841E+03 -0.24946442815E+02  0.61580118322E+03  0.91637596975E+02 0.  0.
        254    2    1    2    0    0  0.12925536587E+03  0.59454551841E+03 -0.66401731290E+03  0.12600497566E+04  0.88125766625E+03 0.  0.
        -24    2    4    4    0    0  0.21298788815E+02  0.76781538693E+03 -0.28672559326E+03  0.82373047597E+03  0.79537566012E+02 0.  0.
         24    2    4    4    0    0  0.10795657705E+03 -0.17326986851E+03 -0.37729171963E+03  0.43631928068E+03  0.79676866909E+02 0.  0.
         13    1    3    3    0    0 -0.11501361435E+03 -0.58633082625E+03 -0.17522451960E+02  0.59776166289E+03  0.00000000000E+00 0.  1.
        -13    1    3    3    0    0 -0.14241751520E+02 -0.82146921628E+01 -0.74239908546E+01  0.18039520335E+02  0.00000000000E+00 0. -1.
          2    1    6    6  502    0  0.85149085546E+02 -0.13779636128E+03 -0.21832100553E+03  0.27184971107E+03  0.00000000000E+00 0. -1.
          1    1    5    5  503    0  0.39400957439E+01  0.69745640273E+02 -0.51868664572E+02  0.87007683891E+02  0.00000000000E+00 0. -1.
         -2    1    5    5    0  503  0.17358693071E+02  0.69806974665E+03 -0.23485692869E+03  0.73672279208E+03  0.00000000000E+00 0.  1.
         -1    1    6    6    0  502  0.22807491508E+02 -0.35473507230E+02 -0.15897071410E+03  0.16446956960E+03  0.00000000000E+00 0.  1.
<mgrwt>
<rscale>  0 0.17447480E+04</rscale>
<asrwt>0</asrwt>
<pdfrwt beam="1">  1        1 0.19729344E+00 0.17447480E+04</pdfrwt>
<pdfrwt beam="2">  1       -1 0.91299015E-01 0.17447480E+04</pdfrwt>
<totfact> 0.10331512E+01</totfact>
</mgrwt>
</event>
<event>
12    1  0.1532786E-007  0.1243986E+04  0.7818608E-02  0.9075204E-01
         -1   -1    0    0    0  501 -0.00000000000E+00  0.00000000000E+00  0.25664640455E+03  0.25664640455E+03  0.00000000000E+00 0.  1.
          1   -1    0    0  501    0  0.00000000000E+00 -0.00000000000E+00 -0.15074253337E+04  0.15074253337E+04  0.00000000000E+00 0. -1.
         23    2    1    2    0    0 -0.35924830604E+02 -0.19860914028E+03 -0.57097804585E+03  0.61241417337E+03  0.91098884988E+02 0.  0.
        254    2    1    2    0    0  0.35924830604E+02  0.19860914028E+03 -0.67980088332E+03  0.11516575649E+04  0.90744130487E+03 0.  0.
        -24    2    4    4    0    0  0.56019776997E+02  0.44934193697E+03 -0.42192758909E+02  0.46179900655E+03  0.80197891530E+02 0.  0.
         24    2    4    4    0    0 -0.20094946393E+02 -0.25073279669E+03 -0.63760812441E+03  0.68985855836E+03  0.78038247157E+02 0.  0.
         11    1    3    3    0    0  0.57610193384E+01 -0.61392638959E+00  0.83946044388E+00  0.58541389859E+01  0.00000000000E+00 0.  1.
        -11    1    3    3    0    0 -0.41685849943E+02 -0.19799521389E+03 -0.57181750629E+03  0.60656003438E+03  0.00000000000E+00 0. -1.
          4    1    6    6  502    0  0.91871430704E+01 -0.22249254421E+03 -0.53979199192E+03  0.58392014040E+03  0.00000000000E+00 0. -1.
          3    1    5    5  503    0  0.73844834263E+02  0.41046087571E+03 -0.36396478657E+02  0.41863575301E+03  0.00000000000E+00 0. -1.
         -4    1    5    5    0  503 -0.17825057266E+02  0.38881061257E+02 -0.57962802515E+01  0.43163253535E+02  0.00000000000E+00 0.  1.
         -3    1    6    6    0  502 -0.29282089463E+02 -0.28240252476E+02 -0.97816132489E+02  0.10593841795E+03  0.00000000000E+00 0.  1.
<mgrwt>
<rscale>  0 0.12439860E+04</rscale>
<asrwt>0</asrwt>
<pdfrwt beam="1">  1        1 0.23191159E+00 0.12439860E+04</pdfrwt>
<pdfrwt beam="2">  1       -1 0.39484062E-01 0.12439860E+04</pdfrwt>
<totfact> 0.39774472E+01</totfact>
</mgrwt>
</event>
<event>
12    1  0.1532786E-007  0.2051747E+04  0.7818608E-02  0.8582802E-01
         -2   -1    0    0    0  501 -0.00000000000E+00  0.00000000000E+00  0.15673514766E+04  0.15673514766E+04  0.00000000000E+00 0.  1.
          2   -1    0    0  501    0  0.00000000000E+00 -0.00000000000E+00 -0.67146191291E+03  0.67146191291E+03  0.00000000000E+00 0. -1.
         23    2    1    2    0    0 -0.48142747070E+03  0.25176746589E+03 -0.31519804840E+03  0.63559929516E+03  0.97351876535E+02 0.  0.
        254    2    1    2    0    0  0.48142747070E+03 -0.25176746589E+03  0.12110876121E+04  0.16032140943E+04  0.89911231876E+03 0.  0.
        -24    2    4    4    0    0 -0.25442045794E+03 -0.19325779084E+02  0.23352939884E+03  0.35521086217E+03  0.80842571246E+02 0.  0.
         24    2    4    4    0    0  0.73584792864E+03 -0.23244168680E+03  0.97755821323E+03  0.12480032322E+04  0.79941825043E+02 0.  0.
         13    1    3    3    0    0 -0.13567309600E+02  0.22659899500E+02  0.58515015249E+00  0.26417519487E+02  0.00000000000E+00 0.  1.
        -13    1    3    3    0    0 -0.46786016110E+03  0.22910756639E+03 -0.31578319855E+03  0.60918177567E+03  0.00000000000E+00 0. -1.
          2    1    6    6  502    0  0.22596739719E+02 -0.19501951833E+02  0.55208728167E+02  0.62760994551E+02  0.00000000000E+00 0. -1.
          1    1    5    5  503    0 -0.12670387086E+03  0.15497236804E+02  0.72669232605E+02  0.14688380648E+03  0.00000000000E+00 0. -1.
         -2    1    5    5    0  503 -0.12771658708E+03 -0.34823015888E+02  0.16086016623E+03  0.20832705569E+03  0.00000000000E+00 0.  1.
         -1    1    6    6    0  502  0.71325118892E+03 -0.21293973497E+03  0.92234948506E+03  0.11852422376E+04  0.00000000000E+00 0.  1.
<mgrwt>
<rscale>  0 0.20517474E+04</rscale>
<asrwt>0</asrwt>
<pdfrwt beam="1">  1        2 0.10330183E+00 0.20517474E+04</pdfrwt>
<pdfrwt beam="2">  1       -2 0.24113100E+00 0.20517474E+04</pdfrwt>
<totfact> 0.29109334E+00</totfact>
</mgrwt>
</event>
<event>
12    1  0.1532786E-007  0.1744436E+04  0.7818608E-02  0.8736419E-01
         -2   -1    0    0    0  501 -0.00000000000E+00  0.00000000000E+00  0.53556439361E+03  0.53556439361E+03  0.00000000000E+00 0.  1.
          2   -1    0    0  501    0  0.00000000000E+00 -0.00000000000E+00 -0.14204910748E+04  0.14204910748E+04  0.00000000000E+00 0. -1.
         23    2    1    2    0    0 -0.46173325839E+01 -0.32907502172E+03 -0.93166076937E+03  0.99246022791E+03  0.93133372729E+02 0.  0.
        254    2    1    2    0    0  0.46173325839E+01  0.32907502172E+03  0.46734088222E+02  0.96359524047E+03  0.90444459353E+03 0.  0.
        -24    2    4    4    0    0 -0.37955894260E+03  0.35762200168E+03  0.16397551101E+03  0.55304376612E+03  0.83731428069E+02 0.  0.
         24    2    4    4    0    0  0.38417627518E+03 -0.28546979955E+02 -0.11724142279E+03  0.41055147434E+03  0.80003883598E+02 0.  0.
         11    1    3    3    0    0 -0.37548428009E+01 -0.66254687982E+02 -0.98021339703E+02  0.11837214859E+03  0.00000000000E+00 0.  1.
        -11    1    3    3    0    0 -0.86248978297E+00 -0.26282033374E+03 -0.83363942967E+03  0.87408807932E+03  0.00000000000E+00 0. -1.
          4    1    6    6  502    0  0.28217130402E+03 -0.46037222089E+02 -0.11157672282E+03  0.30690297441E+03  0.00000000000E+00 0. -1.
          1    1    5    5  503    0 -0.14400822872E+03  0.14295132650E+03  0.10664835726E+03  0.22923203047E+03  0.00000000000E+00 0. -1.
         -2    1    5    5    0  503 -0.23555071388E+03  0.21467067518E+03  0.57327153753E+02  0.32381173565E+03  0.00000000000E+00 0.  1.
         -3    1    6    6    0  502  0.10200497116E+03  0.17490242133E+02 -0.56646999721E+01  0.10364849993E+03  0.00000000000E+00 0.  1.
<mgrwt>
<rscale>  0 0.17444362E+04</rscale>
<asrwt>0</asrwt>
<pdfrwt beam="1">  1        2 0.21853709E+00 0.17444362E+04</pdfrwt>
<pdfrwt beam="2">  1       -2 0.82394523E-01 0.17444362E+04</pdfrwt>
<totfact> 0.17273072E+01</totfact>
</mgrwt>
</event>
<event>
12    1  0.1532786E-007  0.1218307E+04  0.7818608E-02  0.9096981E-01
         -1   -1    0    0    0  501 -0.00000000000E+00  0.00000000000E+00  0.18850087592E+03  0.18850087592E+03  0.00000000000E+00 0.  1.
          1   -1    0    0  501    0  0.00000000000E+00 -0.00000000000E+00 -0.19685223278E+04  0.19685223278E+04  0.00000000000E+00 0. -1.
         23    2    1    2    0    0 -0.56841320655E+02  0.20385518951E+02 -0.86671424554E+03  0.87340167610E+03  0.89389033248E+02 0.  0.
        254    2    1    2    0    0  0.56841320655E+02 -0.20385518951E+02 -0.91330720637E+03  0.12836215277E+04  0.89994870294E+03 0.  0.
        -24    2    4    4    0    0 -0.23770897432E+03  0.26947772001E+03 -0.74383923838E+03  0.82999369411E+03  0.80429606862E+02 0.  0.
         24    2    4    4    0    0  0.29455029497E+03 -0.28986323896E+03 -0.16946796799E+03  0.45362783354E+03  0.79235381133E+02 0.  0.
         13    1    3    3    0    0 -0.25992215033E+02 -0.35476880333E+02 -0.33715379948E+03  0.34001013042E+03  0.00000000000E+00 0.  1.
        -13    1    3    3    0    0 -0.30849105622E+02  0.55862399284E+02 -0.52956044606E+03  0.53339154568E+03  0.00000000000E+00 0. -1.
          2    1    6    6  502    0  0.12595122032E+03 -0.17205379017E+03 -0.64865787142E+02  0.22287616956E+03  0.00000000000E+00 0. -1.
          3    1    5    5  503    0 -0.72488973071E+02  0.12512971305E+03 -0.35862665646E+03  0.38668485234E+03  0.00000000000E+00 0. -1.
         -4    1    5    5    0  503 -0.16522000125E+03  0.14434800696E+03 -0.38521258192E+03  0.44330884178E+03  0.00000000000E+00 0.  1.
         -1    1    6    6    0  502  0.16859907465E+03 -0.11780944878E+03 -0.10460218085E+03  0.23075166399E+03  0.00000000000E+00 0.  1.
<mgrwt>
<rscale>  0 0.12183073E+04</rscale>
<asrwt>0</asrwt>
<pdfrwt beam="1">  1        1 0.30284961E+00 0.12183073E+04</pdfrwt>
<pdfrwt beam="2">  1       -1 0.29000133E-01 0.12183073E+04</pdfrwt>
<totfact> 0.33558042E+01</totfact>
</mgrwt>
</event>
<event>
12    1  0.1532786E-007  0.1417225E+04  0.7818608E-02  0.8941444E-01
          2   -1    0    0  501    0  0.00000000000E+00  0.00000000000E+00  0.15323936215E+04  0.15323936215E+04  0.00000000000E+00 0. -1.
         -2   -1    0    0    0  501 -0.00000000000E+00 -0.00000000000E+00 -0.32767805869E+03  0.32767805869E+03  0.00000000000E+00 0.  1.
         23    2    1    2    0    0  0.21155870280E+03  0.76141484851E+02 -0.85139778324E+02  0.25746375241E+03  0.92109671061E+02 0.  0.
        254    2    1    2    0    0 -0.21155870280E+03 -0.76141484851E+02  0.12898553411E+04  0.16026079277E+04  0.92415948766E+03 0.  0.
        -24    2    4    4    0    0 -0.24265197944E+03  0.37908024761E+03  0.84343963414E+03  0.95932669815E+03  0.79595729080E+02 0.  0.
         24    2    4    4    0    0  0.31093276637E+02 -0.45522173247E+03  0.44641570695E+03  0.64328122958E+03  0.79562172924E+02 0.  0.
         11    1    3    3    0    0  0.60401409984E+01 -0.12938554966E+02 -0.19273820849E+02  0.23986864697E+02  0.00000000000E+00 0. -1.
        -11    1    3    3    0    0  0.20551856180E+03  0.89080039817E+02 -0.65865957475E+02  0.23347688771E+03  0.00000000000E+00 0.  1.
          2    1    6    6  502    0  0.34924562101E+02 -0.43009174339E+03  0.44157602511E+03  0.61740425875E+03  0.00000000000E+00 0. -1.
          1    1    5    5  503    0 -0.23604544914E+03  0.38210443405E+03  0.83547293424E+03  0.94854429334E+03  0.00000000000E+00 0. -1.
         -2    1    5    5    0  503 -0.66065303001E+01 -0.30241864347E+01  0.79666998999E+01  0.10782404810E+02  0.00000000000E+00 0.  1.
         -1    1    6    6    0  502 -0.38312854640E+01 -0.25129989072E+02  0.48396818411E+01  0.25876970831E+02  0.00000000000E+00 0.  1.
<mgrwt>
<rscale>  0 0.14172251E+04</rscale>
<asrwt>0</asrwt>
<pdfrwt beam="1">  1        2 0.23575286E+00 0.14172251E+04</pdfrwt>
<pdfrwt beam="2">  1       -2 0.50412010E-01 0.14172251E+04</pdfrwt>
<totfact> 0.44017341E+01</totfact>
</mgrwt>
</event>
<event>
12    1  0.1532786E-007  0.2025556E+04  0.7818608E-02  0.8594765E-01
         -2   -1    0    0    0  501 -0.00000000000E+00  0.00000000000E+00  0.28518352278E+03  0.28518352278E+03  0.00000000000E+00 0.  1.
          2   -1    0    0  501    0  0.00000000000E+00 -0.00000000000E+00 -0.35966976685E+04  0.35966976685E+04  0.00000000000E+00 0. -1.
         23    2    1    2    0    0  0.38401199947E+03 -0.13483618446E+03 -0.26609051907E+04  0.26933034856E+04  0.88437660028E+02 0.  0.
        254    2    1    2    0    0 -0.38401199947E+03  0.13483618446E+03 -0.65060895502E+03  0.11885777056E+04  0.90762268454E+03 0.  0.
        -24    2    4    4    0    0 -0.32360344211E+03  0.29042098390E+03 -0.82389292642E+03  0.93513381819E+03  0.81315238908E+02 0.  0.
         24    2    4    4    0    0 -0.60408557366E+02 -0.15558479944E+03  0.17328397140E+03  0.25344388740E+03  0.79690938603E+02 0.  0.
         11    1    3    3    0    0  0.20404338040E+03 -0.11248385273E+03 -0.13590226863E+04  0.13788506011E+04  0.00000000000E+00 0.  1.
        -11    1    3    3    0    0  0.17996861907E+03 -0.22352331728E+02 -0.13018825043E+04  0.13144528845E+04  0.00000000000E+00 0. -1.
          4    1    6    6  502    0 -0.10355449607E+02 -0.15502958521E+02 -0.68193086702E+01  0.19851449071E+02  0.00000000000E+00 0. -1.
          1    1    5    5  503    0 -0.11192120428E+02  0.27157354069E+02 -0.96392268684E+02  0.10076832291E+03  0.00000000000E+00 0. -1.
         -2    1    5    5    0  503 -0.31241132168E+03  0.26326362983E+03 -0.72750065774E+03  0.83436549528E+03  0.00000000000E+00 0.  1.
         -3    1    6    6    0  502 -0.50053107759E+02 -0.14008184092E+03  0.18010328007E+03  0.23359243833E+03  0.00000000000E+00 0.  1.
<mgrwt>
<rscale>  0 0.20255556E+04</rscale>
<asrwt>0</asrwt>
<pdfrwt beam="1">  1        2 0.55333812E+00 0.20255556E+04</pdfrwt>
<pdfrwt beam="2">  1       -2 0.43874387E-01 0.20255556E+04</pdfrwt>
<totfact> 0.31901222E+00</totfact>
</mgrwt>
</event>
<event>
12    1  0.1532786E-007  0.2291769E+04  0.7818608E-02  0.8481174E-01
         -1   -1    0    0    0  501 -0.00000000000E+00  0.00000000000E+00  0.91865923194E+03  0.91865923194E+03  0.00000000000E+00 0.  1.
          1   -1    0    0  501    0  0.00000000000E+00 -0.00000000000E+00 -0.14293123311E+04  0.14293123311E+04  0.00000000000E+00 0. -1.
         23    2    1    2    0    0 -0.33050793254E+03  0.15707998094E+03  0.70780598213E+03  0.80211114490E+03  0.92105192840E+02 0.  0.
        254    2    1    2    0    0  0.33050793254E+03 -0.15707998094E+03 -0.12184590813E+04  0.15458604182E+04  0.87814138142E+03 0.  0.
        -24    2    4    4    0    0 -0.28409658450E+03  0.38888930631E+02 -0.43888396663E+03  0.53039379608E+03  0.80468779672E+02 0.  0.
         24    2    4    4    0    0  0.61460451704E+03 -0.19596891157E+03 -0.77957511471E+03  0.10154666221E+04  0.85396571874E+02 0.  0.
         13    1    3    3    0    0 -0.20232690520E+03  0.47012864403E+02  0.41412770103E+03  0.46330134767E+03  0.00000000000E+00 0.  1.
        -13    1    3    3    0    0 -0.12818102734E+03  0.11006711653E+03  0.29367828110E+03  0.33880979723E+03  0.00000000000E+00 0. -1.
          2    1    6    6  502    0  0.44819031058E+02 -0.17847270567E+01 -0.29395638421E+02  0.53628671006E+02  0.00000000000E+00 0. -1.
          3    1    5    5  503    0 -0.52002442801E+02 -0.77869414613E+01 -0.38185680088E+02  0.64984895771E+02  0.00000000000E+00 0. -1.
         -4    1    5    5    0  503 -0.23209414170E+03  0.46675872093E+02 -0.40069828654E+03  0.46540890031E+03  0.00000000000E+00 0.  1.
         -1    1    6    6    0  502  0.56978548598E+03 -0.19418418451E+03 -0.75017947628E+03  0.96183795111E+03  0.00000000000E+00 0.  1.
<mgrwt>
<rscale>  0 0.22917687E+04</rscale>
<asrwt>0</asrwt>
<pdfrwt beam="1">  1        1 0.21989420E+00 0.22917687E+04</pdfrwt>
<pdfrwt beam="2">  1       -1 0.14133219E+00 0.22917687E+04</pdfrwt>
<totfact> 0.27100742E+00</totfact>
</mgrwt>
</event>
<event>
12    1  0.1532786E-007  0.1841364E+04  0.7818608E-02  0.8684606E-01
         -2   -1    0    0    0  501 -0.00000000000E+00  0.00000000000E+00  0.87133257114E+03  0.87133257114E+03  0.00000000000E+00 0.  1.
          2   -1    0    0  501    0  0.00000000000E+00 -0.00000000000E+00 -0.97282685640E+03  0.97282685640E+03  0.00000000000E+00 0. -1.
         23    2    1    2    0    0 -0.26218428469E+03 -0.42886925184E+03 -0.51727259566E+03  0.72680896550E+03  0.89503630051E+02 0.  0.
        254    2    1    2    0    0  0.26218428469E+03  0.42886925184E+03  0.41577831040E+03  0.11173504620E+04  0.90715545377E+03 0.  0.
        -24    2    4    4    0    0 -0.49570596731E+02 -0.19467298183E+03  0.35163102128E+03  0.41277534071E+03  0.79901770034E+02 0.  0.
         24    2    4    4    0    0  0.31175488142E+03  0.62354223367E+03  0.64147289125E+02  0.70457512133E+03  0.79468255525E+02 0.  0.
         13    1    3    3    0    0 -0.24539965480E+03 -0.42342123987E+03 -0.51226731691E+03  0.70846618898E+03  0.00000000000E+00 0. -1.
        -13    1    3    3    0    0 -0.16784629894E+02 -0.54480119623E+01 -0.50052787543E+01  0.18342776519E+02  0.00000000000E+00 0.  1.
          2    1    6    6  502    0  0.31061884117E+03  0.57941125458E+03  0.62737118909E+02  0.66040700519E+03  0.00000000000E+00 0. -1.
          3    1    5    5  503    0 -0.15892421947E+02 -0.49100977563E+02  0.16957784773E+03  0.17725721851E+03  0.00000000000E+00 0. -1.
         -2    1    5    5    0  503 -0.33678174784E+02 -0.14557200427E+03  0.18205317354E+03  0.23551812219E+03  0.00000000000E+00 0.  1.
         -1    1    6    6    0  502  0.11360402538E+01  0.44130979091E+02  0.14101702168E+01  0.44168116137E+02  0.00000000000E+00 0.  1.
<mgrwt>
<rscale>  0 0.18413644E+04</rscale>
<asrwt>0</asrwt>
<pdfrwt beam="1">  1        2 0.14966567E+00 0.18413644E+04</pdfrwt>
<pdfrwt beam="2">  1       -2 0.13405116E+00 0.18413644E+04</pdfrwt>
<totfact> 0.99138258E+00</totfact>
</mgrwt>
</event>
<event>
12    1  0.1532786E-007  0.3432327E+04  0.7818608E-02  0.8130017E-01
         -1   -1    0    0    0  501 -0.00000000000E+00  0.00000000000E+00  0.11643425200E+04  0.11643425200E+04  0.00000000000E+00 0.  1.
          1   -1    0    0  501    0  0.00000000000E+00 -0.00000000000E+00 -0.25295112391E+04  0.25295112391E+04  0.00000000000E+00 0. -1.
         23    2    1    2    0    0 -0.83532354340E+03 -0.25927950234E+03 -0.20730371805E+04  0.22518602242E+04  0.91651705994E+02 0.  0.
        254    2    1    2    0    0  0.83532354340E+03  0.25927950234E+03  0.70786846137E+03  0.14419935348E+04  0.90181833728E+03 0.  0.
        -24    2    4    4    0    0  0.71187706021E+03  0.24517493891E+03  0.91487290428E+03  0.11874431425E+04  0.78416109783E+02 0.  0.
         24    2    4    4    0    0  0.12344648319E+03  0.14104563423E+02 -0.20700444291E+03  0.25455039230E+03  0.80666535283E+02 0.  0.
         13    1    3    3    0    0 -0.71231558696E+03 -0.20586297926E+03 -0.18253886780E+04  0.19702326988E+04  0.00000000000E+00 0. -1.
        -13    1    3    3    0    0 -0.12300795644E+03 -0.53416523077E+02 -0.24764850252E+03  0.28162752544E+03  0.00000000000E+00 0.  1.
          2    1    6    6  502    0  0.11816356495E+03  0.21742681546E+02 -0.21224112865E+03  0.24388864051E+03  0.00000000000E+00 0. -1.
          3    1    5    5  503    0  0.59126462619E+03  0.19467120234E+03  0.79792772017E+03  0.10120174810E+04  0.00000000000E+00 0. -1.
         -4    1    5    5    0  503  0.12061243402E+03  0.50503736577E+02  0.11694518411E+03  0.17542566156E+03  0.00000000000E+00 0.  1.
         -1    1    6    6    0  502  0.52829182476E+01 -0.76381181235E+01  0.52366857388E+01  0.10661751789E+02  0.00000000000E+00 0.  1.
<mgrwt>
<rscale>  0 0.34323272E+04</rscale>
<asrwt>0</asrwt>
<pdfrwt beam="1">  1        1 0.38915557E+00 0.34323272E+04</pdfrwt>
<pdfrwt beam="2">  1       -1 0.17912962E+00 0.34323272E+04</pdfrwt>
<totfact> 0.22380322E-01</totfact>
</mgrwt>
</event>
<event>
12    1  0.1532786E-007  0.2194864E+04  0.7818608E-02  0.8520569E-01
         -2   -1    0    0    0  501 -0.00000000000E+00  0.00000000000E+00  0.70753121291E+03  0.70753121291E+03  0.00000000000E+00 0.  1.
          2   -1    0    0  501    0  0.00000000000E+00 -0.00000000000E+00 -0.17021959830E+04  0.17021959830E+04  0.00000000000E+00 0. -1.
         23    2    1    2    0    0 -0.53316839561E+03 -0.74375528741E+03 -0.37611954640E+03  0.99356195457E+03  0.90878923694E+02 0.  0.
        254    2    1    2    0    0  0.53316839561E+03  0.74375528741E+03 -0.61854522366E+03  0.14161652413E+04  0.88627610334E+03 0.  0.
        -24    2    4    4    0    0  0.76682389523E+03  0.52823731987E+03 -0.37279066186E+03  0.10060836817E+04  0.78599902773E+02 0.  0.
         24    2    4    4    0    0 -0.23365549962E+03  0.21551796754E+03 -0.24575456180E+03  0.41008155956E+03  0.82028617016E+02 0.  0.
         13    1    3    3    0    0 -0.34126149441E+03 -0.54661710966E+03 -0.27025079144E+03  0.69877404246E+03  0.00000000000E+00 0. -1.
        -13    1    3    3    0    0 -0.19190690119E+03 -0.19713817774E+03 -0.10586875496E+03  0.29478791211E+03  0.00000000000E+00 0.  1.
          2    1    6    6  502    0 -0.17063469073E+03  0.19876915114E+03 -0.20977678533E+03  0.33560642543E+03  0.00000000000E+00 0. -1.
          3    1    5    5  503    0  0.52659934738E+03  0.39917134429E+03 -0.24280973813E+03  0.70398949118E+03  0.00000000000E+00 0. -1.
         -4    1    5    5    0  503  0.24022454785E+03  0.12906597558E+03 -0.12998092372E+03  0.30209419057E+03  0.00000000000E+00 0.  1.
         -1    1    6    6    0  502 -0.63020808889E+02  0.16748816397E+02 -0.35977776472E+02  0.74475134130E+02  0.00000000000E+00 0.  1.
<mgrwt>
<rscale>  0 0.21948638E+04</rscale>
<asrwt>0</asrwt>
<pdfrwt beam="1">  1        2 0.26187631E+00 0.21948638E+04</pdfrwt>
<pdfrwt beam="2">  1       -2 0.10885096E+00 0.21948638E+04</pdfrwt>
<totfact> 0.60271467E+00</totfact>
</mgrwt>
</event>
<event>
12    1  0.1532786E-007  0.1153424E+04  0.7818608E-02  0.9154631E-01
          1   -1    0    0  501    0  0.00000000000E+00  0.00000000000E+00  0.38949710836E+03  0.38949710836E+03  0.00000000000E+00 0. -1.
         -1   -1    0    0    0  501 -0.00000000000E+00 -0.00000000000E+00 -0.85391301797E+03  0.85391301797E+03  0.00000000000E+00 0.  1.
         23    2    1    2    0    0 -0.12265712458E+03 -0.24608858152E+02  0.81656408368E+02  0.17524877868E+03  0.91618771490E+02 0.  0.
        254    2    1    2    0    0  0.12265712458E+03  0.24608858152E+02 -0.54607231798E+03  0.10681613477E+04  0.90946320544E+03 0.  0.
        -24    2    4    4    0    0  0.15832653880E+03  0.14917163507E+03 -0.76668402281E+03  0.80030715734E+03  0.73264491116E+02 0.  0.
         24    2    4    4    0    0 -0.35669414219E+02 -0.12456277691E+03  0.22061170483E+03  0.26785419032E+03  0.79297859112E+02 0.  0.
         11    1    3    3    0    0 -0.11139066160E+03  0.14902772142E+02  0.48283581670E+02  0.12231629641E+03  0.00000000000E+00 0. -1.
        -11    1    3    3    0    0 -0.11266462981E+02 -0.39511630294E+02  0.33372826698E+02  0.52932482261E+02  0.00000000000E+00 0.  1.
          4    1    6    6  502    0  0.40004437859E+01 -0.10853781008E+03  0.16785634190E+03  0.19993051614E+03  0.00000000000E+00 0. -1.
          3    1    5    5  503    0  0.13657113724E+03  0.15503642203E+03 -0.70423992786E+03  0.73392223271E+03  0.00000000000E+00 0. -1.
         -4    1    5    5    0  503  0.21755401558E+02 -0.58647869604E+01 -0.62444094953E+02  0.66384924625E+02  0.00000000000E+00 0.  1.
         -3    1    6    6    0  502 -0.39669858005E+02 -0.16024966836E+02  0.52755362927E+02  0.67923674178E+02  0.00000000000E+00 0.  1.
<mgrwt>
<rscale>  0 0.11534239E+04</rscale>
<asrwt>0</asrwt>
<pdfrwt beam="1">  1        1 0.59922633E-01 0.11534239E+04</pdfrwt>
<pdfrwt beam="2">  1       -1 0.13137123E+00 0.11534239E+04</pdfrwt>
<totfact> 0.30489005E+01</totfact>
</mgrwt>
</event>
<event>
12    1  0.1532786E-007  0.1499808E+04  0.7818608E-02  0.8884581E-01
          1   -1    0    0  501    0  0.00000000000E+00  0.00000000000E+00  0.13634431710E+04  0.13634431710E+04  0.00000000000E+00 0. -1.
         -1   -1    0    0    0  501 -0.00000000000E+00 -0.00000000000E+00 -0.41245261535E+03  0.41245261535E+03  0.00000000000E+00 0.  1.
         23    2    1    2    0    0  0.47625327727E+03  0.28938017819E+02  0.34251997196E+03  0.59451464810E+03  0.92049674778E+02 0.  0.
        254    2    1    2    0    0 -0.47625327727E+03 -0.28938017819E+02  0.60847058371E+03  0.11813811383E+04  0.89317990888E+03 0.  0.
        -24    2    4    4    0    0 -0.65055932325E+03 -0.17978490279E+02  0.70732535669E+03  0.96445994315E+03  0.79518315834E+02 0.  0.
         24    2    4    4    0    0  0.17430604598E+03 -0.10959527540E+02 -0.98854772977E+02  0.21692119511E+03  0.82339722110E+02 0.  0.
         11    1    3    3    0    0  0.30712043851E+03 -0.25286121927E+02  0.22454932161E+03  0.38129352151E+03  0.00000000000E+00 0. -1.
        -11    1    3    3    0    0  0.16913283876E+03  0.54224139746E+02  0.11797065035E+03  0.21322112659E+03  0.00000000000E+00 0.  1.
          4    1    6    6  502    0  0.13708714324E+03 -0.12285502124E+02 -0.33428724353E+02  0.14163791165E+03  0.00000000000E+00 0. -1.
          1    1    5    5  503    0 -0.59482487500E+03  0.46033936421E+01  0.62918611279E+03  0.86585968128E+03  0.00000000000E+00 0. -1.
         -2    1    5    5    0  503 -0.55734448256E+02 -0.22581883921E+02  0.78139243899E+02  0.98600261870E+02  0.00000000000E+00 0.  1.
         -3    1    6    6    0  502  0.37218902742E+02  0.13259745837E+01 -0.65426048624E+02  0.75283283460E+02  0.00000000000E+00 0.  1.
<mgrwt>
<rscale>  0 0.14998076E+04</rscale>
<asrwt>0</asrwt>
<pdfrwt beam="1">  1        1 0.20976049E+00 0.14998076E+04</pdfrwt>
<pdfrwt beam="2">  1       -1 0.63454249E-01 0.14998076E+04</pdfrwt>
<totfact> 0.19864793E+01</totfact>
</mgrwt>
</event>
<event>
12    1  0.1532786E-007  0.2174074E+04  0.7818608E-02  0.8529297E-01
          1   -1    0    0  501    0  0.00000000000E+00  0.00000000000E+00  0.22931845326E+04  0.22931845326E+04  0.00000000000E+00 0. -1.
         -1   -1    0    0    0  501 -0.00000000000E+00 -0.00000000000E+00 -0.51528773892E+03  0.51528773892E+03  0.00000000000E+00 0.  1.
         23    2    1    2    0    0  0.22482584492E+03  0.44738498446E+03 -0.18149163369E+03  0.54017357369E+03  0.90267888770E+02 0.  0.
        254    2    1    2    0    0 -0.22482584492E+03 -0.44738498446E+03  0.19593884274E+04  0.22682986978E+04  0.10272662695E+04 0.  0.
        -24    2    4    4    0    0 -0.59404723977E+02 -0.16319575878E+03 -0.75418572906E+02  0.20554761795E+03  0.80000532452E+02 0.  0.
         24    2    4    4    0    0 -0.16542112094E+03 -0.28418922569E+03  0.20348070003E+04  0.20627510799E+04  0.79842507069E+02 0.  0.
         13    1    3    3    0    0  0.19420921812E+03  0.42644992037E+03 -0.15149168076E+03  0.49246978012E+03  0.00000000000E+00 0.  1.
        -13    1    3    3    0    0  0.30616626801E+02  0.20935064090E+02 -0.29999952931E+02  0.47703793570E+02  0.00000000000E+00 0. -1.
          4    1    6    6  502    0 -0.57726101361E+02 -0.17804179910E+03  0.11294936399E+04  0.11448960946E+04  0.00000000000E+00 0. -1.
          3    1    5    5  503    0 -0.12564628210E+02 -0.13490992675E+03 -0.44043349612E+02  0.14247236526E+03  0.00000000000E+00 0. -1.
         -4    1    5    5    0  503 -0.46840095767E+02 -0.28285832020E+02 -0.31375223295E+02  0.63075252686E+02  0.00000000000E+00 0.  1.
         -3    1    6    6    0  502 -0.10769501958E+03 -0.10614742659E+03  0.90531336040E+03  0.91785498525E+03  0.00000000000E+00 0.  1.
<mgrwt>
<rscale>  0 0.21740744E+04</rscale>
<asrwt>0</asrwt>
<pdfrwt beam="1">  1        1 0.35279761E+00 0.21740744E+04</pdfrwt>
<pdfrwt beam="2">  1       -1 0.79275038E-01 0.21740744E+04</pdfrwt>
<totfact> 0.27338667E+00</totfact>
</mgrwt>
</event>
<event>
12    1  0.1532786E-007  0.2151336E+04  0.7818608E-02  0.8538961E-01
         -2   -1    0    0    0  501 -0.00000000000E+00  0.00000000000E+00  0.14581621783E+04  0.14581621783E+04  0.00000000000E+00 0.  1.
          2   -1    0    0  501    0  0.00000000000E+00 -0.00000000000E+00 -0.79350646022E+03  0.79350646022E+03  0.00000000000E+00 0. -1.
         23    2    1    2    0    0  0.59560596915E+03 -0.33307838018E+03 -0.31269566485E+03  0.75609689412E+03  0.90643569253E+02 0.  0.
        254    2    1    2    0    0 -0.59560596915E+03  0.33307838018E+03  0.97735138289E+03  0.14955717443E+04  0.90323387837E+03 0.  0.
        -24    2    4    4    0    0 -0.39557240284E+03 -0.24441022974E+03  0.63348952744E+03  0.78959267485E+03  0.77030672531E+02 0.  0.
         24    2    4    4    0    0 -0.20003356631E+03  0.57748860992E+03  0.34386185545E+03  0.70597906950E+03  0.81602381703E+02 0.  0.
         13    1    3    3    0    0  0.17369991796E+03 -0.14093190208E+03 -0.81696436054E+02  0.23813393330E+03  0.00000000000E+00 0.  1.
        -13    1    3    3    0    0  0.42190605119E+03 -0.19214647810E+03 -0.23099922880E+03  0.51796296082E+03  0.00000000000E+00 0. -1.
          4    1    6    6  502    0 -0.19234673161E+03  0.48725482171E+03  0.31337363032E+03  0.61042408096E+03  0.00000000000E+00 0. -1.
          1    1    5    5  503    0 -0.15481799614E+03 -0.13916468631E+03  0.29625648836E+03  0.36208193650E+03  0.00000000000E+00 0. -1.
         -2    1    5    5    0  503 -0.24075440670E+03 -0.10524554343E+03  0.33723303908E+03  0.42751073835E+03  0.00000000000E+00 0.  1.
         -3    1    6    6    0  502 -0.76868346984E+01  0.90233788209E+02  0.30488225131E+02  0.95554988535E+02  0.00000000000E+00 0.  1.
<mgrwt>
<rscale>  0 0.21513355E+04</rscale>
<asrwt>0</asrwt>
<pdfrwt beam="1">  1        2 0.12207792E+00 0.21513355E+04</pdfrwt>
<pdfrwt beam="2">  1       -2 0.22433264E+00 0.21513355E+04</pdfrwt>
<totfact> 0.29642477E+00</totfact>
</mgrwt>
</event>
<event>
12    1  0.1532786E-007  0.1254747E+04  0.7818608E-02  0.9066241E-01
          1   -1    0    0  501    0  0.00000000000E+00  0.00000000000E+00  0.86089650620E+03  0.86089650620E+03  0.00000000000E+00 0. -1.
         -1   -1    0    0    0  501 -0.00000000000E+00 -0.00000000000E+00 -0.45719516791E+03  0.45719516791E+03  0.00000000000E+00 0.  1.
         23    2    1    2    0    0 -0.11555290720E+03  0.17297115184E+03  0.31474864060E+03  0.38833971058E+03  0.92030051214E+02 0.  0.
        254    2    1    2    0    0  0.11555290720E+03 -0.17297115184E+03  0.88952697687E+02  0.92975196353E+03  0.90180631930E+03 0.  0.
        -24    2    4    4    0    0  0.16328748033E+03 -0.50890692964E+03 -0.72721723931E+02  0.54542413117E+03  0.80931881611E+02 0.  0.
         24    2    4    4    0    0 -0.47734573137E+02  0.33593577781E+03  0.16167442162E+03  0.38432783235E+03  0.80236075633E+02 0.  0.
         11    1    3    3    0    0 -0.88450260717E+02  0.68582531558E+02  0.21015984457E+03  0.23810538113E+03  0.00000000000E+00 0. -1.
        -11    1    3    3    0    0 -0.27102646480E+02  0.10438862028E+03  0.10458879604E+03  0.15023432945E+03  0.00000000000E+00 0.  1.
          4    1    6    6  502    0  0.28323471716E+01 -0.39431245666E+01  0.82683217638E+00  0.49248424641E+01  0.00000000000E+00 0. -1.
          1    1    5    5  503    0  0.85113579312E+01 -0.13287400917E+03 -0.30522142365E+02  0.13659995133E+03  0.00000000000E+00 0. -1.
         -2    1    5    5    0  503  0.15477612240E+03 -0.37603292047E+03 -0.42199581566E+02  0.40882417985E+03  0.00000000000E+00 0.  1.
         -3    1    6    6    0  502 -0.50566920308E+02  0.33987890237E+03  0.16084758944E+03  0.37940298989E+03  0.00000000000E+00 0.  1.
<mgrwt>
<rscale>  0 0.12547473E+04</rscale>
<asrwt>0</asrwt>
<pdfrwt beam="1">  1        1 0.13244562E+00 0.12547473E+04</pdfrwt>
<pdfrwt beam="2">  1       -1 0.70337718E-01 0.12547473E+04</pdfrwt>
<totfact> 0.39501378E+01</totfact>
</mgrwt>
</event>
<event>
12    1  0.1532786E-007  0.1146871E+04  0.7818608E-02  0.9160675E-01
          1   -1    0    0  501    0  0.00000000000E+00  0.00000000000E+00  0.65645790376E+03  0.65645790376E+03  0.00000000000E+00 0. -1.
         -1   -1    0    0    0  501 -0.00000000000E+00 -0.00000000000E+00 -0.50091330680E+03  0.50091330680E+03  0.00000000000E+00 0.  1.
         23    2    1    2    0    0 -0.18775041822E+03 -0.38212373442E+02  0.12916518135E+03  0.24844818491E+03  0.91282262702E+02 0.  0.
        254    2    1    2    0    0  0.18775041822E+03  0.38212373442E+02  0.26379415612E+02  0.90892302565E+03  0.88810741916E+03 0.  0.
        -24    2    4    4    0    0 -0.16212367341E+03 -0.28913710425E+03 -0.17379492844E+03  0.38338399107E+03  0.83031662170E+02 0.  0.
         24    2    4    4    0    0  0.34987409163E+03  0.32734947769E+03  0.20017434405E+03  0.52553903458E+03  0.80944106135E+02 0.  0.
         13    1    3    3    0    0 -0.18270090549E+03 -0.15040880696E+02  0.12997247683E+03  0.22471914403E+03  0.00000000000E+00 0. -1.
        -13    1    3    3    0    0 -0.50495127280E+01 -0.23171492746E+02 -0.80729548277E+00  0.23729040875E+02  0.00000000000E+00 0.  1.
          4    1    6    6  502    0  0.25697478510E+03  0.28403686700E+03  0.14920617571E+03  0.41106625362E+03  0.00000000000E+00 0. -1.
          3    1    5    5  503    0 -0.16583922651E+03 -0.25459341308E+03 -0.17068470194E+03  0.34850211263E+03  0.00000000000E+00 0. -1.
         -4    1    5    5    0  503  0.37155531007E+01 -0.34543691166E+02 -0.31102265033E+01  0.34881878435E+02  0.00000000000E+00 0.  1.
         -3    1    6    6    0  502  0.92899306531E+02  0.43312610689E+02  0.50968168339E+02  0.11447278097E+03  0.00000000000E+00 0.  1.
<mgrwt>
<rscale>  0 0.11468714E+04</rscale>
<asrwt>0</asrwt>
<pdfrwt beam="1">  1        1 0.10099352E+00 0.11468714E+04</pdfrwt>
<pdfrwt beam="2">  1       -1 0.77063585E-01 0.11468714E+04</pdfrwt>
<totfact> 0.50370587E+01</totfact>
</mgrwt>
</event>
<event>
12    1  0.1532786E-007  0.1430316E+04  0.7818608E-02  0.8932162E-01
          2   -1    0    0  501    0  0.00000000000E+00  0.00000000000E+00  0.17793425991E+04  0.17793425991E+04  0.00000000000E+00 0. -1.
         -2   -1    0    0    0  501 -0.00000000000E+00 -0.00000000000E+00 -0.28743809827E+03  0.28743809827E+03  0.00000000000E+00 0.  1.
         23    2    1    2    0    0 -0.36997607363E+03 -0.48456427689E+02  0.16267424497E+03  0.41779948863E+03  0.94144475564E+02 0.  0.
        254    2    1    2    0    0  0.36997607363E+03  0.48456427689E+02  0.13292302558E+04  0.16489812087E+04  0.90169597603E+03 0.  0.
        -24    2    4    4    0    0  0.55952437317E+02  0.26088137401E+03  0.14833793145E+02  0.27881019676E+03  0.79531866877E+02 0.  0.
         24    2    4    4    0    0  0.31402363632E+03 -0.21242494632E+03  0.13143964627E+04  0.13701710120E+04  0.77429573579E+02 0.  0.
         13    1    3    3    0    0 -0.89724229058E+02  0.27434588424E+02  0.50376978580E+02  0.10649382091E+03  0.00000000000E+00 0. -1.
        -13    1    3    3    0    0 -0.28025184458E+03 -0.75891016113E+02  0.11229726639E+03  0.31130566772E+03  0.00000000000E+00 0.  1.
          4    1    6    6  502    0  0.30668861369E+03 -0.19908704965E+03  0.12943285463E+04  0.13449832508E+04  0.00000000000E+00 0. -1.
          3    1    5    5  503    0  0.71442431405E+02  0.20205048852E+03 -0.63173117312E+01  0.21440226059E+03  0.00000000000E+00 0. -1.
         -4    1    5    5    0  503 -0.15489994088E+02  0.58830885490E+02  0.21151104876E+02  0.64407936172E+02  0.00000000000E+00 0.  1.
         -3    1    6    6    0  502  0.73350226305E+01 -0.13337896673E+02  0.20067916398E+02  0.25187761179E+02  0.00000000000E+00 0.  1.
<mgrwt>
<rscale>  0 0.14303158E+04</rscale>
<asrwt>0</asrwt>
<pdfrwt beam="1">  1        2 0.27374501E+00 0.14303158E+04</pdfrwt>
<pdfrwt beam="2">  1       -2 0.44221247E-01 0.14303158E+04</pdfrwt>
<totfact> 0.41726529E+01</totfact>
</mgrwt>
</event>
<event>
12    1  0.1532786E-007  0.3040980E+04  0.7818608E-02  0.8232125E-01
         -2   -1    0    0    0  501 -0.00000000000E+00  0.00000000000E+00  0.75908186816E+03  0.75908186816E+03  0.00000000000E+00 0.  1.
          2   -1    0    0  501    0  0.00000000000E+00 -0.00000000000E+00 -0.30456389367E+04  0.30456389367E+04  0.00000000000E+00 0. -1.
         23    2    1    2    0    0  0.37409835634E+03  0.86997518289E+03  0.21780961935E+03  0.97647130417E+03  0.96170569924E+02 0.  0.
        254    2    1    2    0    0 -0.37409835634E+03 -0.86997518289E+03 -0.25043666879E+04  0.28282495007E+04  0.91122792521E+03 0.  0.
        -24    2    4    4    0    0 -0.11634805083E+03  0.99850024019E+02 -0.57308577880E+02  0.18219481584E+03  0.80023631458E+02 0.  0.
         24    2    4    4    0    0 -0.25775030552E+03 -0.96982520691E+03 -0.24470581100E+04  0.26460546848E+04  0.80720812172E+02 0.  0.
         13    1    3    3    0    0  0.15000752851E+03  0.40122783320E+03  0.54238235818E+02  0.43177287892E+03  0.00000000000E+00 0.  1.
        -13    1    3    3    0    0  0.22409082783E+03  0.46874734969E+03  0.16357138353E+03  0.54469842525E+03  0.00000000000E+00 0. -1.
          4    1    6    6  502    0 -0.35978343831E+02 -0.20377006809E+03 -0.57979602433E+03  0.61561360585E+03  0.00000000000E+00 0. -1.
          3    1    5    5  503    0 -0.86559287263E+00  0.35257038484E+02 -0.31699081777E+02  0.47419824960E+02  0.00000000000E+00 0. -1.
         -4    1    5    5    0  503 -0.11548245795E+03  0.64592985535E+02 -0.25609496103E+02  0.13477499088E+03  0.00000000000E+00 0.  1.
         -3    1    6    6    0  502 -0.22177196168E+03 -0.76605513882E+03 -0.18672620856E+04  0.20304410790E+04  0.00000000000E+00 0.  1.
<mgrwt>
<rscale>  0 0.30409796E+04</rscale>
<asrwt>0</asrwt>
<pdfrwt beam="1">  1        2 0.46855983E+00 0.30409796E+04</pdfrwt>
<pdfrwt beam="2">  1       -2 0.11678183E+00 0.30409796E+04</pdfrwt>
<totfact> 0.78897926E-01</totfact>
</mgrwt>
</event>
<event>
12    1  0.1532786E-007  0.1925954E+04  0.7818608E-02  0.8642044E-01
         -1   -1    0    0    0  501 -0.00000000000E+00  0.00000000000E+00  0.11949760978E+04  0.11949760978E+04  0.00000000000E+00 0.  1.
          1   -1    0    0  501    0  0.00000000000E+00 -0.00000000000E+00 -0.77601972714E+03  0.77601972714E+03  0.00000000000E+00 0. -1.
         23    2    1    2    0    0 -0.59674212414E+03 -0.14438181402E+03 -0.27590640837E+03  0.67926784164E+03  0.91286272632E+02 0.  0.
        254    2    1    2    0    0  0.59674212414E+03  0.14438181402E+03  0.69486277900E+03  0.12917279833E+04  0.89932176119E+03 0.  0.
        -24    2    4    4    0    0  0.71250852434E+03  0.38218723188E+03  0.52133221219E+03  0.96536271861E+03  0.80015158216E+02 0.  0.
         24    2    4    4    0    0 -0.11576640020E+03 -0.23780541786E+03  0.17353056681E+03  0.32636526465E+03  0.80300387112E+02 0.  0.
         13    1    3    3    0    0 -0.57758769475E+03 -0.12787591935E+03 -0.24756430393E+03  0.64128611435E+03  0.00000000000E+00 0. -1.
        -13    1    3    3    0    0 -0.19154429384E+02 -0.16505894669E+02 -0.28342104443E+02  0.37981727292E+02  0.00000000000E+00 0.  1.
          2    1    6    6  502    0  0.11786883714E+02 -0.10781588233E+02  0.11189216520E+02  0.19503123822E+02  0.00000000000E+00 0. -1.
          3    1    5    5  503    0  0.56891173829E+03  0.34024019066E+03  0.42529687739E+03  0.78759214522E+03  0.00000000000E+00 0. -1.
         -4    1    5    5    0  503  0.14359678605E+03  0.41947041225E+02  0.96035334802E+02  0.17777057339E+03  0.00000000000E+00 0.  1.
         -1    1    6    6    0  502 -0.12755328392E+03 -0.22702382963E+03  0.16234135029E+03  0.30686214082E+03  0.00000000000E+00 0.  1.
<mgrwt>
<rscale>  0 0.19259543E+04</rscale>
<asrwt>0</asrwt>
<pdfrwt beam="1">  1        1 0.11938765E+00 0.19259543E+04</pdfrwt>
<pdfrwt beam="2">  1       -1 0.18384248E+00 0.19259543E+04</pdfrwt>
<totfact> 0.42325249E+00</totfact>
</mgrwt>
</event>
<event>
12    1  0.1532786E-007  0.2106421E+04  0.7818608E-02  0.8558420E-01
         -2   -1    0    0    0  501 -0.00000000000E+00  0.00000000000E+00  0.20131959275E+04  0.20131959275E+04  0.00000000000E+00 0.  1.
          2   -1    0    0  501    0  0.00000000000E+00 -0.00000000000E+00 -0.55099058449E+03  0.55099058449E+03  0.00000000000E+00 0. -1.
         23    2    1    2    0    0 -0.58808603894E+02 -0.47007772608E+02 -0.43627289139E+03  0.45225790649E+03  0.92385040141E+02 0.  0.
        254    2    1    2    0    0  0.58808603894E+02  0.47007772608E+02  0.18984782344E+04  0.21119286055E+04  0.92214675926E+03 0.  0.
        -24    2    4    4    0    0  0.41527713999E+03  0.26427128942E+03  0.10947820124E+04  0.12026693808E+04  0.74642932389E+02 0.  0.
         24    2    4    4    0    0 -0.35646853609E+03 -0.21726351681E+03  0.80369622197E+03  0.90925922469E+03  0.80941136124E+02 0.  0.
         13    1    3    3    0    0 -0.37099392688E+02 -0.11322477290E+02 -0.38103931601E+03  0.38300851658E+03  0.00000000000E+00 0. -1.
        -13    1    3    3    0    0 -0.21709211205E+02 -0.35685295319E+02 -0.55233575386E+02  0.69249389911E+02  0.00000000000E+00 0.  1.
          2    1    6    6  502    0 -0.76468559783E+02 -0.85980324290E+02  0.24533071949E+03  0.27097457210E+03  0.00000000000E+00 0. -1.
          3    1    5    5  503    0  0.18274285583E+03  0.13541376036E+03  0.42455320676E+03  0.48164018024E+03  0.00000000000E+00 0. -1.
         -4    1    5    5    0  503  0.23253428416E+03  0.12885752906E+03  0.67022880566E+03  0.72102920055E+03  0.00000000000E+00 0.  1.
         -1    1    6    6    0  502 -0.27999997631E+03 -0.13128319252E+03  0.55836550248E+03  0.63828465259E+03  0.00000000000E+00 0.  1.
<mgrwt>
<rscale>  0 0.21064207E+04</rscale>
<asrwt>0</asrwt>
<pdfrwt beam="1">  1        2 0.84767783E-01 0.21064207E+04</pdfrwt>
<pdfrwt beam="2">  1       -2 0.30972245E+00 0.21064207E+04</pdfrwt>
<totfact> 0.14031481E+00</totfact>
</mgrwt>
</event>
<event>
12    1  0.1532786E-007  0.1244423E+04  0.7818608E-02  0.9074838E-01
         -1   -1    0    0    0  501 -0.00000000000E+00  0.00000000000E+00  0.45963229112E+03  0.45963229112E+03  0.00000000000E+00 0.  1.
          1   -1    0    0  501    0  0.00000000000E+00 -0.00000000000E+00 -0.84229700719E+03  0.84229700719E+03  0.00000000000E+00 0. -1.
         23    2    1    2    0    0 -0.13596408195E+03 -0.80067836476E+02 -0.33373642179E+03  0.38035313848E+03  0.91604698050E+02 0.  0.
        254    2    1    2    0    0  0.13596408195E+03  0.80067836476E+02 -0.48928294278E+02  0.92157615982E+03  0.90664852636E+03 0.  0.
        -24    2    4    4    0    0  0.38827697594E+03  0.18934353570E+03 -0.30734451373E+03  0.53625267681E+03  0.80599619791E+02 0.  0.
         24    2    4    4    0    0 -0.25231289399E+03 -0.10927569922E+03  0.25841621945E+03  0.38532348302E+03  0.78052989531E+02 0.  0.
         13    1    3    3    0    0 -0.12796071005E+03 -0.53938155625E+02 -0.32189414554E+03  0.35056969191E+03  0.00000000000E+00 0. -1.
        -13    1    3    3    0    0 -0.80033718992E+01 -0.26129680851E+02 -0.11842276248E+02  0.29783446575E+02  0.00000000000E+00 0.  1.
          4    1    6    6  502    0 -0.15051316208E+03 -0.98326957465E+02  0.19330436319E+03  0.26398670298E+03  0.00000000000E+00 0. -1.
          1    1    5    5  503    0  0.90633852730E+02  0.81031011313E+02 -0.10277969673E+03  0.15919857448E+03  0.00000000000E+00 0. -1.
         -2    1    5    5    0  503  0.29764312321E+03  0.10831252439E+03 -0.20456481699E+03  0.37705410233E+03  0.00000000000E+00 0.  1.
         -1    1    6    6    0  502 -0.10179973192E+03 -0.10948741758E+02  0.65111856262E+02  0.12133678004E+03  0.00000000000E+00 0.  1.
<mgrwt>
<rscale>  0 0.12444226E+04</rscale>
<asrwt>0</asrwt>
<pdfrwt beam="1">  1        1 0.12958415E+00 0.12444226E+04</pdfrwt>
<pdfrwt beam="2">  1       -1 0.70712661E-01 0.12444226E+04</pdfrwt>
<totfact> 0.40540901E+01</totfact>
</mgrwt>
</event>
<event>
12    1  0.1532786E-007  0.2139021E+04  0.7818608E-02  0.8544246E-01
          1   -1    0    0  501    0  0.00000000000E+00  0.00000000000E+00  0.35634015316E+04  0.35634015316E+04  0.00000000000E+00 0. -1.
         -1   -1    0    0    0  501 -0.00000000000E+00 -0.00000000000E+00 -0.32100034825E+03  0.32100034825E+03  0.00000000000E+00 0.  1.
         23    2    1    2    0    0 -0.53075899661E+03 -0.70137629311E+03  0.14353328693E+04  0.16858875267E+04  0.91665096921E+02 0.  0.
        254    2    1    2    0    0  0.53075899661E+03  0.70137629311E+03  0.18070683141E+04  0.21985143532E+04  0.89125509947E+03 0.  0.
        -24    2    4    4    0    0  0.27994011214E+02  0.14862832588E+03 -0.63483378332E+02  0.18266085955E+03  0.80379141376E+02 0.  0.
         24    2    4    4    0    0  0.50276498540E+03  0.55274796724E+03  0.18705516924E+04  0.20158534936E+04  0.79992049397E+02 0.  0.
         13    1    3    3    0    0 -0.47913505713E+03 -0.67038938725E+03  0.13440972649E+04  0.15765753363E+04  0.00000000000E+00 0. -1.
        -13    1    3    3    0    0 -0.51623939478E+02 -0.30986905862E+02  0.91235604437E+02  0.10931219044E+03  0.00000000000E+00 0.  1.
          4    1    6    6  502    0  0.46243742822E+02  0.84828915158E+02  0.20595000376E+03  0.22748589549E+03  0.00000000000E+00 0. -1.
          3    1    5    5  503    0 -0.38251825230E+01  0.54993164638E+02  0.14175470410E+02  0.56919453086E+02  0.00000000000E+00 0. -1.
         -4    1    5    5    0  503  0.31819193737E+02  0.93635161239E+02 -0.77658848742E+02  0.12574140646E+03  0.00000000000E+00 0.  1.
         -3    1    6    6    0  502  0.45652124257E+03  0.46791905208E+03  0.16646016886E+04  0.17883675981E+04  0.00000000000E+00 0.  1.
<mgrwt>
<rscale>  0 0.21390214E+04</rscale>
<asrwt>0</asrwt>
<pdfrwt beam="1">  1        1 0.54821559E+00 0.21390214E+04</pdfrwt>
<pdfrwt beam="2">  1       -1 0.49384672E-01 0.21390214E+04</pdfrwt>
<totfact> 0.84128543E-01</totfact>
</mgrwt>
</event>
<event>
12    1  0.1532786E-007  0.1828638E+04  0.7818608E-02  0.8691216E-01
         -2   -1    0    0    0  501 -0.00000000000E+00  0.00000000000E+00  0.28362321695E+03  0.28362321695E+03  0.00000000000E+00 0.  1.
          2   -1    0    0  501    0  0.00000000000E+00 -0.00000000000E+00 -0.29475003453E+04  0.29475003453E+04  0.00000000000E+00 0. -1.
         23    2    1    2    0    0 -0.10604030829E+03 -0.49492420021E+03 -0.17858112284E+03  0.54141009459E+03  0.70987056238E+02 0.  0.
        254    2    1    2    0    0  0.10604030829E+03  0.49492420021E+03 -0.24852960055E+04  0.26897134676E+04  0.89535902976E+03 0.  0.
        -24    2    4    4    0    0 -0.10516618834E+03  0.44577615914E+03 -0.47016074296E+03  0.66134745580E+03  0.80950737150E+02 0.  0.
         24    2    4    4    0    0  0.21120649663E+03  0.49148041066E+02 -0.20151352625E+04  0.20283660118E+04  0.80466375181E+02 0.  0.
         13    1    3    3    0    0 -0.10393338834E+03 -0.38635573549E+03 -0.11831547303E+03  0.41721871329E+03  0.00000000000E+00 0.  1.
        -13    1    3    3    0    0 -0.21069199540E+01 -0.10856846471E+03 -0.60265649807E+02  0.12419138130E+03  0.00000000000E+00 0. -1.
          4    1    6    6  502    0  0.57818023656E+02  0.16917155464E+02 -0.29398986336E+03  0.30009857342E+03  0.00000000000E+00 0. -1.
          1    1    5    5  503    0 -0.14883799158E+02  0.11902083040E+03 -0.78493435641E+02  0.14334819491E+03  0.00000000000E+00 0. -1.
         -2    1    5    5    0  503 -0.90282389180E+02  0.32675532874E+03 -0.39166730732E+03  0.51799926089E+03  0.00000000000E+00 0.  1.
         -3    1    6    6    0  502  0.15338847298E+03  0.32230885602E+02 -0.17211453992E+04  0.17282674384E+04  0.00000000000E+00 0.  1.
<mgrwt>
<rscale>  0 0.18286383E+04</rscale>
<asrwt>0</asrwt>
<pdfrwt beam="1">  1        2 0.45346157E+00 0.18286383E+04</pdfrwt>
<pdfrwt beam="2">  1       -2 0.43634343E-01 0.18286383E+04</pdfrwt>
<totfact> 0.88370875E+00</totfact>
</mgrwt>
</event>
<event>
12    1  0.1532786E-007  0.1355712E+04  0.7818608E-02  0.8986516E-01
          2   -1    0    0  501    0  0.00000000000E+00  0.00000000000E+00  0.19140720284E+04  0.19140720284E+04  0.00000000000E+00 0. -1.
         -2   -1    0    0    0  501 -0.00000000000E+00 -0.00000000000E+00 -0.24005814871E+03  0.24005814871E+03  0.00000000000E+00 0.  1.
         23    2    1    2    0    0 -0.42053420240E+03 -0.47999785589E+02  0.42953392925E+03  0.60676239968E+03  0.67143268333E+02 0.  0.
        254    2    1    2    0    0  0.42053420240E+03  0.47999785589E+02  0.12444799504E+04  0.15473677774E+04  0.81637227831E+03 0.  0.
        -24    2    4    4    0    0 -0.15118668265E+03 -0.13753867079E+03  0.79395209651E+02  0.23386862143E+03  0.81342693580E+02 0.  0.
         24    2    4    4    0    0  0.57172088505E+03  0.18553845638E+03  0.11650847408E+04  0.13134991560E+04  0.81044990164E+02 0.  0.
         11    1    3    3    0    0 -0.41894931517E+03 -0.41612013579E+02  0.41680512480E+03  0.59243278134E+03  0.00000000000E+00 0.  1.
        -11    1    3    3    0    0 -0.15848872321E+01 -0.63877720107E+01  0.12728804459E+02  0.14329618339E+02  0.00000000000E+00 0. -1.
          2    1    6    6  502    0  0.45367934937E+03  0.17721738834E+03  0.96764577088E+03  0.10833140323E+04  0.00000000000E+00 0. -1.
          1    1    5    5  503    0 -0.15253177841E+03 -0.13712874765E+03  0.89413505563E+02  0.22375212141E+03  0.00000000000E+00 0. -1.
         -2    1    5    5    0  503  0.13450957613E+01 -0.40992313496E+00 -0.10018295912E+02  0.10116500015E+02  0.00000000000E+00 0.  1.
         -1    1    6    6    0  502  0.11804153568E+03  0.83210680335E+01  0.19743896990E+03  0.23018512366E+03  0.00000000000E+00 0.  1.
<mgrwt>
<rscale>  0 0.13557118E+04</rscale>
<asrwt>0</asrwt>
<pdfrwt beam="1">  1        2 0.29447261E+00 0.13557118E+04</pdfrwt>
<pdfrwt beam="2">  1       -2 0.36932024E-01 0.13557118E+04</pdfrwt>
<totfact> 0.50325067E+01</totfact>
</mgrwt>
</event>
<event>
12    1  0.1532786E-007  0.1038598E+04  0.7818608E-02  0.9267196E-01
         -3   -1    0    0    0  501 -0.00000000000E+00  0.00000000000E+00  0.23889335308E+03  0.23889335308E+03  0.00000000000E+00 0.  1.
          3   -1    0    0  501    0  0.00000000000E+00 -0.00000000000E+00 -0.11288362855E+04  0.11288362855E+04  0.00000000000E+00 0. -1.
         23    2    1    2    0    0 -0.86274683497E+02  0.62659643603E+01 -0.29632605344E+02  0.12848552672E+03  0.90265474878E+02 0.  0.
        254    2    1    2    0    0  0.86274683497E+02 -0.62659643603E+01 -0.86031032703E+03  0.12392441118E+04  0.88775533036E+03 0.  0.
        -24    2    4    4    0    0  0.35382159258E+03 -0.30913859351E+03 -0.40950166865E+03  0.62837812861E+03  0.80069135892E+02 0.  0.
         24    2    4    4    0    0 -0.26754690908E+03  0.30287262915E+03 -0.45080865838E+03  0.61086598321E+03  0.81336492003E+02 0.  0.
         13    1    3    3    0    0 -0.10320995273E+03 -0.70104695607E+01 -0.23082252497E+02  0.10599165724E+03  0.00000000000E+00 0. -1.
        -13    1    3    3    0    0  0.16935269229E+02  0.13276433921E+02 -0.65503528463E+01  0.22493869474E+02  0.00000000000E+00 0.  1.
          2    1    6    6  502    0 -0.15693969852E+03  0.23427373581E+03 -0.30251825983E+03  0.41355960851E+03  0.00000000000E+00 0. -1.
          1    1    5    5  503    0  0.31225149789E+03 -0.23393967536E+03 -0.34672428872E+03  0.52196408117E+03  0.00000000000E+00 0. -1.
         -2    1    5    5    0  503  0.41570094688E+02 -0.75198918144E+02 -0.62777379936E+02  0.10641404745E+03  0.00000000000E+00 0.  1.
         -1    1    6    6    0  502 -0.11060721056E+03  0.68598893332E+02 -0.14829039855E+03  0.19730637470E+03  0.00000000000E+00 0.  1.
<mgrwt>
<rscale>  0 0.10385981E+04</rscale>
<asrwt>0</asrwt>
<pdfrwt beam="1">  1        3 0.17366712E+00 0.10385981E+04</pdfrwt>
<pdfrwt beam="2">  1       -3 0.36752823E-01 0.10385981E+04</pdfrwt>
<totfact> 0.42067690E+00</totfact>
</mgrwt>
</event>
<event>
12    1  0.1532786E-007  0.1983619E+04  0.7818608E-02  0.8614318E-01
          1   -1    0    0  501    0  0.00000000000E+00  0.00000000000E+00  0.60762848796E+03  0.60762848796E+03  0.00000000000E+00 0. -1.
         -1   -1    0    0    0  501 -0.00000000000E+00 -0.00000000000E+00 -0.16188936944E+04  0.16188936944E+04  0.00000000000E+00 0.  1.
         23    2    1    2    0    0 -0.74752454502E+03  0.35536317561E+02 -0.16808439804E+03  0.77246011670E+03  0.91577790781E+02 0.  0.
        254    2    1    2    0    0  0.74752454502E+03 -0.35536317561E+02 -0.84318080845E+03  0.14540620657E+04  0.91830650651E+03 0.  0.
        -24    2    4    4    0    0  0.93316602584E+02 -0.27571238891E+03  0.62242437480E+02  0.30878141218E+03  0.82137261751E+02 0.  0.
         24    2    4    4    0    0  0.65420794243E+03  0.24017607135E+03 -0.90542324593E+03  0.11452806535E+04  0.78765118394E+02 0.  0.
         13    1    3    3    0    0 -0.88239491401E+02  0.13176235285E+02  0.83532143619E+01  0.89608019781E+02  0.00000000000E+00 0.  1.
        -13    1    3    3    0    0 -0.65928505362E+03  0.22360082277E+02 -0.17643761240E+03  0.68285209692E+03  0.00000000000E+00 0. -1.
          2    1    6    6  502    0  0.43334190877E+02  0.38171056123E+02 -0.67563766136E+02  0.88880504718E+02  0.00000000000E+00 0. -1.
          1    1    5    5  503    0  0.49793798305E+02 -0.14283292141E+03 -0.96218023476E+01  0.15156927416E+03  0.00000000000E+00 0. -1.
         -2    1    5    5    0  503  0.43522804279E+02 -0.13287946749E+03  0.71864239828E+02  0.15721213802E+03  0.00000000000E+00 0.  1.
         -1    1    6    6    0  502  0.61087375156E+03  0.20200501522E+03 -0.83785947979E+03  0.10564001488E+04  0.00000000000E+00 0.  1.
<mgrwt>
<rscale>  0 0.19836188E+04</rscale>
<asrwt>0</asrwt>
<pdfrwt beam="1">  1        1 0.93481306E-01 0.19836188E+04</pdfrwt>
<pdfrwt beam="2">  1       -1 0.24906057E+00 0.19836188E+04</pdfrwt>
<totfact> 0.22088477E+00</totfact>
</mgrwt>
</event>
<event>
12    1  0.1532786E-007  0.1381432E+04  0.7818608E-02  0.8967370E-01
          2   -1    0    0  501    0  0.00000000000E+00  0.00000000000E+00  0.18324099769E+04  0.18324099769E+04  0.00000000000E+00 0. -1.
         -2   -1    0    0    0  501 -0.00000000000E+00 -0.00000000000E+00 -0.26036114116E+03  0.26036114116E+03  0.00000000000E+00 0.  1.
         23    2    1    2    0    0 -0.10914993500E+03  0.36601272150E+03  0.54698680709E+03  0.67353301028E+03  0.92591188563E+02 0.  0.
        254    2    1    2    0    0  0.10914993500E+03 -0.36601272150E+03  0.10250620287E+04  0.14192381078E+04  0.90421547396E+03 0.  0.
        -24    2    4    4    0    0  0.35220948266E+03  0.12560715374E+03  0.21680072467E+03  0.43931982808E+03  0.78553678349E+02 0.  0.
         24    2    4    4    0    0 -0.24305954765E+03 -0.49161987524E+03  0.80826130398E+03  0.97991827969E+03  0.78647656806E+02 0.  0.
         13    1    3    3    0    0 -0.23210856373E+02  0.16015472072E+03  0.16456060092E+03  0.23079963127E+03  0.00000000000E+00 0.  1.
        -13    1    3    3    0    0 -0.85939078631E+02  0.20585800079E+03  0.38242620617E+03  0.44273337901E+03  0.00000000000E+00 0. -1.
          2    1    6    6  502    0 -0.21918074575E+03 -0.37997905579E+03  0.66650160402E+03  0.79790266970E+03  0.00000000000E+00 0. -1.
          1    1    5    5  503    0  0.77739124823E+02 -0.49262554208E+01  0.51031645439E+02  0.93122866993E+02  0.00000000000E+00 0. -1.
         -4    1    5    5    0  503  0.27447035783E+03  0.13053340916E+03  0.16576907923E+03  0.34619696109E+03  0.00000000000E+00 0.  1.
         -1    1    6    6    0  502 -0.23878801899E+02 -0.11164081946E+03  0.14175969996E+03  0.18201560999E+03  0.00000000000E+00 0.  1.
<mgrwt>
<rscale>  0 0.13814317E+04</rscale>
<asrwt>0</asrwt>
<pdfrwt beam="1">  1        2 0.28190922E+00 0.13814317E+04</pdfrwt>
<pdfrwt beam="2">  1       -2 0.40055561E-01 0.13814317E+04</pdfrwt>
<totfact> 0.47594522E+01</totfact>
</mgrwt>
</event>
<event>
12    1  0.1532786E-007  0.2017806E+04  0.7818608E-02  0.8598341E-01
         -2   -1    0    0    0  501 -0.00000000000E+00  0.00000000000E+00  0.45484123191E+03  0.45484123191E+03  0.00000000000E+00 0.  1.
          2   -1    0    0  501    0  0.00000000000E+00 -0.00000000000E+00 -0.22378919001E+04  0.22378919001E+04  0.00000000000E+00 0. -1.
         23    2    1    2    0    0  0.14940819218E+03 -0.10072484123E+03  0.30668833008E+03  0.36685539932E+03  0.89759961424E+02 0.  0.
        254    2    1    2    0    0 -0.14940819218E+03  0.10072484123E+03 -0.20897389982E+04  0.23258777326E+04  0.10051019078E+04 0.  0.
        -24    2    4    4    0    0  0.57198011275E+02  0.50952257521E+03 -0.78754756211E+03  0.94311519732E+03  0.79688428757E+02 0.  0.
         24    2    4    4    0    0 -0.20660620345E+03 -0.40879773398E+03 -0.13021914361E+04  0.13827625353E+04  0.80795929315E+02 0.  0.
         11    1    3    3    0    0  0.32074717670E+02 -0.27092718880E+02  0.15865893693E+03  0.16412026444E+03  0.00000000000E+00 0. -1.
        -11    1    3    3    0    0  0.11733347451E+03 -0.73632122348E+02  0.14802939314E+03  0.20273513488E+03  0.00000000000E+00 0.  1.
          2    1    6    6  502    0 -0.19886881653E+03 -0.36039232301E+03 -0.10939065906E+04  0.11687870044E+04  0.00000000000E+00 0. -1.
          3    1    5    5  503    0  0.67768791355E+01  0.36208298911E+03 -0.52446917923E+03  0.63735228646E+03  0.00000000000E+00 0. -1.
         -4    1    5    5    0  503  0.50421132139E+02  0.14743958610E+03 -0.26307838288E+03  0.30576291086E+03  0.00000000000E+00 0.  1.
         -1    1    6    6    0  502 -0.77373869189E+01 -0.48405410976E+02 -0.20828484551E+03  0.21397553094E+03  0.00000000000E+00 0.  1.
<mgrwt>
<rscale>  0 0.20178062E+04</rscale>
<asrwt>0</asrwt>
<pdfrwt beam="1">  1        2 0.34429106E+00 0.20178062E+04</pdfrwt>
<pdfrwt beam="2">  1       -2 0.69975574E-01 0.20178062E+04</pdfrwt>
<totfact> 0.84847588E+00</totfact>
</mgrwt>
</event>
<event>
12    1  0.1532786E-007  0.3142097E+04  0.7818608E-02  0.8204279E-01
          2   -1    0    0  501    0  0.00000000000E+00  0.00000000000E+00  0.13320248922E+04  0.13320248922E+04  0.00000000000E+00 0. -1.
         -2   -1    0    0    0  501 -0.00000000000E+00 -0.00000000000E+00 -0.18529638276E+04  0.18529638276E+04  0.00000000000E+00 0.  1.
         23    2    1    2    0    0  0.10287610914E+04 -0.37396806079E+02  0.78017345785E+03  0.12947137195E+04  0.88685324319E+02 0.  0.
        254    2    1    2    0    0 -0.10287610914E+04  0.37396806079E+02 -0.13011123933E+04  0.18902750003E+04  0.90581356388E+03 0.  0.
        -24    2    4    4    0    0 -0.99643846103E+03 -0.92036610805E+02 -0.59370389700E+03  0.11660253038E+04  0.75962802845E+02 0.  0.
         24    2    4    4    0    0 -0.32322630389E+02  0.12943341688E+03 -0.70740849632E+03  0.72424969654E+03  0.79454895605E+02 0.  0.
         11    1    3    3    0    0  0.98343875547E+03 -0.54095800284E+02  0.74169611613E+03  0.12329603684E+04  0.00000000000E+00 0. -1.
        -11    1    3    3    0    0  0.45322335953E+02  0.16698994204E+02  0.38477341715E+02  0.61753351076E+02  0.00000000000E+00 0.  1.
          2    1    6    6  502    0  0.22349430506E+02  0.61773980750E+02 -0.37133087609E+03  0.37709699187E+03  0.00000000000E+00 0. -1.
          3    1    5    5  503    0 -0.11621966589E+03 -0.56299029426E+01 -0.98049572763E+02  0.15215921025E+03  0.00000000000E+00 0. -1.
         -4    1    5    5    0  503 -0.88021879515E+03 -0.86406707863E+02 -0.49565432423E+03  0.10138660935E+04  0.00000000000E+00 0.  1.
         -1    1    6    6    0  502 -0.54672060896E+02  0.67659436135E+02 -0.33607762023E+03  0.34715270467E+03  0.00000000000E+00 0.  1.
<mgrwt>
<rscale>  0 0.31420974E+04</rscale>
<asrwt>0</asrwt>
<pdfrwt beam="1">  1        2 0.20492691E+00 0.31420974E+04</pdfrwt>
<pdfrwt beam="2">  1       -2 0.28507136E+00 0.31420974E+04</pdfrwt>
<totfact> 0.52544528E-01</totfact>
</mgrwt>
</event>
<event>
12    1  0.1532786E-007  0.1630015E+04  0.7818608E-02  0.8802318E-01
         -3   -1    0    0    0  501 -0.00000000000E+00  0.00000000000E+00  0.38016919982E+03  0.38016919982E+03  0.00000000000E+00 0.  1.
          3   -1    0    0  501    0  0.00000000000E+00 -0.00000000000E+00 -0.17472156498E+04  0.17472156498E+04  0.00000000000E+00 0. -1.
         23    2    1    2    0    0  0.82788212551E+01 -0.44730095156E+03 -0.33569341680E+02  0.45798467026E+03  0.92067243607E+02 0.  0.
        254    2    1    2    0    0 -0.82788212551E+01  0.44730095156E+03 -0.13334771083E+04  0.16694001794E+04  0.89921581412E+03 0.  0.
        -24    2    4    4    0    0  0.32164124362E+03 -0.10885552713E+03 -0.40290896053E+03  0.53328400579E+03  0.82180198189E+02 0.  0.
         24    2    4    4    0    0 -0.32992006488E+03  0.55615647869E+03 -0.93056814781E+03  0.11361161736E+04  0.81520575368E+02 0.  0.
         13    1    3    3    0    0 -0.33993837298E+02 -0.11817694924E+03  0.96848286730E+01  0.12334977994E+03  0.00000000000E+00 0. -1.
        -13    1    3    3    0    0  0.42272658553E+02 -0.32912400232E+03 -0.43254170353E+02  0.33463489031E+03  0.00000000000E+00 0.  1.
          2    1    6    6  502    0 -0.27529643879E+03  0.43380666937E+03 -0.68372843662E+03  0.85525489221E+03  0.00000000000E+00 0. -1.
          3    1    5    5  503    0  0.16806298125E+03 -0.64518794047E+02 -0.27440455627E+03  0.32818546731E+03  0.00000000000E+00 0. -1.
         -4    1    5    5    0  503  0.15357826237E+03 -0.44336733087E+02 -0.12850440426E+03  0.20509853849E+03  0.00000000000E+00 0.  1.
         -1    1    6    6    0  502 -0.54623626084E+02  0.12234980932E+03 -0.24683971119E+03  0.28086128140E+03  0.00000000000E+00 0.  1.
<mgrwt>
<rscale>  0 0.16300154E+04</rscale>
<asrwt>0</asrwt>
<pdfrwt beam="1">  1        3 0.26880240E+00 0.16300154E+04</pdfrwt>
<pdfrwt beam="2">  1       -3 0.58487570E-01 0.16300154E+04</pdfrwt>
<totfact> 0.41524219E-01</totfact>
</mgrwt>
</event>
<event>
12    1  0.1532786E-007  0.1741690E+04  0.7818608E-02  0.8737938E-01
         -1   -1    0    0    0  501 -0.00000000000E+00  0.00000000000E+00  0.17381975794E+04  0.17381975794E+04  0.00000000000E+00 0.  1.
          1   -1    0    0  501    0  0.00000000000E+00 -0.00000000000E+00 -0.43629723798E+03  0.43629723798E+03  0.00000000000E+00 0. -1.
         23    2    1    2    0    0  0.67070318097E+02  0.84733077184E+02  0.12447615733E+04  0.12534322593E+04  0.99914624807E+02 0.  0.
        254    2    1    2    0    0 -0.67070318097E+02 -0.84733077184E+02  0.57138768131E+02  0.92106255813E+03  0.91291471411E+03 0.  0.
        -24    2    4    4    0    0  0.37905270332E+03  0.12395552032E+03  0.10477662320E+03  0.41988913452E+03  0.79264251731E+02 0.  0.
         24    2    4    4    0    0 -0.44612302142E+03 -0.20868859751E+03 -0.47637855064E+02  0.50117342361E+03  0.79553468379E+02 0.  0.
         11    1    3    3    0    0  0.49404699177E+02  0.10738819043E+03  0.10286010890E+04  0.10353710678E+04  0.00000000000E+00 0.  1.
        -11    1    3    3    0    0  0.17665618920E+02 -0.22655113249E+02  0.21616048431E+03  0.21806119147E+03  0.00000000000E+00 0. -1.
          2    1    6    6  502    0 -0.13939997061E+03 -0.58480875665E+02  0.21577747719E+02  0.15270220634E+03  0.00000000000E+00 0. -1.
          1    1    5    5  503    0  0.97126812292E+02  0.16316411043E+02  0.58595799328E+02  0.11460065722E+03  0.00000000000E+00 0. -1.
         -2    1    5    5    0  503  0.28192589103E+03  0.10763910928E+03  0.46180823867E+02  0.30528847730E+03  0.00000000000E+00 0.  1.
         -3    1    6    6    0  502 -0.30672305081E+03 -0.15020772184E+03 -0.69215602783E+02  0.34847121727E+03  0.00000000000E+00 0.  1.
<mgrwt>
<rscale>  0 0.17416898E+04</rscale>
<asrwt>0</asrwt>
<pdfrwt beam="1">  1        1 0.67122653E-01 0.17416898E+04</pdfrwt>
<pdfrwt beam="2">  1       -1 0.26741501E+00 0.17416898E+04</pdfrwt>
<totfact> 0.27205033E+00</totfact>
</mgrwt>
</event>
<event>
12    1  0.1532786E-007  0.3067050E+04  0.7818608E-02  0.8224839E-01
         -3   -1    0    0    0  501 -0.00000000000E+00  0.00000000000E+00  0.73086317685E+03  0.73086317685E+03  0.00000000000E+00 0.  1.
          3   -1    0    0  501    0  0.00000000000E+00 -0.00000000000E+00 -0.32176996680E+04  0.32176996680E+04  0.00000000000E+00 0. -1.
         23    2    1    2    0    0  0.68473608299E+03  0.63738545177E+03  0.20296932788E+03  0.96175603283E+03  0.93029033934E+02 0.  0.
        254    2    1    2    0    0 -0.68473608299E+03 -0.63738545177E+03 -0.26898058191E+04  0.29868068120E+04  0.90046425289E+03 0.  0.
        -24    2    4    4    0    0 -0.10839959344E+03 -0.32266603677E+03 -0.20036079601E+04  0.20338935146E+04  0.80088250410E+02 0.  0.
         24    2    4    4    0    0 -0.57633648955E+03 -0.31471941501E+03 -0.68619785898E+03  0.95291329745E+03  0.77228177654E+02 0.  0.
         11    1    3    3    0    0  0.65259750560E+03  0.61620950264E+03  0.21194499851E+03  0.92223551105E+03  0.00000000000E+00 0.  1.
        -11    1    3    3    0    0  0.32138577388E+02  0.21175949136E+02 -0.89756706347E+01  0.39520521779E+02  0.00000000000E+00 0. -1.
          4    1    6    6  502    0 -0.32034475862E+02 -0.30045599121E+02 -0.71524738239E+02  0.83932912796E+02  0.00000000000E+00 0. -1.
          1    1    5    5  503    0 -0.11004695998E+02 -0.10259394789E+03 -0.44434884695E+03  0.45617158971E+03  0.00000000000E+00 0. -1.
         -2    1    5    5    0  503 -0.97394897438E+02 -0.22007208888E+03 -0.15592591131E+04  0.15777219249E+04  0.00000000000E+00 0.  1.
         -1    1    6    6    0  502 -0.54430201369E+03 -0.28467381588E+03 -0.61467312074E+03  0.86898038466E+03  0.00000000000E+00 0.  1.
<mgrwt>
<rscale>  0 0.30670495E+04</rscale>
<asrwt>0</asrwt>
<pdfrwt beam="1">  1        3 0.49503071E+00 0.30670495E+04</pdfrwt>
<pdfrwt beam="2">  1       -3 0.11244049E+00 0.30670495E+04</pdfrwt>
<totfact> 0.52978558E-03</totfact>
</mgrwt>
</event>
<event>
12    1  0.1532786E-007  0.1516803E+04  0.7818608E-02  0.8873355E-01
         -1   -1    0    0    0  501 -0.00000000000E+00  0.00000000000E+00  0.38841547816E+03  0.38841547816E+03  0.00000000000E+00 0.  1.
          1   -1    0    0  501    0  0.00000000000E+00 -0.00000000000E+00 -0.14808191559E+04  0.14808191559E+04  0.00000000000E+00 0. -1.
         23    2    1    2    0    0 -0.10473673731E+03 -0.36823230872E+01  0.22718397122E+03  0.26620448180E+03  0.90933633515E+02 0.  0.
        254    2    1    2    0    0  0.10473673731E+03  0.36823230872E+01 -0.13195876490E+04  0.16030301523E+04  0.90410771601E+03 0.  0.
        -24    2    4    4    0    0 -0.91902220856E+02 -0.38871631080E+03 -0.35594298679E+03  0.54104103294E+03  0.80520811008E+02 0.  0.
         24    2    4    4    0    0  0.19663895817E+03  0.39239863388E+03 -0.96364466222E+03  0.10619891194E+04  0.81032628540E+02 0.  0.
         13    1    3    3    0    0 -0.47374875031E+02 -0.39767806814E+02  0.15651139787E+03  0.16829044806E+03  0.00000000000E+00 0.  1.
        -13    1    3    3    0    0 -0.57361862280E+02  0.36085483727E+02  0.70672573349E+02  0.97914033743E+02  0.00000000000E+00 0. -1.
          4    1    6    6  502    0  0.16544977475E+03  0.32652276381E+03 -0.72046614034E+03  0.80812264084E+03  0.00000000000E+00 0. -1.
          1    1    5    5  503    0 -0.85712537465E+02 -0.38548431761E+03 -0.35874297806E+03  0.53351787459E+03  0.00000000000E+00 0. -1.
         -2    1    5    5    0  503 -0.61896833910E+01 -0.32319931891E+01  0.27999912720E+01  0.75231583513E+01  0.00000000000E+00 0.  1.
         -3    1    6    6    0  502  0.31189183421E+02  0.65875870073E+02 -0.24317852187E+03  0.25386647853E+03  0.00000000000E+00 0.  1.
<mgrwt>
<rscale>  0 0.15168033E+04</rscale>
<asrwt>0</asrwt>
<pdfrwt beam="1">  1        1 0.22781833E+00 0.15168033E+04</pdfrwt>
<pdfrwt beam="2">  1       -1 0.59756228E-01 0.15168033E+04</pdfrwt>
<totfact> 0.18501131E+01</totfact>
</mgrwt>
</event>
<event>
12    1  0.1532786E-007  0.1573223E+04  0.7818608E-02  0.8837169E-01
          1   -1    0    0  501    0  0.00000000000E+00  0.00000000000E+00  0.23137735102E+04  0.23137735102E+04  0.00000000000E+00 0. -1.
         -1   -1    0    0    0  501 -0.00000000000E+00 -0.00000000000E+00 -0.26742348656E+03  0.26742348656E+03  0.00000000000E+00 0.  1.
         23    2    1    2    0    0 -0.24257453903E+03  0.25814613311E+03  0.13267949194E+04  0.13759685506E+04  0.86156028021E+02 0.  0.
        254    2    1    2    0    0  0.24257453903E+03 -0.25814613311E+03  0.71955510423E+03  0.12052284461E+04  0.89963004967E+03 0.  0.
        -24    2    4    4    0    0 -0.19635512001E+03 -0.31904394839E+02  0.66864302363E+03  0.70247957803E+03  0.82588382600E+02 0.  0.
         24    2    4    4    0    0  0.43892965905E+03 -0.22624173827E+03  0.50912080609E+02  0.50274886808E+03  0.79497262077E+02 0.  0.
         11    1    3    3    0    0 -0.23319660400E+03  0.26495471477E+03  0.12827214379E+04  0.13303969123E+04  0.00000000000E+00 0. -1.
        -11    1    3    3    0    0 -0.93779350310E+01 -0.68085816532E+01  0.44073481415E+02  0.45571638259E+02  0.00000000000E+00 0.  1.
          4    1    6    6  502    0  0.32837798248E+03 -0.20533361137E+03  0.31437199556E+02  0.38856439473E+03  0.00000000000E+00 0. -1.
          3    1    5    5  503    0 -0.10483006963E+03  0.18289038613E+02  0.40955837241E+03  0.42315705458E+03  0.00000000000E+00 0. -1.
         -4    1    5    5    0  503 -0.91525050387E+02 -0.50193433452E+02  0.25908465122E+03  0.27932252345E+03  0.00000000000E+00 0.  1.
         -3    1    6    6    0  502  0.11055167657E+03 -0.20908126901E+02  0.19474881053E+02  0.11418447335E+03  0.00000000000E+00 0.  1.
<mgrwt>
<rscale>  0 0.15732227E+04</rscale>
<asrwt>0</asrwt>
<pdfrwt beam="1">  1        1 0.35596514E+00 0.15732227E+04</pdfrwt>
<pdfrwt beam="2">  1       -1 0.41142076E-01 0.15732227E+04</pdfrwt>
<totfact> 0.10142970E+01</totfact>
</mgrwt>
</event>
<event>
12    1  0.1532786E-007  0.1501231E+04  0.7818608E-02  0.8883635E-01
          1   -1    0    0  501    0  0.00000000000E+00  0.00000000000E+00  0.69061483704E+03  0.69061483704E+03  0.00000000000E+00 0. -1.
         -1   -1    0    0    0  501 -0.00000000000E+00 -0.00000000000E+00 -0.81582876709E+03  0.81582876709E+03  0.00000000000E+00 0.  1.
         23    2    1    2    0    0 -0.72348933768E+02 -0.82421998566E+02 -0.51004376927E+03  0.52875291711E+03  0.86065363057E+02 0.  0.
        254    2    1    2    0    0  0.72348933768E+02  0.82421998566E+02  0.38482983922E+03  0.97769068702E+03  0.89205230803E+03 0.  0.
        -24    2    4    4    0    0  0.22321055261E+03  0.23368518424E+03  0.58584821920E+03  0.67381671292E+03  0.79869334223E+02 0.  0.
         24    2    4    4    0    0 -0.15086161884E+03 -0.15126318567E+03 -0.20101837997E+03  0.30387397410E+03  0.79317234375E+02 0.  0.
         11    1    3    3    0    0  0.47415489015E+01  0.12269131904E+02 -0.21699354432E+02  0.25374709189E+02  0.00000000000E+00 0. -1.
        -11    1    3    3    0    0 -0.77090482669E+02 -0.94691130470E+02 -0.48834441484E+03  0.50337820792E+03  0.00000000000E+00 0.  1.
          2    1    6    6  502    0 -0.69074765579E+02 -0.10798661083E+03 -0.78410711766E+02  0.15026866299E+03  0.00000000000E+00 0. -1.
          3    1    5    5  503    0  0.69348821663E+02  0.11595630777E+03  0.19047967229E+03  0.23353293115E+03  0.00000000000E+00 0. -1.
         -4    1    5    5    0  503  0.15386173095E+03  0.11772887646E+03  0.39536854691E+03  0.44028378177E+03  0.00000000000E+00 0.  1.
         -1    1    6    6    0  502 -0.81786853265E+02 -0.43276574841E+02 -0.12260766821E+03  0.15360531111E+03  0.00000000000E+00 0.  1.
<mgrwt>
<rscale>  0 0.15012308E+04</rscale>
<asrwt>0</asrwt>
<pdfrwt beam="1">  1        1 0.10624844E+00 0.15012308E+04</pdfrwt>
<pdfrwt beam="2">  1       -1 0.12551212E+00 0.15012308E+04</pdfrwt>
<totfact> 0.14904483E+01</totfact>
</mgrwt>
</event>
<event>
12    1  0.1532786E-007  0.1824839E+04  0.7818608E-02  0.8693201E-01
          1   -1    0    0  501    0  0.00000000000E+00  0.00000000000E+00  0.17458783373E+04  0.17458783373E+04  0.00000000000E+00 0. -1.
         -1   -1    0    0    0  501 -0.00000000000E+00 -0.00000000000E+00 -0.47684267051E+03  0.47684267051E+03  0.00000000000E+00 0.  1.
         23    2    1    2    0    0 -0.18263536851E+03 -0.64437512123E+03  0.57423585110E+03  0.88692290688E+03  0.91161699118E+02 0.  0.
        254    2    1    2    0    0  0.18263536851E+03  0.64437512123E+03  0.69479981568E+03  0.13357981009E+04  0.92359883492E+03 0.  0.
        -24    2    4    4    0    0  0.54762264193E+02  0.57622752877E+03  0.89945727905E+03  0.10725807271E+04  0.79805694185E+02 0.  0.
         24    2    4    4    0    0  0.12787310431E+03  0.68147592451E+02 -0.20465746337E+03  0.26321737381E+03  0.80019268928E+02 0.  0.
         13    1    3    3    0    0 -0.25944289359E+02 -0.24698691813E+02  0.41676553131E+02  0.54955132686E+02  0.00000000000E+00 0.  1.
        -13    1    3    3    0    0 -0.15669107915E+03 -0.61967642941E+03  0.53255929797E+03  0.83196777420E+03  0.00000000000E+00 0. -1.
          4    1    6    6  502    0  0.16733078598E+02  0.41665821235E+02 -0.28264363569E+02  0.53055733210E+02  0.00000000000E+00 0. -1.
          3    1    5    5  503    0  0.44415842123E+02  0.12038635091E+03  0.20145474187E+03  0.23885069299E+03  0.00000000000E+00 0. -1.
         -4    1    5    5    0  503  0.10346422070E+02  0.45584117786E+03  0.69800253717E+03  0.83373003412E+03  0.00000000000E+00 0.  1.
         -3    1    6    6    0  502  0.11114002571E+03  0.26481771216E+02 -0.17639309980E+03  0.21016164060E+03  0.00000000000E+00 0.  1.
<mgrwt>
<rscale>  0 0.18248389E+04</rscale>
<asrwt>0</asrwt>
<pdfrwt beam="1">  1        1 0.26859666E+00 0.18248389E+04</pdfrwt>
<pdfrwt beam="2">  1       -1 0.73360412E-01 0.18248389E+04</pdfrwt>
<totfact> 0.78180678E+00</totfact>
</mgrwt>
</event>
<event>
12    1  0.1532786E-007  0.1855889E+04  0.7818608E-02  0.8677130E-01
         -2   -1    0    0    0  501 -0.00000000000E+00  0.00000000000E+00  0.68344895765E+03  0.68344895765E+03  0.00000000000E+00 0. -1.
          2   -1    0    0  501    0  0.00000000000E+00 -0.00000000000E+00 -0.12599049834E+04  0.12599049834E+04  0.00000000000E+00 0.  1.
         23    2    1    2    0    0 -0.57776370482E+03  0.15055942501E+03  0.17026254330E+03  0.62761845174E+03  0.91850684484E+02 0.  0.
        254    2    1    2    0    0  0.57776370482E+03 -0.15055942501E+03 -0.74671856904E+03  0.13157354893E+04  0.90393153357E+03 0.  0.
        -24    2    4    4    0    0  0.12867969789E+03  0.30050232458E+03 -0.62617184904E+01  0.33596419837E+03  0.77282738971E+02 0.  0.
         24    2    4    4    0    0  0.44908400693E+03 -0.45106174960E+03 -0.74045685055E+03  0.97977129093E+03  0.80884409930E+02 0.  0.
         13    1    3    3    0    0 -0.24361815710E+03  0.48843709428E+02  0.11575409356E+03  0.27410677590E+03  0.00000000000E+00 0. -1.
        -13    1    3    3    0    0 -0.33414554773E+03  0.10171571559E+03  0.54508449745E+02  0.35351167584E+03  0.00000000000E+00 0.  1.
          4    1    6    6  502    0  0.50520589940E+02 -0.40482579809E+02 -0.43445248756E+02  0.77965754760E+02  0.00000000000E+00 0. -1.
          3    1    5    5  503    0  0.23226379085E+02  0.11391358101E+02 -0.11180761106E+02  0.28182213251E+02  0.00000000000E+00 0. -1.
         -4    1    5    5    0  503  0.10545331881E+03  0.28911096648E+03  0.49190426160E+01  0.30778198512E+03  0.00000000000E+00 0.  1.
         -3    1    6    6    0  502  0.39856341699E+03 -0.41057916979E+03 -0.69701160179E+03  0.90180553617E+03  0.00000000000E+00 0.  1.
<mgrwt>
<rscale>  0 0.18558887E+04</rscale>
<asrwt>0</asrwt>
<pdfrwt beam="1">  1        2 0.19383154E+00 0.18558887E+04</pdfrwt>
<pdfrwt beam="2">  1       -2 0.10514599E+00 0.18558887E+04</pdfrwt>
<totfact> 0.12018663E+01</totfact>
</mgrwt>
</event>
<event>
12    1  0.1532786E-007  0.2177832E+04  0.7818608E-02  0.8527712E-01
         -2   -1    0    0    0  501 -0.00000000000E+00  0.00000000000E+00  0.94424332966E+03  0.94424332966E+03  0.00000000000E+00 0. -1.
          2   -1    0    0  501    0  0.00000000000E+00 -0.00000000000E+00 -0.12557542625E+04  0.12557542625E+04  0.00000000000E+00 0.  1.
         23    2    1    2    0    0 -0.49947967366E+03  0.21268482329E+03 -0.86782633336E+03  0.10276857774E+04  0.91108362712E+02 0.  0.
        254    2    1    2    0    0  0.49947967366E+03 -0.21268482329E+03  0.55631540050E+03  0.11723118148E+04  0.87756104503E+03 0.  0.
        -24    2    4    4    0    0  0.14591490514E+03  0.26700754683E+03 -0.49056075477E+02  0.31835970509E+03  0.79763485831E+02 0.  0.
         24    2    4    4    0    0  0.35356476851E+03 -0.47969237013E+03  0.60537147598E+03  0.85395210968E+03  0.87445790121E+02 0.  0.
         11    1    3    3    0    0 -0.29616970358E+03  0.10136973836E+03 -0.56988182275E+03  0.65019813063E+03  0.00000000000E+00 0.  1.
        -11    1    3    3    0    0 -0.20330997008E+03  0.11131508493E+03 -0.29794451061E+03  0.37748764677E+03  0.00000000000E+00 0. -1.
          2    1    6    6  502    0  0.63349561659E+01 -0.27856392734E+02  0.53643891428E+02  0.60776454103E+02  0.00000000000E+00 0. -1.
          1    1    5    5  503    0 -0.51200667267E+01  0.26343269842E+01  0.66870484498E+01  0.88244761270E+01  0.00000000000E+00 0. -1.
         -2    1    5    5    0  503  0.15103497187E+03  0.26437321985E+03 -0.55743123927E+02  0.30953522896E+03  0.00000000000E+00 0.  1.
         -1    1    6    6    0  502  0.34722981235E+03 -0.45183597739E+03  0.55172758455E+03  0.79317565558E+03  0.00000000000E+00 0.  1.
<mgrwt>
<rscale>  0 0.21778316E+04</rscale>
<asrwt>0</asrwt>
<pdfrwt beam="1">  1        2 0.19319296E+00 0.21778316E+04</pdfrwt>
<pdfrwt beam="2">  1       -2 0.14526820E+00 0.21778316E+04</pdfrwt>
<totfact> 0.52410951E+00</totfact>
</mgrwt>
</event>
<event>
12    1  0.1532786E-007  0.1920452E+04  0.7818608E-02  0.8644742E-01
          2   -1    0    0  501    0  0.00000000000E+00  0.00000000000E+00  0.12494400985E+04  0.12494400985E+04  0.00000000000E+00 0. -1.
         -2   -1    0    0    0  501 -0.00000000000E+00 -0.00000000000E+00 -0.73795804119E+03  0.73795804119E+03  0.00000000000E+00 0.  1.
         23    2    1    2    0    0  0.51541534906E+03 -0.23078259070E+03 -0.30832193320E+03  0.64970111128E+03  0.90197191152E+02 0.  0.
        254    2    1    2    0    0 -0.51541534906E+03  0.23078259070E+03  0.81980399056E+03  0.13376970285E+04  0.89355535407E+03 0.  0.
        -24    2    4    4    0    0  0.23569999242E+03  0.16999026584E+03  0.24663874586E+03  0.38762199691E+03  0.70490883244E+02 0.  0.
         24    2    4    4    0    0 -0.75111534148E+03  0.60792324858E+02  0.57316524469E+03  0.95007503154E+03  0.79083530939E+02 0.  0.
         13    1    3    3    0    0  0.17460636733E+03 -0.32552916118E+02 -0.95193999517E+02  0.20151668269E+03  0.00000000000E+00 0. -1.
        -13    1    3    3    0    0  0.34080898173E+03 -0.19822967458E+03 -0.21312793368E+03  0.44818442859E+03  0.00000000000E+00 0.  1.
          2    1    6    6  502    0 -0.43645355245E+02  0.22285217091E+02  0.42398940966E+02  0.64801374448E+02  0.00000000000E+00 0. -1.
          3    1    5    5  503    0  0.13992726612E+03  0.57477457089E+02  0.12585859856E+03  0.19678334460E+03  0.00000000000E+00 0. -1.
         -4    1    5    5    0  503  0.95772726298E+02  0.11251280875E+03  0.12078014730E+03  0.19083865231E+03  0.00000000000E+00 0.  1.
         -1    1    6    6    0  502 -0.70746998624E+03  0.38507107767E+02  0.53076630373E+03  0.88527365709E+03  0.00000000000E+00 0.  1.
<mgrwt>
<rscale>  0 0.19204524E+04</rscale>
<asrwt>0</asrwt>
<pdfrwt beam="1">  1        2 0.19222155E+00 0.19204524E+04</pdfrwt>
<pdfrwt beam="2">  1       -2 0.11353201E+00 0.19204524E+04</pdfrwt>
<totfact> 0.10072036E+01</totfact>
</mgrwt>
</event>
<event>
12    1  0.1532786E-007  0.2767911E+04  0.7818608E-02  0.8313300E-01
          2   -1    0    0  501    0  0.00000000000E+00  0.00000000000E+00  0.11457256806E+04  0.11457256806E+04  0.00000000000E+00 0. -1.
         -2   -1    0    0    0  501 -0.00000000000E+00 -0.00000000000E+00 -0.16717207765E+04  0.16717207765E+04  0.00000000000E+00 0.  1.
         23    2    1    2    0    0  0.16657314460E+03 -0.20283132103E+03 -0.14665751041E+04  0.14926657651E+04  0.91221670207E+02 0.  0.
        254    2    1    2    0    0 -0.16657314460E+03  0.20283132103E+03  0.94058000810E+03  0.13247806920E+04  0.89524631974E+03 0.  0.
        -24    2    4    4    0    0 -0.63134571133E+02 -0.34634998066E+03  0.28740097149E+03  0.46146868773E+03  0.80060902859E+02 0.  0.
         24    2    4    4    0    0 -0.10343857346E+03  0.54918130169E+03  0.65317903661E+03  0.86331200428E+03  0.79781716402E+02 0.  0.
         11    1    3    3    0    0  0.13092069904E+03 -0.89585341230E+02 -0.88278189961E+03  0.89692231831E+03  0.00000000000E+00 0. -1.
        -11    1    3    3    0    0  0.35652445555E+02 -0.11324597980E+03 -0.58379320446E+03  0.59574344678E+03  0.00000000000E+00 0.  1.
          4    1    6    6  502    0 -0.92538076315E+02  0.44729440519E+03  0.57546087610E+03  0.73470456675E+03  0.00000000000E+00 0. -1.
          1    1    5    5  503    0 -0.29221935575E+02 -0.22590938794E+03  0.13696323612E+03  0.26579672896E+03  0.00000000000E+00 0. -1.
         -2    1    5    5    0  503 -0.33912635558E+02 -0.12044059273E+03  0.15043773537E+03  0.19567195877E+03  0.00000000000E+00 0.  1.
         -3    1    6    6    0  502 -0.10900497148E+02  0.10188689650E+03  0.77718160506E+02  0.12860743753E+03  0.00000000000E+00 0.  1.
<mgrwt>
<rscale>  0 0.27679114E+04</rscale>
<asrwt>0</asrwt>
<pdfrwt beam="1">  1        2 0.17626549E+00 0.27679114E+04</pdfrwt>
<pdfrwt beam="2">  1       -2 0.25718781E+00 0.27679114E+04</pdfrwt>
<totfact> 0.10343623E+00</totfact>
</mgrwt>
</event>
<event>
12    1  0.1532786E-007  0.1669846E+04  0.7818608E-02  0.8778752E-01
          2   -1    0    0  501    0  0.00000000000E+00  0.00000000000E+00  0.16173122000E+04  0.16173122000E+04  0.00000000000E+00 0. -1.
         -2   -1    0    0    0  501 -0.00000000000E+00 -0.00000000000E+00 -0.43102129853E+03  0.43102129853E+03  0.00000000000E+00 0.  1.
         23    2    1    2    0    0 -0.34863965814E+03 -0.43812418605E+03  0.17152019240E+03  0.59186169448E+03  0.85899216269E+02 0.  0.
        254    2    1    2    0    0  0.34863965814E+03  0.43812418605E+03  0.10147707091E+04  0.14564718041E+04  0.88207035455E+03 0.  0.
        -24    2    4    4    0    0  0.52108764856E+03  0.54553466300E+03  0.53120978414E+03  0.92582659471E+03  0.76358645126E+02 0.  0.
         24    2    4    4    0    0 -0.17244799041E+03 -0.10741047695E+03  0.48356092494E+03  0.53064520935E+03  0.80485092585E+02 0.  0.
         13    1    3    3    0    0 -0.28183648333E+03 -0.40066763655E+03  0.14698351497E+03  0.51143964648E+03  0.00000000000E+00 0.  1.
        -13    1    3    3    0    0 -0.66803174812E+02 -0.37456549503E+02  0.24536677435E+02  0.80422048004E+02  0.00000000000E+00 0. -1.
          4    1    6    6  502    0 -0.80058653035E+02 -0.93262252184E+02  0.23727535421E+03  0.26722056306E+03  0.00000000000E+00 0. -1.
          1    1    5    5  503    0  0.46954791905E+03  0.52015062496E+03  0.49447183826E+03  0.85763297497E+03  0.00000000000E+00 0. -1.
         -2    1    5    5    0  503  0.51539729503E+02  0.25384038042E+02  0.36737945885E+02  0.68193619734E+02  0.00000000000E+00 0.  1.
         -3    1    6    6    0  502 -0.92389337376E+02 -0.14148224764E+02  0.24628557072E+03  0.26342464629E+03  0.00000000000E+00 0.  1.
<mgrwt>
<rscale>  0 0.16698455E+04</rscale>
<asrwt>0</asrwt>
<pdfrwt beam="1">  1        2 0.24881726E+00 0.16698455E+04</pdfrwt>
<pdfrwt beam="2">  1       -2 0.66310970E-01 0.16698455E+04</pdfrwt>
<totfact> 0.21749260E+01</totfact>
</mgrwt>
</event>
<event>
12    1  0.1532786E-007  0.2156374E+04  0.7818608E-02  0.8536809E-01
          2   -1    0    0  501    0  0.00000000000E+00  0.00000000000E+00  0.17656747341E+04  0.17656747341E+04  0.00000000000E+00 0. -1.
         -2   -1    0    0    0  501 -0.00000000000E+00 -0.00000000000E+00 -0.65838113351E+03  0.65838113351E+03  0.00000000000E+00 0.  1.
         23    2    1    2    0    0  0.12127098615E+03  0.80637774460E+03  0.85573024906E+03  0.11848657501E+04  0.81736574356E+02 0.  0.
        254    2    1    2    0    0 -0.12127098615E+03 -0.80637774460E+03  0.25156335150E+03  0.12391901175E+04  0.89853008203E+03 0.  0.
        -24    2    4    4    0    0 -0.64525200343E+02  0.17233116536E+03  0.14812215150E+03  0.24975426779E+03  0.81089398086E+02 0.  0.
         24    2    4    4    0    0 -0.56745785805E+02 -0.97870890996E+03  0.10344120000E+03  0.98943584967E+03  0.84805684466E+02 0.  0.
         13    1    3    3    0    0  0.59735884993E+02  0.58713399582E+03  0.65042710065E+03  0.87826540309E+03  0.00000000000E+00 0. -1.
        -13    1    3    3    0    0  0.61535101155E+02  0.21924374879E+03  0.20530314841E+03  0.30660034704E+03  0.00000000000E+00 0.  1.
          4    1    6    6  502    0 -0.36648779124E+02 -0.75814218931E+03  0.44925578569E+02  0.76035585079E+03  0.00000000000E+00 0. -1.
          3    1    5    5  503    0 -0.65198205324E+02  0.15486846590E+03  0.15716463741E+03  0.23007774982E+03  0.00000000000E+00 0. -1.
         -4    1    5    5    0  503  0.67300498058E+00  0.17462699453E+02 -0.90424859150E+01  0.19676517970E+02  0.00000000000E+00 0.  1.
         -3    1    6    6    0  502 -0.20097006681E+02 -0.22056672065E+03  0.58515621431E+02  0.22907999888E+03  0.00000000000E+00 0.  1.
<mgrwt>
<rscale>  0 0.21563737E+04</rscale>
<asrwt>0</asrwt>
<pdfrwt beam="1">  1        2 0.27164226E+00 0.21563737E+04</pdfrwt>
<pdfrwt beam="2">  1       -2 0.10128941E+00 0.21563737E+04</pdfrwt>
<totfact> 0.66264831E+00</totfact>
</mgrwt>
</event>
<event>
12    1  0.1532786E-007  0.1421112E+04  0.7818608E-02  0.8938677E-01
          1   -1    0    0  501    0  0.00000000000E+00  0.00000000000E+00  0.15596668551E+04  0.15596668551E+04  0.00000000000E+00 0. -1.
         -1   -1    0    0    0  501 -0.00000000000E+00 -0.00000000000E+00 -0.32371649012E+03  0.32371649012E+03  0.00000000000E+00 0.  1.
         23    2    1    2    0    0  0.24890690764E+03  0.31121515656E+03  0.20937432514E+03  0.45945834705E+03  0.91950216419E+02 0.  0.
        254    2    1    2    0    0 -0.24890690764E+03 -0.31121515656E+03  0.10265760398E+04  0.14239249982E+04  0.90271507825E+03 0.  0.
        -24    2    4    4    0    0  0.22546582404E+03  0.12775554825E+03  0.91725144961E+02  0.28447161415E+03  0.73172939814E+02 0.  0.
         24    2    4    4    0    0 -0.47437273168E+03 -0.43897070481E+03  0.93485089488E+03  0.11394533840E+04  0.81749926409E+02 0.  0.
         13    1    3    3    0    0  0.50119254398E+02  0.29908113709E+02  0.41761945646E+01  0.58513891753E+02  0.00000000000E+00 0.  1.
        -13    1    3    3    0    0  0.19878765324E+03  0.28130704285E+03  0.20519813057E+03  0.40094445529E+03  0.00000000000E+00 0. -1.
          2    1    6    6  502    0 -0.36380754453E+03 -0.35535848905E+03  0.78479904755E+03  0.93517117697E+03  0.00000000000E+00 0. -1.
          1    1    5    5  503    0  0.63285304071E+02  0.59816567901E+02  0.20865781939E+01  0.87105713448E+02  0.00000000000E+00 0. -1.
         -2    1    5    5    0  503  0.16218051997E+03  0.67938980351E+02  0.89638566767E+02  0.19736590070E+03  0.00000000000E+00 0.  1.
         -1    1    6    6    0  502 -0.11056518714E+03 -0.83612215765E+02  0.15005184734E+03  0.20428220706E+03  0.00000000000E+00 0.  1.
<mgrwt>
<rscale>  0 0.14211121E+04</rscale>
<asrwt>0</asrwt>
<pdfrwt beam="1">  1        1 0.23994874E+00 0.14211121E+04</pdfrwt>
<pdfrwt beam="2">  1       -1 0.49802538E-01 0.14211121E+04</pdfrwt>
<totfact> 0.23418062E+01</totfact>
</mgrwt>
</event>
<event>
12    1  0.1532786E-007  0.1759073E+04  0.7818608E-02  0.8728372E-01
          2   -1    0    0  501    0  0.00000000000E+00  0.00000000000E+00  0.33075575936E+04  0.33075575936E+04  0.00000000000E+00 0. -1.
         -2   -1    0    0    0  501 -0.00000000000E+00 -0.00000000000E+00 -0.23388387199E+03  0.23388387199E+03  0.00000000000E+00 0.  1.
         23    2    1    2    0    0 -0.31001662929E+03  0.46615764995E+03  0.49401416677E+03  0.75223093089E+03  0.91586633143E+02 0.  0.
        254    2    1    2    0    0  0.31001662929E+03 -0.46615764995E+03  0.25796595548E+04  0.27892105347E+04  0.90090994163E+03 0.  0.
        -24    2    4    4    0    0 -0.55287850034E+02 -0.28380547746E+03  0.22170527083E+04  0.22372597689E+04  0.80039157575E+02 0.  0.
         24    2    4    4    0    0  0.36530447933E+03 -0.18235217249E+03  0.36260684651E+03  0.55195076577E+03  0.80412967061E+02 0.  0.
         11    1    3    3    0    0 -0.28454343859E+03  0.44159068889E+03  0.42912307290E+03  0.67831697359E+03  0.00000000000E+00 0.  1.
        -11    1    3    3    0    0 -0.25473190700E+02  0.24566961060E+02  0.64891093874E+02  0.73913957305E+02  0.00000000000E+00 0. -1.
          2    1    6    6  502    0  0.15918575046E+03 -0.36150748269E+02  0.15044542479E+03  0.22199280527E+03  0.00000000000E+00 0. -1.
          1    1    5    5  503    0 -0.29343378335E+02 -0.14941195874E+03  0.14613695981E+04  0.14692808001E+04  0.00000000000E+00 0. -1.
         -2    1    5    5    0  503 -0.25944471699E+02 -0.13439351873E+03  0.75568311026E+03  0.76797896886E+03  0.00000000000E+00 0.  1.
         -1    1    6    6    0  502  0.20611872886E+03 -0.14620142422E+03  0.21216142172E+03  0.32995796050E+03  0.00000000000E+00 0.  1.
<mgrwt>
<rscale>  0 0.17590729E+04</rscale>
<asrwt>0</asrwt>
<pdfrwt beam="1">  1        2 0.50885498E+00 0.17590729E+04</pdfrwt>
<pdfrwt beam="2">  1       -2 0.35982137E-01 0.17590729E+04</pdfrwt>
<totfact> 0.76275318E+00</totfact>
</mgrwt>
</event>
<event>
12    1  0.1532786E-007  0.1335833E+04  0.7818608E-02  0.9001622E-01
          2   -1    0    0  501    0  0.00000000000E+00  0.00000000000E+00  0.29520183172E+04  0.29520183172E+04  0.00000000000E+00 0. -1.
         -2   -1    0    0    0  501 -0.00000000000E+00 -0.00000000000E+00 -0.15112111795E+03  0.15112111795E+03  0.00000000000E+00 0.  1.
         23    2    1    2    0    0 -0.11844816690E+03 -0.15467476958E+03  0.14537523049E+04  0.14695721081E+04  0.91061322199E+02 0.  0.
        254    2    1    2    0    0  0.11844816690E+03  0.15467476958E+03  0.13471448944E+04  0.16335673270E+04  0.90321015989E+03 0.  0.
        -24    2    4    4    0    0 -0.20567507784E+03  0.39294422417E+03  0.40434139409E+03  0.60530461405E+03  0.78703950701E+02 0.  0.
         24    2    4    4    0    0  0.32412324474E+03 -0.23826945460E+03  0.94280350026E+03  0.10282627130E+04  0.81348362001E+02 0.  0.
         11    1    3    3    0    0 -0.59273224131E+02 -0.13685439223E+03  0.88578217389E+03  0.89824968653E+03  0.00000000000E+00 0. -1.
        -11    1    3    3    0    0 -0.59174942765E+02 -0.17820377346E+02  0.56797013097E+03  0.57132242156E+03  0.00000000000E+00 0.  1.
          4    1    6    6  502    0  0.30359549660E+03 -0.22457788107E+03  0.81686765730E+03  0.89993234177E+03  0.00000000000E+00 0. -1.
          3    1    5    5  503    0 -0.18902535462E+03  0.30384177133E+03  0.34427878967E+03  0.49656650281E+03  0.00000000000E+00 0. -1.
         -4    1    5    5    0  503 -0.16649723220E+02  0.89102452846E+02  0.60062604422E+02  0.10873811124E+03  0.00000000000E+00 0.  1.
         -3    1    6    6    0  502  0.20527748142E+02 -0.13691573530E+02  0.12593584297E+03  0.12833037120E+03  0.00000000000E+00 0.  1.
<mgrwt>
<rscale>  0 0.13358328E+04</rscale>
<asrwt>0</asrwt>
<pdfrwt beam="1">  1        2 0.45415662E+00 0.13358328E+04</pdfrwt>
<pdfrwt beam="2">  1       -2 0.23249405E-01 0.13358328E+04</pdfrwt>
<totfact> 0.30128644E+01</totfact>
</mgrwt>
</event>
<event>
12    1  0.1532786E-007  0.2608329E+04  0.7818608E-02  0.8365378E-01
          1   -1    0    0  501    0  0.00000000000E+00  0.00000000000E+00  0.44418193801E+04  0.44418193801E+04  0.00000000000E+00 0. -1.
         -1   -1    0    0    0  501 -0.00000000000E+00 -0.00000000000E+00 -0.38291625743E+03  0.38291625743E+03  0.00000000000E+00 0.  1.
         23    2    1    2    0    0 -0.93414865134E+03 -0.38330964212E+03  0.27843608149E+04  0.29632362379E+04  0.92433053987E+02 0.  0.
        254    2    1    2    0    0  0.93414865134E+03  0.38330964212E+03  0.12745423078E+04  0.18614993997E+04  0.90617985855E+03 0.  0.
        -24    2    4    4    0    0  0.75702780863E+03 -0.12669904114E+03  0.96329543979E+03  0.12343531291E+04  0.80906074025E+02 0.  0.
         24    2    4    4    0    0  0.17712084271E+03  0.51000868326E+03  0.31124686799E+03  0.62714627060E+03  0.70407257937E+02 0.  0.
         13    1    3    3    0    0 -0.59522162804E+03 -0.20392707511E+03  0.18018327456E+04  0.19085272546E+04  0.00000000000E+00 0. -1.
        -13    1    3    3    0    0 -0.33892702330E+03 -0.17938256701E+03  0.98252806937E+03  0.10547089834E+04  0.00000000000E+00 0.  1.
          2    1    6    6  502    0  0.16345724840E+03  0.45867562115E+03  0.25454719632E+03  0.54945051884E+03  0.00000000000E+00 0. -1.
          1    1    5    5  503    0  0.62034510250E+03 -0.13494506812E+03  0.78855998112E+03  0.10123561930E+04  0.00000000000E+00 0. -1.
         -2    1    5    5    0  503  0.13668270613E+03  0.82460269841E+01  0.17473545867E+03  0.22199693609E+03  0.00000000000E+00 0.  1.
         -3    1    6    6    0  502  0.13663594302E+02  0.51333062109E+02  0.56699671664E+02  0.77695751760E+02  0.00000000000E+00 0.  1.
<mgrwt>
<rscale>  0 0.26083289E+04</rscale>
<asrwt>0</asrwt>
<pdfrwt beam="1">  1        1 0.68335679E+00 0.26083289E+04</pdfrwt>
<pdfrwt beam="2">  1       -1 0.58910197E-01 0.26083289E+04</pdfrwt>
<totfact> 0.95204752E-02</totfact>
</mgrwt>
</event>
<event>
12    1  0.1532786E-007  0.1777340E+04  0.7818608E-02  0.8718443E-01
         -2   -1    0    0    0  501 -0.00000000000E+00  0.00000000000E+00  0.20495049536E+04  0.20495049536E+04  0.00000000000E+00 0. -1.
          2   -1    0    0  501    0  0.00000000000E+00 -0.00000000000E+00 -0.38532941487E+03  0.38532941487E+03  0.00000000000E+00 0.  1.
         23    2    1    2    0    0 -0.70112121196E+02 -0.40529500030E+03  0.12080255863E+04  0.12795585984E+04  0.93619670704E+02 0.  0.
        254    2    1    2    0    0  0.70112121196E+02  0.40529500030E+03  0.45614995244E+03  0.11552757701E+04  0.97847308550E+03 0.  0.
        -24    2    4    4    0    0 -0.25055718194E+03  0.36975965662E+03 -0.13772304167E+03  0.47447619338E+03  0.81602186175E+02 0.  0.
         24    2    4    4    0    0  0.32066930314E+03  0.35535343676E+02  0.59387299412E+03  0.68079957671E+03  0.81922938703E+02 0.  0.
         11    1    3    3    0    0 -0.23175687395E+01 -0.10223447679E+03  0.42660169689E+03  0.43868698084E+03  0.00000000000E+00 0.  1.
        -11    1    3    3    0    0 -0.67794552456E+02 -0.30306052351E+03  0.78142388938E+03  0.84087161751E+03  0.00000000000E+00 0. -1.
          2    1    6    6  502    0  0.28295631059E+03  0.94550336354E+01  0.54256203219E+03  0.61198629898E+03  0.00000000000E+00 0. -1.
          3    1    5    5  503    0 -0.21625670666E+03  0.35563603952E+03 -0.13365887648E+03  0.43715975459E+03  0.00000000000E+00 0. -1.
         -4    1    5    5    0  503 -0.34300475284E+02  0.14123617109E+02 -0.40641651956E+01  0.37316438786E+02  0.00000000000E+00 0.  1.
         -1    1    6    6    0  502  0.37712992542E+02  0.26080310041E+02  0.51310961931E+02  0.68813277734E+02  0.00000000000E+00 0.  1.
<mgrwt>
<rscale>  0 0.17773402E+04</rscale>
<asrwt>0</asrwt>
<pdfrwt beam="1">  1        2 0.59281449E-01 0.17773402E+04</pdfrwt>
<pdfrwt beam="2">  1       -2 0.31530845E+00 0.17773402E+04</pdfrwt>
<totfact> 0.20128175E+00</totfact>
</mgrwt>
</event>
<event>
12    1  0.1532786E-007  0.3009526E+04  0.7818608E-02  0.8241016E-01
         -1   -1    0    0    0  501 -0.00000000000E+00  0.00000000000E+00  0.11271834411E+04  0.11271834411E+04  0.00000000000E+00 0.  1.
          1   -1    0    0  501    0  0.00000000000E+00 -0.00000000000E+00 -0.20088226470E+04  0.20088226470E+04  0.00000000000E+00 0. -1.
         23    2    1    2    0    0 -0.46614337293E+03  0.41241897988E+03 -0.16727093021E+04  0.17870120612E+04  0.89870120452E+02 0.  0.
        254    2    1    2    0    0  0.46614337293E+03 -0.41241897988E+03  0.79107009622E+03  0.13489940269E+04  0.89811687904E+03 0.  0.
        -24    2    4    4    0    0  0.36887333383E+03 -0.30496492594E+03 -0.54406906547E+02  0.48741184924E+03  0.74424840176E+02 0.  0.
         24    2    4    4    0    0  0.97270039096E+02 -0.10745405394E+03  0.84547700277E+03  0.86158217767E+03  0.80527339801E+02 0.  0.
         13    1    3    3    0    0 -0.12506225346E+03  0.14381944012E+03 -0.60866672161E+03  0.63780857362E+03  0.00000000000E+00 0.  1.
        -13    1    3    3    0    0 -0.34108111946E+03  0.26859953976E+03 -0.10640425805E+04  0.11492034876E+04  0.00000000000E+00 0. -1.
          2    1    6    6  502    0  0.84925354443E+02 -0.43266965417E+02  0.39211610100E+03  0.40353362040E+03  0.00000000000E+00 0. -1.
          3    1    5    5  503    0  0.27416286810E+02 -0.53598455957E+02 -0.26428075134E+01  0.60261361543E+02  0.00000000000E+00 0. -1.
         -4    1    5    5    0  503  0.34145704702E+03 -0.25136646998E+03 -0.51764099034E+02  0.42715048770E+03  0.00000000000E+00 0.  1.
         -1    1    6    6    0  502  0.12344684653E+02 -0.64187088523E+02  0.45336090176E+03  0.45804855727E+03  0.00000000000E+00 0.  1.
<mgrwt>
<rscale>  0 0.30095260E+04</rscale>
<asrwt>0</asrwt>
<pdfrwt beam="1">  1        1 0.30904964E+00 0.30095260E+04</pdfrwt>
<pdfrwt beam="2">  1       -1 0.17341284E+00 0.30095260E+04</pdfrwt>
<totfact> 0.58059190E-01</totfact>
</mgrwt>
</event>
<event>
12    1  0.1532786E-007  0.1770448E+04  0.7818608E-02  0.8722175E-01
         -2   -1    0    0    0  501 -0.00000000000E+00  0.00000000000E+00  0.47204968094E+03  0.47204968094E+03  0.00000000000E+00 0.  1.
          2   -1    0    0  501    0  0.00000000000E+00 -0.00000000000E+00 -0.16600407146E+04  0.16600407146E+04  0.00000000000E+00 0. -1.
         23    2    1    2    0    0 -0.17895823062E+03 -0.50843484407E+03 -0.22163360716E+01  0.54753081312E+03  0.96192724243E+02 0.  0.
        254    2    1    2    0    0  0.17895823062E+03  0.50843484407E+03 -0.11857746976E+04  0.15845595824E+04  0.90234993091E+03 0.  0.
        -24    2    4    4    0    0  0.20670969954E+03 -0.21460979714E+03 -0.47819740806E+03  0.56932757925E+03  0.81699856200E+02 0.  0.
         24    2    4    4    0    0 -0.27751468913E+02  0.72304464120E+03 -0.70757728949E+03  0.10152320031E+04  0.80415809422E+02 0.  0.
         13    1    3    3    0    0 -0.56623631282E+02 -0.17789714215E+03 -0.46266560086E+02  0.19233882444E+03  0.00000000000E+00 0. -1.
        -13    1    3    3    0    0 -0.12233459934E+03 -0.33053770192E+03  0.44050224014E+02  0.35519198868E+03  0.00000000000E+00 0.  1.
          4    1    6    6  502    0  0.51988110827E+01  0.49742644477E+02 -0.79193045746E+02  0.93663743309E+02  0.00000000000E+00 0. -1.
          3    1    5    5  503    0  0.81643832099E+02 -0.32142859228E+02 -0.13793543210E+03  0.16347801732E+03  0.00000000000E+00 0. -1.
         -4    1    5    5    0  503  0.12506586744E+03 -0.18246693791E+03 -0.34026197596E+03  0.40584956192E+03  0.00000000000E+00 0.  1.
         -3    1    6    6    0  502 -0.32950279996E+02  0.67330199673E+03 -0.62838424374E+03  0.92156825983E+03  0.00000000000E+00 0.  1.
<mgrwt>
<rscale>  0 0.17704482E+04</rscale>
<asrwt>0</asrwt>
<pdfrwt beam="1">  1        2 0.25539087E+00 0.17704482E+04</pdfrwt>
<pdfrwt beam="2">  1       -2 0.72623030E-01 0.17704482E+04</pdfrwt>
<totfact> 0.16748272E+01</totfact>
</mgrwt>
</event>
<event>
12    1  0.1532786E-007  0.1752603E+04  0.7818608E-02  0.8731919E-01
          1   -1    0    0  501    0  0.00000000000E+00  0.00000000000E+00  0.38549036724E+03  0.38549036724E+03  0.00000000000E+00 0. -1.
         -1   -1    0    0    0  501 -0.00000000000E+00 -0.00000000000E+00 -0.19920198724E+04  0.19920198724E+04  0.00000000000E+00 0.  1.
         23    2    1    2    0    0  0.26928584944E+03 -0.51666904994E+02 -0.13896161831E+04  0.14193917803E+04  0.91954074414E+02 0.  0.
        254    2    1    2    0    0 -0.26928584944E+03  0.51666904994E+02 -0.21691332200E+03  0.95811845932E+03  0.89205115046E+03 0.  0.
        -24    2    4    4    0    0  0.22055774833E+03 -0.11615188676E+03  0.16580073860E+03  0.30965628954E+03  0.79121119705E+02 0.  0.
         24    2    4    4    0    0 -0.48984359777E+03  0.16781879175E+03 -0.38271406061E+03  0.64846216978E+03  0.76962564345E+02 0.  0.
         11    1    3    3    0    0  0.19324395991E+03  0.64929305860E+01 -0.94839660736E+03  0.96790573458E+03  0.00000000000E+00 0.  1.
        -11    1    3    3    0    0  0.76041889523E+02 -0.58159835580E+02 -0.44121957577E+03  0.45148604572E+03  0.00000000000E+00 0. -1.
          4    1    6    6  502    0 -0.36964545162E+03  0.11743863013E+03 -0.32460696125E+03  0.50576602401E+03  0.00000000000E+00 0. -1.
          1    1    5    5  503    0  0.20607349263E+03 -0.12734184737E+03  0.14669945247E+03  0.28320127085E+03  0.00000000000E+00 0. -1.
         -2    1    5    5    0  503  0.14484255695E+02  0.11189960614E+02  0.19101286135E+02  0.26455018685E+02  0.00000000000E+00 0.  1.
         -3    1    6    6    0  502 -0.12019814614E+03  0.50380161626E+02 -0.58107099361E+02  0.14269614577E+03  0.00000000000E+00 0.  1.
<mgrwt>
<rscale>  0 0.17526032E+04</rscale>
<asrwt>0</asrwt>
<pdfrwt beam="1">  1        1 0.59306209E-01 0.17526032E+04</pdfrwt>
<pdfrwt beam="2">  1       -1 0.30646460E+00 0.17526032E+04</pdfrwt>
<totfact> 0.17929490E+00</totfact>
</mgrwt>
</event>
<event>
12    1  0.1532786E-007  0.2167589E+04  0.7818608E-02  0.8532041E-01
         -2   -1    0    0    0  501 -0.00000000000E+00  0.00000000000E+00  0.11863639644E+04  0.11863639644E+04  0.00000000000E+00 0.  1.
          2   -1    0    0  501    0  0.00000000000E+00 -0.00000000000E+00 -0.99009299976E+03  0.99009299976E+03  0.00000000000E+00 0. -1.
         23    2    1    2    0    0 -0.14520999470E+03  0.82496099717E+03 -0.24015285857E+03  0.87645935602E+03  0.94132979770E+02 0.  0.
        254    2    1    2    0    0  0.14520999470E+03 -0.82496099717E+03  0.43642382321E+03  0.12999976081E+04  0.89324209389E+03 0.  0.
        -24    2    4    4    0    0  0.76210516218E+02 -0.77786154317E+03 -0.62730273986E+02  0.78826282423E+03  0.80910874776E+02 0.  0.
         24    2    4    4    0    0  0.68999478478E+02 -0.47099453991E+02  0.49915409719E+03  0.51173478391E+03  0.75752159825E+02 0.  0.
         13    1    3    3    0    0 -0.11635614559E+03  0.78521318946E+03 -0.22725912464E+03  0.82567863921E+03  0.00000000000E+00 0. -1.
        -13    1    3    3    0    0 -0.28853849102E+02  0.39747807710E+02 -0.12893733930E+02  0.50780716817E+02  0.00000000000E+00 0.  1.
          2    1    6    6  502    0  0.51500809492E+02 -0.66701934394E+02  0.33200669683E+03  0.34253456493E+03  0.00000000000E+00 0. -1.
          1    1    5    5  503    0  0.23961697067E+00 -0.24301832444E+03 -0.48809714815E+02  0.24787164358E+03  0.00000000000E+00 0. -1.
         -2    1    5    5    0  503  0.75970899247E+02 -0.53484321874E+03 -0.13920559171E+02  0.54039118065E+03  0.00000000000E+00 0.  1.
         -1    1    6    6    0  502  0.17498668986E+02  0.19602480403E+02  0.16714740036E+03  0.16920021897E+03  0.00000000000E+00 0.  1.
<mgrwt>
<rscale>  0 0.21675891E+04</rscale>
<asrwt>0</asrwt>
<pdfrwt beam="1">  1        2 0.15232200E+00 0.21675891E+04</pdfrwt>
<pdfrwt beam="2">  1       -2 0.18251753E+00 0.21675891E+04</pdfrwt>
<totfact> 0.40807115E+00</totfact>
</mgrwt>
</event>
<event>
12    1  0.1532786E-007  0.1256413E+04  0.7818608E-02  0.9064863E-01
         -1   -1    0    0    0  501 -0.00000000000E+00  0.00000000000E+00  0.87163810642E+03  0.87163810642E+03  0.00000000000E+00 0.  1.
          1   -1    0    0  501    0  0.00000000000E+00 -0.00000000000E+00 -0.45276051630E+03  0.45276051630E+03  0.00000000000E+00 0. -1.
         23    2    1    2    0    0  0.34384269463E+02 -0.29024427821E+03  0.18018104759E+03  0.35395089394E+03  0.85976778192E+02 0.  0.
        254    2    1    2    0    0 -0.34384269463E+02  0.29024427821E+03  0.23869654253E+03  0.97044772879E+03  0.89407423398E+03 0.  0.
        -24    2    4    4    0    0 -0.24327553621E+03  0.54477845043E+03  0.14221966183E+03  0.61832281739E+03  0.78295132243E+02 0.  0.
         24    2    4    4    0    0  0.20889126674E+03 -0.25453417221E+03  0.96476880706E+02  0.35212491139E+03  0.79126219201E+02 0.  0.
         11    1    3    3    0    0 -0.24037515468E+02 -0.15626636311E+03  0.10257854837E+03  0.18846574483E+03  0.00000000000E+00 0.  1.
        -11    1    3    3    0    0  0.58421784932E+02 -0.13397791511E+03  0.77602499221E+02  0.16548514911E+03  0.00000000000E+00 0. -1.
          2    1    6    6  502    0  0.82023536168E+02 -0.82920426363E+02 -0.29768493220E+01  0.11667270129E+03  0.00000000000E+00 0. -1.
          1    1    5    5  503    0 -0.19465492047E+03  0.47208523502E+03  0.14498264691E+03  0.53082480640E+03  0.00000000000E+00 0. -1.
         -2    1    5    5    0  503 -0.48620615738E+02  0.72693215406E+02 -0.27629850823E+01  0.87498010991E+02  0.00000000000E+00 0.  1.
         -1    1    6    6    0  502  0.12686773058E+03 -0.17161374585E+03  0.99453730028E+02  0.23545221010E+03  0.00000000000E+00 0.  1.
<mgrwt>
<rscale>  0 0.12564129E+04</rscale>
<asrwt>0</asrwt>
<pdfrwt beam="1">  1        1 0.69655464E-01 0.12564129E+04</pdfrwt>
<pdfrwt beam="2">  1       -1 0.13409817E+00 0.12564129E+04</pdfrwt>
<totfact> 0.23462136E+01</totfact>
</mgrwt>
</event>
<event>
12    1  0.1532786E-007  0.2328912E+04  0.7818608E-02  0.8466608E-01
         -2   -1    0    0    0  501 -0.00000000000E+00  0.00000000000E+00  0.76015093774E+03  0.76015093774E+03  0.00000000000E+00 0.  1.
          2   -1    0    0  501    0  0.00000000000E+00 -0.00000000000E+00 -0.17838010768E+04  0.17838010768E+04  0.00000000000E+00 0. -1.
         23    2    1    2    0    0  0.45115336711E+03 -0.65806761242E+03  0.19628692000E+03  0.82645624888E+03  0.88932745245E+02 0.  0.
        254    2    1    2    0    0 -0.45115336711E+03  0.65806761242E+03 -0.12199370591E+04  0.17174957657E+04  0.90826919677E+03 0.  0.
        -24    2    4    4    0    0 -0.34473522636E+03  0.21534209653E+02 -0.94893133026E+03  0.10129526344E+04  0.79349048059E+02 0.  0.
         24    2    4    4    0    0 -0.10641814075E+03  0.63653340277E+03 -0.27100572882E+03  0.70454313131E+03  0.80232943960E+02 0.  0.
         13    1    3    3    0    0  0.37672077063E+03 -0.55800557613E+03  0.19785108804E+03  0.70173628598E+03  0.00000000000E+00 0.  1.
        -13    1    3    3    0    0  0.74432596478E+02 -0.10006203629E+03 -0.15641680352E+01  0.12471996290E+03  0.00000000000E+00 0. -1.
          2    1    6    6  502    0 -0.59661895234E+02  0.53757628420E+03 -0.22699886048E+03  0.58658016139E+03  0.00000000000E+00 0. -1.
          1    1    5    5  503    0 -0.22287501252E+03  0.38232247122E+02 -0.69377045874E+03  0.72969337762E+03  0.00000000000E+00 0. -1.
         -2    1    5    5    0  503 -0.12186021384E+03 -0.16698037470E+02 -0.25516087152E+03  0.28325925673E+03  0.00000000000E+00 0.  1.
         -1    1    6    6    0  502 -0.46756245518E+02  0.98957118568E+02 -0.44006868338E+02  0.11796296991E+03  0.00000000000E+00 0.  1.
<mgrwt>
<rscale>  0 0.23289122E+04</rscale>
<asrwt>0</asrwt>
<pdfrwt beam="1">  1        2 0.27443093E+00 0.23289122E+04</pdfrwt>
<pdfrwt beam="2">  1       -2 0.11694630E+00 0.23289122E+04</pdfrwt>
<totfact> 0.45094850E+00</totfact>
</mgrwt>
</event>
<event>
12    1  0.1532786E-007  0.1650198E+04  0.7818608E-02  0.8790289E-01
         -2   -1    0    0    0  501 -0.00000000000E+00  0.00000000000E+00  0.11361494159E+04  0.11361494159E+04  0.00000000000E+00 0.  1.
          2   -1    0    0  501    0  0.00000000000E+00 -0.00000000000E+00 -0.59920704897E+03  0.59920704897E+03  0.00000000000E+00 0. -1.
         23    2    1    2    0    0 -0.31225080767E+03  0.48154346158E+03  0.22524093842E+03  0.62295245358E+03  0.89171782543E+02 0.  0.
        254    2    1    2    0    0  0.31225080767E+03 -0.48154346158E+03  0.31170142850E+03  0.11124040113E+04  0.90049998973E+03 0.  0.
        -24    2    4    4    0    0  0.33879922184E+02 -0.38694416349E+03 -0.25302934022E+03  0.47079271723E+03  0.82148041961E+02 0.  0.
         24    2    4    4    0    0  0.27837088548E+03 -0.94599298084E+02  0.56473076872E+03  0.64161129405E+03  0.79402987492E+02 0.  0.
         11    1    3    3    0    0 -0.31695648554E+02  0.53988473479E+02 -0.35825320502E+01  0.62707287788E+02  0.00000000000E+00 0. -1.
        -11    1    3    3    0    0 -0.28055515911E+03  0.42755498810E+03  0.22882347047E+03  0.56024516579E+03  0.00000000000E+00 0.  1.
          4    1    6    6  502    0  0.81685821320E+02  0.21427535852E+01  0.11231941578E+03  0.13889858156E+03  0.00000000000E+00 0. -1.
          3    1    5    5  503    0  0.39596408995E+02 -0.95041344293E+02 -0.87857694201E+02  0.13535031275E+03  0.00000000000E+00 0. -1.
         -4    1    5    5    0  503 -0.57164868107E+01 -0.29190281920E+03 -0.16517164602E+03  0.33544240449E+03  0.00000000000E+00 0.  1.
         -3    1    6    6    0  502  0.19668506416E+03 -0.96742051669E+02  0.45241135294E+03  0.50271271249E+03  0.00000000000E+00 0.  1.
<mgrwt>
<rscale>  0 0.16501985E+04</rscale>
<asrwt>0</asrwt>
<pdfrwt beam="1">  1        2 0.92185700E-01 0.16501985E+04</pdfrwt>
<pdfrwt beam="2">  1       -2 0.17479222E+00 0.16501985E+04</pdfrwt>
<totfact> 0.93462613E+00</totfact>
</mgrwt>
</event>
<event>
12    1  0.1532786E-007  0.2383506E+04  0.7818608E-02  0.8445705E-01
         -2   -1    0    0    0  501 -0.00000000000E+00  0.00000000000E+00  0.11485478088E+04  0.11485478088E+04  0.00000000000E+00 0.  1.
          2   -1    0    0  501    0  0.00000000000E+00 -0.00000000000E+00 -0.12365832279E+04  0.12365832279E+04  0.00000000000E+00 0. -1.
         23    2    1    2    0    0 -0.11610893481E+03  0.99418830841E+03 -0.85666167968E+01  0.10046531686E+04  0.85807487782E+02 0.  0.
        254    2    1    2    0    0  0.11610893481E+03 -0.99418830841E+03 -0.79468802380E+02  0.13804778681E+04  0.94737119254E+03 0.  0.
        -24    2    4    4    0    0 -0.35173368504E+02  0.17534270592E+03 -0.20492529047E+01  0.19577208601E+03  0.79625874273E+02 0.  0.
         24    2    4    4    0    0  0.15128230332E+03 -0.11695310143E+04 -0.77419549476E+02  0.11847057821E+04  0.82733757910E+02 0.  0.
         13    1    3    3    0    0 -0.80569276838E+02  0.88112991226E+03  0.89617541250E+01  0.88485119861E+03  0.00000000000E+00 0. -1.
        -13    1    3    3    0    0 -0.35539657974E+02  0.11305839615E+03 -0.17528370922E+02  0.11980197001E+03  0.00000000000E+00 0.  1.
          2    1    6    6  502    0 -0.42988720311E+01 -0.16417082050E+03 -0.24059876895E+02  0.16598016833E+03  0.00000000000E+00 0. -1.
          1    1    5    5  503    0  0.11367225266E+02  0.12420566697E+03  0.11703759664E+02  0.12527266066E+03  0.00000000000E+00 0. -1.
         -2    1    5    5    0  503 -0.46540593770E+02  0.51137038949E+02 -0.13753012569E+02  0.70499425357E+02  0.00000000000E+00 0.  1.
         -1    1    6    6    0  502  0.15558117535E+03 -0.10053601938E+04 -0.53359672581E+02  0.10187256138E+04  0.00000000000E+00 0.  1.
<mgrwt>
<rscale>  0 0.23835058E+04</rscale>
<asrwt>0</asrwt>
<pdfrwt beam="1">  1        2 0.19024357E+00 0.23835058E+04</pdfrwt>
<pdfrwt beam="2">  1       -2 0.17669966E+00 0.23835058E+04</pdfrwt>
<totfact> 0.31009118E+00</totfact>
</mgrwt>
</event>
<event>
12    1  0.1532786E-007  0.1173373E+04  0.7818608E-02  0.9136488E-01
         -1   -1    0    0    0  501 -0.00000000000E+00  0.00000000000E+00  0.31405735518E+03  0.31405735518E+03  0.00000000000E+00 0.  1.
          1   -1    0    0  501    0  0.00000000000E+00 -0.00000000000E+00 -0.10959810409E+04  0.10959810409E+04  0.00000000000E+00 0. -1.
         23    2    1    2    0    0 -0.12294290689E+03  0.58995010921E+02 -0.39224383214E+03  0.42527016692E+03  0.91673994969E+02 0.  0.
        254    2    1    2    0    0  0.12294290689E+03 -0.58995010921E+02 -0.38967985362E+03  0.98476822921E+03  0.89404849268E+03 0.  0.
        -24    2    4    4    0    0  0.13965883844E+03  0.14689206281E+02  0.27079384303E+03  0.31521732820E+03  0.79449950525E+02 0.  0.
         24    2    4    4    0    0 -0.16715931551E+02 -0.73684217202E+02 -0.66047369666E+03  0.66955090100E+03  0.79775427465E+02 0.  0.
         11    1    3    3    0    0 -0.13693894358E+03  0.61200612256E+02 -0.36326250085E+03  0.39301072979E+03  0.00000000000E+00 0. -1.
        -11    1    3    3    0    0  0.13996036694E+02 -0.22056013353E+01 -0.28981331291E+02  0.32259437127E+02  0.00000000000E+00 0.  1.
          4    1    6    6  502    0 -0.15772683161E+02 -0.84794451378E+02 -0.41720803100E+03  0.42602983188E+03  0.00000000000E+00 0. -1.
          3    1    5    5  503    0  0.14647236568E+03  0.18456387492E+01  0.25163990905E+03  0.29117040392E+03  0.00000000000E+00 0. -1.
         -4    1    5    5    0  503 -0.68135272443E+01  0.12843567532E+02  0.19153933984E+02  0.24046924284E+02  0.00000000000E+00 0.  1.
         -3    1    6    6    0  502 -0.94324839003E+00  0.11110234176E+02 -0.24326566566E+03  0.24352106913E+03  0.00000000000E+00 0.  1.
<mgrwt>
<rscale>  0 0.11733728E+04</rscale>
<asrwt>0</asrwt>
<pdfrwt beam="1">  1        1 0.16861247E+00 0.11733728E+04</pdfrwt>
<pdfrwt beam="2">  1       -1 0.48316515E-01 0.11733728E+04</pdfrwt>
<totfact> 0.54214048E+01</totfact>
</mgrwt>
</event>
<event>
12    1  0.1532786E-007  0.1664864E+04  0.7818608E-02  0.8781662E-01
         -2   -1    0    0    0  501 -0.00000000000E+00  0.00000000000E+00  0.24560055707E+03  0.24560055707E+03  0.00000000000E+00 0.  1.
          2   -1    0    0  501    0  0.00000000000E+00 -0.00000000000E+00 -0.28214213279E+04  0.28214213279E+04  0.00000000000E+00 0. -1.
         23    2    1    2    0    0 -0.61494533504E+02 -0.37837368599E+03 -0.17418970398E+04  0.17859279616E+04  0.91570536364E+02 0.  0.
        254    2    1    2    0    0  0.61494533504E+02  0.37837368599E+03 -0.83392373102E+03  0.12810939233E+04  0.89376989612E+03 0.  0.
        -24    2    4    4    0    0  0.18048729812E+03 -0.10299991597E+03 -0.73694350853E+03  0.76991032060E+03  0.80569966638E+02 0.  0.
         24    2    4    4    0    0 -0.11899276461E+03  0.48137360196E+03 -0.96980222490E+02  0.51118360269E+03  0.77612430785E+02 0.  0.
         11    1    3    3    0    0 -0.73046360366E+02 -0.34658154586E+03 -0.14767834752E+04  0.15186651940E+04  0.00000000000E+00 0. -1.
        -11    1    3    3    0    0  0.11551826862E+02 -0.31792140131E+02 -0.26511356451E+03  0.26726276764E+03  0.00000000000E+00 0.  1.
          4    1    6    6  502    0 -0.74018613204E+01  0.75715091072E+02 -0.41942065143E+02  0.86871741064E+02  0.00000000000E+00 0. -1.
          3    1    5    5  503    0  0.86711294616E+01 -0.16485310545E+01 -0.29713469542E+01  0.93131650634E+01  0.00000000000E+00 0. -1.
         -4    1    5    5    0  503  0.17181616865E+03 -0.10135138491E+03 -0.73397216158E+03  0.76059715553E+03  0.00000000000E+00 0.  1.
         -3    1    6    6    0  502 -0.11159090329E+03  0.40565851089E+03 -0.55038157346E+02  0.42431186163E+03  0.00000000000E+00 0.  1.
<mgrwt>
<rscale>  0 0.16648635E+04</rscale>
<asrwt>0</asrwt>
<pdfrwt beam="1">  1        2 0.43406480E+00 0.16648635E+04</pdfrwt>
<pdfrwt beam="2">  1       -2 0.37784703E-01 0.16648635E+04</pdfrwt>
<totfact> 0.14207042E+01</totfact>
</mgrwt>
</event>
<event>
12    1  0.1532786E-007  0.1969563E+04  0.7818608E-02  0.8620985E-01
         -2   -1    0    0    0  501 -0.00000000000E+00  0.00000000000E+00  0.10747654834E+04  0.10747654834E+04  0.00000000000E+00 0.  1.
          2   -1    0    0  501    0  0.00000000000E+00 -0.00000000000E+00 -0.90233103555E+03  0.90233103555E+03  0.00000000000E+00 0. -1.
         23    2    1    2    0    0 -0.13442675996E+03  0.38631415672E+03 -0.58361454401E+03  0.71867057317E+03  0.92586582658E+02 0.  0.
        254    2    1    2    0    0  0.13442675996E+03 -0.38631415672E+03  0.75604899189E+03  0.12584259458E+04  0.91908465416E+03 0.  0.
        -24    2    4    4    0    0 -0.31715840182E+03 -0.38861258946E+03  0.57071716511E+03  0.76378531751E+03  0.77722147179E+02 0.  0.
         24    2    4    4    0    0  0.45158516178E+03  0.22984327392E+01  0.18533182678E+03  0.49464062831E+03  0.79918859039E+02 0.  0.
         13    1    3    3    0    0 -0.24369119028E+02  0.42535998457E+02 -0.29067400955E+02  0.56991919824E+02  0.00000000000E+00 0.  1.
        -13    1    3    3    0    0 -0.11005764093E+03  0.34377815826E+03 -0.55454714305E+03  0.66167865334E+03  0.00000000000E+00 0. -1.
          2    1    6    6  502    0  0.19584821469E+02  0.56319304435E+01  0.28510645303E+02  0.35044839393E+02  0.00000000000E+00 0. -1.
          3    1    5    5  503    0 -0.14959354415E+02  0.42764768020E+00  0.17386699808E+02  0.22940411881E+02  0.00000000000E+00 0. -1.
         -4    1    5    5    0  503 -0.30219904741E+03 -0.38904023714E+03  0.55333046531E+03  0.74084490563E+03  0.00000000000E+00 0.  1.
         -1    1    6    6    0  502  0.43200034031E+03 -0.33334977043E+01  0.15682118148E+03  0.45959578892E+03  0.00000000000E+00 0.  1.
<mgrwt>
<rscale>  0 0.19695626E+04</rscale>
<asrwt>0</asrwt>
<pdfrwt beam="1">  1        2 0.13882016E+00 0.19695626E+04</pdfrwt>
<pdfrwt beam="2">  1       -2 0.16534853E+00 0.19695626E+04</pdfrwt>
<totfact> 0.62609919E+00</totfact>
</mgrwt>
</event>
<event>
12    1  0.1532786E-007  0.1883890E+04  0.7818608E-02  0.8662917E-01
          2   -1    0    0  501    0  0.00000000000E+00  0.00000000000E+00  0.16761583901E+04  0.16761583901E+04  0.00000000000E+00 0. -1.
         -2   -1    0    0    0  501 -0.00000000000E+00 -0.00000000000E+00 -0.52934173827E+03  0.52934173827E+03  0.00000000000E+00 0.  1.
         23    2    1    2    0    0 -0.69787888451E+03 -0.18081341301E+03  0.40237521419E+03  0.83057964548E+03  0.90710014399E+02 0.  0.
        254    2    1    2    0    0  0.69787888451E+03  0.18081341301E+03  0.74444143769E+03  0.13749204829E+04  0.90359551375E+03 0.  0.
        -24    2    4    4    0    0  0.41280179244E+03  0.39036034838E+03  0.30838591957E+02  0.57455462002E+03  0.79846547847E+02 0.  0.
         24    2    4    4    0    0  0.28507709207E+03 -0.20954693537E+03  0.71360284573E+03  0.80036586291E+03  0.78597878689E+02 0.  0.
         13    1    3    3    0    0 -0.42708650379E+03 -0.14531763149E+03  0.28278125374E+03  0.53243340730E+03  0.00000000000E+00 0. -1.
        -13    1    3    3    0    0 -0.27079238072E+03 -0.35495781523E+02  0.11959396044E+03  0.29814623817E+03  0.00000000000E+00 0.  1.
          2    1    6    6  502    0  0.27863271649E+03 -0.18920450793E+03  0.69391718094E+03  0.77133364410E+03  0.00000000000E+00 0. -1.
          1    1    5    5  503    0  0.29733474673E+03  0.32225185210E+03  0.39330479231E+02  0.44022845704E+03  0.00000000000E+00 0. -1.
         -2    1    5    5    0  503  0.11546704571E+03  0.68108496286E+02 -0.84918872735E+01  0.13432616298E+03  0.00000000000E+00 0.  1.
         -1    1    6    6    0  502  0.64443755759E+01 -0.20342427440E+02  0.19685664789E+02  0.29032218808E+02  0.00000000000E+00 0.  1.
<mgrwt>
<rscale>  0 0.18838902E+04</rscale>
<asrwt>0</asrwt>
<pdfrwt beam="1">  1        2 0.25787052E+00 0.18838902E+04</pdfrwt>
<pdfrwt beam="2">  1       -2 0.81437191E-01 0.18838902E+04</pdfrwt>
<totfact> 0.12590568E+01</totfact>
</mgrwt>
</event>
<event>
12    1  0.1532786E-007  0.2016954E+04  0.7818608E-02  0.8598735E-01
         -1   -1    0    0    0  501 -0.00000000000E+00  0.00000000000E+00  0.13188599375E+04  0.13188599375E+04  0.00000000000E+00 0.  1.
          1   -1    0    0  501    0  0.00000000000E+00 -0.00000000000E+00 -0.77114041775E+03  0.77114041775E+03  0.00000000000E+00 0. -1.
         23    2    1    2    0    0 -0.16666374648E+03  0.31881637184E+03  0.96421449945E+03  0.10346618340E+04  0.10674655198E+03 0.  0.
        254    2    1    2    0    0  0.16666374648E+03 -0.31881637184E+03 -0.41649497972E+03  0.10553385213E+04  0.90047245545E+03 0.  0.
        -24    2    4    4    0    0  0.26602654717E+03 -0.49455731977E+03  0.20658527486E+02  0.56750237802E+03  0.79215579093E+02 0.  0.
         24    2    4    4    0    0 -0.99362800690E+02  0.17574094793E+03 -0.43715350720E+03  0.48783614325E+03  0.78250027889E+02 0.  0.
         11    1    3    3    0    0 -0.12421281586E+03  0.30541668212E+03  0.82262047944E+03  0.88623508537E+03  0.00000000000E+00 0.  1.
        -11    1    3    3    0    0 -0.42450930614E+02  0.13399689716E+02  0.14159402001E+03  0.14842674859E+03  0.00000000000E+00 0. -1.
          4    1    6    6  502    0 -0.80480479178E+02  0.16914594896E+03 -0.42495864945E+03  0.46441071620E+03  0.00000000000E+00 0. -1.
          3    1    5    5  503    0  0.25723593551E+03 -0.44096300468E+03  0.34131818215E+01  0.51051968407E+03  0.00000000000E+00 0. -1.
         -4    1    5    5    0  503  0.87906116580E+01 -0.53594315086E+02  0.17245345664E+02  0.56982693951E+02  0.00000000000E+00 0.  1.
         -3    1    6    6    0  502 -0.18882321512E+02  0.65949989678E+01 -0.12194857754E+02  0.23425427055E+02  0.00000000000E+00 0.  1.
<mgrwt>
<rscale>  0 0.20169543E+04</rscale>
<asrwt>0</asrwt>
<pdfrwt beam="1">  1        1 0.11863699E+00 0.20169543E+04</pdfrwt>
<pdfrwt beam="2">  1       -1 0.20290153E+00 0.20169543E+04</pdfrwt>
<totfact> 0.31211333E+00</totfact>
</mgrwt>
</event>
<event>
12    1  0.1532786E-007  0.1420794E+04  0.7818608E-02  0.8938903E-01
         -1   -1    0    0    0  501 -0.00000000000E+00  0.00000000000E+00  0.80469615661E+03  0.80469615661E+03  0.00000000000E+00 0.  1.
          1   -1    0    0  501    0  0.00000000000E+00 -0.00000000000E+00 -0.62714841868E+03  0.62714841868E+03  0.00000000000E+00 0. -1.
         23    2    1    2    0    0  0.30926091279E+03  0.10889839745E+03 -0.19836572409E+03  0.39388977993E+03  0.91098985137E+02 0.  0.
        254    2    1    2    0    0 -0.30926091279E+03 -0.10889839745E+03  0.37591346201E+03  0.10379547954E+04  0.91024065672E+03 0.  0.
        -24    2    4    4    0    0  0.23109363629E+03  0.51940604929E+02  0.39639467606E+03  0.46818078252E+03  0.77216648100E+02 0.  0.
         24    2    4    4    0    0 -0.54035454908E+03 -0.16083900238E+03 -0.20481214043E+02  0.56977401284E+03  0.79816803872E+02 0.  0.
         13    1    3    3    0    0  0.12934783062E+03  0.11001699005E+02 -0.11256401218E+03  0.17182128944E+03  0.00000000000E+00 0. -1.
        -13    1    3    3    0    0  0.17991308217E+03  0.97896698443E+02 -0.85801711915E+02  0.22206849050E+03  0.00000000000E+00 0.  1.
          4    1    6    6  502    0 -0.22009516655E+03 -0.77197570773E+02 -0.46208598232E+02  0.23777422447E+03  0.00000000000E+00 0. -1.
          1    1    5    5  503    0  0.14505441458E+03  0.58268353289E+02  0.30358279569E+03  0.34146522227E+03  0.00000000000E+00 0. -1.
         -2    1    5    5    0  503  0.86039221711E+02 -0.63277483597E+01  0.92811880366E+02  0.12671556025E+03  0.00000000000E+00 0.  1.
         -3    1    6    6    0  502 -0.32025938253E+03 -0.83641431605E+02  0.25727384188E+02  0.33199978837E+03  0.00000000000E+00 0.  1.
<mgrwt>
<rscale>  0 0.14207940E+04</rscale>
<asrwt>0</asrwt>
<pdfrwt beam="1">  1        1 0.96484371E-01 0.14207940E+04</pdfrwt>
<pdfrwt beam="2">  1       -1 0.12379941E+00 0.14207940E+04</pdfrwt>
<totfact> 0.17923127E+01</totfact>
</mgrwt>
</event>
<event>
12    1  0.1532786E-007  0.1931103E+04  0.7818608E-02  0.8639528E-01
         -2   -1    0    0    0  501 -0.00000000000E+00  0.00000000000E+00  0.71890897806E+03  0.71890897806E+03  0.00000000000E+00 0.  1.
          2   -1    0    0  501    0  0.00000000000E+00 -0.00000000000E+00 -0.12968116511E+04  0.12968116511E+04  0.00000000000E+00 0. -1.
         23    2    1    2    0    0 -0.38800585891E+03 -0.63347106880E+03 -0.13502845813E+03  0.76052724407E+03  0.91295470325E+02 0.  0.
        254    2    1    2    0    0  0.38800585891E+03  0.63347106880E+03 -0.44287421486E+03  0.12551933850E+04  0.90969155328E+03 0.  0.
        -24    2    4    4    0    0 -0.89220052905E+01  0.69596732841E+03 -0.47125071699E+03  0.84431246452E+03  0.79600094801E+02 0.  0.
         24    2    4    4    0    0  0.39692786421E+03 -0.62496259607E+02  0.28376502122E+02  0.41088092053E+03  0.80996253819E+02 0.  0.
         11    1    3    3    0    0 -0.11449628725E+03 -0.25245875485E+03 -0.78536047624E+02  0.28811930424E+03  0.00000000000E+00 0. -1.
        -11    1    3    3    0    0 -0.27350957166E+03 -0.38101231395E+03 -0.56492410510E+02  0.47240793983E+03  0.00000000000E+00 0.  1.
          2    1    6    6  502    0  0.22739512583E+02  0.35299421266E+01  0.20518010858E+02  0.30830742668E+02  0.00000000000E+00 0. -1.
          3    1    5    5  503    0 -0.16514496561E+02  0.16006447423E+03 -0.14670084023E+03  0.21774871074E+03  0.00000000000E+00 0. -1.
         -4    1    5    5    0  503  0.75924912706E+01  0.53590285419E+03 -0.32454987676E+03  0.62656375378E+03  0.00000000000E+00 0.  1.
         -1    1    6    6    0  502  0.37418835162E+03 -0.66026201734E+02  0.78584912645E+01  0.38005017786E+03  0.00000000000E+00 0.  1.
<mgrwt>
<rscale>  0 0.19311028E+04</rscale>
<asrwt>0</asrwt>
<pdfrwt beam="1">  1        2 0.19950948E+00 0.19311028E+04</pdfrwt>
<pdfrwt beam="2">  1       -2 0.11060138E+00 0.19311028E+04</pdfrwt>
<totfact> 0.10058650E+01</totfact>
</mgrwt>
</event>
<event>
12    1  0.1532786E-007  0.1210433E+04  0.7818608E-02  0.9103773E-01
         -2   -1    0    0    0  501 -0.00000000000E+00  0.00000000000E+00  0.75122013996E+03  0.75122013996E+03  0.00000000000E+00 0.  1.
          2   -1    0    0  501    0  0.00000000000E+00 -0.00000000000E+00 -0.48758982349E+03  0.48758982349E+03  0.00000000000E+00 0. -1.
         23    2    1    2    0    0 -0.18218193827E+03  0.52548959911E+02 -0.12740507279E+03  0.24713771925E+03  0.94304548579E+02 0.  0.
        254    2    1    2    0    0  0.18218193827E+03 -0.52548959911E+02  0.39103538926E+03  0.99167224419E+03  0.89137731204E+03 0.  0.
        -24    2    4    4    0    0  0.12512940555E+03 -0.13249914366E+03 -0.26063977484E+03  0.32781879297E+03  0.79490110021E+02 0.  0.
         24    2    4    4    0    0  0.57052532725E+02  0.79950183744E+02  0.65167516410E+03  0.66385345123E+03  0.79836469301E+02 0.  0.
         13    1    3    3    0    0 -0.31912745851E+02 -0.25025321718E+02 -0.39210050737E+02  0.56410266385E+02  0.00000000000E+00 0.  1.
        -13    1    3    3    0    0 -0.15026919242E+03  0.77574281629E+02 -0.88195022052E+02  0.19072745287E+03  0.00000000000E+00 0. -1.
          2    1    6    6  502    0  0.55457783153E+01  0.19344423573E+02  0.24729201535E+02  0.31882531096E+02  0.00000000000E+00 0. -1.
          1    1    5    5  503    0  0.31134109115E+02 -0.27767996632E+01 -0.82602032317E+02  0.88318396213E+02  0.00000000000E+00 0. -1.
         -2    1    5    5    0  503  0.93995296434E+02 -0.12972234399E+03 -0.17803774252E+03  0.23950039675E+03  0.00000000000E+00 0.  1.
         -1    1    6    6    0  502  0.51506754409E+02  0.60605760171E+02  0.62694596256E+03  0.63197092013E+03  0.00000000000E+00 0.  1.
<mgrwt>
<rscale>  0 0.12104335E+04</rscale>
<asrwt>0</asrwt>
<pdfrwt beam="1">  1        2 0.75013820E-01 0.12104335E+04</pdfrwt>
<pdfrwt beam="2">  1       -2 0.11557233E+00 0.12104335E+04</pdfrwt>
<totfact> 0.36414680E+01</totfact>
</mgrwt>
</event>
<event>
12    1  0.1532786E-007  0.2047536E+04  0.7818608E-02  0.8584713E-01
         -1   -1    0    0    0  501 -0.00000000000E+00  0.00000000000E+00  0.10691046783E+04  0.10691046783E+04  0.00000000000E+00 0.  1.
          1   -1    0    0  501    0  0.00000000000E+00 -0.00000000000E+00 -0.98035363091E+03  0.98035363091E+03  0.00000000000E+00 0. -1.
         23    2    1    2    0    0  0.36284091183E+03 -0.70165641317E+03  0.25737546485E+03  0.83588206245E+03  0.92094749995E+02 0.  0.
        254    2    1    2    0    0 -0.36284091183E+03  0.70165641317E+03 -0.16862441746E+03  0.12135762468E+04  0.90573608910E+03 0.  0.
        -24    2    4    4    0    0  0.21788184143E+03 -0.18763470028E+02  0.91319018041E+02  0.24933820515E+03  0.77497179688E+02 0.  0.
         24    2    4    4    0    0 -0.58072275326E+03  0.72041988319E+03 -0.25994343550E+03  0.96423804161E+03  0.77075852024E+02 0.  0.
         11    1    3    3    0    0  0.11013664012E+03 -0.14486938075E+03  0.35439297345E+02  0.18540000208E+03  0.00000000000E+00 0. -1.
        -11    1    3    3    0    0  0.25270427171E+03 -0.55678703242E+03  0.22193616751E+03  0.65048206037E+03  0.00000000000E+00 0.  1.
          4    1    6    6  502    0 -0.15716318958E+03  0.16320116384E+03 -0.91349121010E+02  0.24429398263E+03  0.00000000000E+00 0. -1.
          1    1    5    5  503    0  0.18807363906E+03  0.77826200067E+00  0.99492941999E+02  0.21277016922E+03  0.00000000000E+00 0. -1.
         -2    1    5    5    0  503  0.29808202364E+02 -0.19541732029E+02 -0.81739239573E+01  0.36568035929E+02  0.00000000000E+00 0.  1.
         -3    1    6    6    0  502 -0.42355956368E+03  0.55721871935E+03 -0.16859431449E+03  0.71994405898E+03  0.00000000000E+00 0.  1.
<mgrwt>
<rscale>  0 0.20475357E+04</rscale>
<asrwt>0</asrwt>
<pdfrwt beam="1">  1        1 0.15082364E+00 0.20475357E+04</pdfrwt>
<pdfrwt beam="2">  1       -1 0.16447764E+00 0.20475357E+04</pdfrwt>
<totfact> 0.39169963E+00</totfact>
</mgrwt>
</event>
<event>
12    1  0.1532786E-007  0.1577225E+04  0.7818608E-02  0.8834663E-01
          2   -1    0    0  501    0  0.00000000000E+00  0.00000000000E+00  0.71143163985E+03  0.71143163985E+03  0.00000000000E+00 0. -1.
         -2   -1    0    0    0  501 -0.00000000000E+00 -0.00000000000E+00 -0.87416616774E+03  0.87416616774E+03  0.00000000000E+00 0.  1.
         23    2    1    2    0    0 -0.15407110991E+03  0.45268859162E+03 -0.27310421045E+03  0.55870407383E+03  0.94336972897E+02 0.  0.
        254    2    1    2    0    0  0.15407110991E+03 -0.45268859162E+03  0.11036968256E+03  0.10268937338E+04  0.90203348370E+03 0.  0.
        -24    2    4    4    0    0  0.48459935589E+03 -0.53195729294E+02  0.90008908853E+02  0.50183660207E+03  0.77923360832E+02 0.  0.
         24    2    4    4    0    0 -0.33052824598E+03 -0.39949286233E+03  0.20360773704E+02  0.52505713169E+03  0.80168335341E+02 0.  0.
         11    1    3    3    0    0 -0.11562527915E+02  0.13577440132E+03 -0.10861060679E+03  0.17425453800E+03  0.00000000000E+00 0.  1.
        -11    1    3    3    0    0 -0.14250858199E+03  0.31691419030E+03 -0.16449360366E+03  0.38444953583E+03  0.00000000000E+00 0. -1.
          4    1    6    6  502    0 -0.16886259062E+03 -0.14228248628E+03  0.49735192298E+01  0.22087013449E+03  0.00000000000E+00 0. -1.
          3    1    5    5  503    0  0.22336519987E+03 -0.63581574604E+02  0.40097376429E+02  0.23567441257E+03  0.00000000000E+00 0. -1.
         -4    1    5    5    0  503  0.26123415601E+03  0.10385845309E+02  0.49911532423E+02  0.26616218950E+03  0.00000000000E+00 0.  1.
         -3    1    6    6    0  502 -0.16166565536E+03 -0.25721037604E+03  0.15387254474E+02  0.30418699720E+03  0.00000000000E+00 0.  1.
<mgrwt>
<rscale>  0 0.15772247E+04</rscale>
<asrwt>0</asrwt>
<pdfrwt beam="1">  1        2 0.10945102E+00 0.15772247E+04</pdfrwt>
<pdfrwt beam="2">  1       -2 0.13448710E+00 0.15772247E+04</pdfrwt>
<totfact> 0.15354142E+01</totfact>
</mgrwt>
</event>
<event>
12    1  0.1532786E-007  0.2792467E+04  0.7818608E-02  0.8305611E-01
         -1   -1    0    0    0  501 -0.00000000000E+00  0.00000000000E+00  0.34109213391E+04  0.34109213391E+04  0.00000000000E+00 0.  1.
          1   -1    0    0  501    0  0.00000000000E+00 -0.00000000000E+00 -0.57153706967E+03  0.57153706967E+03  0.00000000000E+00 0. -1.
         23    2    1    2    0    0  0.89588927216E+03 -0.78806744209E+03  0.76676911360E+03  0.14214177648E+04  0.93945236079E+02 0.  0.
        254    2    1    2    0    0 -0.89588927216E+03  0.78806744209E+03  0.20726151558E+04  0.25610406439E+04  0.91625744987E+03 0.  0.
        -24    2    4    4    0    0  0.62342543101E+02  0.21335093259E+03  0.93731630403E+03  0.96620981096E+03  0.74795266491E+02 0.  0.
         24    2    4    4    0    0 -0.95823181526E+03  0.57471650949E+03  0.11352988518E+04  0.15948308329E+04  0.77939879431E+02 0.  0.
         13    1    3    3    0    0  0.35711119222E+03 -0.28059347849E+03  0.33713544546E+03  0.56561595837E+03  0.00000000000E+00 0.  1.
        -13    1    3    3    0    0  0.53877807994E+03 -0.50747396360E+03  0.42963366814E+03  0.85580180647E+03  0.00000000000E+00 0. -1.
          2    1    6    6  502    0 -0.68368191452E+03  0.40596994906E+03  0.75666797280E+03  0.10976242439E+04  0.00000000000E+00 0. -1.
          1    1    5    5  503    0  0.14845644321E+02  0.15778020851E+03  0.70814829930E+03  0.72566452384E+03  0.00000000000E+00 0. -1.
         -2    1    5    5    0  503  0.47496898780E+02  0.55570724085E+02  0.22916800473E+03  0.24054528713E+03  0.00000000000E+00 0.  1.
         -1    1    6    6    0  502 -0.27454990073E+03  0.16874656044E+03  0.37863087897E+03  0.49720658902E+03  0.00000000000E+00 0.  1.
<mgrwt>
<rscale>  0 0.27924670E+04</rscale>
<asrwt>0</asrwt>
<pdfrwt beam="1">  1        1 0.87928782E-01 0.27924670E+04</pdfrwt>
<pdfrwt beam="2">  1       -1 0.52475712E+00 0.27924670E+04</pdfrwt>
<totfact> 0.33036896E-02</totfact>
</mgrwt>
</event>
<event>
12    1  0.1532786E-007  0.1695878E+04  0.7818608E-02  0.8763719E-01
         -2   -1    0    0    0  501 -0.00000000000E+00  0.00000000000E+00  0.82743626888E+03  0.82743626888E+03  0.00000000000E+00 0.  1.
          2   -1    0    0  501    0  0.00000000000E+00 -0.00000000000E+00 -0.86894971764E+03  0.86894971764E+03  0.00000000000E+00 0. -1.
         23    2    1    2    0    0  0.14042712904E+03  0.48010133935E+02  0.56855518773E+03  0.59465695673E+03  0.91307957850E+02 0.  0.
        254    2    1    2    0    0 -0.14042712904E+03 -0.48010133935E+02 -0.61006863649E+03  0.11017290298E+04  0.90531671935E+03 0.  0.
        -24    2    4    4    0    0  0.36835860470E+03  0.29175092114E+02 -0.36992765462E+03  0.52901062688E+03  0.80414712869E+02 0.  0.
         24    2    4    4    0    0 -0.50878573374E+03 -0.77185226049E+02 -0.24014098187E+03  0.57271840291E+03  0.74284560227E+02 0.  0.
         11    1    3    3    0    0  0.26986097576E+02 -0.27417144652E+01  0.24379856364E+02  0.36471137313E+02  0.00000000000E+00 0. -1.
        -11    1    3    3    0    0  0.11344103146E+03  0.50751848400E+02  0.54417533136E+03  0.55818581942E+03  0.00000000000E+00 0.  1.
          4    1    6    6  502    0 -0.43470177372E+03 -0.91214762145E+02 -0.19753726192E+03  0.48611391129E+03  0.00000000000E+00 0. -1.
          3    1    5    5  503    0  0.37058090818E+03  0.30656896226E+02 -0.37173013591E+03  0.52578831172E+03  0.00000000000E+00 0. -1.
         -4    1    5    5    0  503 -0.22223034817E+01 -0.14818041119E+01  0.18024812941E+01  0.32223151625E+01  0.00000000000E+00 0.  1.
         -3    1    6    6    0  502 -0.74083960020E+02  0.14029536096E+02 -0.42603719947E+02  0.86604491620E+02  0.00000000000E+00 0.  1.
<mgrwt>
<rscale>  0 0.16958780E+04</rscale>
<asrwt>0</asrwt>
<pdfrwt beam="1">  1        2 0.13368457E+00 0.16958780E+04</pdfrwt>
<pdfrwt beam="2">  1       -2 0.12729789E+00 0.16958780E+04</pdfrwt>
<totfact> 0.13421927E+01</totfact>
</mgrwt>
</event>
<event>
12    1  0.1532786E-007  0.2161099E+04  0.7818608E-02  0.8534796E-01
          2   -1    0    0  501    0  0.00000000000E+00  0.00000000000E+00  0.19267443692E+04  0.19267443692E+04  0.00000000000E+00 0.  1.
         -2   -1    0    0    0  501 -0.00000000000E+00 -0.00000000000E+00 -0.60598975371E+03  0.60598975371E+03  0.00000000000E+00 0. -1.
         23    2    1    2    0    0 -0.15960804709E+03  0.80719062598E+03  0.16269277785E+03  0.84365061278E+03  0.90807384624E+02 0.  0.
        254    2    1    2    0    0  0.15960804709E+03 -0.80719062598E+03  0.11580618377E+04  0.16890835102E+04  0.91370917094E+03 0.  0.
        -24    2    4    4    0    0 -0.47268244168E+02 -0.83116329458E+03  0.11991817746E+04  0.14619817080E+04  0.79289828066E+02 0.  0.
         24    2    4    4    0    0  0.20687629126E+03  0.23972668599E+02 -0.41119936947E+02  0.22710180215E+03  0.80696286143E+02 0.  0.
         13    1    3    3    0    0 -0.65255081270E-01  0.17980595640E+03  0.21580574487E+02  0.18109640363E+03  0.00000000000E+00 0.  1.
        -13    1    3    3    0    0 -0.15954279201E+03  0.62738466959E+03  0.14111220336E+03  0.66255420914E+03  0.00000000000E+00 0. -1.
          4    1    6    6  502    0  0.11973924376E+03 -0.25423549274E+02 -0.32007675328E+02  0.12652404765E+03  0.00000000000E+00 0. -1.
          3    1    5    5  503    0 -0.21693154629E+02 -0.73525724273E+03  0.10828465139E+04  0.13090570571E+04  0.00000000000E+00 0. -1.
         -4    1    5    5    0  503 -0.25575089538E+02 -0.95906051852E+02  0.11633526068E+03  0.15292465094E+03  0.00000000000E+00 0.  1.
         -3    1    6    6    0  502  0.87137047506E+02  0.49396217874E+02 -0.91122616189E+01  0.10057775450E+03  0.00000000000E+00 0.  1.
<mgrwt>
<rscale>  0 0.21610991E+04</rscale>
<asrwt>0</asrwt>
<pdfrwt beam="1">  1        2 0.29642221E+00 0.21610991E+04</pdfrwt>
<pdfrwt beam="2">  1       -2 0.93229194E-01 0.21610991E+04</pdfrwt>
<totfact> 0.65524265E+00</totfact>
</mgrwt>
</event>
<event>
12    1  0.1532786E-007  0.2659580E+04  0.7818608E-02  0.8348240E-01
         -2   -1    0    0    0  501 -0.00000000000E+00  0.00000000000E+00  0.27937763464E+04  0.27937763464E+04  0.00000000000E+00 0.  1.
          2   -1    0    0  501    0  0.00000000000E+00 -0.00000000000E+00 -0.63295759378E+03  0.63295759378E+03  0.00000000000E+00 0. -1.
         23    2    1    2    0    0  0.56967290370E+03 -0.94458499233E+03  0.42800132821E+03  0.11866659781E+04  0.90680657749E+02 0.  0.
        254    2    1    2    0    0 -0.56967290370E+03  0.94458499233E+03  0.17328174244E+04  0.22400679620E+04  0.89357720615E+03 0.  0.
        -24    2    4    4    0    0 -0.20867669082E+03  0.30948936729E+03  0.13671290933E+04  0.14193399690E+04  0.78449729620E+02 0.  0.
         24    2    4    4    0    0 -0.36099621288E+03  0.63509562504E+03  0.36568833106E+03  0.82072799303E+03  0.78751281911E+02 0.  0.
         13    1    3    3    0    0  0.32003321828E+03 -0.48477960521E+03  0.18375653514E+03  0.60926102012E+03  0.00000000000E+00 0.  1.
        -13    1    3    3    0    0  0.24963968542E+03 -0.45980538712E+03  0.24424479307E+03  0.57740495798E+03  0.00000000000E+00 0. -1.
          2    1    6    6  502    0 -0.24898827236E+03  0.41062307367E+03  0.20068783031E+03  0.52046332593E+03  0.00000000000E+00 0. -1.
          1    1    5    5  503    0 -0.14556845750E+03  0.26194528544E+03  0.11453795883E+04  0.11839340816E+04  0.00000000000E+00 0. -1.
         -2    1    5    5    0  503 -0.63108233320E+02  0.47544081849E+02  0.22174950506E+03  0.23540588740E+03  0.00000000000E+00 0.  1.
         -1    1    6    6    0  502 -0.11200794053E+03  0.22447255137E+03  0.16500050076E+03  0.30026466710E+03  0.00000000000E+00 0.  1.
<mgrwt>
<rscale>  0 0.26595804E+04</rscale>
<asrwt>0</asrwt>
<pdfrwt beam="1">  1        2 0.97378093E-01 0.26595804E+04</pdfrwt>
<pdfrwt beam="2">  1       -2 0.42981174E+00 0.26595804E+04</pdfrwt>
<totfact> 0.19298411E-01</totfact>
</mgrwt>
</event>
<event>
12    1  0.1532786E-007  0.1076990E+04  0.7818608E-02  0.9227914E-01
         -2   -1    0    0    0  501 -0.00000000000E+00  0.00000000000E+00  0.46230877058E+03  0.46230877058E+03  0.00000000000E+00 0. -1.
          2   -1    0    0  501    0  0.00000000000E+00 -0.00000000000E+00 -0.62723606129E+03  0.62723606129E+03  0.00000000000E+00 0.  1.
         23    2    1    2    0    0 -0.12669536676E+03 -0.16393289774E+02  0.32197622101E+02  0.16145302717E+03  0.93327044345E+02 0.  0.
        254    2    1    2    0    0  0.12669536676E+03  0.16393289774E+02 -0.19712491281E+03  0.92809180470E+03  0.89787288119E+03 0.  0.
        -24    2    4    4    0    0  0.51981531819E+02  0.40579970107E+03  0.96843609130E+02  0.42813192892E+03  0.80887495234E+02 0.  0.
         24    2    4    4    0    0  0.74713834942E+02 -0.38940641130E+03 -0.29396852194E+03  0.49995987578E+03  0.79516509007E+02 0.  0.
         13    1    3    3    0    0  0.12712272838E+02 -0.28347997361E+01  0.15730852416E+02  0.20422969617E+02  0.00000000000E+00 0.  1.
        -13    1    3    3    0    0 -0.13940763960E+03 -0.13558490038E+02  0.16466769686E+02  0.14103005756E+03  0.00000000000E+00 0. -1.
          2    1    6    6  502    0  0.70893603965E+02 -0.33851483748E+03 -0.21932782482E+03  0.40953985522E+03  0.00000000000E+00 0. -1.
          3    1    5    5  503    0  0.52612570963E+02  0.34306396937E+03  0.51848709144E+02  0.35092628620E+03  0.00000000000E+00 0. -1.
         -4    1    5    5    0  503 -0.63103914358E+00  0.62735731700E+02  0.44994899986E+02  0.77205642715E+02  0.00000000000E+00 0.  1.
         -1    1    6    6    0  502  0.38202309764E+01 -0.50891573821E+02 -0.74640697121E+02  0.90420020556E+02  0.00000000000E+00 0.  1.
<mgrwt>
<rscale>  0 0.10769898E+04</rscale>
<asrwt>0</asrwt>
<pdfrwt beam="1">  1        2 0.96497856E-01 0.10769898E+04</pdfrwt>
<pdfrwt beam="2">  1       -2 0.71124426E-01 0.10769898E+04</pdfrwt>
<totfact> 0.83907926E+01</totfact>
</mgrwt>
</event>
<event>
12    1  0.1532786E-007  0.1711194E+04  0.7818608E-02  0.8755005E-01
          1   -1    0    0  501    0  0.00000000000E+00  0.00000000000E+00  0.13406112102E+04  0.13406112102E+04  0.00000000000E+00 0. -1.
         -1   -1    0    0    0  501 -0.00000000000E+00 -0.00000000000E+00 -0.54605427310E+03  0.54605427310E+03  0.00000000000E+00 0.  1.
         23    2    1    2    0    0  0.35595405914E+03  0.40714002383E+03 -0.32908422316E+02  0.54956916551E+03  0.92070691303E+02 0.  0.
        254    2    1    2    0    0 -0.35595405914E+03 -0.40714002383E+03  0.82746535940E+03  0.13370963178E+04  0.90036734214E+03 0.  0.
        -24    2    4    4    0    0  0.19497475853E+03 -0.43432803754E+03  0.47812080354E+03  0.67937879268E+03  0.79372794510E+02 0.  0.
         24    2    4    4    0    0 -0.55092881767E+03  0.27188013704E+02  0.34934455587E+03  0.65771752511E+03  0.79303050934E+02 0.  0.
         11    1    3    3    0    0  0.18619312204E+03  0.19982204764E+03  0.28686974606E+02  0.27462642250E+03  0.00000000000E+00 0. -1.
        -11    1    3    3    0    0  0.16976093710E+03  0.20731797619E+03 -0.61595396922E+02  0.27494274302E+03  0.00000000000E+00 0.  1.
          2    1    6    6  502    0 -0.48039072158E+01  0.81049546783E+01  0.12962731924E+02  0.16024987794E+02  0.00000000000E+00 0. -1.
          1    1    5    5  503    0  0.55447275998E+02 -0.70197964919E+02  0.60416060867E+02  0.10794561179E+03  0.00000000000E+00 0. -1.
         -2    1    5    5    0  503  0.13952748253E+03 -0.36413007262E+03  0.41770474267E+03  0.57143318088E+03  0.00000000000E+00 0.  1.
         -1    1    6    6    0  502 -0.54612491046E+03  0.19083059026E+02  0.33638182394E+03  0.64169253731E+03  0.00000000000E+00 0.  1.
<mgrwt>
<rscale>  0 0.17111943E+04</rscale>
<asrwt>0</asrwt>
<pdfrwt beam="1">  1        1 0.20624788E+00 0.17111943E+04</pdfrwt>
<pdfrwt beam="2">  1       -1 0.84008350E-01 0.17111943E+04</pdfrwt>
<totfact> 0.11298772E+01</totfact>
</mgrwt>
</event>
<event>
12    1  0.1532786E-007  0.2209682E+04  0.7818608E-02  0.8514409E-01
         -2   -1    0    0    0  501 -0.00000000000E+00  0.00000000000E+00  0.44662106729E+03  0.44662106729E+03  0.00000000000E+00 0. -1.
          2   -1    0    0  501    0  0.00000000000E+00 -0.00000000000E+00 -0.27331295571E+04  0.27331295571E+04  0.00000000000E+00 0.  1.
         23    2    1    2    0    0  0.28312733128E+03  0.82461158856E+03 -0.13706025518E+04  0.16273372784E+04  0.97621232870E+02 0.  0.
        254    2    1    2    0    0 -0.28312733128E+03 -0.82461158856E+03 -0.91590593806E+03  0.15524133460E+04  0.90053214920E+03 0.  0.
        -24    2    4    4    0    0 -0.42092917481E+03 -0.44490374260E+03 -0.95652469800E+03  0.11386748198E+04  0.80747364681E+02 0.  0.
         24    2    4    4    0    0  0.13780184352E+03 -0.37970784596E+03  0.40618759944E+02  0.41373852623E+03  0.79763952165E+02 0.  0.
         11    1    3    3    0    0  0.22127754957E+03  0.73411193832E+03 -0.11728315536E+04  0.14012201629E+04  0.00000000000E+00 0.  1.
        -11    1    3    3    0    0  0.61849781718E+02  0.90499650243E+02 -0.19777099823E+03  0.22611711552E+03  0.00000000000E+00 0. -1.
          2    1    6    6  502    0  0.10737335934E+03 -0.21348743650E+03  0.51321600520E+02  0.24441732860E+03  0.00000000000E+00 0. -1.
          1    1    5    5  503    0 -0.13205180450E+03 -0.19592900662E+03 -0.37739495308E+03  0.44525588746E+03  0.00000000000E+00 0. -1.
         -2    1    5    5    0  503 -0.28887737030E+03 -0.24897473598E+03 -0.57912974492E+03  0.69341893231E+03  0.00000000000E+00 0.  1.
         -1    1    6    6    0  502  0.30428484180E+02 -0.16622040946E+03 -0.10702840575E+02  0.16932119763E+03  0.00000000000E+00 0.  1.
<mgrwt>
<rscale>  0 0.22096816E+04</rscale>
<asrwt>0</asrwt>
<pdfrwt beam="1">  1        2 0.42048146E+00 0.22096816E+04</pdfrwt>
<pdfrwt beam="2">  1       -2 0.68710934E-01 0.22096816E+04</pdfrwt>
<totfact> 0.44879385E+00</totfact>
</mgrwt>
</event>
<event>
12    1  0.1532786E-007  0.1934566E+04  0.7818608E-02  0.8637840E-01
          2   -1    0    0  501    0  0.00000000000E+00  0.00000000000E+00  0.21279514822E+04  0.21279514822E+04  0.00000000000E+00 0. -1.
         -2   -1    0    0    0  501 -0.00000000000E+00 -0.00000000000E+00 -0.43968857870E+03  0.43968857870E+03  0.00000000000E+00 0.  1.
         23    2    1    2    0    0 -0.36903456980E+03  0.31905290361E+03  0.13960431510E+04  0.14817043654E+04  0.92358421177E+02 0.  0.
        254    2    1    2    0    0  0.36903456980E+03 -0.31905290361E+03  0.29221975250E+03  0.10859356955E+04  0.92513927709E+03 0.  0.
        -24    2    4    4    0    0 -0.35373458974E+02  0.28199969744E+03  0.18666469677E+03  0.34948774787E+03  0.80764261515E+02 0.  0.
         24    2    4    4    0    0  0.40440802878E+03 -0.60105260105E+03  0.10555505573E+03  0.73644794764E+03  0.80022664454E+02 0.  0.
         11    1    3    3    0    0 -0.72378270850E+02  0.27972893725E+02  0.28835053845E+03  0.29860865677E+03  0.00000000000E+00 0.  1.
        -11    1    3    3    0    0 -0.29665629895E+03  0.29108000988E+03  0.11076926125E+04  0.11830957086E+04  0.00000000000E+00 0. -1.
          2    1    6    6  502    0  0.15597075774E+03 -0.25534785332E+03  0.61307230748E+01  0.29927744524E+03  0.00000000000E+00 0. -1.
          1    1    5    5  503    0 -0.39273899076E+02  0.15692703358E+03  0.14600887888E+03  0.21791540958E+03  0.00000000000E+00 0. -1.
         -2    1    5    5    0  503  0.39004401024E+01  0.12507266385E+03  0.40655817884E+02  0.13157233830E+03  0.00000000000E+00 0.  1.
         -1    1    6    6    0  502  0.24843727104E+03 -0.34570474772E+03  0.99424332660E+02  0.43717050240E+03  0.00000000000E+00 0.  1.
<mgrwt>
<rscale>  0 0.19345655E+04</rscale>
<asrwt>0</asrwt>
<pdfrwt beam="1">  1        2 0.32737715E+00 0.19345655E+04</pdfrwt>
<pdfrwt beam="2">  1       -2 0.67644398E-01 0.19345655E+04</pdfrwt>
<totfact> 0.10602708E+01</totfact>
</mgrwt>
</event>
<event>
12    1  0.1532786E-007  0.1138547E+04  0.7818608E-02  0.9168415E-01
          1   -1    0    0  501    0  0.00000000000E+00  0.00000000000E+00  0.60382191489E+03  0.60382191489E+03  0.00000000000E+00 0. -1.
         -1   -1    0    0    0  501 -0.00000000000E+00 -0.00000000000E+00 -0.53670166284E+03  0.53670166284E+03  0.00000000000E+00 0.  1.
         23    2    1    2    0    0 -0.10443800072E+03  0.56001970915E+02 -0.15455872031E+03  0.21468342255E+03  0.90316427911E+02 0.  0.
        254    2    1    2    0    0  0.10443800072E+03 -0.56001970915E+02  0.22167897236E+03  0.92584015519E+03  0.89106391995E+03 0.  0.
        -24    2    4    4    0    0 -0.11132680833E+03  0.18906546567E+03 -0.25263023949E+03  0.34481308309E+03  0.83274340631E+02 0.  0.
         24    2    4    4    0    0  0.21576480905E+03 -0.24506743658E+03  0.47430921185E+03  0.58102707209E+03  0.77528889870E+02 0.  0.
         11    1    3    3    0    0 -0.10769496619E+03  0.29727838684E+02 -0.85380753639E+02  0.14061231535E+03  0.00000000000E+00 0. -1.
        -11    1    3    3    0    0  0.32569654691E+01  0.26274132232E+02 -0.69177966675E+02  0.74071107201E+02  0.00000000000E+00 0.  1.
          4    1    6    6  502    0  0.15621389090E+02 -0.32525733440E+02  0.20725868398E+02  0.41611449791E+02  0.00000000000E+00 0. -1.
          3    1    5    5  503    0 -0.15159580105E+02 -0.56939578381E+01 -0.94399364639E+01  0.18744237121E+02  0.00000000000E+00 0. -1.
         -4    1    5    5    0  503 -0.96167228230E+02  0.19475942350E+03 -0.24319030302E+03  0.32606884597E+03  0.00000000000E+00 0.  1.
         -3    1    6    6    0  502  0.20014341996E+03 -0.21254170314E+03  0.45358334345E+03  0.53941562230E+03  0.00000000000E+00 0.  1.
<mgrwt>
<rscale>  0 0.11385468E+04</rscale>
<asrwt>0</asrwt>
<pdfrwt beam="1">  1        1 0.92895679E-01 0.11385468E+04</pdfrwt>
<pdfrwt beam="2">  1       -1 0.82569487E-01 0.11385468E+04</pdfrwt>
<totfact> 0.49195024E+01</totfact>
</mgrwt>
</event>
<event>
12    1  0.1532786E-007  0.1509732E+04  0.7818608E-02  0.8878007E-01
          2   -1    0    0  501    0  0.00000000000E+00  0.00000000000E+00  0.22465783049E+04  0.22465783049E+04  0.00000000000E+00 0. -1.
         -2   -1    0    0    0  501 -0.00000000000E+00 -0.00000000000E+00 -0.25364009227E+03  0.25364009227E+03  0.00000000000E+00 0.  1.
         23    2    1    2    0    0  0.37055346904E+03  0.14329562826E+03  0.19745214613E+03  0.45865674994E+03  0.11634067972E+03 0.  0.
        254    2    1    2    0    0 -0.37055346904E+03 -0.14329562826E+03  0.17954860665E+04  0.20415616473E+04  0.88676954953E+03 0.  0.
        -24    2    4    4    0    0 -0.21430659031E+03  0.34517698841E+03  0.51919304471E+03  0.66407381321E+03  0.79737969176E+02 0.  0.
         24    2    4    4    0    0 -0.15624687873E+03 -0.48847261667E+03  0.12762930218E+04  0.13774878341E+04  0.74365792399E+02 0.  0.
         11    1    3    3    0    0  0.24216899742E+03  0.12243833448E+03  0.18407430995E+03  0.32790291344E+03  0.00000000000E+00 0.  1.
        -11    1    3    3    0    0  0.12838447162E+03  0.20857293776E+02  0.13377836178E+02  0.13075383650E+03  0.00000000000E+00 0. -1.
          4    1    6    6  502    0 -0.31646708969E+02 -0.41601200731E+02  0.96226944347E+02  0.10950707242E+03  0.00000000000E+00 0. -1.
          3    1    5    5  503    0 -0.61578862740E+02  0.13175644261E+03  0.13255483409E+03  0.19678033577E+03  0.00000000000E+00 0. -1.
         -4    1    5    5    0  503 -0.15272772757E+03  0.21342054580E+03  0.38663821062E+03  0.46729347744E+03  0.00000000000E+00 0.  1.
         -3    1    6    6    0  502 -0.12460016976E+03 -0.44687141594E+03  0.11800660775E+04  0.12679807616E+04  0.00000000000E+00 0.  1.
<mgrwt>
<rscale>  0 0.15097315E+04</rscale>
<asrwt>0</asrwt>
<pdfrwt beam="1">  1        2 0.34562742E+00 0.15097315E+04</pdfrwt>
<pdfrwt beam="2">  1       -2 0.39021554E-01 0.15097315E+04</pdfrwt>
<totfact> 0.29169896E+01</totfact>
</mgrwt>
</event>
<event>
12    1  0.1532786E-007  0.2423125E+04  0.7818608E-02  0.8430897E-01
          1   -1    0    0  501    0  0.00000000000E+00  0.00000000000E+00  0.28066885594E+04  0.28066885594E+04  0.00000000000E+00 0. -1.
         -1   -1    0    0    0  501 -0.00000000000E+00 -0.00000000000E+00 -0.52299466197E+03  0.52299466197E+03  0.00000000000E+00 0.  1.
         23    2    1    2    0    0 -0.37808003731E+03 -0.58540160022E+03  0.20418392540E+04  0.21594055902E+04  0.91024258034E+02 0.  0.
        254    2    1    2    0    0  0.37808003731E+03  0.58540160022E+03  0.24185464346E+03  0.11702776312E+04  0.90852436260E+03 0.  0.
        -24    2    4    4    0    0  0.61612966171E+03  0.21904098786E+03 -0.11337087636E+02  0.65887184480E+03  0.79930369114E+02 0.  0.
         24    2    4    4    0    0 -0.23804962440E+03  0.36636061236E+03  0.25319173110E+03  0.51140578643E+03  0.80883272254E+02 0.  0.
         11    1    3    3    0    0 -0.37598304344E+03 -0.57880525510E+03  0.20375180353E+04  0.21512458056E+04  0.00000000000E+00 0. -1.
        -11    1    3    3    0    0 -0.20969938638E+01 -0.65963451264E+01  0.43212187503E+01  0.81597845425E+01  0.00000000000E+00 0.  1.
          4    1    6    6  502    0 -0.21368647692E+03  0.32084638210E+03  0.25045497770E+03  0.45970861116E+03  0.00000000000E+00 0. -1.
          1    1    5    5  503    0  0.61325799457E+03  0.22360153054E+03 -0.85541591933E+01  0.65280639244E+03  0.00000000000E+00 0. -1.
         -2    1    5    5    0  503  0.28716671380E+01 -0.45605426738E+01 -0.27829284426E+01  0.60654523613E+01  0.00000000000E+00 0.  1.
         -3    1    6    6    0  502 -0.24363147484E+02  0.45514230260E+02  0.27367534039E+01  0.51697175268E+02  0.00000000000E+00 0.  1.
<mgrwt>
<rscale>  0 0.24231245E+04</rscale>
<asrwt>0</asrwt>
<pdfrwt beam="1">  1        1 0.43179823E+00 0.24231245E+04</pdfrwt>
<pdfrwt beam="2">  1       -1 0.80460719E-01 0.24231245E+04</pdfrwt>
<totfact> 0.11358557E+00</totfact>
</mgrwt>
</event>
<event>
12    1  0.1532786E-007  0.2554479E+04  0.7818608E-02  0.8383830E-01
         -1   -1    0    0    0  501 -0.00000000000E+00  0.00000000000E+00  0.66995955751E+03  0.66995955751E+03  0.00000000000E+00 0.  1.
          1   -1    0    0  501    0  0.00000000000E+00 -0.00000000000E+00 -0.24349834216E+04  0.24349834216E+04  0.00000000000E+00 0. -1.
         23    2    1    2    0    0 -0.37630574891E+03  0.66158982115E+03 -0.17557257001E+04  0.19157341967E+04  0.90319823924E+02 0.  0.
        254    2    1    2    0    0  0.37630574891E+03 -0.66158982115E+03 -0.92981640791E+01  0.11892087824E+04  0.91368701654E+03 0.  0.
        -24    2    4    4    0    0  0.49580427369E+03 -0.40767334108E+02 -0.17160547678E+03  0.53177464073E+03  0.76498206048E+02 0.  0.
         24    2    4    4    0    0 -0.11949852478E+03 -0.62082248704E+03  0.16230731270E+03  0.65743414168E+03  0.78584534440E+02 0.  0.
         11    1    3    3    0    0 -0.13150236844E+03  0.25555389983E+03 -0.56012886009E+03  0.62955937650E+03  0.00000000000E+00 0.  1.
        -11    1    3    3    0    0 -0.24480338047E+03  0.40603592132E+03 -0.11955968400E+04  0.12861748202E+04  0.00000000000E+00 0. -1.
          4    1    6    6  502    0 -0.12199403157E+03 -0.60199348025E+03  0.14363824720E+03  0.63080158534E+03  0.00000000000E+00 0. -1.
          3    1    5    5  503    0  0.46101912991E+03 -0.43238234070E+02 -0.13757173703E+03  0.48304675328E+03  0.00000000000E+00 0. -1.
         -4    1    5    5    0  503  0.34785143783E+02  0.24708999616E+01 -0.34033739744E+02  0.48727887453E+02  0.00000000000E+00 0.  1.
         -3    1    6    6    0  502  0.24955067927E+01 -0.18829006787E+02  0.18669065500E+02  0.26632556343E+02  0.00000000000E+00 0.  1.
<mgrwt>
<rscale>  0 0.25544787E+04</rscale>
<asrwt>0</asrwt>
<pdfrwt beam="1">  1        1 0.37461284E+00 0.25544787E+04</pdfrwt>
<pdfrwt beam="2">  1       -1 0.10307070E+00 0.25544787E+04</pdfrwt>
<totfact> 0.11807192E+00</totfact>
</mgrwt>
</event>
<event>
12    1  0.1532786E-007  0.1527449E+04  0.7818608E-02  0.8866402E-01
          3   -1    0    0  501    0  0.00000000000E+00  0.00000000000E+00  0.10523690409E+04  0.10523690409E+04  0.00000000000E+00 0. -1.
         -3   -1    0    0    0  501 -0.00000000000E+00 -0.00000000000E+00 -0.55424981795E+03  0.55424981795E+03  0.00000000000E+00 0.  1.
         23    2    1    2    0    0 -0.34163303242E+02 -0.48929827994E+03  0.15936593598E+03  0.52422688855E+03  0.94002080231E+02 0.  0.
        254    2    1    2    0    0  0.34163303242E+02  0.48929827994E+03  0.33875328697E+03  0.10823919703E+04  0.90345926853E+03 0.  0.
        -24    2    4    4    0    0  0.30828775087E+03  0.53864958517E+03  0.45236156612E+03  0.77213645102E+03  0.79868639388E+02 0.  0.
         24    2    4    4    0    0 -0.27412444763E+03 -0.49351305229E+02 -0.11360827914E+03  0.31025551928E+03  0.75972903326E+02 0.  0.
         13    1    3    3    0    0 -0.33504082511E+02 -0.49118546999E+03  0.15002981799E+03  0.51467915808E+03  0.00000000000E+00 0. -1.
        -13    1    3    3    0    0 -0.65922073091E+00  0.18871900442E+01  0.93361179832E+01  0.95477304754E+01  0.00000000000E+00 0.  1.
          2    1    6    6  502    0 -0.15378232586E+03 -0.52285387831E+02 -0.95780220714E+02  0.18856462077E+03  0.00000000000E+00 0. -1.
          3    1    5    5  503    0  0.12014448824E+03  0.26609030553E+03  0.17694191924E+03  0.34139008705E+03  0.00000000000E+00 0. -1.
         -4    1    5    5    0  503  0.18814326263E+03  0.27255927965E+03  0.27541964687E+03  0.43074636398E+03  0.00000000000E+00 0.  1.
         -1    1    6    6    0  502 -0.12034212177E+03  0.29340826017E+01 -0.17828058430E+02  0.12169089851E+03  0.00000000000E+00 0.  1.
<mgrwt>
<rscale>  0 0.15274493E+04</rscale>
<asrwt>0</asrwt>
<pdfrwt beam="1">  1        3 0.16190293E+00 0.15274493E+04</pdfrwt>
<pdfrwt beam="2">  1       -3 0.85269203E-01 0.15274493E+04</pdfrwt>
<totfact> 0.84259171E-01</totfact>
</mgrwt>
</event>
<event>
12    1  0.1532786E-007  0.4366516E+04  0.7818608E-02  0.7934432E-01
          2   -1    0    0  501    0  0.00000000000E+00  0.00000000000E+00  0.28426169168E+04  0.28426169168E+04  0.00000000000E+00 0. -1.
         -2   -1    0    0    0  501 -0.00000000000E+00 -0.00000000000E+00 -0.16768408636E+04  0.16768408636E+04  0.00000000000E+00 0.  1.
         23    2    1    2    0    0  0.93602169109E+03  0.10197989835E+04 -0.10632237552E+04  0.17477701290E+04  0.90161507109E+02 0.  0.
        254    2    1    2    0    0 -0.93602169109E+03 -0.10197989835E+04  0.22289998084E+04  0.27716876514E+04  0.89313253086E+03 0.  0.
        -24    2    4    4    0    0 -0.55835648245E+03 -0.56948905863E+03  0.19658457442E+04  0.21227467985E+04  0.73652775751E+02 0.  0.
         24    2    4    4    0    0 -0.37766520864E+03 -0.45030992487E+03  0.26315406430E+03  0.64894085285E+03  0.80399817735E+02 0.  0.
         11    1    3    3    0    0  0.19607253706E+03  0.26837438475E+03 -0.26799735627E+03  0.42695647688E+03  0.00000000000E+00 0. -1.
        -11    1    3    3    0    0  0.73994915403E+03  0.75142459875E+03 -0.79522639897E+03  0.13208136522E+04  0.00000000000E+00 0.  1.
          2    1    6    6  502    0 -0.26698831069E+03 -0.27326782892E+03  0.19748024303E+03  0.43006570516E+03  0.00000000000E+00 0. -1.
          1    1    5    5  503    0 -0.49067365200E+03 -0.52868047299E+03  0.17456998418E+04  0.18888439885E+04  0.00000000000E+00 0. -1.
         -2    1    5    5    0  503 -0.67682830451E+02 -0.40808585640E+02  0.22014590235E+03  0.23390280999E+03  0.00000000000E+00 0.  1.
         -1    1    6    6    0  502 -0.11067689796E+03 -0.17704209595E+03  0.65673821269E+02  0.21887514770E+03  0.00000000000E+00 0.  1.
<mgrwt>
<rscale>  0 0.43665163E+04</rscale>
<asrwt>0</asrwt>
<pdfrwt beam="1">  1        2 0.43732568E+00 0.43665163E+04</pdfrwt>
<pdfrwt beam="2">  1       -2 0.25797552E+00 0.43665163E+04</pdfrwt>
<totfact> 0.95762358E-02</totfact>
</mgrwt>
</event>
<event>
12    1  0.1532786E-007  0.2461839E+04  0.7818608E-02  0.8416708E-01
          1   -1    0    0  501    0  0.00000000000E+00  0.00000000000E+00  0.14156742038E+04  0.14156742038E+04  0.00000000000E+00 0. -1.
         -1   -1    0    0    0  501 -0.00000000000E+00 -0.00000000000E+00 -0.10702765541E+04  0.10702765541E+04  0.00000000000E+00 0.  1.
         23    2    1    2    0    0 -0.74430494950E+03 -0.46781053909E+03  0.73874575532E+03  0.11517862418E+04  0.89608579264E+02 0.  0.
        254    2    1    2    0    0  0.74430494950E+03  0.46781053909E+03 -0.39334810560E+03  0.13341645162E+04  0.92327442597E+03 0.  0.
        -24    2    4    4    0    0  0.66667307064E+03  0.72878995012E+03 -0.31624627536E+03  0.10401656143E+04  0.79655658556E+02 0.  0.
         24    2    4    4    0    0  0.77631878865E+02 -0.26097941103E+03 -0.77101830236E+02  0.29399890188E+03  0.79710102750E+02 0.  0.
         11    1    3    3    0    0 -0.25994190588E+03 -0.15381563061E+03  0.30939406661E+03  0.43238146481E+03  0.00000000000E+00 0.  1.
        -11    1    3    3    0    0 -0.48436304362E+03 -0.31399490848E+03  0.42935168871E+03  0.71940477701E+03  0.00000000000E+00 0. -1.
          2    1    6    6  502    0  0.90659257481E+02 -0.21224734636E+03 -0.47913815751E+02  0.23571968680E+03  0.00000000000E+00 0. -1.
          3    1    5    5  503    0  0.37802312087E+03  0.47077566123E+03 -0.19115549809E+03  0.63330216134E+03  0.00000000000E+00 0. -1.
         -4    1    5    5    0  503  0.28864994977E+03  0.25801428889E+03 -0.12509077727E+03  0.40686345294E+03  0.00000000000E+00 0.  1.
         -1    1    6    6    0  502 -0.13027378616E+02 -0.48732064673E+02 -0.29188014485E+02  0.58279215081E+02  0.00000000000E+00 0.  1.
<mgrwt>
<rscale>  0 0.24618391E+04</rscale>
<asrwt>0</asrwt>
<pdfrwt beam="1">  1        1 0.21779603E+00 0.24618391E+04</pdfrwt>
<pdfrwt beam="2">  1       -1 0.16465793E+00 0.24618391E+04</pdfrwt>
<totfact> 0.17999173E+00</totfact>
</mgrwt>
</event>
<event>
12    1  0.1532786E-007  0.2149224E+04  0.7818608E-02  0.8539865E-01
          2   -1    0    0  501    0  0.00000000000E+00  0.00000000000E+00  0.10822281714E+04  0.10822281714E+04  0.00000000000E+00 0.  1.
         -2   -1    0    0    0  501 -0.00000000000E+00 -0.00000000000E+00 -0.10670492475E+04  0.10670492475E+04  0.00000000000E+00 0. -1.
         23    2    1    2    0    0  0.54509691745E+03  0.56309069621E+03 -0.40043942988E+03  0.88478975911E+03  0.91101038725E+02 0.  0.
        254    2    1    2    0    0 -0.54509691745E+03 -0.56309069621E+03  0.41561835379E+03  0.12644876598E+04  0.90110412506E+03 0.  0.
        -24    2    4    4    0    0  0.78571666949E+02  0.14332888647E+03 -0.77821086022E+02  0.19788822632E+03  0.79918409289E+02 0.  0.
         24    2    4    4    0    0 -0.62366858440E+03 -0.70641958267E+03  0.49343943981E+03  0.10665994335E+04  0.78490386504E+02 0.  0.
         11    1    3    3    0    0  0.25702814945E+03  0.25241780310E+03 -0.13434586441E+03  0.38448280614E+03  0.00000000000E+00 0.  1.
        -11    1    3    3    0    0  0.28806876800E+03  0.31067289310E+03 -0.26609356547E+03  0.50030695297E+03  0.00000000000E+00 0. -1.
          4    1    6    6  502    0 -0.50941794690E+03 -0.54110979818E+03  0.36358995431E+03  0.82734763744E+03  0.00000000000E+00 0. -1.
          3    1    5    5  503    0  0.70547180773E+02  0.48550354080E+02 -0.48166873287E+02  0.98255225198E+02  0.00000000000E+00 0. -1.
         -4    1    5    5    0  503  0.80244861761E+01  0.94778532386E+02 -0.29654212735E+02  0.99633001122E+02  0.00000000000E+00 0.  1.
         -3    1    6    6    0  502 -0.11425063750E+03 -0.16530978449E+03  0.12984948550E+03  0.23925179603E+03  0.00000000000E+00 0.  1.
<mgrwt>
<rscale>  0 0.21492238E+04</rscale>
<asrwt>0</asrwt>
<pdfrwt beam="1">  1        2 0.16649664E+00 0.21492238E+04</pdfrwt>
<pdfrwt beam="2">  1       -2 0.16416142E+00 0.21492238E+04</pdfrwt>
<totfact> 0.48152790E+00</totfact>
</mgrwt>
</event>
<event>
12    1  0.1532786E-007  0.2409468E+04  0.7818608E-02  0.8435967E-01
         -1   -1    0    0    0  501 -0.00000000000E+00  0.00000000000E+00  0.14428266654E+04  0.14428266654E+04  0.00000000000E+00 0.  1.
          1   -1    0    0  501    0  0.00000000000E+00 -0.00000000000E+00 -0.10059309506E+04  0.10059309506E+04  0.00000000000E+00 0. -1.
         23    2    1    2    0    0  0.79607216769E+03  0.61918438395E+03  0.32722298725E+03  0.10642790765E+04  0.92167629062E+02 0.  0.
        254    2    1    2    0    0 -0.79607216769E+03 -0.61918438395E+03  0.10967272754E+03  0.13844785394E+04  0.94214251649E+03 0.  0.
        -24    2    4    4    0    0 -0.94180589829E+03 -0.56091577960E+03  0.28580525985E+03  0.11354712179E+04  0.77365226096E+02 0.  0.
         24    2    4    4    0    0  0.14573373060E+03 -0.58268604347E+02 -0.17613253231E+03  0.24900732151E+03  0.79677015151E+02 0.  0.
         11    1    3    3    0    0  0.51923553616E+03  0.45125046274E+03  0.20013141262E+03  0.71643918406E+03  0.00000000000E+00 0. -1.
        -11    1    3    3    0    0  0.27683663154E+03  0.16793392121E+03  0.12709157463E+03  0.34783989247E+03  0.00000000000E+00 0.  1.
          4    1    6    6  502    0  0.53543447178E+02 -0.16710649688E+02 -0.12206729524E+03  0.13433752683E+03  0.00000000000E+00 0. -1.
          3    1    5    5  503    0 -0.88434910615E+03 -0.50384579931E+03  0.26913031404E+03  0.10527891797E+04  0.00000000000E+00 0. -1.
         -4    1    5    5    0  503 -0.57456792143E+02 -0.57069980297E+02  0.16674945811E+02  0.82682038148E+02  0.00000000000E+00 0.  1.
         -3    1    6    6    0  502  0.92190283423E+02 -0.41557954659E+02 -0.54065237068E+02  0.11466979468E+03  0.00000000000E+00 0.  1.
<mgrwt>
<rscale>  0 0.24094680E+04</rscale>
<asrwt>0</asrwt>
<pdfrwt beam="1">  1        1 0.15475861E+00 0.24094680E+04</pdfrwt>
<pdfrwt beam="2">  1       -1 0.22197333E+00 0.24094680E+04</pdfrwt>
<totfact> 0.14308713E+00</totfact>
</mgrwt>
</event>
<event>
12    1  0.1532786E-007  0.1232292E+04  0.7818608E-02  0.9085051E-01
          1   -1    0    0  501    0  0.00000000000E+00  0.00000000000E+00  0.46110576532E+03  0.46110576532E+03  0.00000000000E+00 0. -1.
         -1   -1    0    0    0  501 -0.00000000000E+00 -0.00000000000E+00 -0.82331666071E+03  0.82331666071E+03  0.00000000000E+00 0.  1.
         23    2    1    2    0    0 -0.22224502407E+03 -0.15713391634E+03 -0.21368874150E+02  0.28837959723E+03  0.92856044113E+02 0.  0.
        254    2    1    2    0    0  0.22224502407E+03  0.15713391634E+03 -0.34084202125E+03  0.99604282880E+03  0.89545748920E+03 0.  0.
        -24    2    4    4    0    0  0.33371138030E+03 -0.14461693721E+02  0.20995641459E+03  0.40296587736E+03  0.82020584986E+02 0.  0.
         24    2    4    4    0    0 -0.11146635622E+03  0.17159561006E+03 -0.55079843584E+03  0.59307695144E+03  0.80570164739E+02 0.  0.
         13    1    3    3    0    0 -0.58732582567E+01 -0.29516460652E+02  0.16526546687E+02  0.34334288363E+02  0.00000000000E+00 0.  1.
        -13    1    3    3    0    0 -0.21637176582E+03 -0.12761745569E+03 -0.37895420837E+02  0.25404530887E+03  0.00000000000E+00 0. -1.
          4    1    6    6  502    0  0.77596689818E+00  0.63238792531E+02 -0.13880071721E+03  0.15252995150E+03  0.00000000000E+00 0. -1.
          1    1    5    5  503    0  0.24668643908E+03  0.19477610257E+02  0.12750257625E+03  0.27837112544E+03  0.00000000000E+00 0. -1.
         -2    1    5    5    0  503  0.87024941213E+02 -0.33939303978E+02  0.82453838344E+02  0.12459475192E+03  0.00000000000E+00 0.  1.
         -3    1    6    6    0  502 -0.11224232312E+03  0.10835681753E+03 -0.41199771863E+03  0.44054699994E+03  0.00000000000E+00 0.  1.
<mgrwt>
<rscale>  0 0.12322923E+04</rscale>
<asrwt>0</asrwt>
<pdfrwt beam="1">  1        1 0.70939349E-01 0.12322923E+04</pdfrwt>
<pdfrwt beam="2">  1       -1 0.12666410E+00 0.12322923E+04</pdfrwt>
<totfact> 0.26491201E+01</totfact>
</mgrwt>
</event>
<event>
12    1  0.1532786E-007  0.1615444E+04  0.7818608E-02  0.8811116E-01
         -2   -1    0    0    0  501 -0.00000000000E+00  0.00000000000E+00  0.33124780264E+03  0.33124780264E+03  0.00000000000E+00 0. -1.
          2   -1    0    0  501    0  0.00000000000E+00 -0.00000000000E+00 -0.19695675382E+04  0.19695675382E+04  0.00000000000E+00 0.  1.
         23    2    1    2    0    0 -0.19088731597E+03  0.24294835173E+03  0.93678714166E+02  0.33284488363E+03  0.80920615792E+02 0.  0.
        254    2    1    2    0    0  0.19088731597E+03 -0.24294835173E+03 -0.17319984497E+04  0.19679704572E+04  0.88183174220E+03 0.  0.
        -24    2    4    4    0    0  0.38105060810E+03 -0.20020353138E+03 -0.17003347330E+04  0.17554377707E+04  0.71711524936E+02 0.  0.
         24    2    4    4    0    0 -0.19016329213E+03 -0.42744820355E+02 -0.31663716765E+02  0.21253268649E+03  0.78602509685E+02 0.  0.
         11    1    3    3    0    0 -0.27462493578E+02  0.38929141144E+01  0.19535798278E+02  0.33926254555E+02  0.00000000000E+00 0.  1.
        -11    1    3    3    0    0 -0.16342482240E+03  0.23905543762E+03  0.74142915888E+02  0.29891862907E+03  0.00000000000E+00 0. -1.
          4    1    6    6  502    0 -0.94538511448E+02  0.11209048199E+02  0.85969677021E+01  0.95588078555E+02  0.00000000000E+00 0. -1.
          1    1    5    5  503    0  0.46748606635E+02 -0.38234480469E+02 -0.16210250719E+03  0.17298708205E+03  0.00000000000E+00 0. -1.
         -2    1    5    5    0  503  0.33430200147E+03 -0.16196905091E+03 -0.15382322258E+04  0.15824506886E+04  0.00000000000E+00 0.  1.
         -3    1    6    6    0  502 -0.95624780680E+02 -0.53953868554E+02 -0.40260684467E+02  0.11694460794E+03  0.00000000000E+00 0.  1.
<mgrwt>
<rscale>  0 0.16154441E+04</rscale>
<asrwt>0</asrwt>
<pdfrwt beam="1">  1        2 0.30301038E+00 0.16154441E+04</pdfrwt>
<pdfrwt beam="2">  1       -2 0.50961202E-01 0.16154441E+04</pdfrwt>
<totfact> 0.24220236E+01</totfact>
</mgrwt>
</event>
<event>
12    1  0.1532786E-007  0.1247705E+04  0.7818608E-02  0.9072095E-01
         -1   -1    0    0    0  501 -0.00000000000E+00  0.00000000000E+00  0.45901904736E+03  0.45901904736E+03  0.00000000000E+00 0.  1.
          1   -1    0    0  501    0  0.00000000000E+00 -0.00000000000E+00 -0.84787817363E+03  0.84787817363E+03  0.00000000000E+00 0. -1.
         23    2    1    2    0    0  0.25827844594E+02 -0.28030438153E+03 -0.43044028069E+02  0.29769466401E+03  0.86785371871E+02 0.  0.
        254    2    1    2    0    0 -0.25827844594E+02  0.28030438153E+03 -0.34581509820E+03  0.10092025570E+04  0.90535302232E+03 0.  0.
        -24    2    4    4    0    0 -0.31405274836E+03  0.35716427373E+03 -0.47292496812E+03  0.67540055738E+03  0.79450866870E+02 0.  0.
         24    2    4    4    0    0  0.28822490377E+03 -0.76859892209E+02  0.12710986992E+03  0.33380199961E+03  0.79283149081E+02 0.  0.
         11    1    3    3    0    0 -0.17374716436E+02 -0.11843721979E+03  0.14442204564E+02  0.12057293675E+03  0.00000000000E+00 0.  1.
        -11    1    3    3    0    0  0.43202561030E+02 -0.16186716173E+03 -0.57486232633E+02  0.17712172727E+03  0.00000000000E+00 0. -1.
          4    1    6    6  502    0  0.17506277563E+02  0.89464234451E+01  0.25458692249E+02  0.32166026451E+02  0.00000000000E+00 0. -1.
          1    1    5    5  503    0 -0.10617384869E+03  0.11283998954E+03 -0.10448682859E+03  0.18687762502E+03  0.00000000000E+00 0. -1.
         -2    1    5    5    0  503 -0.20787889967E+03  0.24432428420E+03 -0.36843813953E+03  0.48852293236E+03  0.00000000000E+00 0.  1.
         -3    1    6    6    0  502  0.27071862620E+03 -0.85806315654E+02  0.10165117767E+03  0.30163597316E+03  0.00000000000E+00 0.  1.
<mgrwt>
<rscale>  0 0.12477055E+04</rscale>
<asrwt>0</asrwt>
<pdfrwt beam="1">  1        1 0.13044280E+00 0.12477055E+04</pdfrwt>
<pdfrwt beam="2">  1       -1 0.70618315E-01 0.12477055E+04</pdfrwt>
<totfact> 0.40202350E+01</totfact>
</mgrwt>
</event>
<event>
12    1  0.3732603E-007  0.2233052E+04  0.7818608E-02  0.8504796E-01
          1   -1    0    0  501    0  0.00000000000E+00  0.00000000000E+00  0.14616795688E+04  0.14616795688E+04  0.00000000000E+00 0. -1.
         -1   -1    0    0    0  501 -0.00000000000E+00 -0.00000000000E+00 -0.85287543100E+03  0.85287543100E+03  0.00000000000E+00 0.  1.
         23    2    1    2    0    0 -0.33190327056E+03  0.59975127830E+03  0.91080165791E+03  0.11463216638E+04  0.12096412685E+03 0.  0.
        254    2    1    2    0    0  0.33190327056E+03 -0.59975127830E+03 -0.30199752010E+03  0.11682333360E+04  0.89649609504E+03 0.  0.
        -24    2    4    4    0    0  0.54329672306E+03 -0.69010265272E+03 -0.27362377032E+03  0.92336042846E+03  0.79445028667E+02 0.  0.
         24    2    4    4    0    0 -0.21139345250E+03  0.90351374417E+02 -0.28373749787E+02  0.24487290757E+03  0.79417306458E+02 0.  0.
         13    1    3    3    0    0 -0.12819914905E+01  0.79589936866E+02  0.97716422278E+02  0.12603452200E+03  0.00000000000E+00 0.  1.
        -13    1    3    3    0    0 -0.33062127907E+03  0.52016134144E+03  0.81308523563E+03  0.10202871418E+04  0.00000000000E+00 0. -1.
          4    1    6    6  502    0 -0.10666746232E+03  0.82206573125E+02 -0.36466359198E+02  0.13951940200E+03  0.00000000000E+00 0. -1.
          3    1    5    5  503    0  0.34803829868E+03 -0.47952952683E+03 -0.15351044953E+03  0.61208225147E+03  0.00000000000E+00 0. -1.
         -4    1    5    5    0  503  0.19525842438E+03 -0.21057312589E+03 -0.12011332078E+03  0.31127817699E+03  0.00000000000E+00 0.  1.
         -3    1    6    6    0  502 -0.10472599018E+03  0.81448012918E+01  0.80926094118E+01  0.10535350556E+03  0.00000000000E+00 0.  1.
<mgrwt>
<rscale>  0 0.22330523E+04</rscale>
<asrwt>0</asrwt>
<pdfrwt beam="1">  1        1 0.22487378E+00 0.22330523E+04</pdfrwt>
<pdfrwt beam="2">  1       -1 0.13121161E+00 0.22330523E+04</pdfrwt>
<totfact> 0.31324935E+00</totfact>
</mgrwt>
</event>
<event>
12    1  0.1532786E-007  0.3088389E+04  0.7818608E-02  0.8218932E-01
          1   -1    0    0  501    0  0.00000000000E+00  0.00000000000E+00  0.22546555323E+04  0.22546555323E+04  0.00000000000E+00 0. -1.
         -1   -1    0    0    0  501 -0.00000000000E+00 -0.00000000000E+00 -0.10576056573E+04  0.10576056573E+04  0.00000000000E+00 0.  1.
         23    2    1    2    0    0  0.83377845096E+03 -0.10203140829E+04  0.37505021104E+01  0.13208513696E+04  0.91689373518E+02 0.  0.
        254    2    1    2    0    0 -0.83377845096E+03  0.10203140829E+04  0.11932993729E+04  0.19914098200E+04  0.89750896639E+03 0.  0.
        -24    2    4    4    0    0  0.11854218473E+03  0.45471532109E+03  0.27453578560E+03  0.55008432461E+03  0.80028706169E+02 0.  0.
         24    2    4    4    0    0 -0.95232063570E+03  0.56559876181E+03  0.91876358732E+03  0.14413254954E+04  0.80474230425E+02 0.  0.
         11    1    3    3    0    0  0.38965095288E+02 -0.34841266781E+02  0.16252237435E+02  0.54738722522E+02  0.00000000000E+00 0. -1.
        -11    1    3    3    0    0  0.79481335568E+03 -0.98547281612E+03 -0.12501735324E+02  0.12661126471E+04  0.00000000000E+00 0.  1.
          2    1    6    6  502    0 -0.17199450867E+03  0.76222683665E+02  0.18298287837E+03  0.26243997846E+03  0.00000000000E+00 0. -1.
          3    1    5    5  503    0 -0.77717026640E+01  0.71780821997E+02  0.56510276642E+02  0.91685861151E+02  0.00000000000E+00 0. -1.
         -4    1    5    5    0  503  0.12631388740E+03  0.38293449909E+03  0.21802550896E+03  0.45839846346E+03  0.00000000000E+00 0.  1.
         -3    1    6    6    0  502 -0.78032612702E+03  0.48937607815E+03  0.73578070895E+03  0.11788855169E+04  0.00000000000E+00 0.  1.
<mgrwt>
<rscale>  0 0.30883889E+04</rscale>
<asrwt>0</asrwt>
<pdfrwt beam="1">  1        1 0.34687008E+00 0.30883889E+04</pdfrwt>
<pdfrwt beam="2">  1       -1 0.16270856E+00 0.30883889E+04</pdfrwt>
<totfact> 0.47068270E-01</totfact>
</mgrwt>
</event>
<event>
12    1  0.1532786E-007  0.1279581E+04  0.7818608E-02  0.9045917E-01
          2   -1    0    0  501    0  0.00000000000E+00  0.00000000000E+00  0.88999480209E+03  0.88999480209E+03  0.00000000000E+00 0. -1.
         -2   -1    0    0    0  501 -0.00000000000E+00 -0.00000000000E+00 -0.45992579802E+03  0.45992579802E+03  0.00000000000E+00 0.  1.
         23    2    1    2    0    0 -0.12492997594E+03 -0.43138241593E+02  0.41419352173E+03  0.44407999111E+03  0.90456388856E+02 0.  0.
        254    2    1    2    0    0  0.12492997594E+03  0.43138241593E+02  0.15875482335E+02  0.90584060900E+03  0.89600601069E+03 0.  0.
        -24    2    4    4    0    0  0.47213445730E+03 -0.14908655060E+03  0.18401702138E+02  0.50196643631E+03  0.80584956430E+02 0.  0.
         24    2    4    4    0    0 -0.34720448136E+03  0.19222479219E+03 -0.25262198020E+01  0.40387417268E+03  0.74877519756E+02 0.  0.
         13    1    3    3    0    0 -0.65063229682E+02 -0.94878235479E+01  0.32460551683E+03  0.33119780224E+03  0.00000000000E+00 0. -1.
        -13    1    3    3    0    0 -0.59866746260E+02 -0.33650418046E+02  0.89588004908E+02  0.11288218888E+03  0.00000000000E+00 0.  1.
          2    1    6    6  502    0 -0.16597874128E+03  0.73857239225E+02  0.32642061053E+02  0.18457881377E+03  0.00000000000E+00 0. -1.
          1    1    5    5  503    0  0.24136209971E+03 -0.34801430072E+02  0.10295996573E+01  0.24386033459E+03  0.00000000000E+00 0. -1.
         -2    1    5    5    0  503  0.23077235760E+03 -0.11428512052E+03  0.17372102480E+02  0.25810610173E+03  0.00000000000E+00 0.  1.
         -1    1    6    6    0  502 -0.18122574008E+03  0.11836755297E+03 -0.35168280855E+02  0.21929535891E+03  0.00000000000E+00 0.  1.
<mgrwt>
<rscale>  0 0.12795805E+04</rscale>
<asrwt>0</asrwt>
<pdfrwt beam="1">  1        2 0.13692228E+00 0.12795805E+04</pdfrwt>
<pdfrwt beam="2">  1       -2 0.70757815E-01 0.12795805E+04</pdfrwt>
<totfact> 0.53097101E+01</totfact>
</mgrwt>
</event>
<event>
12    1  0.1532786E-007  0.1515555E+04  0.7818608E-02  0.8874174E-01
         -2   -1    0    0    0  501 -0.00000000000E+00  0.00000000000E+00  0.78538819092E+03  0.78538819092E+03  0.00000000000E+00 0.  1.
          2   -1    0    0  501    0  0.00000000000E+00 -0.00000000000E+00 -0.73113758997E+03  0.73113758997E+03  0.00000000000E+00 0. -1.
         23    2    1    2    0    0 -0.27540294726E+03  0.49867668265E+02  0.41815413164E+03  0.51145845159E+03  0.91669527039E+02 0.  0.
        254    2    1    2    0    0  0.27540294726E+03 -0.49867668265E+02 -0.36390353069E+03  0.10050673293E+04  0.89409227101E+03 0.  0.
        -24    2    4    4    0    0  0.22758605617E+03  0.39788459888E+03 -0.27020268965E+03  0.53822173816E+03  0.81028260139E+02 0.  0.
         24    2    4    4    0    0  0.47816891088E+02 -0.44775226714E+03 -0.93700841039E+02  0.46684559115E+03  0.79977562832E+02 0.  0.
         11    1    3    3    0    0 -0.22328221645E+03  0.78481695263E+01  0.28238864835E+03  0.36008317187E+03  0.00000000000E+00 0.  1.
        -11    1    3    3    0    0 -0.52120730817E+02  0.42019498738E+02  0.13576548330E+03  0.15137527972E+03  0.00000000000E+00 0. -1.
          2    1    6    6  502    0  0.58996427198E+02 -0.42284218276E+03 -0.74309855170E+02  0.43335671740E+03  0.00000000000E+00 0. -1.
          3    1    5    5  503    0  0.18156033848E+03  0.29302637960E+03 -0.16281184933E+03  0.38123000135E+03  0.00000000000E+00 0. -1.
         -4    1    5    5    0  503  0.46025717696E+02  0.10485821928E+03 -0.10739084032E+03  0.15699173681E+03  0.00000000000E+00 0.  1.
         -1    1    6    6    0  502 -0.11179536109E+02 -0.24910084381E+02 -0.19390985869E+02  0.33488873742E+02  0.00000000000E+00 0.  1.
<mgrwt>
<rscale>  0 0.15155551E+04</rscale>
<asrwt>0</asrwt>
<pdfrwt beam="1">  1        2 0.11248271E+00 0.15155551E+04</pdfrwt>
<pdfrwt beam="2">  1       -2 0.12082895E+00 0.15155551E+04</pdfrwt>
<totfact> 0.19520880E+01</totfact>
</mgrwt>
</event>
<event>
12    1  0.1532786E-007  0.1298159E+04  0.7818608E-02  0.9031026E-01
          1   -1    0    0  501    0  0.00000000000E+00  0.00000000000E+00  0.13475426685E+04  0.13475426685E+04  0.00000000000E+00 0. -1.
         -1   -1    0    0    0  501 -0.00000000000E+00 -0.00000000000E+00 -0.31264639699E+03  0.31264639699E+03  0.00000000000E+00 0.  1.
         23    2    1    2    0    0  0.24770717651E+03 -0.21834199536E+03  0.28297144893E+03  0.44444025170E+03  0.91772676719E+02 0.  0.
        254    2    1    2    0    0 -0.24770717651E+03  0.21834199536E+03  0.75192482263E+03  0.12157488138E+04  0.89644975721E+03 0.  0.
        -24    2    4    4    0    0 -0.14514525619E+03 -0.27418665519E+02 -0.17800836078E+03  0.24480928259E+03  0.80160337593E+02 0.  0.
         24    2    4    4    0    0 -0.10256192032E+03  0.24576066088E+03  0.92993318341E+03  0.97093953124E+03  0.83848659981E+02 0.  0.
         13    1    3    3    0    0  0.24196620604E+03 -0.20604396979E+03  0.28902632154E+03  0.42957883665E+03  0.00000000000E+00 0. -1.
        -13    1    3    3    0    0  0.57409704659E+01 -0.12298025570E+02 -0.60548726183E+01  0.14861415049E+02  0.00000000000E+00 0.  1.
          2    1    6    6  502    0 -0.21147298103E+02  0.31418649618E+02  0.26258018430E+03  0.26529736702E+03  0.00000000000E+00 0. -1.
          3    1    5    5  503    0 -0.12735163428E+03  0.18972281678E+01 -0.10855390093E+03  0.16734989583E+03  0.00000000000E+00 0. -1.
         -4    1    5    5    0  503 -0.17793621901E+02 -0.29315893686E+02 -0.69454459854E+02  0.77459386756E+02  0.00000000000E+00 0.  1.
         -1    1    6    6    0  502 -0.81414622221E+02  0.21434201126E+03  0.66735299911E+03  0.70564216422E+03  0.00000000000E+00 0.  1.
<mgrwt>
<rscale>  0 0.12981593E+04</rscale>
<asrwt>0</asrwt>
<pdfrwt beam="1">  1        1 0.20731425E+00 0.12981593E+04</pdfrwt>
<pdfrwt beam="2">  1       -1 0.48099446E-01 0.12981593E+04</pdfrwt>
<totfact> 0.35515240E+01</totfact>
</mgrwt>
</event>
<event>
12    1  0.1532786E-007  0.1268167E+04  0.7818608E-02  0.9055197E-01
          2   -1    0    0  501    0  0.00000000000E+00  0.00000000000E+00  0.19077481645E+04  0.19077481645E+04  0.00000000000E+00 0. -1.
         -2   -1    0    0    0  501 -0.00000000000E+00 -0.00000000000E+00 -0.21075193727E+03  0.21075193727E+03  0.00000000000E+00 0.  1.
         23    2    1    2    0    0  0.71407165730E+02  0.10107781917E+03 -0.24138412534E+02  0.15732472904E+03  0.94088780220E+02 0.  0.
        254    2    1    2    0    0 -0.71407165730E+02 -0.10107781917E+03  0.17211346397E+04  0.19611753727E+04  0.93198105427E+03 0.  0.
        -24    2    4    4    0    0  0.19373461146E+03 -0.19267940448E+03  0.81280452279E+02  0.29544326573E+03  0.77599991981E+02 0.  0.
         24    2    4    4    0    0 -0.26514177719E+03  0.91601585312E+02  0.16398541875E+04  0.16657321070E+04  0.82768856474E+02 0.  0.
         11    1    3    3    0    0 -0.55632145537E+01  0.65759172374E+01 -0.33972414710E+02  0.35047353750E+02  0.00000000000E+00 0.  1.
        -11    1    3    3    0    0  0.76970380284E+02  0.94501901933E+02  0.98340021757E+01  0.12227737529E+03  0.00000000000E+00 0. -1.
          4    1    6    6  502    0 -0.59714278517E+02  0.11253958273E+01  0.20856051504E+03  0.21694365630E+03  0.00000000000E+00 0. -1.
          3    1    5    5  503    0  0.35779298064E+02 -0.19497546591E+02  0.40640215801E+02  0.57549453806E+02  0.00000000000E+00 0. -1.
         -4    1    5    5    0  503  0.15795531339E+03 -0.17318185789E+03  0.40640236479E+02  0.23789381192E+03  0.00000000000E+00 0.  1.
         -1    1    6    6    0  502 -0.20542749867E+03  0.90476189485E+02  0.14312936724E+04  0.14487884507E+04  0.00000000000E+00 0.  1.
<mgrwt>
<rscale>  0 0.12681666E+04</rscale>
<asrwt>0</asrwt>
<pdfrwt beam="1">  1        2 0.29349971E+00 0.12681666E+04</pdfrwt>
<pdfrwt beam="2">  1       -2 0.32423376E-01 0.12681666E+04</pdfrwt>
<totfact> 0.65479674E+01</totfact>
</mgrwt>
</event>
<event>
12    1  0.1532786E-007  0.1208124E+04  0.7818608E-02  0.9105775E-01
         -2   -1    0    0    0  501 -0.00000000000E+00  0.00000000000E+00  0.29012517668E+03  0.29012517668E+03  0.00000000000E+00 0.  1.
          2   -1    0    0  501    0  0.00000000000E+00 -0.00000000000E+00 -0.12577025219E+04  0.12577025219E+04  0.00000000000E+00 0. -1.
         23    2    1    2    0    0  0.92615310370E+02 -0.28680554890E+02  0.89400894603E+02  0.15997727299E+03  0.90554061058E+02 0.  0.
        254    2    1    2    0    0 -0.92615310370E+02  0.28680554890E+02 -0.10569782399E+04  0.13878504256E+04  0.89416197328E+03 0.  0.
        -24    2    4    4    0    0 -0.23215218780E+03  0.93188082433E+02  0.49899668421E+02  0.26733783540E+03  0.80005526833E+02 0.  0.
         24    2    4    4    0    0  0.13953687743E+03 -0.64507527543E+02 -0.11068779083E+04  0.11205125902E+04  0.82085319961E+02 0.  0.
         13    1    3    3    0    0  0.91923058729E+02 -0.33842093382E+02  0.10496111701E+03  0.14356870165E+03  0.00000000000E+00 0.  1.
        -13    1    3    3    0    0  0.69225164154E+00  0.51615384919E+01 -0.15560222408E+02  0.16408571337E+02  0.00000000000E+00 0. -1.
          2    1    6    6  502    0  0.11179741546E+03 -0.25034592859E+02 -0.93497346388E+03  0.94196643842E+03  0.00000000000E+00 0. -1.
          3    1    5    5  503    0 -0.22856366024E+03  0.89255926420E+02  0.30548073557E+02  0.24726736942E+03  0.00000000000E+00 0. -1.
         -4    1    5    5    0  503 -0.35885275570E+01  0.39321560130E+01  0.19351594864E+02  0.20070465981E+02  0.00000000000E+00 0.  1.
         -1    1    6    6    0  502  0.27739461971E+02 -0.39472934684E+02 -0.17190444440E+03  0.17854615181E+03  0.00000000000E+00 0.  1.
<mgrwt>
<rscale>  0 0.12081244E+04</rscale>
<asrwt>0</asrwt>
<pdfrwt beam="1">  1        2 0.19349270E+00 0.12081244E+04</pdfrwt>
<pdfrwt beam="2">  1       -2 0.44634642E-01 0.12081244E+04</pdfrwt>
<totfact> 0.82133411E+01</totfact>
</mgrwt>
</event>
<event>
12    1  0.1532786E-007  0.1458742E+04  0.7818608E-02  0.8912362E-01
          2   -1    0    0  501    0  0.00000000000E+00  0.00000000000E+00  0.16087422579E+04  0.16087422579E+04  0.00000000000E+00 0. -1.
         -2   -1    0    0    0  501 -0.00000000000E+00 -0.00000000000E+00 -0.33068211921E+03  0.33068211921E+03  0.00000000000E+00 0.  1.
         23    2    1    2    0    0 -0.23086594909E+03  0.18260420115E+03 -0.50235580869E+02  0.30810298816E+03  0.75897674555E+02 0.  0.
        254    2    1    2    0    0  0.23086594909E+03 -0.18260420115E+03  0.13282957195E+04  0.16313213889E+04  0.90010920151E+03 0.  0.
        -24    2    4    4    0    0 -0.10708388973E+03  0.26437050706E+03  0.16718568673E+03  0.33970063259E+03  0.78017571675E+02 0.  0.
         24    2    4    4    0    0  0.33794983882E+03 -0.44697470822E+03  0.11611100328E+04  0.12916207563E+04  0.78174078399E+02 0.  0.
         11    1    3    3    0    0 -0.30606092237E+02  0.51398122946E+00  0.71148840727E+01  0.31426400273E+02  0.00000000000E+00 0. -1.
        -11    1    3    3    0    0 -0.20025985685E+03  0.18209021992E+03 -0.57350464942E+02  0.27667658789E+03  0.00000000000E+00 0.  1.
          4    1    6    6  502    0  0.29825910715E+03 -0.38433190172E+03  0.94036486810E+03  0.10587519024E+04  0.00000000000E+00 0. -1.
          1    1    5    5  503    0 -0.74649594700E+02  0.20607797447E+03  0.16245859533E+03  0.27282501488E+03  0.00000000000E+00 0. -1.
         -2    1    5    5    0  503 -0.32434295030E+02  0.58292532595E+02  0.47270913990E+01  0.66875617706E+02  0.00000000000E+00 0.  1.
         -3    1    6    6    0  502  0.39690731672E+02 -0.62642806498E+02  0.22074516470E+03  0.23286885391E+03  0.00000000000E+00 0.  1.
<mgrwt>
<rscale>  0 0.14587423E+04</rscale>
<asrwt>0</asrwt>
<pdfrwt beam="1">  1        2 0.24749880E+00 0.14587423E+04</pdfrwt>
<pdfrwt beam="2">  1       -2 0.50874173E-01 0.14587423E+04</pdfrwt>
<totfact> 0.39025321E+01</totfact>
</mgrwt>
</event>
<event>
12    1  0.1532786E-007  0.2829734E+04  0.7818608E-02  0.8294096E-01
          1   -1    0    0  501    0  0.00000000000E+00  0.00000000000E+00  0.12536174415E+04  0.12536174415E+04  0.00000000000E+00 0. -1.
         -1   -1    0    0    0  501 -0.00000000000E+00 -0.00000000000E+00 -0.15968578580E+04  0.15968578580E+04  0.00000000000E+00 0.  1.
         23    2    1    2    0    0 -0.11173715969E+04 -0.22380904703E+03  0.42390174566E+03  0.12191688932E+04  0.89834988076E+02 0.  0.
        254    2    1    2    0    0  0.11173715969E+04  0.22380904703E+03 -0.76714216216E+03  0.16313064062E+04  0.87979754424E+03 0.  0.
        -24    2    4    4    0    0  0.97902662054E+03 -0.52190486434E+01 -0.20514144800E+03  0.10034875265E+04  0.79898935562E+02 0.  0.
         24    2    4    4    0    0  0.13834497639E+03  0.22902809567E+03 -0.56200071415E+03  0.62781887974E+03  0.81966712471E+02 0.  0.
         11    1    3    3    0    0 -0.80082572408E+02 -0.77283630449E+01  0.54016578768E+02  0.96905813967E+02  0.00000000000E+00 0.  1.
        -11    1    3    3    0    0 -0.10372890245E+04 -0.21608068398E+03  0.36988516690E+03  0.11222630793E+04  0.00000000000E+00 0. -1.
          2    1    6    6  502    0 -0.11033367550E+02  0.12576210762E+02 -0.29471257012E+02  0.33888807393E+02  0.00000000000E+00 0. -1.
          1    1    5    5  503    0  0.32661969551E+02 -0.11824800017E+02 -0.16610674497E+02  0.38503826533E+02  0.00000000000E+00 0. -1.
         -2    1    5    5    0  503  0.94636465099E+03  0.66057513740E+01 -0.18853077351E+03  0.96498369994E+03  0.00000000000E+00 0.  1.
         -1    1    6    6    0  502  0.14937834394E+03  0.21645188491E+03 -0.53252945714E+03  0.59393007235E+03  0.00000000000E+00 0.  1.
<mgrwt>
<rscale>  0 0.28297342E+04</rscale>
<asrwt>0</asrwt>
<pdfrwt beam="1">  1        1 0.19286422E+00 0.28297342E+04</pdfrwt>
<pdfrwt beam="2">  1       -1 0.24567044E+00 0.28297342E+04</pdfrwt>
<totfact> 0.62768957E-01</totfact>
</mgrwt>
</event>
<event>
12    1  0.1532786E-007  0.1464400E+04  0.7818608E-02  0.8908478E-01
          2   -1    0    0  501    0  0.00000000000E+00  0.00000000000E+00  0.47769910067E+03  0.47769910067E+03  0.00000000000E+00 0. -1.
         -2   -1    0    0    0  501 -0.00000000000E+00 -0.00000000000E+00 -0.11222890833E+04  0.11222890833E+04  0.00000000000E+00 0.  1.
         23    2    1    2    0    0  0.26119772790E+03  0.33948758599E+03 -0.65224259587E+02  0.44307776783E+03  0.92669467496E+02 0.  0.
        254    2    1    2    0    0 -0.26119772790E+03 -0.33948758599E+03 -0.57936572309E+03  0.11569104162E+04  0.90515247107E+03 0.  0.
        -24    2    4    4    0    0  0.26893586183E+03 -0.33362084816E+03 -0.12438704103E+03  0.45384631645E+03  0.82915468234E+02 0.  0.
         24    2    4    4    0    0 -0.53013358972E+03 -0.58667378239E+01 -0.45497868205E+03  0.70306409973E+03  0.78851034493E+02 0.  0.
         13    1    3    3    0    0  0.47655603122E+02  0.12050679693E+03 -0.42465663616E+02  0.13636816785E+03  0.00000000000E+00 0.  1.
        -13    1    3    3    0    0  0.21354212478E+03  0.21898078905E+03 -0.22758595971E+02  0.30670959998E+03  0.00000000000E+00 0. -1.
          2    1    6    6  502    0 -0.41862812384E+03 -0.36356736987E+02 -0.34892430833E+03  0.54618631559E+03  0.00000000000E+00 0. -1.
          1    1    5    5  503    0  0.22368698440E+03 -0.21899888397E+03 -0.95323632033E+02  0.32723534802E+03  0.00000000000E+00 0. -1.
         -2    1    5    5    0  503  0.45248877429E+02 -0.11462196420E+03 -0.29063409002E+02  0.12661096843E+03  0.00000000000E+00 0.  1.
         -1    1    6    6    0  502 -0.11150546588E+03  0.30489999163E+02 -0.10605437373E+03  0.15687778414E+03  0.00000000000E+00 0.  1.
<mgrwt>
<rscale>  0 0.14643995E+04</rscale>
<asrwt>0</asrwt>
<pdfrwt beam="1">  1        2 0.73492170E-01 0.14643995E+04</pdfrwt>
<pdfrwt beam="2">  1       -2 0.17265986E+00 0.14643995E+04</pdfrwt>
<totfact> 0.12822165E+01</totfact>
</mgrwt>
</event>
<event>
12    1  0.1532786E-007  0.2175847E+04  0.7818608E-02  0.8528549E-01
         -2   -1    0    0    0  501 -0.00000000000E+00  0.00000000000E+00  0.83208981826E+03  0.83208981826E+03  0.00000000000E+00 0.  1.
          2   -1    0    0  501    0  0.00000000000E+00 -0.00000000000E+00 -0.14224153880E+04  0.14224153880E+04  0.00000000000E+00 0. -1.
         23    2    1    2    0    0  0.14023403671E+03  0.65612908869E+03  0.37692297665E+03  0.77501331457E+03  0.91671922453E+02 0.  0.
        254    2    1    2    0    0 -0.14023403671E+03 -0.65612908869E+03 -0.96724854639E+03  0.14794918917E+04  0.89618945600E+03 0.  0.
        -24    2    4    4    0    0 -0.21760991249E+03  0.16169918953E+03 -0.16121859681E+03  0.32570087215E+03  0.81172164290E+02 0.  0.
         24    2    4    4    0    0  0.77375875779E+02 -0.81782827821E+03 -0.80602994958E+03  0.11537910195E+04  0.81971448523E+02 0.  0.
         13    1    3    3    0    0  0.62101300344E+02  0.31544968545E+03  0.12866066758E+03  0.34629271280E+03  0.00000000000E+00 0. -1.
        -13    1    3    3    0    0  0.78132736369E+02  0.34067940323E+03  0.24826230907E+03  0.42872060177E+03  0.00000000000E+00 0.  1.
          2    1    6    6  502    0  0.62453985126E+02 -0.65923794554E+03 -0.69272916382E+03  0.95831563877E+03  0.00000000000E+00 0. -1.
          1    1    5    5  503    0 -0.20349430388E+03  0.11421441249E+03 -0.13635254484E+03  0.27027186353E+03  0.00000000000E+00 0. -1.
         -2    1    5    5    0  503 -0.14115608616E+02  0.47484777033E+02 -0.24866051974E+02  0.55429008626E+02  0.00000000000E+00 0.  1.
         -1    1    6    6    0  502  0.14921890653E+02 -0.15859033267E+03 -0.11330078576E+03  0.19547538078E+03  0.00000000000E+00 0.  1.
<mgrwt>
<rscale>  0 0.21758468E+04</rscale>
<asrwt>0</asrwt>
<pdfrwt beam="1">  1        2 0.21883314E+00 0.21758468E+04</pdfrwt>
<pdfrwt beam="2">  1       -2 0.12801382E+00 0.21758468E+04</pdfrwt>
<totfact> 0.58113711E+00</totfact>
</mgrwt>
</event>
<event>
12    1  0.1532786E-007  0.1634967E+04  0.7818608E-02  0.8799350E-01
         -1   -1    0    0    0  501 -0.00000000000E+00  0.00000000000E+00  0.78416595311E+03  0.78416595311E+03  0.00000000000E+00 0.  1.
          1   -1    0    0  501    0  0.00000000000E+00 -0.00000000000E+00 -0.85221647998E+03  0.85221647998E+03  0.00000000000E+00 0. -1.
         23    2    1    2    0    0  0.40710721029E+03  0.37929668994E+03 -0.13391202287E+03  0.57940409065E+03  0.90412447844E+02 0.  0.
        254    2    1    2    0    0 -0.40710721029E+03 -0.37929668994E+03  0.65861496004E+02  0.10569783424E+04  0.89624953002E+03 0.  0.
        -24    2    4    4    0    0 -0.33429382403E+03 -0.51786907755E+03 -0.27031093125E+03  0.67780168093E+03  0.80039845382E+02 0.  0.
         24    2    4    4    0    0 -0.72813386258E+02  0.13857238761E+03  0.33617242725E+03  0.37917666151E+03  0.79113487860E+02 0.  0.
         13    1    3    3    0    0  0.20241207955E+02  0.46765642937E+02 -0.28850947364E+02  0.58558594780E+02  0.00000000000E+00 0. -1.
        -13    1    3    3    0    0  0.38686600233E+03  0.33253104700E+03 -0.10506107551E+03  0.52084549587E+03  0.00000000000E+00 0.  1.
          2    1    6    6  502    0  0.35590478797E+01  0.83661886316E+01 -0.15786199996E+01  0.92277827853E+01  0.00000000000E+00 0. -1.
          1    1    5    5  503    0 -0.39760688998E+01  0.81158455380E+00  0.28204776233E+01  0.49419517812E+01  0.00000000000E+00 0. -1.
         -2    1    5    5    0  503 -0.33031775513E+03 -0.51868066211E+03 -0.27313140887E+03  0.67285972915E+03  0.00000000000E+00 0.  1.
         -1    1    6    6    0  502 -0.76372434137E+02  0.13020619898E+03  0.33775104725E+03  0.36994887872E+03  0.00000000000E+00 0.  1.
<mgrwt>
<rscale>  0 0.16349668E+04</rscale>
<asrwt>0</asrwt>
<pdfrwt beam="1">  1        1 0.13111023E+00 0.16349668E+04</pdfrwt>
<pdfrwt beam="2">  1       -1 0.12064092E+00 0.16349668E+04</pdfrwt>
<totfact> 0.11661135E+01</totfact>
</mgrwt>
</event>
<event>
12    1  0.1532786E-007  0.1924459E+04  0.7818608E-02  0.8642777E-01
          1   -1    0    0  501    0  0.00000000000E+00  0.00000000000E+00  0.10802583614E+04  0.10802583614E+04  0.00000000000E+00 0. -1.
         -1   -1    0    0    0  501 -0.00000000000E+00 -0.00000000000E+00 -0.85709622310E+03  0.85709622310E+03  0.00000000000E+00 0.  1.
         23    2    1    2    0    0  0.13440143942E+03  0.66557912808E+03  0.45485549792E+03  0.82238467923E+03  0.91453343285E+02 0.  0.
        254    2    1    2    0    0 -0.13440143942E+03 -0.66557912808E+03 -0.23169335960E+03  0.11149699053E+04  0.85347334708E+03 0.  0.
        -24    2    4    4    0    0  0.42191576733E+02 -0.35613178335E+03 -0.52908640432E+03  0.64414493412E+03  0.79876759184E+02 0.  0.
         24    2    4    4    0    0 -0.17659301615E+03 -0.30944734472E+03  0.29739304472E+03  0.47082497117E+03  0.79314424439E+02 0.  0.
         13    1    3    3    0    0  0.28130208495E+02  0.88900044877E+02  0.10118174046E+03  0.13759459005E+03  0.00000000000E+00 0.  1.
        -13    1    3    3    0    0  0.10627123092E+03  0.57667908320E+03  0.35367375746E+03  0.68479008918E+03  0.00000000000E+00 0. -1.
          2    1    6    6  502    0 -0.60631084295E+02 -0.15613261946E+03  0.98925378012E+02  0.19452442946E+03  0.00000000000E+00 0. -1.
          1    1    5    5  503    0  0.13186777744E+02 -0.16963983459E+02 -0.10751530442E+02  0.24026303272E+02  0.00000000000E+00 0. -1.
         -2    1    5    5    0  503  0.29004798989E+02 -0.33916779990E+03 -0.51833487388E+03  0.62011863085E+03  0.00000000000E+00 0.  1.
         -1    1    6    6    0  502 -0.11596193186E+03 -0.15331472526E+03  0.19846766670E+03  0.27630054171E+03  0.00000000000E+00 0.  1.
<mgrwt>
<rscale>  0 0.19244587E+04</rscale>
<asrwt>0</asrwt>
<pdfrwt beam="1">  1        1 0.16619359E+00 0.19244587E+04</pdfrwt>
<pdfrwt beam="2">  1       -1 0.13186096E+00 0.19244587E+04</pdfrwt>
<totfact> 0.59942090E+00</totfact>
</mgrwt>
</event>
<event>
12    1  0.1532786E-007  0.1245789E+04  0.7818608E-02  0.9073695E-01
          2   -1    0    0  501    0  0.00000000000E+00  0.00000000000E+00  0.32456933975E+04  0.32456933975E+04  0.00000000000E+00 0. -1.
         -2   -1    0    0    0  501 -0.00000000000E+00 -0.00000000000E+00 -0.11954225395E+03  0.11954225395E+03  0.00000000000E+00 0.  1.
         23    2    1    2    0    0  0.15602398613E+03  0.10988475470E+03  0.17384356535E+03  0.27371680243E+03  0.91000874500E+02 0.  0.
        254    2    1    2    0    0 -0.15602398613E+03 -0.10988475470E+03  0.29523075782E+04  0.30915188490E+04  0.89719040006E+03 0.  0.
        -24    2    4    4    0    0 -0.70139452133E+02 -0.12592708885E+03  0.29677467790E+04  0.29723505366E+04  0.81053032209E+02 0.  0.
         24    2    4    4    0    0 -0.85884533996E+02  0.16042334151E+02 -0.15439200832E+02  0.11916831233E+03  0.79556320159E+02 0.  0.
         13    1    3    3    0    0  0.83929465108E+02  0.71695818293E+02  0.40862043642E+02  0.11770366215E+03  0.00000000000E+00 0.  1.
        -13    1    3    3    0    0  0.72094521022E+02  0.38188936405E+02  0.13298152171E+03  0.15601314028E+03  0.00000000000E+00 0. -1.
          2    1    6    6  502    0  0.94200655396E+01  0.19295189571E+02  0.40149969687E+01  0.21844042117E+02  0.00000000000E+00 0. -1.
          1    1    5    5  503    0 -0.57307199658E+02 -0.91109050286E+02  0.13876344330E+04  0.13918025341E+04  0.00000000000E+00 0. -1.
         -4    1    5    5    0  503 -0.12832252476E+02 -0.34818038562E+02  0.15801123460E+04  0.15805480026E+04  0.00000000000E+00 0.  1.
         -1    1    6    6    0  502 -0.95304599536E+02 -0.32528554199E+01 -0.19454197800E+02  0.97324270216E+02  0.00000000000E+00 0.  1.
<mgrwt>
<rscale>  0 0.12457889E+04</rscale>
<asrwt>0</asrwt>
<pdfrwt beam="1">  1        2 0.49933738E+00 0.12457889E+04</pdfrwt>
<pdfrwt beam="2">  1       -2 0.18391118E-01 0.12457889E+04</pdfrwt>
<totfact> 0.29995229E+01</totfact>
</mgrwt>
</event>
<event>
12    1  0.1532786E-007  0.1592784E+04  0.7818608E-02  0.8824993E-01
         -1   -1    0    0    0  501 -0.00000000000E+00  0.00000000000E+00  0.48547747614E+03  0.48547747614E+03  0.00000000000E+00 0.  1.
          1   -1    0    0  501    0  0.00000000000E+00 -0.00000000000E+00 -0.13064262945E+04  0.13064262945E+04  0.00000000000E+00 0. -1.
         23    2    1    2    0    0 -0.16580655935E+03  0.12233630491E+03 -0.84793769916E+03  0.87711443058E+03  0.88732159077E+02 0.  0.
        254    2    1    2    0    0  0.16580655935E+03 -0.12233630491E+03  0.26988880794E+02  0.91478934005E+03  0.89087212908E+03 0.  0.
        -24    2    4    4    0    0 -0.74506550269E+02 -0.25401216373E+03  0.37430559689E+03  0.46540944324E+03  0.80173964812E+02 0.  0.
         24    2    4    4    0    0  0.24031310962E+03  0.13167585882E+03 -0.34731671610E+03  0.44937989682E+03  0.78895297270E+02 0.  0.
         13    1    3    3    0    0 -0.15314391648E+03  0.13529323386E+03 -0.80457110103E+03  0.83011563948E+03  0.00000000000E+00 0. -1.
        -13    1    3    3    0    0 -0.12662642870E+02 -0.12956928952E+02 -0.43366598129E+02  0.46998791108E+02  0.00000000000E+00 0.  1.
          2    1    6    6  502    0  0.11195602297E+03  0.10019181651E+03 -0.21563758817E+03  0.26281575410E+03  0.00000000000E+00 0. -1.
          3    1    5    5  503    0  0.11526466644E+02 -0.78715050801E+02  0.85525615887E+02  0.11680560615E+03  0.00000000000E+00 0. -1.
         -4    1    5    5    0  503 -0.86033016913E+02 -0.17529711293E+03  0.28877998101E+03  0.34860383708E+03  0.00000000000E+00 0.  1.
         -1    1    6    6    0  502  0.12835708665E+03  0.31484042305E+02 -0.13167912793E+03  0.18656414271E+03  0.00000000000E+00 0.  1.
<mgrwt>
<rscale>  0 0.15927844E+04</rscale>
<asrwt>0</asrwt>
<pdfrwt beam="1">  1        1 0.20098866E+00 0.15927844E+04</pdfrwt>
<pdfrwt beam="2">  1       -1 0.74688843E-01 0.15927844E+04</pdfrwt>
<totfact> 0.15498581E+01</totfact>
</mgrwt>
</event>
<event>
12    1  0.1532786E-007  0.1893250E+04  0.7818608E-02  0.8658224E-01
          2   -1    0    0  501    0  0.00000000000E+00  0.00000000000E+00  0.19587216118E+04  0.19587216118E+04  0.00000000000E+00 0. -1.
         -2   -1    0    0    0  501 -0.00000000000E+00 -0.00000000000E+00 -0.45749156805E+03  0.45749156805E+03  0.00000000000E+00 0.  1.
         23    2    1    2    0    0 -0.72505196219E+03 -0.17618062682E+03  0.45037137237E+03  0.87620091005E+03  0.90297843737E+02 0.  0.
        254    2    1    2    0    0  0.72505196219E+03  0.17618062682E+03  0.10508586714E+04  0.15400122698E+04  0.84296730828E+03 0.  0.
        -24    2    4    4    0    0  0.51692091008E+03  0.44295335543E+03  0.96189975734E+03  0.11810682087E+04  0.79095309446E+02 0.  0.
         24    2    4    4    0    0  0.20813105212E+03 -0.26677272861E+03  0.88958914080E+02  0.35894406118E+03  0.80255386607E+02 0.  0.
         13    1    3    3    0    0 -0.11458642040E+03 -0.12271231572E+02  0.37374540590E+02  0.12115067952E+03  0.00000000000E+00 0. -1.
        -13    1    3    3    0    0 -0.61046554179E+03 -0.16390939525E+03  0.41299683178E+03  0.75505023054E+03  0.00000000000E+00 0.  1.
          4    1    6    6  502    0  0.16398063281E+03 -0.18043829466E+03  0.30505031580E+02  0.24571972462E+03  0.00000000000E+00 0. -1.
          1    1    5    5  503    0  0.47170796718E+03  0.38789433205E+03  0.89374453307E+03  0.10824738840E+04  0.00000000000E+00 0. -1.
         -4    1    5    5    0  503  0.45212942896E+02  0.55059023380E+02  0.68155224265E+02  0.98594324662E+02  0.00000000000E+00 0.  1.
         -3    1    6    6    0  502  0.44150419306E+02 -0.86334433953E+02  0.58453882501E+02  0.11322433656E+03  0.00000000000E+00 0.  1.
<mgrwt>
<rscale>  0 0.18932497E+04</rscale>
<asrwt>0</asrwt>
<pdfrwt beam="1">  1        2 0.30134178E+00 0.18932497E+04</pdfrwt>
<pdfrwt beam="2">  1       -2 0.70383319E-01 0.18932497E+04</pdfrwt>
<totfact> 0.12123434E+01</totfact>
</mgrwt>
</event>
<event>
12    1  0.1532786E-007  0.1279691E+04  0.7818608E-02  0.9045827E-01
          2   -1    0    0  501    0  0.00000000000E+00  0.00000000000E+00  0.13114311189E+04  0.13114311189E+04  0.00000000000E+00 0. -1.
         -2   -1    0    0    0  501 -0.00000000000E+00 -0.00000000000E+00 -0.31217991339E+03  0.31217991339E+03  0.00000000000E+00 0.  1.
         23    2    1    2    0    0  0.17194320429E+03  0.19565333900E+03  0.47628091370E+03  0.55354815904E+03  0.10829294096E+03 0.  0.
        254    2    1    2    0    0 -0.17194320429E+03 -0.19565333900E+03  0.52297029179E+03  0.10700628732E+04  0.89648866807E+03 0.  0.
        -24    2    4    4    0    0 -0.35462912432E+03 -0.40949206115E+03  0.10158125500E+03  0.55720827788E+03  0.81955778378E+02 0.  0.
         24    2    4    4    0    0  0.18268592003E+03  0.21383872215E+03  0.42138903679E+03  0.51285459534E+03  0.79686706322E+02 0.  0.
         13    1    3    3    0    0  0.42289599349E+02  0.64884751980E+02  0.25046588393E+03  0.26216712278E+03  0.00000000000E+00 0. -1.
        -13    1    3    3    0    0  0.12965360494E+03  0.13076858702E+03  0.22581502977E+03  0.29138103626E+03  0.00000000000E+00 0.  1.
          2    1    6    6  502    0  0.13302604895E+03  0.16586631862E+03  0.37015725561E+03  0.42687698372E+03  0.00000000000E+00 0. -1.
          1    1    5    5  503    0 -0.27415861013E+03 -0.27242813776E+03  0.47933507592E+02  0.38945815552E+03  0.00000000000E+00 0. -1.
         -4    1    5    5    0  503 -0.80470514185E+02 -0.13706392339E+03  0.53647747405E+02  0.16775012236E+03  0.00000000000E+00 0.  1.
         -1    1    6    6    0  502  0.49659871083E+02  0.47972403531E+02  0.51231781183E+02  0.85977611619E+02  0.00000000000E+00 0.  1.
<mgrwt>
<rscale>  0 0.12796913E+04</rscale>
<asrwt>0</asrwt>
<pdfrwt beam="1">  1        2 0.20175863E+00 0.12796913E+04</pdfrwt>
<pdfrwt beam="2">  1       -2 0.48027680E-01 0.12796913E+04</pdfrwt>
<totfact> 0.65608242E+01</totfact>
</mgrwt>
</event>
<event>
12    1  0.1532786E-007  0.1196385E+04  0.7818608E-02  0.9116027E-01
         -2   -1    0    0    0  501 -0.00000000000E+00  0.00000000000E+00  0.54777889227E+03  0.54777889227E+03  0.00000000000E+00 0. -1.
          2   -1    0    0  501    0  0.00000000000E+00 -0.00000000000E+00 -0.65324564801E+03  0.65324564801E+03  0.00000000000E+00 0.  1.
         23    2    1    2    0    0 -0.22395220810E+03  0.32492385981E+01 -0.15760428034E+03  0.28864690224E+03  0.91174425821E+02 0.  0.
        254    2    1    2    0    0  0.22395220810E+03 -0.32492385981E+01  0.52137524604E+02  0.91237763805E+03  0.88292099526E+03 0.  0.
        -24    2    4    4    0    0 -0.31805362325E+03  0.11378442465E+03 -0.23261069155E+02  0.34733845958E+03  0.77446275633E+02 0.  0.
         24    2    4    4    0    0  0.54200583135E+03 -0.11703366325E+03  0.75398593759E+02  0.56503917847E+03  0.78212056036E+02 0.  0.
         11    1    3    3    0    0 -0.18005253153E+03  0.12362034648E+02 -0.16337667882E+03  0.24344131366E+03  0.00000000000E+00 0.  1.
        -11    1    3    3    0    0 -0.43899676570E+02 -0.91127960497E+01  0.57723984792E+01  0.45205588582E+02  0.00000000000E+00 0. -1.
          2    1    6    6  502    0  0.16666844763E+03 -0.12703316900E+01  0.33719951103E+02  0.17005005228E+03  0.00000000000E+00 0. -1.
          3    1    5    5  503    0 -0.79797820594E+02  0.45864287263E+01  0.18242300397E+02  0.81984809713E+02  0.00000000000E+00 0. -1.
         -4    1    5    5    0  503 -0.23825580266E+03  0.10919799593E+03 -0.41503369552E+02  0.26535364987E+03  0.00000000000E+00 0.  1.
         -1    1    6    6    0  502  0.37533738373E+03 -0.11576333156E+03  0.41678642656E+02  0.39498912619E+03  0.00000000000E+00 0.  1.
<mgrwt>
<rscale>  0 0.11963849E+04</rscale>
<asrwt>0</asrwt>
<pdfrwt beam="1">  1        2 0.10049933E+00 0.11963849E+04</pdfrwt>
<pdfrwt beam="2">  1       -2 0.84273676E-01 0.11963849E+04</pdfrwt>
<totfact> 0.54216343E+01</totfact>
</mgrwt>
</event>
<event>
12    1  0.1532786E-007  0.1958624E+04  0.7818608E-02  0.8626213E-01
         -1   -1    0    0    0  501 -0.00000000000E+00  0.00000000000E+00  0.92081989611E+03  0.92081989611E+03  0.00000000000E+00 0.  1.
          1   -1    0    0  501    0  0.00000000000E+00 -0.00000000000E+00 -0.10415199335E+04  0.10415199335E+04  0.00000000000E+00 0. -1.
         23    2    1    2    0    0  0.11392447490E+03  0.35897441796E+03 -0.71707852533E+03  0.81552475056E+03  0.95066232449E+02 0.  0.
        254    2    1    2    0    0 -0.11392447490E+03 -0.35897441796E+03  0.59637848793E+03  0.11468150791E+04  0.90425444759E+03 0.  0.
        -24    2    4    4    0    0  0.28246441699E+03  0.11872002248E+03  0.59028373131E+02  0.32193086944E+03  0.79212027237E+02 0.  0.
         24    2    4    4    0    0 -0.39638889189E+03 -0.47769444045E+03  0.53735011480E+03  0.82488420963E+03  0.79829075961E+02 0.  0.
         13    1    3    3    0    0  0.99588019445E+02  0.25516159048E+03 -0.42909337820E+03  0.50906417875E+03  0.00000000000E+00 0. -1.
        -13    1    3    3    0    0  0.14336455452E+02  0.10381282749E+03 -0.28798514713E+03  0.30646057181E+03  0.00000000000E+00 0.  1.
          2    1    6    6  502    0 -0.23218547484E+03 -0.30434508777E+03  0.28323993811E+03  0.47619417229E+03  0.00000000000E+00 0. -1.
          1    1    5    5  503    0  0.26015888408E+03  0.11336365376E+03  0.30642694103E+02  0.28543464692E+03  0.00000000000E+00 0. -1.
         -2    1    5    5    0  503  0.22305532911E+02  0.53563687201E+01  0.28385679028E+02  0.36496222520E+02  0.00000000000E+00 0.  1.
         -1    1    6    6    0  502 -0.16420341705E+03 -0.17334935267E+03  0.25411017669E+03  0.34869003734E+03  0.00000000000E+00 0.  1.
<mgrwt>
<rscale>  0 0.19586243E+04</rscale>
<asrwt>0</asrwt>
<pdfrwt beam="1">  1        1 0.16023384E+00 0.19586243E+04</pdfrwt>
<pdfrwt beam="2">  1       -1 0.14166460E+00 0.19586243E+04</pdfrwt>
<totfact> 0.53149671E+00</totfact>
</mgrwt>
</event>
<event>
12    1  0.1532786E-007  0.2357347E+04  0.7818608E-02  0.8455647E-01
          2   -1    0    0  501    0  0.00000000000E+00  0.00000000000E+00  0.11195289074E+04  0.11195289074E+04  0.00000000000E+00 0. -1.
         -2   -1    0    0    0  501 -0.00000000000E+00 -0.00000000000E+00 -0.12409429048E+04  0.12409429048E+04  0.00000000000E+00 0.  1.
         23    2    1    2    0    0  0.92673486588E+03  0.10181047992E+03 -0.42624906633E+03  0.10293000727E+04  0.92560724111E+02 0.  0.
        254    2    1    2    0    0 -0.92673486588E+03 -0.10181047992E+03  0.30483506895E+03  0.13311717396E+04  0.89993938434E+03 0.  0.
        -24    2    4    4    0    0 -0.85038768658E+03 -0.96618277197E+02  0.57808307560E+03  0.10359323397E+04  0.80507522322E+02 0.  0.
         24    2    4    4    0    0 -0.76347179296E+02 -0.51922027228E+01 -0.27324800665E+03  0.29523939986E+03  0.81522876157E+02 0.  0.
         13    1    3    3    0    0  0.43460938017E+03  0.71565512683E+02 -0.15761050765E+03  0.46781193663E+03  0.00000000000E+00 0. -1.
        -13    1    3    3    0    0  0.49212548571E+03  0.30244967237E+02 -0.26863855868E+03  0.56148813606E+03  0.00000000000E+00 0.  1.
          4    1    6    6  502    0 -0.47809943589E+01 -0.34252889457E+01  0.51297536026E+01  0.78041580869E+01  0.00000000000E+00 0. -1.
          1    1    5    5  503    0 -0.40419143324E+03 -0.19512185623E+02  0.30957671162E+03  0.50949895041E+03  0.00000000000E+00 0. -1.
         -2    1    5    5    0  503 -0.44619625335E+03 -0.77106091574E+02  0.26850636398E+03  0.52643338929E+03  0.00000000000E+00 0.  1.
         -1    1    6    6    0  502 -0.71566184937E+02 -0.17669137772E+01 -0.27837776026E+03  0.28743524178E+03  0.00000000000E+00 0.  1.
<mgrwt>
<rscale>  0 0.23573472E+04</rscale>
<asrwt>0</asrwt>
<pdfrwt beam="1">  1        2 0.17223522E+00 0.23573472E+04</pdfrwt>
<pdfrwt beam="2">  1       -2 0.19091429E+00 0.23573472E+04</pdfrwt>
<totfact> 0.29221497E+00</totfact>
</mgrwt>
</event>
<event>
12    1  0.1532786E-007  0.2685104E+04  0.7818608E-02  0.8339854E-01
          1   -1    0    0  501    0  0.00000000000E+00  0.00000000000E+00  0.21264220989E+04  0.21264220989E+04  0.00000000000E+00 0. -1.
         -1   -1    0    0    0  501 -0.00000000000E+00 -0.00000000000E+00 -0.84764282659E+03  0.84764282659E+03  0.00000000000E+00 0.  1.
         23    2    1    2    0    0 -0.10358722400E+04 -0.34151577768E+03  0.40163990750E+02  0.10943678781E+04  0.79772065541E+02 0.  0.
        254    2    1    2    0    0  0.10358722400E+04  0.34151577768E+03  0.12386152816E+04  0.18796970474E+04  0.89968263868E+03 0.  0.
        -24    2    4    4    0    0  0.91967191967E+03  0.59727872425E+03  0.11030574151E+04  0.15575336537E+04  0.81468441792E+02 0.  0.
         24    2    4    4    0    0  0.11620032033E+03 -0.25576294657E+03  0.13555786646E+03  0.32216339375E+03  0.80598497697E+02 0.  0.
         11    1    3    3    0    0 -0.13544650210E+02  0.37053408072E+01 -0.33960028006E+01  0.14447142791E+02  0.00000000000E+00 0. -1.
        -11    1    3    3    0    0 -0.10223275898E+04 -0.34522111849E+03  0.43559993551E+02  0.10799207353E+04  0.00000000000E+00 0.  1.
          4    1    6    6  502    0  0.10836910547E+03 -0.26112662837E+03  0.13015579399E+03  0.31124188307E+03  0.00000000000E+00 0. -1.
          3    1    5    5  503    0  0.83309364633E+03  0.52172139583E+03  0.10131025216E+04  0.14116001409E+04  0.00000000000E+00 0. -1.
         -4    1    5    5    0  503  0.86578273339E+02  0.75557328420E+02  0.89954893520E+02  0.14593351281E+03  0.00000000000E+00 0.  1.
         -3    1    6    6    0  502  0.78312148596E+01  0.53636818029E+01  0.54020724657E+01  0.10921510682E+02  0.00000000000E+00 0.  1.
<mgrwt>
<rscale>  0 0.26851044E+04</rscale>
<asrwt>0</asrwt>
<pdfrwt beam="1">  1        1 0.32714186E+00 0.26851044E+04</pdfrwt>
<pdfrwt beam="2">  1       -1 0.13040659E+00 0.26851044E+04</pdfrwt>
<totfact> 0.10753457E+00</totfact>
</mgrwt>
</event>
<event>
12    1  0.1532786E-007  0.2406480E+04  0.7818608E-02  0.8437081E-01
          1   -1    0    0  501    0  0.00000000000E+00  0.00000000000E+00  0.11329445161E+04  0.11329445161E+04  0.00000000000E+00 0. -1.
         -1   -1    0    0    0  501 -0.00000000000E+00 -0.00000000000E+00 -0.12778973859E+04  0.12778973859E+04  0.00000000000E+00 0.  1.
         23    2    1    2    0    0  0.97602707301E+03  0.67939722356E+02  0.27073842302E+03  0.10194147772E+04  0.93072773283E+02 0.  0.
        254    2    1    2    0    0 -0.97602707301E+03 -0.67939722356E+02 -0.41569129280E+03  0.13914271248E+04  0.89778925117E+03 0.  0.
        -24    2    4    4    0    0 -0.10475934702E+04  0.14921661368E+03 -0.22858102620E+03  0.10856195389E+04  0.81257744492E+02 0.  0.
         24    2    4    4    0    0  0.71566397239E+02 -0.21715633603E+03 -0.18711026660E+03  0.30580758585E+03  0.78926574771E+02 0.  0.
         13    1    3    3    0    0  0.62126093016E+03  0.39814494164E+02  0.12561038251E+03  0.63508133769E+03  0.00000000000E+00 0.  1.
        -13    1    3    3    0    0  0.35476614285E+03  0.28125228192E+02  0.14512804051E+03  0.38433343949E+03  0.00000000000E+00 0. -1.
          2    1    6    6  502    0  0.28115563597E+02 -0.16775150651E+03 -0.10235908820E+03  0.19851558072E+03  0.00000000000E+00 0. -1.
          3    1    5    5  503    0 -0.50892953594E+03  0.78521676826E+02 -0.15234254835E+03  0.53701320125E+03  0.00000000000E+00 0. -1.
         -4    1    5    5    0  503 -0.53866393431E+03  0.70694936849E+02 -0.76238477849E+02  0.54860633767E+03  0.00000000000E+00 0.  1.
         -1    1    6    6    0  502  0.43450833642E+02 -0.49404829524E+02 -0.84751178406E+02  0.10729200513E+03  0.00000000000E+00 0.  1.
<mgrwt>
<rscale>  0 0.24064803E+04</rscale>
<asrwt>0</asrwt>
<pdfrwt beam="1">  1        1 0.17429916E+00 0.24064803E+04</pdfrwt>
<pdfrwt beam="2">  1       -1 0.19659960E+00 0.24064803E+04</pdfrwt>
<totfact> 0.17044903E+00</totfact>
</mgrwt>
</event>
<event>
12    1  0.1532786E-007  0.2396173E+04  0.7818608E-02  0.8440938E-01
          2   -1    0    0  501    0  0.00000000000E+00  0.00000000000E+00  0.31508700864E+04  0.31508700864E+04  0.00000000000E+00 0. -1.
         -2   -1    0    0    0  501 -0.00000000000E+00 -0.00000000000E+00 -0.45556022143E+03  0.45556022143E+03  0.00000000000E+00 0.  1.
         23    2    1    2    0    0 -0.82861223165E+03 -0.30446722953E+03  0.19425324270E+04  0.21356350826E+04  0.90589469304E+02 0.  0.
        254    2    1    2    0    0  0.82861223165E+03  0.30446722953E+03  0.75277743797E+03  0.14707952252E+04  0.90402776452E+03 0.  0.
        -24    2    4    4    0    0  0.50593965583E+03  0.46971758677E+03  0.75978984142E+02  0.69919597282E+03  0.80577017233E+02 0.  0.
         24    2    4    4    0    0  0.32267257582E+03 -0.16525035725E+03  0.67679845383E+03  0.77159925237E+03  0.76707153495E+02 0.  0.
         11    1    3    3    0    0 -0.44988587217E+03 -0.21189052736E+03  0.11139613140E+04  0.12199199575E+04  0.00000000000E+00 0. -1.
        -11    1    3    3    0    0 -0.37872635948E+03 -0.92576702171E+02  0.82857111302E+03  0.91571512518E+03  0.00000000000E+00 0.  1.
          4    1    6    6  502    0  0.19675056692E+03 -0.60563092603E+02  0.40398932733E+03  0.45341597939E+03  0.00000000000E+00 0. -1.
          1    1    5    5  503    0  0.50788483155E+03  0.46693737899E+03  0.79293040645E+02  0.69445295328E+03  0.00000000000E+00 0. -1.
         -2    1    5    5    0  503 -0.19451757177E+01  0.27802077808E+01 -0.33140565025E+01  0.47430195424E+01  0.00000000000E+00 0.  1.
         -3    1    6    6    0  502  0.12592200889E+03 -0.10468726464E+03  0.27280912650E+03  0.31818327298E+03  0.00000000000E+00 0.  1.
<mgrwt>
<rscale>  0 0.23961728E+04</rscale>
<asrwt>0</asrwt>
<pdfrwt beam="1">  1        2 0.48474923E+00 0.23961728E+04</pdfrwt>
<pdfrwt beam="2">  1       -2 0.70086190E-01 0.23961728E+04</pdfrwt>
<totfact> 0.23293795E+00</totfact>
</mgrwt>
</event>
<event>
12    1  0.1532786E-007  0.1664031E+04  0.7818608E-02  0.8782149E-01
          2   -1    0    0  501    0  0.00000000000E+00  0.00000000000E+00  0.13733143846E+04  0.13733143846E+04  0.00000000000E+00 0. -1.
         -2   -1    0    0    0  501 -0.00000000000E+00 -0.00000000000E+00 -0.50407250676E+03  0.50407250676E+03  0.00000000000E+00 0.  1.
         23    2    1    2    0    0 -0.47015745380E+03  0.15638106670E+03  0.64584902401E+02  0.50812597428E+03  0.92291531234E+02 0.  0.
        254    2    1    2    0    0  0.47015745380E+03 -0.15638106670E+03  0.80465697547E+03  0.13692609171E+04  0.99090844257E+03 0.  0.
        -24    2    4    4    0    0 -0.19434246147E+03 -0.34612712644E+03  0.22204464356E+03  0.46185524637E+03  0.80208882809E+02 0.  0.
         24    2    4    4    0    0  0.66449991527E+03  0.18974605974E+03  0.58261233191E+03  0.90740567073E+03  0.79901297908E+02 0.  0.
         11    1    3    3    0    0 -0.19203920015E+03  0.72273285134E+02  0.72053080247E+02  0.21747213272E+03  0.00000000000E+00 0. -1.
        -11    1    3    3    0    0 -0.27811825365E+03  0.84107781565E+02 -0.74681778462E+01  0.29065384156E+03  0.00000000000E+00 0.  1.
          2    1    6    6  502    0  0.32705274904E+03  0.75724989455E+02  0.23563312778E+03  0.41014722428E+03  0.00000000000E+00 0. -1.
          1    1    5    5  503    0 -0.33256560167E+01  0.44307504760E+01  0.13890495838E+01  0.57114793590E+01  0.00000000000E+00 0. -1.
         -2    1    5    5    0  503 -0.19101680545E+03 -0.35055787692E+03  0.22065559398E+03  0.45614376701E+03  0.00000000000E+00 0.  1.
         -1    1    6    6    0  502  0.33744716623E+03  0.11402107029E+03  0.34697920413E+03  0.49725844645E+03  0.00000000000E+00 0.  1.
<mgrwt>
<rscale>  0 0.16640313E+04</rscale>
<asrwt>0</asrwt>
<pdfrwt beam="1">  1        2 0.21127913E+00 0.16640313E+04</pdfrwt>
<pdfrwt beam="2">  1       -2 0.77549617E-01 0.16640313E+04</pdfrwt>
<totfact> 0.21202435E+01</totfact>
</mgrwt>
</event>
<event>
12    1  0.1532786E-007  0.3571529E+04  0.7818608E-02  0.8097045E-01
          1   -1    0    0  501    0  0.00000000000E+00  0.00000000000E+00  0.29160523789E+04  0.29160523789E+04  0.00000000000E+00 0. -1.
         -1   -1    0    0    0  501 -0.00000000000E+00 -0.00000000000E+00 -0.10935861126E+04  0.10935861126E+04  0.00000000000E+00 0.  1.
         23    2    1    2    0    0  0.48454603340E+02  0.16732560830E+04  0.93106633801E+03  0.19176387473E+04  0.91214425290E+02 0.  0.
        254    2    1    2    0    0 -0.48454603340E+02 -0.16732560830E+04  0.89139992829E+03  0.20919997443E+04  0.88302623408E+03 0.  0.
        -24    2    4    4    0    0  0.15069119640E+03 -0.10630001999E+04  0.95815822275E+03  0.14417100693E+04  0.88224045984E+02 0.  0.
         24    2    4    4    0    0 -0.19914579974E+03 -0.61025588309E+03 -0.66758294464E+02  0.65028967503E+03  0.79678724727E+02 0.  0.
         13    1    3    3    0    0  0.21128636295E+02  0.14006618381E+04  0.74656683073E+03  0.15873443346E+04  0.00000000000E+00 0.  1.
        -13    1    3    3    0    0  0.27325967045E+02  0.27259424494E+03  0.18449950728E+03  0.33029441266E+03  0.00000000000E+00 0. -1.
          4    1    6    6  502    0 -0.53345415675E+02 -0.18171402990E+03 -0.56030837640E+02  0.19749728303E+03  0.00000000000E+00 0. -1.
          1    1    5    5  503    0  0.18794574651E+02 -0.44139226796E+03  0.39032568302E+03  0.58952057562E+03  0.00000000000E+00 0. -1.
         -2    1    5    5    0  503  0.13189662175E+03 -0.62160793197E+03  0.56783253973E+03  0.85218949365E+03  0.00000000000E+00 0.  1.
         -3    1    6    6    0  502 -0.14580038407E+03 -0.42854185319E+03 -0.10727456824E+02  0.45279239200E+03  0.00000000000E+00 0.  1.
<mgrwt>
<rscale>  0 0.35715287E+04</rscale>
<asrwt>0</asrwt>
<pdfrwt beam="1">  1        1 0.44862344E+00 0.35715287E+04</pdfrwt>
<pdfrwt beam="2">  1       -1 0.16824402E+00 0.35715287E+04</pdfrwt>
<totfact> 0.14133743E-01</totfact>
</mgrwt>
</event>
<event>
12    1  0.1532786E-007  0.2488055E+04  0.7818608E-02  0.8407253E-01
         -1   -1    0    0    0  501 -0.00000000000E+00  0.00000000000E+00  0.19582208900E+04  0.19582208900E+04  0.00000000000E+00 0.  1.
          1   -1    0    0  501    0  0.00000000000E+00 -0.00000000000E+00 -0.79031135331E+03  0.79031135331E+03  0.00000000000E+00 0. -1.
         23    2    1    2    0    0 -0.89751620916E+02  0.63550020771E+02 -0.67917836714E+03  0.69437887298E+03  0.93727297222E+02 0.  0.
        254    2    1    2    0    0  0.89751620916E+02 -0.63550020771E+02  0.18470879038E+04  0.20541533703E+04  0.89203048476E+03 0.  0.
        -24    2    4    4    0    0  0.18347642882E+02  0.48193290484E+02 -0.77561610075E+02  0.12326896056E+03  0.80747780361E+02 0.  0.
         24    2    4    4    0    0  0.71403978034E+02 -0.11174331126E+03  0.19246495139E+04  0.19308844098E+04  0.80335277449E+02 0.  0.
         11    1    3    3    0    0 -0.44323515695E+01 -0.19777394826E+02 -0.18068332374E+03  0.18181654095E+03  0.00000000000E+00 0.  1.
        -11    1    3    3    0    0 -0.85319269346E+02  0.83327415597E+02 -0.49849504340E+03  0.51256233202E+03  0.00000000000E+00 0. -1.
          4    1    6    6  502    0  0.46068219220E+02 -0.52586888836E+02  0.50971099948E+03  0.51448320156E+03  0.00000000000E+00 0. -1.
          1    1    5    5  503    0 -0.20917129426E+02  0.39906436755E+02 -0.12382272961E+02  0.46726552212E+02  0.00000000000E+00 0. -1.
         -2    1    5    5    0  503  0.39264772308E+02  0.82868537288E+01 -0.65179337115E+02  0.76542408349E+02  0.00000000000E+00 0.  1.
         -3    1    6    6    0  502  0.25335758814E+02 -0.59156422419E+02  0.14149385144E+04  0.14164012082E+04  0.00000000000E+00 0.  1.
<mgrwt>
<rscale>  0 0.24880548E+04</rscale>
<asrwt>0</asrwt>
<pdfrwt beam="1">  1        1 0.12158636E+00 0.24880548E+04</pdfrwt>
<pdfrwt beam="2">  1       -1 0.30126475E+00 0.24880548E+04</pdfrwt>
<totfact> 0.64985872E-01</totfact>
</mgrwt>
</event>
<event>
12    1  0.1532786E-007  0.2062356E+04  0.7818608E-02  0.8578009E-01
          1   -1    0    0  501    0  0.00000000000E+00  0.00000000000E+00  0.11392872185E+04  0.11392872185E+04  0.00000000000E+00 0. -1.
         -1   -1    0    0    0  501 -0.00000000000E+00 -0.00000000000E+00 -0.93332792738E+03  0.93332792738E+03  0.00000000000E+00 0.  1.
         23    2    1    2    0    0  0.66080554159E+03  0.24942106533E+03  0.52967017669E+03  0.88725414742E+03  0.88287000219E+02 0.  0.
        254    2    1    2    0    0 -0.66080554159E+03 -0.24942106533E+03 -0.32371088561E+03  0.11853609984E+04  0.89521903884E+03 0.  0.
        -24    2    4    4    0    0  0.21685550665E+03 -0.63561041974E+02 -0.68770024795E+02  0.24921247932E+03  0.79443229542E+02 0.  0.
         24    2    4    4    0    0 -0.87766104823E+03 -0.18586002336E+03 -0.25494086082E+03  0.93614851910E+03  0.80909476772E+02 0.  0.
         11    1    3    3    0    0  0.46133333238E+03  0.14962146835E+03  0.40418907743E+03  0.63133496472E+03  0.00000000000E+00 0. -1.
        -11    1    3    3    0    0  0.19947220920E+03  0.99799596981E+02  0.12548109926E+03  0.25591918270E+03  0.00000000000E+00 0.  1.
          2    1    6    6  502    0 -0.18128101629E+01 -0.64130138626E+01 -0.97922751966E+00  0.67358677262E+01  0.00000000000E+00 0. -1.
          3    1    5    5  503    0  0.75056113679E+02 -0.53227615431E+02 -0.52944697831E+02  0.10615903293E+03  0.00000000000E+00 0. -1.
         -4    1    5    5    0  503  0.14179939297E+03 -0.10333426543E+02 -0.15825326963E+02  0.14305344639E+03  0.00000000000E+00 0.  1.
         -1    1    6    6    0  502 -0.87584823807E+03 -0.17944700950E+03 -0.25396163330E+03  0.92941265138E+03  0.00000000000E+00 0.  1.
<mgrwt>
<rscale>  0 0.20623565E+04</rscale>
<asrwt>0</asrwt>
<pdfrwt beam="1">  1        1 0.17527496E+00 0.20623565E+04</pdfrwt>
<pdfrwt beam="2">  1       -1 0.14358891E+00 0.20623565E+04</pdfrwt>
<totfact> 0.42869648E+00</totfact>
</mgrwt>
</event>
<event>
12    1  0.1532786E-007  0.1708533E+04  0.7818608E-02  0.8756513E-01
          4   -1    0    0  501    0  0.00000000000E+00  0.00000000000E+00  0.10434201276E+04  0.10434201276E+04  0.00000000000E+00 0. -1.
         -4   -1    0    0    0  501 -0.00000000000E+00 -0.00000000000E+00 -0.69940287760E+03  0.69940287760E+03  0.00000000000E+00 0.  1.
         23    2    1    2    0    0  0.36333906635E+03  0.29315124305E+03  0.53364778416E+03  0.71486454279E+03  0.91095710988E+02 0.  0.
        254    2    1    2    0    0 -0.36333906635E+03 -0.29315124305E+03 -0.18963053419E+03  0.10279584624E+04  0.89598322106E+03 0.  0.
        -24    2    4    4    0    0 -0.22130075647E+02  0.29715950129E+03 -0.14089856849E+03  0.33957646353E+03  0.81647158725E+02 0.  0.
         24    2    4    4    0    0 -0.34120899070E+03 -0.59031074434E+03 -0.48731965705E+02  0.68838199884E+03  0.81268823221E+02 0.  0.
         11    1    3    3    0    0  0.33486462104E+03  0.29546237147E+03  0.50897101059E+03  0.67711433082E+03  0.00000000000E+00 0. -1.
        -11    1    3    3    0    0  0.28474445305E+02 -0.23111284165E+01  0.24676773579E+02  0.37750211977E+02  0.00000000000E+00 0.  1.
          4    1    6    6  502    0 -0.15938567064E+03 -0.21435161937E+03  0.60666793397E+01  0.26718385679E+03  0.00000000000E+00 0. -1.
          3    1    5    5  503    0  0.22759817770E+02  0.38504183369E+02 -0.83894014740E+01  0.45507839972E+02  0.00000000000E+00 0. -1.
         -4    1    5    5    0  503 -0.44889893417E+02  0.25865531792E+03 -0.13250916701E+03  0.29406862356E+03  0.00000000000E+00 0.  1.
         -3    1    6    6    0  502 -0.18182332006E+03 -0.37595912497E+03 -0.54798645045E+02  0.42119814205E+03  0.00000000000E+00 0.  1.
<mgrwt>
<rscale>  0 0.17085328E+04</rscale>
<asrwt>0</asrwt>
<pdfrwt beam="1">  1        4 0.16052618E+00 0.17085328E+04</pdfrwt>
<pdfrwt beam="2">  1       -4 0.10760044E+00 0.17085328E+04</pdfrwt>
<totfact> 0.32640597E-01</totfact>
</mgrwt>
</event>
<event>
12    1  0.1532786E-007  0.1548742E+04  0.7818608E-02  0.8852671E-01
          2   -1    0    0  501    0  0.00000000000E+00  0.00000000000E+00  0.49052029947E+03  0.49052029947E+03  0.00000000000E+00 0.  1.
         -2   -1    0    0    0  501 -0.00000000000E+00 -0.00000000000E+00 -0.12224788167E+04  0.12224788167E+04  0.00000000000E+00 0. -1.
         23    2    1    2    0    0 -0.18240609527E+03  0.31233297290E+03  0.15705245904E+03  0.40386109671E+03  0.87260764287E+02 0.  0.
        254    2    1    2    0    0  0.18240609527E+03 -0.31233297290E+03 -0.88901097628E+03  0.13091380195E+04  0.89032464221E+03 0.  0.
        -24    2    4    4    0    0  0.44369090076E+03 -0.20918101668E+03 -0.15491828691E+03  0.51928616465E+03  0.70993887136E+02 0.  0.
         24    2    4    4    0    0 -0.26128480549E+03 -0.10315195622E+03 -0.73409268937E+03  0.78985185483E+03  0.77870407326E+02 0.  0.
         11    1    3    3    0    0 -0.18012433664E+03  0.31789231103E+03  0.15740813666E+03  0.39784119891E+03  0.00000000000E+00 0.  1.
        -11    1    3    3    0    0 -0.22817586389E+01 -0.55593381277E+01 -0.35567762064E+00  0.60198977960E+01  0.00000000000E+00 0. -1.
          2    1    6    6  502    0 -0.22149993804E+03 -0.91677998812E+02 -0.53134202327E+03  0.58291630935E+03  0.00000000000E+00 0. -1.
          1    1    5    5  503    0  0.20292378419E+03 -0.11290452850E+03 -0.10661156184E+03  0.25552205358E+03  0.00000000000E+00 0. -1.
         -2    1    5    5    0  503  0.24076711657E+03 -0.96276488180E+02 -0.48306725066E+02  0.26376411106E+03  0.00000000000E+00 0.  1.
         -1    1    6    6    0  502 -0.39784867449E+02 -0.11473957408E+02 -0.20275066610E+03  0.20693554548E+03  0.00000000000E+00 0.  1.
<mgrwt>
<rscale>  0 0.15487423E+04</rscale>
<asrwt>0</asrwt>
<pdfrwt beam="1">  1        2 0.75464661E-01 0.15487423E+04</pdfrwt>
<pdfrwt beam="2">  1       -2 0.18807366E+00 0.15487423E+04</pdfrwt>
<totfact> 0.96698592E+00</totfact>
</mgrwt>
</event>
<event>
12    1  0.1532786E-007  0.1430250E+04  0.7818608E-02  0.8932209E-01
         -2   -1    0    0    0  501 -0.00000000000E+00  0.00000000000E+00  0.46922179305E+03  0.46922179305E+03  0.00000000000E+00 0.  1.
          2   -1    0    0  501    0  0.00000000000E+00 -0.00000000000E+00 -0.10898970762E+04  0.10898970762E+04  0.00000000000E+00 0. -1.
         23    2    1    2    0    0 -0.26107631803E+03  0.12325400970E+03 -0.44172924404E+03  0.53574233109E+03  0.92426865924E+02 0.  0.
        254    2    1    2    0    0  0.26107631803E+03 -0.12325400970E+03 -0.17894603912E+03  0.10233765382E+04  0.96536286401E+03 0.  0.
        -24    2    4    4    0    0  0.45347225648E+03 -0.22511845662E+03  0.22347607449E+03  0.55898588791E+03  0.78792513007E+02 0.  0.
         24    2    4    4    0    0 -0.19239593846E+03  0.10186444692E+03 -0.40242211361E+03  0.46439065025E+03  0.79514500785E+02 0.  0.
         13    1    3    3    0    0 -0.89967140475E+02  0.70077994592E+02 -0.24133777333E+03  0.26692495673E+03  0.00000000000E+00 0.  1.
        -13    1    3    3    0    0 -0.17110917755E+03  0.53176015107E+02 -0.20039147071E+03  0.26881737436E+03  0.00000000000E+00 0. -1.
          2    1    6    6  502    0 -0.13135653951E+03  0.65879935784E+02 -0.18833490921E+03  0.23888228155E+03  0.00000000000E+00 0. -1.
          1    1    5    5  503    0  0.40843261703E+03 -0.22291622732E+03  0.18900795270E+03  0.50222788975E+03  0.00000000000E+00 0. -1.
         -2    1    5    5    0  503  0.45039639453E+02 -0.22022292983E+01  0.34468121791E+02  0.56757998165E+02  0.00000000000E+00 0.  1.
         -1    1    6    6    0  502 -0.61039398945E+02  0.35984511132E+02 -0.21408720440E+03  0.22550836870E+03  0.00000000000E+00 0.  1.
<mgrwt>
<rscale>  0 0.14302496E+04</rscale>
<asrwt>0</asrwt>
<pdfrwt beam="1">  1        2 0.16767647E+00 0.14302496E+04</pdfrwt>
<pdfrwt beam="2">  1       -2 0.72187969E-01 0.14302496E+04</pdfrwt>
<totfact> 0.37303301E+01</totfact>
</mgrwt>
</event>
<event>
12    1  0.1532786E-007  0.1570878E+04  0.7818608E-02  0.8838641E-01
          1   -1    0    0  501    0  0.00000000000E+00  0.00000000000E+00  0.93176751447E+03  0.93176751447E+03  0.00000000000E+00 0. -1.
         -1   -1    0    0    0  501 -0.00000000000E+00 -0.00000000000E+00 -0.66209021332E+03  0.66209021332E+03  0.00000000000E+00 0.  1.
         23    2    1    2    0    0  0.39979785632E+03  0.26615587679E+02 -0.24445070823E+03  0.47792270639E+03  0.90040263791E+02 0.  0.
        254    2    1    2    0    0 -0.39979785632E+03 -0.26615587679E+02  0.51412800938E+03  0.11159350214E+04  0.90577957944E+03 0.  0.
        -24    2    4    4    0    0 -0.31756436084E+03 -0.39764709244E+03  0.62321618578E+02  0.52014651801E+03  0.87738718069E+02 0.  0.
         24    2    4    4    0    0 -0.82233495477E+02  0.37103150476E+03  0.45180639080E+03  0.59578850339E+03  0.80051237943E+02 0.  0.
         13    1    3    3    0    0  0.34159410464E+03  0.37035287441E+02 -0.23899761892E+03  0.41854271788E+03  0.00000000000E+00 0.  1.
        -13    1    3    3    0    0  0.58203751676E+02 -0.10419699762E+02 -0.54530893136E+01  0.59379988509E+02  0.00000000000E+00 0. -1.
          4    1    6    6  502    0 -0.47965562739E+02  0.28934667461E+03  0.29687230937E+03  0.41731925595E+03  0.00000000000E+00 0. -1.
          3    1    5    5  503    0 -0.61078533672E+02 -0.37769045068E+02  0.27334865189E+02  0.76839331697E+02  0.00000000000E+00 0. -1.
         -4    1    5    5    0  503 -0.25648582717E+03 -0.35987804737E+03  0.34986753388E+02  0.44330718631E+03  0.00000000000E+00 0.  1.
         -1    1    6    6    0  502 -0.34267932738E+02  0.81684830148E+02  0.15493408144E+03  0.17846924744E+03  0.00000000000E+00 0.  1.
<mgrwt>
<rscale>  0 0.15708777E+04</rscale>
<asrwt>0</asrwt>
<pdfrwt beam="1">  1        1 0.14334885E+00 0.15708777E+04</pdfrwt>
<pdfrwt beam="2">  1       -1 0.10186003E+00 0.15708777E+04</pdfrwt>
<totfact> 0.15067703E+01</totfact>
</mgrwt>
</event>
<event>
12    1  0.1532786E-007  0.2718437E+04  0.7818608E-02  0.8329048E-01
          2   -1    0    0  501    0  0.00000000000E+00  0.00000000000E+00  0.10322177695E+04  0.10322177695E+04  0.00000000000E+00 0.  1.
         -2   -1    0    0    0  501 -0.00000000000E+00 -0.00000000000E+00 -0.17898108884E+04  0.17898108884E+04  0.00000000000E+00 0. -1.
         23    2    1    2    0    0  0.62462162358E+03  0.67599018050E+02 -0.14106858465E+04  0.15469616843E+04  0.91291266714E+02 0.  0.
        254    2    1    2    0    0 -0.62462162358E+03 -0.67599018050E+02  0.65309272756E+03  0.12750669736E+04  0.89696369850E+03 0.  0.
        -24    2    4    4    0    0 -0.54213382429E+03  0.15453265748E+03  0.80177875253E+03  0.98332630983E+03  0.79322367081E+02 0.  0.
         24    2    4    4    0    0 -0.82487799284E+02 -0.22213167553E+03 -0.14868602497E+03  0.29174066374E+03  0.82815231410E+02 0.  0.
         13    1    3    3    0    0  0.36986754261E+03 -0.23898833311E+01 -0.78437358280E+03  0.86720794970E+03  0.00000000000E+00 0. -1.
        -13    1    3    3    0    0  0.25475408097E+03  0.69988901381E+02 -0.62631226367E+03  0.67975373460E+03  0.00000000000E+00 0.  1.
          2    1    6    6  502    0 -0.66825764546E+02 -0.66976635066E+02 -0.64695270917E+02  0.11461688589E+03  0.00000000000E+00 0. -1.
          3    1    5    5  503    0 -0.38389579571E+03  0.11319708736E+03  0.62794550433E+03  0.74465100481E+03  0.00000000000E+00 0. -1.
         -4    1    5    5    0  503 -0.15823802858E+03  0.41335570121E+02  0.17383324820E+03  0.23867530502E+03  0.00000000000E+00 0.  1.
         -1    1    6    6    0  502 -0.15662034738E+02 -0.15515504047E+03 -0.83990754056E+02  0.17712377785E+03  0.00000000000E+00 0.  1.
<mgrwt>
<rscale>  0 0.27184368E+04</rscale>
<asrwt>0</asrwt>
<pdfrwt beam="1">  1        2 0.15880274E+00 0.27184368E+04</pdfrwt>
<pdfrwt beam="2">  1       -2 0.27535552E+00 0.27184368E+04</pdfrwt>
<totfact> 0.94588895E-01</totfact>
</mgrwt>
</event>
<event>
12    1  0.1532786E-007  0.1451240E+04  0.7818608E-02  0.8917541E-01
         -1   -1    0    0    0  501 -0.00000000000E+00  0.00000000000E+00  0.56403211215E+03  0.56403211215E+03  0.00000000000E+00 0.  1.
          1   -1    0    0  501    0  0.00000000000E+00 -0.00000000000E+00 -0.93350060279E+03  0.93350060279E+03  0.00000000000E+00 0. -1.
         23    2    1    2    0    0  0.22042089977E+03  0.31286810152E+03 -0.28895403076E+02  0.39435736437E+03  0.90614372533E+02 0.  0.
        254    2    1    2    0    0 -0.22042089977E+03 -0.31286810152E+03 -0.34057308756E+03  0.11031753506E+04  0.97700256098E+03 0.  0.
        -24    2    4    4    0    0 -0.44795253358E+03 -0.26787935618E+03 -0.56326832727E+03  0.77222490978E+03  0.81481783041E+02 0.  0.
         24    2    4    4    0    0  0.22753163380E+03 -0.44988745334E+02  0.22269523971E+03  0.33095044080E+03  0.78360659081E+02 0.  0.
         13    1    3    3    0    0  0.14320932455E+03  0.16087590541E+03 -0.53973981965E+02  0.22204314515E+03  0.00000000000E+00 0. -1.
        -13    1    3    3    0    0  0.77211575227E+02  0.15199219610E+03  0.25078578889E+02  0.17231421922E+03  0.00000000000E+00 0.  1.
          2    1    6    6  502    0  0.10690741728E+03  0.10047033566E+02  0.67504461759E+02  0.12683450284E+03  0.00000000000E+00 0. -1.
          3    1    5    5  503    0 -0.21516766469E+02  0.30947057322E+01 -0.35287057191E+02  0.41445444238E+02  0.00000000000E+00 0. -1.
         -4    1    5    5    0  503 -0.42643576711E+03 -0.27097406191E+03 -0.52798127008E+03  0.73077946554E+03  0.00000000000E+00 0.  1.
         -1    1    6    6    0  502  0.12062421653E+03 -0.55035778901E+02  0.15519077795E+03  0.20411593797E+03  0.00000000000E+00 0.  1.
<mgrwt>
<rscale>  0 0.14512399E+04</rscale>
<asrwt>0</asrwt>
<pdfrwt beam="1">  1        1 0.14361548E+00 0.14512399E+04</pdfrwt>
<pdfrwt beam="2">  1       -1 0.86774172E-01 0.14512399E+04</pdfrwt>
<totfact> 0.21727545E+01</totfact>
</mgrwt>
</event>
<event>
12    1  0.1532786E-007  0.1511721E+04  0.7818608E-02  0.8876695E-01
          1   -1    0    0  501    0  0.00000000000E+00  0.00000000000E+00  0.59108972478E+03  0.59108972478E+03  0.00000000000E+00 0. -1.
         -1   -1    0    0    0  501 -0.00000000000E+00 -0.00000000000E+00 -0.96656299022E+03  0.96656299022E+03  0.00000000000E+00 0.  1.
         23    2    1    2    0    0  0.41819349475E+03 -0.14962831540E+03 -0.30955659094E+03  0.54907511118E+03  0.91562890393E+02 0.  0.
        254    2    1    2    0    0 -0.41819349475E+03  0.14962831540E+03 -0.65916674501E+02  0.10085776038E+04  0.90311092515E+03 0.  0.
        -24    2    4    4    0    0 -0.43963064554E+03  0.33481353697E+03 -0.34992592634E+03  0.65890842574E+03  0.79604965632E+02 0.  0.
         24    2    4    4    0    0  0.21437150784E+02 -0.18518522157E+03  0.28400925184E+03  0.34966917807E+03  0.82789861950E+02 0.  0.
         11    1    3    3    0    0  0.24270945222E+03 -0.88254219295E+02 -0.23365998280E+03  0.34827241203E+03  0.00000000000E+00 0.  1.
        -11    1    3    3    0    0  0.17548404254E+03 -0.61374096107E+02 -0.75896608135E+02  0.20080269914E+03  0.00000000000E+00 0. -1.
          4    1    6    6  502    0  0.51761673490E+02 -0.88568160499E+02  0.13668483851E+03  0.17089861022E+03  0.00000000000E+00 0. -1.
          3    1    5    5  503    0 -0.17184994537E+03  0.93246608608E+02 -0.95798940023E+02  0.21772636645E+03  0.00000000000E+00 0. -1.
         -4    1    5    5    0  503 -0.26778070017E+03  0.24156692836E+03 -0.25412698632E+03  0.44118205929E+03  0.00000000000E+00 0.  1.
         -3    1    6    6    0  502 -0.30324522706E+02 -0.96617061068E+02  0.14732441333E+03  0.17877056785E+03  0.00000000000E+00 0.  1.
<mgrwt>
<rscale>  0 0.15117215E+04</rscale>
<asrwt>0</asrwt>
<pdfrwt beam="1">  1        1 0.90936882E-01 0.15117215E+04</pdfrwt>
<pdfrwt beam="2">  1       -1 0.14870200E+00 0.15117215E+04</pdfrwt>
<totfact> 0.12081322E+01</totfact>
</mgrwt>
</event>
<event>
12    1  0.1532786E-007  0.1721000E+04  0.7818608E-02  0.8749477E-01
         -2   -1    0    0    0  501 -0.00000000000E+00  0.00000000000E+00  0.40271961247E+03  0.40271961247E+03  0.00000000000E+00 0. -1.
          2   -1    0    0  501    0  0.00000000000E+00 -0.00000000000E+00 -0.18386499147E+04  0.18386499147E+04  0.00000000000E+00 0.  1.
         23    2    1    2    0    0 -0.44661672821E+02  0.55295889414E+03 -0.88784743710E+03  0.10506678601E+04  0.88722471510E+02 0.  0.
        254    2    1    2    0    0  0.44661672821E+02 -0.55295889414E+03 -0.54808286513E+03  0.11907016671E+04  0.89978743567E+03 0.  0.
        -24    2    4    4    0    0  0.31823121085E+03  0.66872067146E+01 -0.44733659922E+03  0.55476772373E+03  0.79632731954E+02 0.  0.
         24    2    4    4    0    0 -0.27356953803E+03 -0.55964610085E+03 -0.10074626591E+03  0.63593394338E+03  0.78855056379E+02 0.  0.
         13    1    3    3    0    0 -0.43230444069E+02  0.32054796450E+03 -0.43988577014E+03  0.54600307656E+03  0.00000000000E+00 0.  1.
        -13    1    3    3    0    0 -0.14312287517E+01  0.23241092964E+03 -0.44796166696E+03  0.50466478349E+03  0.00000000000E+00 0. -1.
          2    1    6    6  502    0 -0.14060482222E+03 -0.21176219510E+03 -0.60867091722E+02  0.26137663660E+03  0.00000000000E+00 0. -1.
          3    1    5    5  503    0  0.28835863791E+03 -0.34254158893E+01 -0.43271684845E+03  0.52000606579E+03  0.00000000000E+00 0. -1.
         -4    1    5    5    0  503  0.29872572938E+02  0.10112622604E+02 -0.14619750774E+02  0.34761657937E+02  0.00000000000E+00 0.  1.
         -1    1    6    6    0  502 -0.13296471580E+03 -0.34788390575E+03 -0.39879174190E+02  0.37455730678E+03  0.00000000000E+00 0.  1.
<mgrwt>
<rscale>  0 0.17210002E+04</rscale>
<asrwt>0</asrwt>
<pdfrwt beam="1">  1        2 0.28286922E+00 0.17210002E+04</pdfrwt>
<pdfrwt beam="2">  1       -2 0.61956863E-01 0.17210002E+04</pdfrwt>
<totfact> 0.18873963E+01</totfact>
</mgrwt>
</event>
<event>
12    1  0.1532786E-007  0.1715127E+04  0.7818608E-02  0.8752784E-01
         -2   -1    0    0    0  501 -0.00000000000E+00  0.00000000000E+00  0.25333393529E+03  0.25333393529E+03  0.00000000000E+00 0.  1.
          2   -1    0    0  501    0  0.00000000000E+00 -0.00000000000E+00 -0.29029462175E+04  0.29029462175E+04  0.00000000000E+00 0. -1.
         23    2    1    2    0    0  0.41961723180E+03  0.12951357089E+03 -0.14709578716E+03  0.46800975612E+03  0.67406045383E+02 0.  0.
        254    2    1    2    0    0 -0.41961723180E+03 -0.12951357089E+03 -0.25025164950E+04  0.26882703967E+04  0.87826905408E+03 0.  0.
        -24    2    4    4    0    0 -0.22004104873E+03  0.28775512239E+03 -0.45157558101E+03  0.58420763139E+03  0.78466410743E+02 0.  0.
         24    2    4    4    0    0 -0.19957618307E+03 -0.41726869328E+03 -0.20509409140E+04  0.21040627653E+04  0.82326618736E+02 0.  0.
         13    1    3    3    0    0  0.20335428179E+02 -0.67026972131E+01 -0.14211578577E+02  0.25698730607E+02  0.00000000000E+00 0. -1.
        -13    1    3    3    0    0  0.39928180362E+03  0.13621626810E+03 -0.13288420859E+03  0.44231102551E+03  0.00000000000E+00 0.  1.
          4    1    6    6  502    0 -0.11825564684E+03 -0.29699782467E+03 -0.12608783966E+04  0.13007714775E+04  0.00000000000E+00 0. -1.
          1    1    5    5  503    0 -0.20723936963E+03  0.28810060831E+03 -0.44666805694E+03  0.57049318131E+03  0.00000000000E+00 0. -1.
         -2    1    5    5    0  503 -0.12801679101E+02 -0.34548591989E+00 -0.49075240738E+01  0.13714450075E+02  0.00000000000E+00 0.  1.
         -3    1    6    6    0  502 -0.81320536223E+02 -0.12027086862E+03 -0.79006251746E+03  0.80329128773E+03  0.00000000000E+00 0.  1.
<mgrwt>
<rscale>  0 0.17151266E+04</rscale>
<asrwt>0</asrwt>
<pdfrwt beam="1">  1        2 0.44660712E+00 0.17151266E+04</pdfrwt>
<pdfrwt beam="2">  1       -2 0.38974451E-01 0.17151266E+04</pdfrwt>
<totfact> 0.11878836E+01</totfact>
</mgrwt>
</event>
<event>
12    1  0.1532786E-007  0.1251285E+04  0.7818608E-02  0.9069115E-01
          1   -1    0    0  501    0  0.00000000000E+00  0.00000000000E+00  0.58204504080E+03  0.58204504080E+03  0.00000000000E+00 0. -1.
         -1   -1    0    0    0  501 -0.00000000000E+00 -0.00000000000E+00 -0.67250544649E+03  0.67250544649E+03  0.00000000000E+00 0.  1.
         23    2    1    2    0    0 -0.13486033105E+03 -0.46829890795E+01 -0.26789863212E+03  0.31374473419E+03  0.91961088843E+02 0.  0.
        254    2    1    2    0    0  0.13486033105E+03  0.46829890795E+01  0.17743822642E+03  0.94080575310E+03  0.91401416925E+03 0.  0.
        -24    2    4    4    0    0 -0.18426191844E+03  0.32850740550E+03 -0.10577471257E+03  0.39927394696E+03  0.79761048409E+02 0.  0.
         24    2    4    4    0    0  0.31912224949E+03 -0.32382441642E+03  0.28321293900E+03  0.54153180614E+03  0.79660940645E+02 0.  0.
         13    1    3    3    0    0 -0.68503673164E+02  0.41003180455E+02 -0.10394754096E+03  0.13106908604E+03  0.00000000000E+00 0. -1.
        -13    1    3    3    0    0 -0.66356657884E+02 -0.45686169535E+02 -0.16395109116E+03  0.18267564815E+03  0.00000000000E+00 0.  1.
          4    1    6    6  502    0  0.15198844783E+03 -0.10048892718E+03  0.10070327672E+03  0.20818180204E+03  0.00000000000E+00 0. -1.
          1    1    5    5  503    0 -0.15186901970E+03  0.19682710319E+03 -0.80642829576E+02  0.26135870687E+03  0.00000000000E+00 0. -1.
         -2    1    5    5    0  503 -0.32392898741E+02  0.13168030231E+03 -0.25131882994E+02  0.13791524009E+03  0.00000000000E+00 0.  1.
         -3    1    6    6    0  502  0.16713380165E+03 -0.22333548924E+03  0.18250966227E+03  0.33335000410E+03  0.00000000000E+00 0.  1.
<mgrwt>
<rscale>  0 0.12512849E+04</rscale>
<asrwt>0</asrwt>
<pdfrwt beam="1">  1        1 0.89545391E-01 0.12512849E+04</pdfrwt>
<pdfrwt beam="2">  1       -1 0.10346238E+00 0.12512849E+04</pdfrwt>
<totfact> 0.31104984E+01</totfact>
</mgrwt>
</event>
<event>
12    1  0.1532786E-007  0.2115815E+04  0.7818608E-02  0.8554309E-01
         -1   -1    0    0    0  501 -0.00000000000E+00  0.00000000000E+00  0.12512008358E+04  0.12512008358E+04  0.00000000000E+00 0.  1.
          1   -1    0    0  501    0  0.00000000000E+00 -0.00000000000E+00 -0.89447532071E+03  0.89447532071E+03  0.00000000000E+00 0. -1.
         23    2    1    2    0    0  0.40243930131E+03  0.44754669925E+03  0.77238869136E+03  0.98344375424E+03  0.91224382502E+02 0.  0.
        254    2    1    2    0    0 -0.40243930131E+03 -0.44754669925E+03 -0.41566317629E+03  0.11622324022E+04  0.90319036833E+03 0.  0.
        -24    2    4    4    0    0 -0.41600273459E+03  0.17244068519E+03 -0.21459210645E+03  0.50530904038E+03  0.80581567633E+02 0.  0.
         24    2    4    4    0    0  0.13563433288E+02 -0.61998738445E+03 -0.20107106984E+03  0.65692336186E+03  0.80934570061E+02 0.  0.
         13    1    3    3    0    0  0.13001524102E+03  0.18926058108E+03  0.24148647813E+03  0.33322552359E+03  0.00000000000E+00 0. -1.
        -13    1    3    3    0    0  0.27242406028E+03  0.25828611817E+03  0.53090221323E+03  0.65021823065E+03  0.00000000000E+00 0.  1.
          4    1    6    6  502    0  0.74081989286E+01 -0.25552243585E+03 -0.12499279958E+03  0.28455192247E+03  0.00000000000E+00 0. -1.
          3    1    5    5  503    0 -0.40266045481E+03  0.17867250719E+03 -0.19755878371E+03  0.48279268813E+03  0.00000000000E+00 0. -1.
         -4    1    5    5    0  503 -0.13342279785E+02 -0.62318219926E+01 -0.17033322739E+02  0.22516352252E+02  0.00000000000E+00 0.  1.
         -3    1    6    6    0  502  0.61552343589E+01 -0.36446494860E+03 -0.76078270262E+02  0.37237143939E+03  0.00000000000E+00 0.  1.
<mgrwt>
<rscale>  0 0.21158150E+04</rscale>
<asrwt>0</asrwt>
<pdfrwt beam="1">  1        1 0.13761159E+00 0.21158150E+04</pdfrwt>
<pdfrwt beam="2">  1       -1 0.19249244E+00 0.21158150E+04</pdfrwt>
<totfact> 0.28662308E+00</totfact>
</mgrwt>
</event>
<event>
12    1  0.1532786E-007  0.1434617E+04  0.7818608E-02  0.8929135E-01
         -2   -1    0    0    0  501 -0.00000000000E+00  0.00000000000E+00  0.40665351806E+03  0.40665351806E+03  0.00000000000E+00 0. -1.
          2   -1    0    0  501    0  0.00000000000E+00 -0.00000000000E+00 -0.12652825141E+04  0.12652825141E+04  0.00000000000E+00 0.  1.
         23    2    1    2    0    0 -0.41252581570E+03  0.59413707604E+02 -0.32701402694E+03  0.53747498060E+03  0.90739427370E+02 0.  0.
        254    2    1    2    0    0  0.41252581570E+03 -0.59413707604E+02 -0.53161496914E+03  0.11344610516E+04  0.91141640590E+03 0.  0.
        -24    2    4    4    0    0  0.61543148870E+03 -0.15915607692E+03 -0.60738266281E+03  0.88280928166E+03  0.79699150555E+02 0.  0.
         24    2    4    4    0    0 -0.20290567300E+03  0.99742369314E+02  0.75767693675E+02  0.25165176995E+03  0.80427716258E+02 0.  0.
         13    1    3    3    0    0 -0.20672397555E+03  0.39674679827E+02 -0.22073012732E+03  0.30500929722E+03  0.00000000000E+00 0.  1.
        -13    1    3    3    0    0 -0.20580184015E+03  0.19739027777E+02 -0.10628389963E+03  0.23246568337E+03  0.00000000000E+00 0. -1.
          4    1    6    6  502    0 -0.36267282548E+02  0.37050092400E+02 -0.11904021334E+02  0.53195214579E+02  0.00000000000E+00 0. -1.
          1    1    5    5  503    0  0.32609577065E+01 -0.96631759427E+01 -0.65588735990E+01  0.12125577815E+02  0.00000000000E+00 0. -1.
         -2    1    5    5    0  503  0.61217053099E+03 -0.14949290097E+03 -0.60082378921E+03  0.87068370384E+03  0.00000000000E+00 0.  1.
         -3    1    6    6    0  502 -0.16663839045E+03  0.62692276914E+02  0.87671715009E+02  0.19845655537E+03  0.00000000000E+00 0.  1.
<mgrwt>
<rscale>  0 0.14346171E+04</rscale>
<asrwt>0</asrwt>
<pdfrwt beam="1">  1        2 0.19465885E+00 0.14346171E+04</pdfrwt>
<pdfrwt beam="2">  1       -2 0.62562080E-01 0.14346171E+04</pdfrwt>
<totfact> 0.39855809E+01</totfact>
</mgrwt>
</event>
<event>
12    1  0.1532786E-007  0.1708885E+04  0.7818608E-02  0.8756313E-01
          2   -1    0    0  501    0  0.00000000000E+00  0.00000000000E+00  0.37074224910E+04  0.37074224910E+04  0.00000000000E+00 0. -1.
         -2   -1    0    0    0  501 -0.00000000000E+00 -0.00000000000E+00 -0.19692178285E+03  0.19692178285E+03  0.00000000000E+00 0.  1.
         23    2    1    2    0    0 -0.10483500658E+02  0.37967724921E+03  0.23570379603E+04  0.23891779175E+04  0.90986030150E+02 0.  0.
        254    2    1    2    0    0  0.10483500658E+02 -0.37967724921E+03  0.11534627478E+04  0.15151663564E+04  0.90608391415E+03 0.  0.
        -24    2    4    4    0    0  0.34142733261E+03 -0.24149599237E+03  0.15918361862E+03  0.45518986719E+03  0.83459289300E+02 0.  0.
         24    2    4    4    0    0 -0.33094383195E+03 -0.13818125684E+03  0.99427912921E+03  0.10599764892E+04  0.79632224522E+02 0.  0.
         13    1    3    3    0    0  0.27031531443E+02  0.40425039077E+02  0.34119792167E+03  0.34464606370E+03  0.00000000000E+00 0.  1.
        -13    1    3    3    0    0 -0.37515032102E+02  0.33925221013E+03  0.20158400387E+04  0.20445318538E+04  0.00000000000E+00 0. -1.
          4    1    6    6  502    0 -0.22940076209E+03 -0.11869740004E+03  0.78770658251E+03  0.82897252220E+03  0.00000000000E+00 0. -1.
          3    1    5    5  503    0  0.33889567286E+03 -0.23009212533E+03  0.14030130526E+03  0.43298628094E+03  0.00000000000E+00 0. -1.
         -4    1    5    5    0  503  0.25316597428E+01 -0.11403867040E+02  0.18882313353E+02  0.22203586244E+02  0.00000000000E+00 0.  1.
         -3    1    6    6    0  502 -0.10154306986E+03 -0.19483856802E+02  0.20657254670E+03  0.23100396699E+03  0.00000000000E+00 0.  1.
<mgrwt>
<rscale>  0 0.17088853E+04</rscale>
<asrwt>0</asrwt>
<pdfrwt beam="1">  1        2 0.57037264E+00 0.17088853E+04</pdfrwt>
<pdfrwt beam="2">  1       -2 0.30295662E-01 0.17088853E+04</pdfrwt>
<totfact> 0.55874091E+00</totfact>
</mgrwt>
</event>
<event>
12    1  0.1532786E-007  0.1874408E+04  0.7818608E-02  0.8667701E-01
          1   -1    0    0  501    0  0.00000000000E+00  0.00000000000E+00  0.46217980940E+04  0.46217980940E+04  0.00000000000E+00 0. -1.
         -1   -1    0    0    0  501 -0.00000000000E+00 -0.00000000000E+00 -0.19004533474E+03  0.19004533474E+03  0.00000000000E+00 0.  1.
         23    2    1    2    0    0 -0.48409386337E+03 -0.46399729208E+03  0.23072902870E+04  0.24044362443E+04  0.89915675654E+02 0.  0.
        254    2    1    2    0    0  0.48409386337E+03  0.46399729208E+03  0.21244624723E+04  0.24074071845E+04  0.91248463007E+03 0.  0.
        -24    2    4    4    0    0 -0.23929981503E+03  0.10035743547E+03  0.87979210359E+03  0.92046361386E+03  0.76701385765E+02 0.  0.
         24    2    4    4    0    0  0.72339367839E+03  0.36363985661E+03  0.12446703687E+04  0.14869435706E+04  0.79148570594E+02 0.  0.
         13    1    3    3    0    0 -0.41242890003E+03 -0.42777674543E+03  0.20880159023E+04  0.21709216821E+04  0.00000000000E+00 0. -1.
        -13    1    3    3    0    0 -0.71664963335E+02 -0.36220546648E+02  0.21927438462E+03  0.23351456211E+03  0.00000000000E+00 0.  1.
          4    1    6    6  502    0  0.48398605866E+03  0.27692789125E+03  0.89228890114E+03  0.10521934447E+04  0.00000000000E+00 0. -1.
          3    1    5    5  503    0 -0.16171243973E+03  0.10482496153E+03  0.61245427511E+03  0.64205873939E+03  0.00000000000E+00 0. -1.
         -4    1    5    5    0  503 -0.77587375300E+02 -0.44675260613E+01  0.26733782848E+03  0.27840487448E+03  0.00000000000E+00 0.  1.
         -3    1    6    6    0  502  0.23940761973E+03  0.86711965359E+02  0.35238146753E+03  0.43475012591E+03  0.00000000000E+00 0.  1.
<mgrwt>
<rscale>  0 0.18744078E+04</rscale>
<asrwt>0</asrwt>
<pdfrwt beam="1">  1        1 0.71104577E+00 0.18744078E+04</pdfrwt>
<pdfrwt beam="2">  1       -1 0.29237747E-01 0.18744078E+04</pdfrwt>
<totfact> 0.24459834E-01</totfact>
</mgrwt>
</event>
<event>
12    1  0.1532786E-007  0.2170242E+04  0.7818608E-02  0.8530917E-01
         -1   -1    0    0    0  501 -0.00000000000E+00  0.00000000000E+00  0.13531343177E+04  0.13531343177E+04  0.00000000000E+00 0.  1.
          1   -1    0    0  501    0  0.00000000000E+00 -0.00000000000E+00 -0.87019292989E+03  0.87019292989E+03  0.00000000000E+00 0. -1.
         23    2    1    2    0    0  0.78279693636E+03 -0.83107092176E+02  0.63620216671E+03  0.10162810399E+04  0.91630359209E+02 0.  0.
        254    2    1    2    0    0 -0.78279693636E+03  0.83107092176E+02 -0.15326077894E+03  0.12070462077E+04  0.90210523154E+03 0.  0.
        -24    2    4    4    0    0 -0.22104775178E+03  0.43794451835E+03 -0.20162527451E+03  0.53643501164E+03  0.80325965114E+02 0.  0.
         24    2    4    4    0    0 -0.56174918459E+03 -0.35483742618E+03  0.48364495571E+02  0.67061119604E+03  0.76866809677E+02 0.  0.
         13    1    3    3    0    0  0.11681640506E+03  0.17255640683E+02  0.77901911811E+02  0.14146567601E+03  0.00000000000E+00 0. -1.
        -13    1    3    3    0    0  0.66598053131E+03 -0.10036273286E+03  0.55830025490E+03  0.87481536386E+03  0.00000000000E+00 0.  1.
          4    1    6    6  502    0 -0.17507924337E+03 -0.13931858784E+03  0.43348638144E+02  0.22790681167E+03  0.00000000000E+00 0. -1.
          3    1    5    5  503    0 -0.30150991824E+01 -0.16412469515E+01 -0.83988780236E+01  0.90733492543E+01  0.00000000000E+00 0. -1.
         -4    1    5    5    0  503 -0.21803265260E+03  0.43958576530E+03 -0.19322639649E+03  0.52736166239E+03  0.00000000000E+00 0.  1.
         -3    1    6    6    0  502 -0.38666994122E+03 -0.21551883833E+03  0.50158574269E+01  0.44270438438E+03  0.00000000000E+00 0.  1.
<mgrwt>
<rscale>  0 0.21702423E+04</rscale>
<asrwt>0</asrwt>
<pdfrwt beam="1">  1        1 0.13387583E+00 0.21702423E+04</pdfrwt>
<pdfrwt beam="2">  1       -1 0.20817451E+00 0.21702423E+04</pdfrwt>
<totfact> 0.23288354E+00</totfact>
</mgrwt>
</event>
<event>
12    1  0.1532786E-007  0.1338934E+04  0.7818608E-02  0.8999247E-01
         -1   -1    0    0    0  501 -0.00000000000E+00  0.00000000000E+00  0.59300518717E+03  0.59300518717E+03  0.00000000000E+00 0.  1.
          1   -1    0    0  501    0  0.00000000000E+00 -0.00000000000E+00 -0.75578785084E+03  0.75578785084E+03  0.00000000000E+00 0. -1.
         23    2    1    2    0    0  0.34784587109E+02 -0.10299464944E+03  0.29613371456E+03  0.32987453319E+03  0.96458101960E+02 0.  0.
        254    2    1    2    0    0 -0.34784587109E+02  0.10299464944E+03 -0.45891637823E+03  0.10189185048E+04  0.90320142379E+03 0.  0.
        -24    2    4    4    0    0  0.27474675942E+03 -0.38900890056E+00  0.15028428874E+03  0.32321737669E+03  0.79988574256E+02 0.  0.
         24    2    4    4    0    0 -0.30953134653E+03  0.10338365834E+03 -0.60920066697E+03  0.69570112813E+03  0.79854691453E+02 0.  0.
         13    1    3    3    0    0  0.15826508513E+02 -0.36829718304E+02  0.23317412244E+03  0.23659475459E+03  0.00000000000E+00 0.  1.
        -13    1    3    3    0    0  0.18958078596E+02 -0.66164931133E+02  0.62959592118E+02  0.93279778599E+02  0.00000000000E+00 0. -1.
          4    1    6    6  502    0 -0.53773860064E+01  0.57398493888E+01 -0.42152892441E-01  0.78653625558E+01  0.00000000000E+00 0. -1.
          3    1    5    5  503    0  0.16465710274E+02 -0.12478892558E+02  0.33827581474E+02  0.39637704811E+02  0.00000000000E+00 0. -1.
         -4    1    5    5    0  503  0.25828104915E+03  0.12089883657E+02  0.11645670726E+03  0.28357967188E+03  0.00000000000E+00 0.  1.
         -3    1    6    6    0  502 -0.30415396052E+03  0.97643808949E+02 -0.60915851408E+03  0.68783576557E+03  0.00000000000E+00 0.  1.
<mgrwt>
<rscale>  0 0.13389341E+04</rscale>
<asrwt>0</asrwt>
<pdfrwt beam="1">  1        1 0.11627505E+00 0.13389341E+04</pdfrwt>
<pdfrwt beam="2">  1       -1 0.91231568E-01 0.13389341E+04</pdfrwt>
<totfact> 0.27800183E+01</totfact>
</mgrwt>
</event>
<event>
12    1  0.1532786E-007  0.1595661E+04  0.7818608E-02  0.8823218E-01
          1   -1    0    0  501    0  0.00000000000E+00  0.00000000000E+00  0.11568712149E+04  0.11568712149E+04  0.00000000000E+00 0. -1.
         -1   -1    0    0    0  501 -0.00000000000E+00 -0.00000000000E+00 -0.55022018334E+03  0.55022018334E+03  0.00000000000E+00 0.  1.
         23    2    1    2    0    0  0.29404118537E+03 -0.43877892475E+03  0.32499183633E+03  0.62676399099E+03  0.90698639595E+02 0.  0.
        254    2    1    2    0    0 -0.29404118537E+03  0.43877892475E+03  0.28165919519E+03  0.10803274072E+04  0.89932654861E+03 0.  0.
        -24    2    4    4    0    0  0.55825800139E+02  0.47772013480E+03 -0.15748367906E+03  0.51214080030E+03  0.78447708691E+02 0.  0.
         24    2    4    4    0    0 -0.34986698551E+03 -0.38941210058E+02  0.43914287425E+03  0.56818660691E+03  0.77886012079E+02 0.  0.
         13    1    3    3    0    0  0.23350911913E+02 -0.13282615224E+02  0.37942962842E+02  0.46490444003E+02  0.00000000000E+00 0. -1.
        -13    1    3    3    0    0  0.27069027346E+03 -0.42549630952E+03  0.28704887349E+03  0.58027354699E+03  0.00000000000E+00 0.  1.
          4    1    6    6  502    0 -0.22545881732E+03 -0.62407662489E+02  0.28405553999E+03  0.36798633731E+03  0.00000000000E+00 0. -1.
          3    1    5    5  503    0  0.25275704053E+02  0.21266085364E+03 -0.29367235209E+02  0.21616182454E+03  0.00000000000E+00 0. -1.
         -4    1    5    5    0  503  0.30550096086E+02  0.26505928117E+03 -0.12811644385E+03  0.29597897575E+03  0.00000000000E+00 0.  1.
         -3    1    6    6    0  502 -0.12440816819E+03  0.23466452431E+02  0.15508733426E+03  0.20020026961E+03  0.00000000000E+00 0.  1.
<mgrwt>
<rscale>  0 0.15956615E+04</rscale>
<asrwt>0</asrwt>
<pdfrwt beam="1">  1        1 0.17798019E+00 0.15956615E+04</pdfrwt>
<pdfrwt beam="2">  1       -1 0.84649259E-01 0.15956615E+04</pdfrwt>
<totfact> 0.15246433E+01</totfact>
</mgrwt>
</event>
<event>
12    1  0.1532786E-007  0.1148402E+04  0.7818608E-02  0.9159259E-01
         -2   -1    0    0    0  501 -0.00000000000E+00  0.00000000000E+00  0.59944312440E+03  0.59944312440E+03  0.00000000000E+00 0.  1.
          2   -1    0    0  501    0  0.00000000000E+00 -0.00000000000E+00 -0.55002200170E+03  0.55002200170E+03  0.00000000000E+00 0. -1.
         23    2    1    2    0    0  0.11909256490E+03 -0.16311988350E+03 -0.16409031312E+02  0.22100660610E+03  0.88224306331E+02 0.  0.
        254    2    1    2    0    0 -0.11909256490E+03  0.16311988350E+03  0.65830154007E+02  0.92845852000E+03  0.90383100122E+03 0.  0.
        -24    2    4    4    0    0 -0.12687333328E+03  0.13898759023E+03 -0.40277378985E+03  0.45217730737E+03  0.82602654796E+02 0.  0.
         24    2    4    4    0    0  0.77807683816E+01  0.24132293265E+02  0.46860394385E+03  0.47628121262E+03  0.81309466658E+02 0.  0.
         11    1    3    3    0    0  0.59002307992E+02 -0.81861212400E+02 -0.52429138531E+02  0.11371607191E+03  0.00000000000E+00 0. -1.
        -11    1    3    3    0    0  0.60090256903E+02 -0.81258671098E+02  0.36020107219E+02  0.10729053419E+03  0.00000000000E+00 0.  1.
          2    1    6    6  502    0  0.42384932907E+02  0.18053062007E+02  0.19174030345E+03  0.19719720980E+03  0.00000000000E+00 0. -1.
          1    1    5    5  503    0  0.10487146890E+02  0.16970042794E+02 -0.24099776896E+02  0.31285169789E+02  0.00000000000E+00 0. -1.
         -2    1    5    5    0  503 -0.13736048017E+03  0.12201754744E+03 -0.37867401295E+03  0.42089213758E+03  0.00000000000E+00 0.  1.
         -3    1    6    6    0  502 -0.34604164526E+02  0.60792312584E+01  0.27686364040E+03  0.27908400282E+03  0.00000000000E+00 0.  1.
<mgrwt>
<rscale>  0 0.11484022E+04</rscale>
<asrwt>0</asrwt>
<pdfrwt beam="1">  1        2 0.84618770E-01 0.11484022E+04</pdfrwt>
<pdfrwt beam="2">  1       -2 0.92222019E-01 0.11484022E+04</pdfrwt>
<totfact> 0.54452196E+01</totfact>
</mgrwt>
</event>
<event>
12    1  0.1532786E-007  0.3201817E+04  0.7818608E-02  0.8188337E-01
         -1   -1    0    0    0  501 -0.00000000000E+00  0.00000000000E+00  0.11620176680E+04  0.11620176680E+04  0.00000000000E+00 0.  1.
          1   -1    0    0  501    0  0.00000000000E+00 -0.00000000000E+00 -0.22055677924E+04  0.22055677924E+04  0.00000000000E+00 0. -1.
         23    2    1    2    0    0 -0.78633677104E+03  0.10013268438E+04 -0.12710302609E+04  0.18012394476E+04  0.89244933624E+02 0.  0.
        254    2    1    2    0    0  0.78633677104E+03 -0.10013268438E+04  0.22748013644E+03  0.15663460127E+04  0.88357888929E+03 0.  0.
        -24    2    4    4    0    0  0.64461707637E+03 -0.78453159577E+03 -0.22089952278E+03  0.10421371574E+04  0.78944636869E+02 0.  0.
         24    2    4    4    0    0  0.14171969467E+03 -0.21679524801E+03  0.44837965921E+03  0.52420885538E+03  0.81645292852E+02 0.  0.
         11    1    3    3    0    0 -0.60287942223E+03  0.76747700191E+03 -0.91931871432E+03  0.13407577875E+04  0.00000000000E+00 0. -1.
        -11    1    3    3    0    0 -0.18345734881E+03  0.23384984187E+03 -0.35171154654E+03  0.46048166016E+03  0.00000000000E+00 0.  1.
          4    1    6    6  502    0 -0.64988900681E+01 -0.75323368790E+01  0.45989051248E+02  0.47052784250E+02  0.00000000000E+00 0. -1.
          1    1    5    5  503    0  0.22877700798E+03 -0.27253006234E+03 -0.39244008707E+02  0.35798274606E+03  0.00000000000E+00 0. -1.
         -2    1    5    5    0  503  0.41584006839E+03 -0.51200153342E+03 -0.18165551407E+03  0.68415441130E+03  0.00000000000E+00 0.  1.
         -3    1    6    6    0  502  0.14821858474E+03 -0.20926291113E+03  0.40239060796E+03  0.47715607113E+03  0.00000000000E+00 0.  1.
<mgrwt>
<rscale>  0 0.32018174E+04</rscale>
<asrwt>0</asrwt>
<pdfrwt beam="1">  1        1 0.33931812E+00 0.32018174E+04</pdfrwt>
<pdfrwt beam="2">  1       -1 0.17877195E+00 0.32018174E+04</pdfrwt>
<totfact> 0.38366305E-01</totfact>
</mgrwt>
</event>
<event>
12    1  0.1532786E-007  0.1131830E+04  0.7818608E-02  0.9174712E-01
          1   -1    0    0  501    0  0.00000000000E+00  0.00000000000E+00  0.58164265895E+03  0.58164265895E+03  0.00000000000E+00 0. -1.
         -1   -1    0    0    0  501 -0.00000000000E+00 -0.00000000000E+00 -0.55061251240E+03  0.55061251240E+03  0.00000000000E+00 0.  1.
         23    2    1    2    0    0  0.13591111548E+02  0.22028747477E+02  0.20713316712E+03  0.22878285919E+03  0.93634735596E+02 0.  0.
        254    2    1    2    0    0 -0.13591111548E+02 -0.22028747477E+02 -0.17610302057E+03  0.90347231216E+03  0.88576518387E+03 0.  0.
        -24    2    4    4    0    0  0.37230152525E+03 -0.18768062881E+03 -0.21229194001E+03  0.47448662469E+03  0.78976231103E+02 0.  0.
         24    2    4    4    0    0 -0.38589263680E+03  0.16565188133E+03  0.36188919442E+02  0.42898568747E+03  0.79783514831E+02 0.  0.
         13    1    3    3    0    0 -0.27899107955E+01 -0.30760398766E+02  0.29356684094E+02  0.42612212281E+02  0.00000000000E+00 0.  1.
        -13    1    3    3    0    0  0.16381022343E+02  0.52789146242E+02  0.17777648303E+03  0.18617064691E+03  0.00000000000E+00 0. -1.
          2    1    6    6  502    0 -0.82622220410E+02  0.25873577590E+01 -0.87094719623E+00  0.82667310799E+02  0.00000000000E+00 0. -1.
          3    1    5    5  503    0  0.10906659854E+03 -0.17736124331E+02 -0.65785860472E+02  0.12859965965E+03  0.00000000000E+00 0. -1.
         -4    1    5    5    0  503  0.26323492671E+03 -0.16994450448E+03 -0.14650607954E+03  0.34588696504E+03  0.00000000000E+00 0.  1.
         -1    1    6    6    0  502 -0.30327041639E+03  0.16306452357E+03  0.37059866638E+02  0.34631837667E+03  0.00000000000E+00 0.  1.
<mgrwt>
<rscale>  0 0.11318299E+04</rscale>
<asrwt>0</asrwt>
<pdfrwt beam="1">  1        1 0.89483485E-01 0.11318299E+04</pdfrwt>
<pdfrwt beam="2">  1       -1 0.84709618E-01 0.11318299E+04</pdfrwt>
<totfact> 0.49154818E+01</totfact>
</mgrwt>
</event>
<event>
12    1  0.1532786E-007  0.2198320E+04  0.7818608E-02  0.8519128E-01
          1   -1    0    0  501    0  0.00000000000E+00  0.00000000000E+00  0.93866671686E+03  0.93866671686E+03  0.00000000000E+00 0. -1.
         -1   -1    0    0    0  501 -0.00000000000E+00 -0.00000000000E+00 -0.12870948482E+04  0.12870948482E+04  0.00000000000E+00 0.  1.
         23    2    1    2    0    0 -0.23843999442E+03 -0.25869833009E+03 -0.99505938782E+03  0.10593845994E+04  0.91510039214E+02 0.  0.
        254    2    1    2    0    0  0.23843999442E+03  0.25869833009E+03  0.64663125648E+03  0.11663769656E+04  0.90472359710E+03 0.  0.
        -24    2    4    4    0    0  0.42067275413E+03  0.28828468200E+03  0.29001930261E+02  0.51678732643E+03  0.78450014995E+02 0.  0.
         24    2    4    4    0    0 -0.18223275971E+03 -0.29586351913E+02  0.61762932622E+03  0.64958963920E+03  0.80103581756E+02 0.  0.
         13    1    3    3    0    0 -0.20445397453E+03 -0.20837662460E+03 -0.70525645026E+03  0.76328821949E+03  0.00000000000E+00 0.  1.
        -13    1    3    3    0    0 -0.33986019894E+02 -0.50321705496E+02 -0.28980293756E+03  0.29609637993E+03  0.00000000000E+00 0. -1.
          2    1    6    6  502    0 -0.10688481279E+03  0.20816645570E+02  0.29457923932E+03  0.31406149744E+03  0.00000000000E+00 0. -1.
          3    1    5    5  503    0  0.75715346686E+02  0.24758813588E+02  0.21958739750E+02  0.82631705933E+02  0.00000000000E+00 0. -1.
         -4    1    5    5    0  503  0.34495740745E+03  0.26352586842E+03  0.70431905109E+01  0.43415562050E+03  0.00000000000E+00 0.  1.
         -1    1    6    6    0  502 -0.75347946917E+02 -0.50402997483E+02  0.32305008691E+03  0.33552814176E+03  0.00000000000E+00 0.  1.
<mgrwt>
<rscale>  0 0.21983204E+04</rscale>
<asrwt>0</asrwt>
<pdfrwt beam="1">  1        1 0.14441026E+00 0.21983204E+04</pdfrwt>
<pdfrwt beam="2">  1       -1 0.19801459E+00 0.21983204E+04</pdfrwt>
<totfact> 0.23973827E+00</totfact>
</mgrwt>
</event>
<event>
12    1  0.1532786E-007  0.1434623E+04  0.7818608E-02  0.8929131E-01
         -2   -1    0    0    0  501 -0.00000000000E+00  0.00000000000E+00  0.19984862978E+03  0.19984862978E+03  0.00000000000E+00 0.  1.
          2   -1    0    0  501    0  0.00000000000E+00 -0.00000000000E+00 -0.25746284137E+04  0.25746284137E+04  0.00000000000E+00 0. -1.
         23    2    1    2    0    0 -0.31875754843E+03  0.15089921026E+03 -0.12130225825E+04  0.12673864269E+04  0.10231140320E+03 0.  0.
        254    2    1    2    0    0  0.31875754843E+03 -0.15089921026E+03 -0.11617572014E+04  0.15070906165E+04  0.89289718616E+03 0.  0.
        -24    2    4    4    0    0  0.88534826762E+02  0.30191468622E+03 -0.83963003485E+03  0.90029792383E+03  0.81036182877E+02 0.  0.
         24    2    4    4    0    0  0.23022272166E+03 -0.45281389648E+03 -0.32212716657E+03  0.60679269270E+03  0.79928305698E+02 0.  0.
         13    1    3    3    0    0 -0.30039209291E+03  0.15014106490E+03 -0.10282185971E+04  0.10816705748E+04  0.00000000000E+00 0.  1.
        -13    1    3    3    0    0 -0.18365455514E+02  0.75814536589E+00 -0.18480398532E+03  0.18571585213E+03  0.00000000000E+00 0. -1.
          4    1    6    6  502    0  0.86834215828E+02 -0.25415245627E+03 -0.18365509281E+03  0.32536570990E+03  0.00000000000E+00 0. -1.
          1    1    5    5  503    0  0.23823465769E+02  0.16684991892E+03 -0.53362220813E+03  0.55960621331E+03  0.00000000000E+00 0. -1.
         -2    1    5    5    0  503  0.64711360993E+02  0.13506476730E+03 -0.30600782672E+03  0.34069171052E+03  0.00000000000E+00 0.  1.
         -3    1    6    6    0  502  0.14338850584E+03 -0.19866144021E+03 -0.13847207377E+03  0.28142698280E+03  0.00000000000E+00 0.  1.
<mgrwt>
<rscale>  0 0.14346232E+04</rscale>
<asrwt>0</asrwt>
<pdfrwt beam="1">  1        2 0.39609669E+00 0.14346232E+04</pdfrwt>
<pdfrwt beam="2">  1       -2 0.30745942E-01 0.14346232E+04</pdfrwt>
<totfact> 0.30064345E+01</totfact>
</mgrwt>
</event>
<event>
12    1  0.1532786E-007  0.1645078E+04  0.7818608E-02  0.8793324E-01
          2   -1    0    0  501    0  0.00000000000E+00  0.00000000000E+00  0.29821621024E+04  0.29821621024E+04  0.00000000000E+00 0. -1.
         -2   -1    0    0    0  501 -0.00000000000E+00 -0.00000000000E+00 -0.22687234037E+03  0.22687234037E+03  0.00000000000E+00 0.  1.
         23    2    1    2    0    0 -0.41923162980E+03  0.30968773239E+03  0.77806115480E+03  0.94065999765E+03  0.88319983931E+02 0.  0.
        254    2    1    2    0    0  0.41923162980E+03 -0.30968773239E+03  0.19772286072E+04  0.22683744451E+04  0.98205295527E+03 0.  0.
        -24    2    4    4    0    0  0.40879862000E+03  0.11202471332E+03  0.27157968752E+03  0.50946215537E+03  0.78296315161E+02 0.  0.
         24    2    4    4    0    0  0.10433009791E+02 -0.42171244571E+03  0.17056489197E+04  0.17589122897E+04  0.81141673271E+02 0.  0.
         13    1    3    3    0    0 -0.10401836585E+02  0.25828325922E+02  0.22019512080E+02  0.35498725844E+02  0.00000000000E+00 0.  1.
        -13    1    3    3    0    0 -0.40882979321E+03  0.28385940647E+03  0.75604164272E+03  0.90516127181E+03  0.00000000000E+00 0. -1.
          4    1    6    6  502    0 -0.11900950526E+02 -0.39036315284E+03  0.15760986282E+04  0.16237647334E+04  0.00000000000E+00 0. -1.
          3    1    5    5  503    0  0.30140487185E+03  0.84258682843E+02  0.15755158163E+03  0.35038111148E+03  0.00000000000E+00 0. -1.
         -4    1    5    5    0  503  0.10739374815E+03  0.27766030475E+02  0.11402810589E+03  0.15908104389E+03  0.00000000000E+00 0.  1.
         -3    1    6    6    0  502  0.22333960317E+02 -0.31349292874E+02  0.12955029150E+03  0.13514755630E+03  0.00000000000E+00 0.  1.
<mgrwt>
<rscale>  0 0.16450776E+04</rscale>
<asrwt>0</asrwt>
<pdfrwt beam="1">  1        2 0.45879414E+00 0.16450776E+04</pdfrwt>
<pdfrwt beam="2">  1       -2 0.34903439E-01 0.16450776E+04</pdfrwt>
<totfact> 0.13217887E+01</totfact>
</mgrwt>
</event>
<event>
12    1  0.1555482E-007  0.1958215E+04  0.7818608E-02  0.8626409E-01
         -2   -1    0    0    0  501 -0.00000000000E+00  0.00000000000E+00  0.43254046943E+03  0.43254046943E+03  0.00000000000E+00 0.  1.
          2   -1    0    0  501    0  0.00000000000E+00 -0.00000000000E+00 -0.22163287585E+04  0.22163287585E+04  0.00000000000E+00 0. -1.
         23    2    1    2    0    0  0.14997628357E+02  0.76818941397E+03 -0.67905974306E+03  0.10299324093E+04  0.96429915089E+02 0.  0.
        254    2    1    2    0    0 -0.14997628357E+02 -0.76818941397E+03 -0.11047285460E+04  0.16189368186E+04  0.90010630351E+03 0.  0.
        -24    2    4    4    0    0 -0.45627203441E+02 -0.40487595009E+02  0.14014999456E+03  0.17460005201E+03  0.84392358312E+02 0.  0.
         24    2    4    4    0    0  0.30629575083E+02 -0.72770181896E+03 -0.12448785405E+04  0.14443367666E+04  0.76798478912E+02 0.  0.
         11    1    3    3    0    0 -0.11605088879E+02  0.63547676911E+03 -0.52094436119E+03  0.82179585641E+03  0.00000000000E+00 0. -1.
        -11    1    3    3    0    0  0.26602717236E+02  0.13271264487E+03 -0.15811538187E+03  0.20813655290E+03  0.00000000000E+00 0.  1.
          4    1    6    6  502    0  0.29701112938E+02 -0.72501659444E+03 -0.12454723064E+04  0.14414341762E+04  0.00000000000E+00 0. -1.
          3    1    5    5  503    0 -0.43819445852E+02 -0.55339350979E+02  0.14290451593E+03  0.15938722745E+03  0.00000000000E+00 0. -1.
         -4    1    5    5    0  503 -0.18077575888E+01  0.14851755969E+02 -0.27545213712E+01  0.15212824552E+02  0.00000000000E+00 0.  1.
         -3    1    6    6    0  502  0.92846214505E+00 -0.26852245261E+01  0.59376589225E+00  0.29025903337E+01  0.00000000000E+00 0.  1.
<mgrwt>
<rscale>  0 0.19582154E+04</rscale>
<asrwt>0</asrwt>
<pdfrwt beam="1">  1        2 0.34097366E+00 0.19582154E+04</pdfrwt>
<pdfrwt beam="2">  1       -2 0.66544687E-01 0.19582154E+04</pdfrwt>
<totfact> 0.97812296E+00</totfact>
</mgrwt>
</event>
<event>
12    1  0.1532786E-007  0.2486787E+04  0.7818608E-02  0.8407708E-01
          1   -1    0    0  501    0  0.00000000000E+00  0.00000000000E+00  0.19468813430E+04  0.19468813430E+04  0.00000000000E+00 0. -1.
         -1   -1    0    0    0  501 -0.00000000000E+00 -0.00000000000E+00 -0.79410438402E+03  0.79410438402E+03  0.00000000000E+00 0.  1.
         23    2    1    2    0    0 -0.77604667923E+03  0.74884351769E+03  0.53267484677E+03  0.12059854868E+04  0.87426766991E+02 0.  0.
        254    2    1    2    0    0  0.77604667923E+03 -0.74884351769E+03  0.62010211216E+03  0.15350002402E+04  0.89926861704E+03 0.  0.
        -24    2    4    4    0    0  0.80782096615E+03 -0.26927109416E+03  0.17002458262E+03  0.87191814872E+03  0.79064934526E+02 0.  0.
         24    2    4    4    0    0 -0.31774286923E+02 -0.47957242353E+03  0.45007752954E+03  0.66308209148E+03  0.78158574255E+02 0.  0.
         13    1    3    3    0    0 -0.64534418642E+03  0.62049944099E+03  0.40440977761E+03  0.98236242978E+03  0.00000000000E+00 0. -1.
        -13    1    3    3    0    0 -0.13070249281E+03  0.12834407670E+03  0.12826506916E+03  0.22362305699E+03  0.00000000000E+00 0.  1.
          2    1    6    6  502    0 -0.55970363786E+02 -0.35003485670E+03  0.34337199513E+03  0.49351941154E+03  0.00000000000E+00 0. -1.
          1    1    5    5  503    0  0.74792630127E+03 -0.26298595187E+03  0.17356317524E+03  0.81159074589E+03  0.00000000000E+00 0. -1.
         -2    1    5    5    0  503  0.59894664882E+02 -0.62851422912E+01 -0.35385926217E+01  0.60327402834E+02  0.00000000000E+00 0.  1.
         -1    1    6    6    0  502  0.24196076863E+02 -0.12953756683E+03  0.10670553441E+03  0.16956267994E+03  0.00000000000E+00 0.  1.
<mgrwt>
<rscale>  0 0.24867867E+04</rscale>
<asrwt>0</asrwt>
<pdfrwt beam="1">  1        1 0.29952021E+00 0.24867867E+04</pdfrwt>
<pdfrwt beam="2">  1       -1 0.12216991E+00 0.24867867E+04</pdfrwt>
<totfact> 0.17056697E+00</totfact>
</mgrwt>
</event>
<event>
12    1  0.1532786E-007  0.1526747E+04  0.7818608E-02  0.8866859E-01
          1   -1    0    0  501    0  0.00000000000E+00  0.00000000000E+00  0.10113754082E+04  0.10113754082E+04  0.00000000000E+00 0. -1.
         -1   -1    0    0    0  501 -0.00000000000E+00 -0.00000000000E+00 -0.57618492554E+03  0.57618492554E+03  0.00000000000E+00 0.  1.
         23    2    1    2    0    0  0.17398193056E+03  0.40775257013E+03  0.37211336024E+03  0.58621023739E+03  0.92963535553E+02 0.  0.
        254    2    1    2    0    0 -0.17398193056E+03 -0.40775257013E+03  0.63077122401E+02  0.10013500963E+04  0.89565139504E+03 0.  0.
        -24    2    4    4    0    0  0.56254378654E+01 -0.62028231999E+03  0.22965681675E+03  0.66728526048E+03  0.88008882100E+02 0.  0.
         24    2    4    4    0    0 -0.17960736843E+03  0.21252974986E+03 -0.16657969435E+03  0.33406483585E+03  0.80142489419E+02 0.  0.
         13    1    3    3    0    0  0.11953579928E+03  0.25884846390E+03  0.18024587955E+03  0.33731278017E+03  0.00000000000E+00 0. -1.
        -13    1    3    3    0    0  0.54446131288E+02  0.14890410623E+03  0.19186748069E+03  0.24889745722E+03  0.00000000000E+00 0.  1.
          2    1    6    6  502    0 -0.57915753407E+02  0.11235727820E+03 -0.42139318381E+02  0.13324456691E+03  0.00000000000E+00 0. -1.
          1    1    5    5  503    0 -0.31622976695E+02 -0.48689459543E+03  0.18401902478E+03  0.52146846616E+03  0.00000000000E+00 0. -1.
         -2    1    5    5    0  503  0.37248414561E+02 -0.13338772456E+03  0.45637791971E+02  0.14581679432E+03  0.00000000000E+00 0.  1.
         -1    1    6    6    0  502 -0.12169161502E+03  0.10017247166E+03 -0.12444037597E+03  0.20082026894E+03  0.00000000000E+00 0.  1.
<mgrwt>
<rscale>  0 0.15267472E+04</rscale>
<asrwt>0</asrwt>
<pdfrwt beam="1">  1        1 0.15559622E+00 0.15267472E+04</pdfrwt>
<pdfrwt beam="2">  1       -1 0.88643835E-01 0.15267472E+04</pdfrwt>
<totfact> 0.17877848E+01</totfact>
</mgrwt>
</event>
<event>
12    1  0.1532786E-007  0.1895311E+04  0.7818608E-02  0.8657194E-01
         -2   -1    0    0    0  501 -0.00000000000E+00  0.00000000000E+00  0.28592781005E+03  0.28592781005E+03  0.00000000000E+00 0.  1.
          2   -1    0    0  501    0  0.00000000000E+00 -0.00000000000E+00 -0.31408316808E+04  0.31408316808E+04  0.00000000000E+00 0. -1.
         23    2    1    2    0    0 -0.17834138073E+03 -0.23949397293E+03 -0.22590776278E+04  0.22807078157E+04  0.95044206787E+02 0.  0.
        254    2    1    2    0    0  0.17834138073E+03  0.23949397293E+03 -0.59582624298E+03  0.11460516751E+04  0.93234249024E+03 0.  0.
        -24    2    4    4    0    0  0.34509049868E+02  0.10269238691E+03  0.24425985460E+03  0.27905701625E+03  0.80457074869E+02 0.  0.
         24    2    4    4    0    0  0.14383233087E+03  0.13680158602E+03 -0.84008609758E+03  0.86699465888E+03  0.80824958092E+02 0.  0.
         13    1    3    3    0    0 -0.17014111806E+02 -0.46095759878E+01 -0.35387020182E+03  0.35430897241E+03  0.00000000000E+00 0.  1.
        -13    1    3    3    0    0 -0.16132726893E+03 -0.23488439694E+03 -0.19052074260E+04  0.19263988433E+04  0.00000000000E+00 0. -1.
          2    1    6    6  502    0  0.36142594946E+02  0.64084033122E+00 -0.88042445684E+02  0.95174419293E+02  0.00000000000E+00 0. -1.
          1    1    5    5  503    0 -0.39582653721E+01  0.95741030624E+02  0.17617866880E+03  0.20055157978E+03  0.00000000000E+00 0. -1.
         -2    1    5    5    0  503  0.38467315240E+02  0.69513562820E+01  0.68081185797E+02  0.78505436471E+02  0.00000000000E+00 0.  1.
         -1    1    6    6    0  502  0.10768973592E+03  0.13616074569E+03 -0.75204365189E+03  0.77182023959E+03  0.00000000000E+00 0.  1.
<mgrwt>
<rscale>  0 0.18953112E+04</rscale>
<asrwt>0</asrwt>
<pdfrwt beam="1">  1        2 0.48320487E+00 0.18953112E+04</pdfrwt>
<pdfrwt beam="2">  1       -2 0.43988894E-01 0.18953112E+04</pdfrwt>
<totfact> 0.65308543E+00</totfact>
</mgrwt>
</event>
<event>
12    1  0.1532786E-007  0.3157310E+04  0.7818608E-02  0.8200183E-01
          2   -1    0    0  501    0  0.00000000000E+00  0.00000000000E+00  0.35782264363E+04  0.35782264363E+04  0.00000000000E+00 0. -1.
         -2   -1    0    0    0  501 -0.00000000000E+00 -0.00000000000E+00 -0.69647677205E+03  0.69647677205E+03  0.00000000000E+00 0.  1.
         23    2    1    2    0    0 -0.93707337711E+03  0.36386856252E+03  0.27419222826E+04  0.29219390886E+04  0.95306815554E+02 0.  0.
        254    2    1    2    0    0  0.93707337711E+03 -0.36386856252E+03  0.13982738171E+03  0.13527641198E+04  0.89437812036E+03 0.  0.
        -24    2    4    4    0    0  0.54835673044E+03  0.23263894920E+03 -0.72472024427E+02  0.60563109767E+03  0.81980775993E+02 0.  0.
         24    2    4    4    0    0  0.38871664666E+03 -0.59650751172E+03  0.21229940614E+03  0.74713302210E+03  0.78834459033E+02 0.  0.
         13    1    3    3    0    0 -0.10458560636E+03  0.19733051696E+02  0.23161645456E+03  0.25489943980E+03  0.00000000000E+00 0.  1.
        -13    1    3    3    0    0 -0.83248777074E+03  0.34413551082E+03  0.25103058280E+04  0.26670396488E+04  0.00000000000E+00 0. -1.
          4    1    6    6  502    0  0.17525675994E+03 -0.21705435528E+03  0.55907121394E+02  0.28452263755E+03  0.00000000000E+00 0. -1.
          1    1    5    5  503    0  0.26813952598E+03  0.15450455863E+03 -0.20755924111E+02  0.31016329959E+03  0.00000000000E+00 0. -1.
         -2    1    5    5    0  503  0.28021720446E+03  0.78134390572E+02 -0.51716100315E+02  0.29546779807E+03  0.00000000000E+00 0.  1.
         -3    1    6    6    0  502  0.21345988672E+03 -0.37945315644E+03  0.15639228475E+03  0.46261038456E+03  0.00000000000E+00 0.  1.
<mgrwt>
<rscale>  0 0.31573100E+04</rscale>
<asrwt>0</asrwt>
<pdfrwt beam="1">  1        2 0.55049636E+00 0.31573100E+04</pdfrwt>
<pdfrwt beam="2">  1       -2 0.10715027E+00 0.31573100E+04</pdfrwt>
<totfact> 0.42284380E-01</totfact>
</mgrwt>
</event>
<event>
12    1  0.1532786E-007  0.2978228E+04  0.7818608E-02  0.8249975E-01
          1   -1    0    0  501    0  0.00000000000E+00  0.00000000000E+00  0.11975328356E+04  0.11975328356E+04  0.00000000000E+00 0. -1.
         -1   -1    0    0    0  501 -0.00000000000E+00 -0.00000000000E+00 -0.18516909022E+04  0.18516909022E+04  0.00000000000E+00 0.  1.
         23    2    1    2    0    0  0.22440589434E+03  0.11483829140E+03 -0.16552410893E+04  0.16768135664E+04  0.91295311799E+02 0.  0.
        254    2    1    2    0    0 -0.22440589434E+03 -0.11483829140E+03  0.10010830228E+04  0.13724101715E+04  0.90432108330E+03 0.  0.
        -24    2    4    4    0    0  0.20823751559E+03  0.23469740685E+03  0.16083441256E+03  0.36148639457E+03  0.79743147104E+02 0.  0.
         24    2    4    4    0    0 -0.43264340994E+03 -0.34953569825E+03  0.84024861020E+03  0.10109237769E+04  0.81201177612E+02 0.  0.
         11    1    3    3    0    0  0.22519028770E+02  0.48005258142E+02 -0.24899273859E+03  0.25457610912E+03  0.00000000000E+00 0. -1.
        -11    1    3    3    0    0  0.20188686557E+03  0.66833033260E+02 -0.14062483507E+04  0.14222374572E+04  0.00000000000E+00 0.  1.
          4    1    6    6  502    0 -0.15322007593E+03 -0.79095764846E+02  0.28344062067E+03  0.33176967482E+03  0.00000000000E+00 0. -1.
          3    1    5    5  503    0  0.56314970819E+02  0.18686530901E+02  0.35787242042E+02  0.69291334728E+02  0.00000000000E+00 0. -1.
         -4    1    5    5    0  503  0.15192254478E+03  0.21601087595E+03  0.12504717052E+03  0.29219505984E+03  0.00000000000E+00 0.  1.
         -3    1    6    6    0  502 -0.27942333401E+03 -0.27043993341E+03  0.55680798953E+03  0.67915410208E+03  0.00000000000E+00 0.  1.
<mgrwt>
<rscale>  0 0.29782281E+04</rscale>
<asrwt>0</asrwt>
<pdfrwt beam="1">  1        1 0.18423582E+00 0.29782281E+04</pdfrwt>
<pdfrwt beam="2">  1       -1 0.28487552E+00 0.29782281E+04</pdfrwt>
<totfact> 0.37861506E-01</totfact>
</mgrwt>
</event>
<event>
12    1  0.1532786E-007  0.2328657E+04  0.7818608E-02  0.8466707E-01
         -1   -1    0    0    0  501 -0.00000000000E+00  0.00000000000E+00  0.67581455824E+03  0.67581455824E+03  0.00000000000E+00 0.  1.
          1   -1    0    0  501    0  0.00000000000E+00 -0.00000000000E+00 -0.20059653333E+04  0.20059653333E+04  0.00000000000E+00 0. -1.
         23    2    1    2    0    0  0.91903729070E+03  0.35436278272E+03 -0.61441596718E+03  0.11645789492E+04  0.92383032196E+02 0.  0.
        254    2    1    2    0    0 -0.91903729070E+03 -0.35436278272E+03 -0.71573480790E+03  0.15172009424E+04  0.90521812889E+03 0.  0.
        -24    2    4    4    0    0 -0.92667952895E+02  0.59202883935E+02  0.18170648887E+03  0.22657348018E+03  0.78904770848E+02 0.  0.
         24    2    4    4    0    0 -0.82636933780E+03 -0.41356566666E+03 -0.89744129677E+03  0.12906274622E+04  0.79972007307E+02 0.  0.
         11    1    3    3    0    0  0.12076597232E+03  0.41738620546E+02 -0.11797694046E+03  0.17391115834E+03  0.00000000000E+00 0. -1.
        -11    1    3    3    0    0  0.79827131838E+03  0.31262416218E+03 -0.49643902672E+03  0.99066779083E+03  0.00000000000E+00 0.  1.
          2    1    6    6  502    0 -0.37926294646E+03 -0.23377323571E+03 -0.44101160621E+03  0.62688240133E+03  0.00000000000E+00 0. -1.
          1    1    5    5  503    0 -0.69017189992E+02  0.46009856359E+02  0.61251619919E+02  0.10311178565E+03  0.00000000000E+00 0. -1.
         -2    1    5    5    0  503 -0.23650762903E+02  0.13193027576E+02  0.12045486895E+03  0.12346169453E+03  0.00000000000E+00 0.  1.
         -1    1    6    6    0  502 -0.44710639134E+03 -0.17979243095E+03 -0.45642969056E+03  0.66374506087E+03  0.00000000000E+00 0.  1.
<mgrwt>
<rscale>  0 0.23286568E+04</rscale>
<asrwt>0</asrwt>
<pdfrwt beam="1">  1        1 0.30861005E+00 0.23286568E+04</pdfrwt>
<pdfrwt beam="2">  1       -1 0.10397147E+00 0.23286568E+04</pdfrwt>
<totfact> 0.23184319E+00</totfact>
</mgrwt>
</event>
<event>
12    1  0.1532786E-007  0.1472300E+04  0.7818608E-02  0.8903085E-01
         -1   -1    0    0    0  501 -0.00000000000E+00  0.00000000000E+00  0.20554293746E+04  0.20554293746E+04  0.00000000000E+00 0. -1.
          1   -1    0    0  501    0  0.00000000000E+00 -0.00000000000E+00 -0.26365134731E+03  0.26365134731E+03  0.00000000000E+00 0.  1.
         23    2    1    2    0    0  0.55140907704E+02  0.78501462021E+02 -0.13119205841E+03  0.19508387057E+03  0.10790440735E+03 0.  0.
        254    2    1    2    0    0 -0.55140907704E+02 -0.78501462021E+02  0.19229700857E+04  0.21239968514E+04  0.89685320692E+03 0.  0.
        -24    2    4    4    0    0 -0.39429172850E+03 -0.23981278821E+03  0.13925708634E+04  0.14693019996E+04  0.81354876705E+02 0.  0.
         24    2    4    4    0    0  0.33915082080E+03  0.16131132619E+03  0.53039922233E+03  0.65469485174E+03  0.79103670218E+02 0.  0.
         13    1    3    3    0    0  0.61664279293E+02  0.39462705714E+02 -0.13675148896E+03  0.15511530619E+03  0.00000000000E+00 0.  1.
        -13    1    3    3    0    0 -0.65233715881E+01  0.39038756307E+02  0.55594305424E+01  0.39968564383E+02  0.00000000000E+00 0. -1.
          4    1    6    6  502    0  0.33304654070E+03  0.13986170266E+03  0.49339378260E+03  0.61148893600E+03  0.00000000000E+00 0. -1.
          3    1    5    5  503    0 -0.31409159043E+03 -0.15576516454E+03  0.98687690186E+03  0.10473024077E+04  0.00000000000E+00 0. -1.
         -4    1    5    5    0  503 -0.80200138068E+02 -0.84047623668E+02  0.40569396154E+03  0.42199959196E+03  0.00000000000E+00 0.  1.
         -3    1    6    6    0  502  0.61042800918E+01  0.21449623529E+02  0.37005439730E+02  0.43205915736E+02  0.00000000000E+00 0.  1.
<mgrwt>
<rscale>  0 0.14722999E+04</rscale>
<asrwt>0</asrwt>
<pdfrwt beam="1">  1        1 0.40561747E-01 0.14722999E+04</pdfrwt>
<pdfrwt beam="2">  1       -1 0.31621989E+00 0.14722999E+04</pdfrwt>
<totfact> 0.26156523E+00</totfact>
</mgrwt>
</event>
<event>
12    1  0.1532786E-007  0.1858383E+04  0.7818608E-02  0.8675854E-01
         -2   -1    0    0    0  501 -0.00000000000E+00  0.00000000000E+00  0.74756945026E+03  0.74756945026E+03  0.00000000000E+00 0.  1.
          2   -1    0    0  501    0  0.00000000000E+00 -0.00000000000E+00 -0.11549382021E+04  0.11549382021E+04  0.00000000000E+00 0. -1.
         23    2    1    2    0    0  0.35502094429E+03  0.97037406998E+02 -0.77560783868E+03  0.86339794557E+03  0.91827902938E+02 0.  0.
        254    2    1    2    0    0 -0.35502094429E+03 -0.97037406998E+02  0.36823908685E+03  0.10391097068E+04  0.89927350032E+03 0.  0.
        -24    2    4    4    0    0  0.12794582982E+03 -0.35699638559E+03  0.26961976198E+02  0.38832488744E+03  0.79074113079E+02 0.  0.
         24    2    4    4    0    0 -0.48296677410E+03  0.25995897859E+03  0.34127711065E+03  0.65078481932E+03  0.78836789419E+02 0.  0.
         13    1    3    3    0    0  0.23504796334E+03  0.67922685764E+02 -0.60675731674E+03  0.65422891845E+03  0.00000000000E+00 0. -1.
        -13    1    3    3    0    0  0.11997298095E+03  0.29114721233E+02 -0.16885052194E+03  0.20916902713E+03  0.00000000000E+00 0.  1.
          2    1    6    6  502    0 -0.44516632583E+03  0.22110380963E+03  0.32615697237E+03  0.59450678963E+03  0.00000000000E+00 0. -1.
          1    1    5    5  503    0  0.12028268258E+03 -0.32419835587E+03  0.47249039969E+02  0.34900568685E+03  0.00000000000E+00 0. -1.
         -2    1    5    5    0  503  0.76631472411E+01 -0.32798029721E+02 -0.20287063771E+02  0.39319200598E+02  0.00000000000E+00 0.  1.
         -1    1    6    6    0  502 -0.37800448270E+02  0.38855168959E+02  0.15120138280E+02  0.56278029691E+02  0.00000000000E+00 0.  1.
<mgrwt>
<rscale>  0 0.18583826E+04</rscale>
<asrwt>0</asrwt>
<pdfrwt beam="1">  1        2 0.17768280E+00 0.18583826E+04</pdfrwt>
<pdfrwt beam="2">  1       -2 0.11501068E+00 0.18583826E+04</pdfrwt>
<totfact> 0.11171034E+01</totfact>
</mgrwt>
</event>
<event>
12    1  0.1532786E-007  0.1268108E+04  0.7818608E-02  0.9055245E-01
          2   -1    0    0  501    0  0.00000000000E+00  0.00000000000E+00  0.35861071190E+04  0.35861071190E+04  0.00000000000E+00 0. -1.
         -2   -1    0    0    0  501 -0.00000000000E+00 -0.00000000000E+00 -0.11210610493E+03  0.11210610493E+03  0.00000000000E+00 0.  1.
         23    2    1    2    0    0 -0.98510290542E+02  0.64191293518E+01  0.16324028678E+04  0.16379099187E+04  0.90908175247E+02 0.  0.
        254    2    1    2    0    0  0.98510290542E+02 -0.64191293518E+01  0.18415981463E+04  0.20603033052E+04  0.91848815711E+03 0.  0.
        -24    2    4    4    0    0  0.39810252256E+03 -0.15153651071E+03  0.15545456225E+04  0.16139581705E+04  0.82461816789E+02 0.  0.
         24    2    4    4    0    0 -0.29959223202E+03  0.14511738136E+03  0.28705252376E+03  0.44634513472E+03  0.77525918473E+02 0.  0.
         13    1    3    3    0    0 -0.51344767208E+02  0.25712758859E+02  0.36556730186E+03  0.37004983891E+03  0.00000000000E+00 0.  1.
        -13    1    3    3    0    0 -0.47165523334E+02 -0.19293629508E+02  0.12668355660E+04  0.12678600798E+04  0.00000000000E+00 0. -1.
          2    1    6    6  502    0 -0.18934698087E+02  0.46038299890E+01  0.48013451672E+02  0.51817078108E+02  0.00000000000E+00 0. -1.
          3    1    5    5  503    0  0.13593144482E+03 -0.12684003380E+02  0.53290875716E+03  0.55011815557E+03  0.00000000000E+00 0. -1.
         -4    1    5    5    0  503  0.26217107774E+03 -0.13885250733E+03  0.10216368653E+04  0.10638400149E+04  0.00000000000E+00 0.  1.
         -1    1    6    6    0  502 -0.28065753393E+03  0.14051355137E+03  0.23903907208E+03  0.39452805661E+03  0.00000000000E+00 0.  1.
<mgrwt>
<rscale>  0 0.12681080E+04</rscale>
<asrwt>0</asrwt>
<pdfrwt beam="1">  1        2 0.55170870E+00 0.12681080E+04</pdfrwt>
<pdfrwt beam="2">  1       -2 0.17247096E-01 0.12681080E+04</pdfrwt>
<totfact> 0.19667917E+01</totfact>
</mgrwt>
</event>
<event>
12    1  0.1532786E-007  0.1686638E+04  0.7818608E-02  0.8769022E-01
          2   -1    0    0  501    0  0.00000000000E+00  0.00000000000E+00  0.85844051566E+03  0.85844051566E+03  0.00000000000E+00 0. -1.
         -2   -1    0    0    0  501 -0.00000000000E+00 -0.00000000000E+00 -0.82846415527E+03  0.82846415527E+03  0.00000000000E+00 0.  1.
         23    2    1    2    0    0  0.55705236725E+03  0.18718549382E+03 -0.50215344799E+00  0.59257571476E+03  0.76157577486E+02 0.  0.
        254    2    1    2    0    0 -0.55705236725E+03 -0.18718549382E+03  0.30478513836E+02  0.10943289562E+04  0.92264899911E+03 0.  0.
        -24    2    4    4    0    0  0.10521714316E+03  0.10629897950E+03  0.27666159333E+03  0.32515904937E+03  0.82563005647E+02 0.  0.
         24    2    4    4    0    0 -0.66226951042E+03 -0.29348447332E+03 -0.24618307950E+03  0.76916990680E+03  0.79260307805E+02 0.  0.
         13    1    3    3    0    0  0.42477176216E+03  0.13503387601E+03  0.31495218947E+02  0.44683010912E+03  0.00000000000E+00 0. -1.
        -13    1    3    3    0    0  0.13228060509E+03  0.52151617808E+02 -0.31997372395E+02  0.14574560564E+03  0.00000000000E+00 0.  1.
          2    1    6    6  502    0 -0.66103763763E+03 -0.28906388434E+03 -0.23787675569E+03  0.75968022121E+03  0.00000000000E+00 0. -1.
          3    1    5    5  503    0  0.10061461497E+03  0.65038296882E+02  0.24575242512E+03  0.27339995475E+03  0.00000000000E+00 0. -1.
         -2    1    5    5    0  503  0.46025281975E+01  0.41260682619E+02  0.30909168220E+02  0.51759094621E+02  0.00000000000E+00 0.  1.
         -1    1    6    6    0  502 -0.12318727836E+01 -0.44205889846E+01 -0.83063238079E+01  0.94896855969E+01  0.00000000000E+00 0.  1.
<mgrwt>
<rscale>  0 0.16866383E+04</rscale>
<asrwt>0</asrwt>
<pdfrwt beam="1">  1        2 0.13206777E+00 0.16866383E+04</pdfrwt>
<pdfrwt beam="2">  1       -2 0.12745602E+00 0.16866383E+04</pdfrwt>
<totfact> 0.13615812E+01</totfact>
</mgrwt>
</event>
<event>
12    1  0.1532786E-007  0.1202056E+04  0.7818608E-02  0.9111059E-01
          2   -1    0    0  501    0  0.00000000000E+00  0.00000000000E+00  0.12070318759E+04  0.12070318759E+04  0.00000000000E+00 0. -1.
         -2   -1    0    0    0  501 -0.00000000000E+00 -0.00000000000E+00 -0.29927519357E+03  0.29927519357E+03  0.00000000000E+00 0.  1.
         23    2    1    2    0    0 -0.12616149553E+03  0.18979662019E+03  0.57774731201E+02  0.25199250497E+03  0.90679782790E+02 0.  0.
        254    2    1    2    0    0  0.12616149553E+03 -0.18979662019E+03  0.84998195117E+03  0.12543145645E+04  0.89380995158E+03 0.  0.
        -24    2    4    4    0    0  0.21618101194E+02  0.89501313998E+02 -0.15819783308E+03  0.19989457889E+03  0.80333434951E+02 0.  0.
         24    2    4    4    0    0  0.10454339434E+03 -0.27929793418E+03  0.10081797842E+04  0.10544199857E+04  0.80239463160E+02 0.  0.
         13    1    3    3    0    0 -0.72964062326E+02  0.35478404711E+02  0.89950081047E+01  0.81629539768E+02  0.00000000000E+00 0. -1.
        -13    1    3    3    0    0 -0.53197433204E+02  0.15431821547E+03  0.48779723096E+02  0.17036296520E+03  0.00000000000E+00 0.  1.
          2    1    6    6  502    0  0.24196110432E+02 -0.85310607734E+02  0.18915051263E+03  0.20890492570E+03  0.00000000000E+00 0. -1.
          3    1    5    5  503    0  0.84256200396E+01  0.75223629443E+02 -0.51766559853E+02  0.91702574766E+02  0.00000000000E+00 0. -1.
         -4    1    5    5    0  503  0.13192481154E+02  0.14277684555E+02 -0.10643127323E+03  0.10819200412E+03  0.00000000000E+00 0.  1.
         -1    1    6    6    0  502  0.80347283905E+02 -0.19398732645E+03  0.81902927162E+03  0.84551505996E+03  0.00000000000E+00 0.  1.
<mgrwt>
<rscale>  0 0.12020561E+04</rscale>
<asrwt>0</asrwt>
<pdfrwt beam="1">  1        2 0.18569721E+00 0.12020561E+04</pdfrwt>
<pdfrwt beam="2">  1       -2 0.46042338E-01 0.12020561E+04</pdfrwt>
<totfact> 0.82743903E+01</totfact>
</mgrwt>
</event>
<event>
12    1  0.1532786E-007  0.3340768E+04  0.7818608E-02  0.8152599E-01
         -1   -1    0    0    0  501 -0.00000000000E+00  0.00000000000E+00  0.29235830789E+04  0.29235830789E+04  0.00000000000E+00 0.  1.
          1   -1    0    0  501    0  0.00000000000E+00 -0.00000000000E+00 -0.95437121382E+03  0.95437121382E+03  0.00000000000E+00 0. -1.
         23    2    1    2    0    0 -0.43203470789E+03 -0.12244443741E+04  0.18951271502E+04  0.22991038846E+04  0.91944235944E+02 0.  0.
        254    2    1    2    0    0  0.43203470789E+03  0.12244443741E+04  0.74084714866E+02  0.15788504081E+04  0.89518827752E+03 0.  0.
        -24    2    4    4    0    0  0.67655862119E+03  0.10596301329E+04  0.13737288362E+03  0.12671532691E+04  0.79110756246E+02 0.  0.
         24    2    4    4    0    0 -0.24452391330E+03  0.16481424123E+03 -0.63288168758E+02  0.31169713907E+03  0.78702197649E+02 0.  0.
         13    1    3    3    0    0 -0.37985920493E+03 -0.10032286285E+04  0.15181019697E+04  0.18588690882E+04  0.00000000000E+00 0.  1.
        -13    1    3    3    0    0 -0.52175502963E+02 -0.22121574556E+03  0.37702518054E+03  0.44023479639E+03  0.00000000000E+00 0. -1.
          2    1    6    6  502    0 -0.32631416009E+01  0.25320475519E+02 -0.12486150309E+02  0.28419685486E+02  0.00000000000E+00 0. -1.
          3    1    5    5  503    0  0.14552563867E+03  0.24556598261E+03 -0.64171210392E+00  0.28544837557E+03  0.00000000000E+00 0. -1.
         -4    1    5    5    0  503  0.53103298252E+03  0.81406415026E+03  0.13801459573E+03  0.98170489349E+03  0.00000000000E+00 0.  1.
         -1    1    6    6    0  502 -0.24126077170E+03  0.13949376571E+03 -0.50802018450E+02  0.28327745359E+03  0.00000000000E+00 0.  1.
<mgrwt>
<rscale>  0 0.33407685E+04</rscale>
<asrwt>0</asrwt>
<pdfrwt beam="1">  1        1 0.14682634E+00 0.33407685E+04</pdfrwt>
<pdfrwt beam="2">  1       -1 0.44978201E+00 0.33407685E+04</pdfrwt>
<totfact> 0.44096341E-02</totfact>
</mgrwt>
</event>
<event>
12    1  0.1532786E-007  0.2418706E+04  0.7818608E-02  0.8432534E-01
         -2   -1    0    0    0  501 -0.00000000000E+00  0.00000000000E+00  0.11021465145E+04  0.11021465145E+04  0.00000000000E+00 0.  1.
          2   -1    0    0  501    0  0.00000000000E+00 -0.00000000000E+00 -0.13269869819E+04  0.13269869819E+04  0.00000000000E+00 0. -1.
         23    2    1    2    0    0  0.51719359715E+03  0.17319262722E+03  0.78967391973E+03  0.96401166363E+03  0.90822271742E+02 0.  0.
        254    2    1    2    0    0 -0.51719359715E+03 -0.17319262722E+03 -0.10145143871E+04  0.14651218328E+04  0.90545990536E+03 0.  0.
        -24    2    4    4    0    0 -0.53599346672E+01 -0.45153297229E+03 -0.54781193770E+03  0.71426685769E+03  0.78539613852E+02 0.  0.
         24    2    4    4    0    0 -0.51183366248E+03  0.27834034507E+03 -0.46670244936E+03  0.75085497507E+03  0.80777296315E+02 0.  0.
         11    1    3    3    0    0  0.67931432264E+02 -0.80591198635E+01  0.92488193874E+02  0.11503779774E+03  0.00000000000E+00 0. -1.
        -11    1    3    3    0    0  0.44926216489E+03  0.18125174708E+03  0.69718572586E+03  0.84897386589E+03  0.00000000000E+00 0.  1.
          4    1    6    6  502    0 -0.80020458318E+02  0.13073319984E+02 -0.73226753657E+02  0.10925357155E+03  0.00000000000E+00 0. -1.
          1    1    5    5  503    0 -0.23895287184E+02 -0.78573452806E+02 -0.70473341646E+02  0.10821859414E+03  0.00000000000E+00 0. -1.
         -2    1    5    5    0  503  0.18535352517E+02 -0.37295951948E+03 -0.47733859606E+03  0.60604826355E+03  0.00000000000E+00 0.  1.
         -3    1    6    6    0  502 -0.43181320416E+03  0.26526702508E+03 -0.39347569570E+03  0.64160140352E+03  0.00000000000E+00 0.  1.
<mgrwt>
<rscale>  0 0.24187055E+04</rscale>
<asrwt>0</asrwt>
<pdfrwt beam="1">  1        2 0.20415184E+00 0.24187055E+04</pdfrwt>
<pdfrwt beam="2">  1       -2 0.16956100E+00 0.24187055E+04</pdfrwt>
<totfact> 0.30734399E+00</totfact>
</mgrwt>
</event>
<event>
12    1  0.1532786E-007  0.2027292E+04  0.7818608E-02  0.8593966E-01
          1   -1    0    0  501    0  0.00000000000E+00  0.00000000000E+00  0.18931489209E+04  0.18931489209E+04  0.00000000000E+00 0. -1.
         -1   -1    0    0    0  501 -0.00000000000E+00 -0.00000000000E+00 -0.54273504923E+03  0.54273504923E+03  0.00000000000E+00 0.  1.
         23    2    1    2    0    0 -0.35687958893E+03 -0.48715446591E+02 -0.32029770173E+03  0.49083616537E+03  0.92699987964E+02 0.  0.
        254    2    1    2    0    0  0.35687958893E+03  0.48715446591E+02  0.16707115734E+04  0.19450478048E+04  0.92854594156E+03 0.  0.
        -24    2    4    4    0    0  0.26530928275E+03 -0.19989322713E+01  0.17628834148E+04  0.17846124302E+04  0.81795968598E+02 0.  0.
         24    2    4    4    0    0  0.91570306183E+02  0.50714378862E+02 -0.92171841402E+02  0.16043537460E+03  0.79289292325E+02 0.  0.
         11    1    3    3    0    0 -0.31718309314E+03 -0.24357810114E+02 -0.30771856645E+03  0.44259364391E+03  0.00000000000E+00 0.  1.
        -11    1    3    3    0    0 -0.39696495786E+02 -0.24357636477E+02 -0.12579135280E+02  0.48242521459E+02  0.00000000000E+00 0. -1.
          4    1    6    6  502    0  0.22522532066E+02 -0.17989668701E+02 -0.40966751072E+01  0.29114865234E+02  0.00000000000E+00 0. -1.
          3    1    5    5  503    0  0.58982359549E+02  0.65302705308E+01  0.21589989625E+03  0.22390696365E+03  0.00000000000E+00 0. -1.
         -4    1    5    5    0  503  0.20632692320E+03 -0.85292028021E+01  0.15469835185E+04  0.15607054665E+04  0.00000000000E+00 0.  1.
         -1    1    6    6    0  502  0.69047774117E+02  0.68704047563E+02 -0.88075166295E+02  0.13132050937E+03  0.00000000000E+00 0.  1.
<mgrwt>
<rscale>  0 0.20272921E+04</rscale>
<asrwt>0</asrwt>
<pdfrwt beam="1">  1        1 0.29125368E+00 0.20272921E+04</pdfrwt>
<pdfrwt beam="2">  1       -1 0.83497701E-01 0.20272921E+04</pdfrwt>
<totfact> 0.46372822E+00</totfact>
</mgrwt>
</event>
<event>
12    1  0.1532786E-007  0.2246558E+04  0.7818608E-02  0.8499296E-01
         -2   -1    0    0    0  501 -0.00000000000E+00  0.00000000000E+00  0.88509071476E+03  0.88509071476E+03  0.00000000000E+00 0.  1.
          2   -1    0    0  501    0  0.00000000000E+00 -0.00000000000E+00 -0.14255665661E+04  0.14255665661E+04  0.00000000000E+00 0. -1.
         23    2    1    2    0    0  0.62658538448E+03 -0.54754927984E+03  0.22564002366E+03  0.86702598476E+03  0.91657951542E+02 0.  0.
        254    2    1    2    0    0 -0.62658538448E+03  0.54754927984E+03 -0.76611587499E+03  0.14436312961E+04  0.89706093841E+03 0.  0.
        -24    2    4    4    0    0 -0.42278805470E+03 -0.10384508061E+03 -0.40845164601E+02  0.44453907630E+03  0.80081976278E+02 0.  0.
         24    2    4    4    0    0 -0.20379732978E+03  0.65139436045E+03 -0.72527071039E+03  0.99909221978E+03  0.79496514581E+02 0.  0.
         13    1    3    3    0    0  0.50470400789E+03 -0.45625510171E+03  0.14875515108E+03  0.69643588965E+03  0.00000000000E+00 0.  1.
        -13    1    3    3    0    0  0.12188137659E+03 -0.91294178131E+02  0.76884872581E+02  0.17059009512E+03  0.00000000000E+00 0. -1.
          4    1    6    6  502    0 -0.11898988141E+02  0.14652112314E+03 -0.15147344163E+03  0.21107872694E+03  0.00000000000E+00 0. -1.
          3    1    5    5  503    0 -0.11557619866E+02 -0.43721942655E+01  0.13117785831E+02  0.18021402963E+02  0.00000000000E+00 0. -1.
         -4    1    5    5    0  503 -0.41123043483E+03 -0.99472886341E+02 -0.53962950431E+02  0.42651767334E+03  0.00000000000E+00 0.  1.
         -3    1    6    6    0  502 -0.19189834164E+03  0.50487323730E+03 -0.57379726876E+03  0.78801349285E+03  0.00000000000E+00 0.  1.
<mgrwt>
<rscale>  0 0.22465580E+04</rscale>
<asrwt>0</asrwt>
<pdfrwt beam="1">  1        2 0.21931793E+00 0.22465580E+04</pdfrwt>
<pdfrwt beam="2">  1       -2 0.13616780E+00 0.22465580E+04</pdfrwt>
<totfact> 0.49174595E+00</totfact>
</mgrwt>
</event>
<event>
12    1  0.1532786E-007  0.2370845E+04  0.7818608E-02  0.8450500E-01
          2   -1    0    0  501    0  0.00000000000E+00  0.00000000000E+00  0.27275640732E+04  0.27275640732E+04  0.00000000000E+00 0. -1.
         -2   -1    0    0    0  501 -0.00000000000E+00 -0.00000000000E+00 -0.51519468346E+03  0.51519468346E+03  0.00000000000E+00 0.  1.
         23    2    1    2    0    0  0.16091054930E+03  0.67494507598E+03  0.19517768313E+04  0.20732096687E+04  0.85571436031E+02 0.  0.
        254    2    1    2    0    0 -0.16091054930E+03 -0.67494507598E+03  0.26059255845E+03  0.11695490880E+04  0.90470632099E+03 0.  0.
        -24    2    4    4    0    0  0.22207943064E+03 -0.69036771160E+03  0.66751779788E+02  0.73279508842E+03  0.81277246325E+02 0.  0.
         24    2    4    4    0    0 -0.38298997994E+03  0.15422635613E+02  0.19384077867E+03  0.43675399958E+03  0.79124119275E+02 0.  0.
         11    1    3    3    0    0  0.33257383573E+02  0.26844875249E+03  0.67332188308E+03  0.72562603627E+03  0.00000000000E+00 0.  1.
        -11    1    3    3    0    0  0.12765316572E+03  0.40649632349E+03  0.12784549482E+04  0.13475836324E+04  0.00000000000E+00 0. -1.
          4    1    6    6  502    0 -0.38366327379E+03  0.22253557593E+02  0.18844831290E+03  0.42802511037E+03  0.00000000000E+00 0. -1.
          1    1    5    5  503    0  0.11672673197E+03 -0.23900642469E+03  0.14791413085E+02  0.26639817361E+03  0.00000000000E+00 0. -1.
         -2    1    5    5    0  503  0.10535269868E+03 -0.45136128691E+03  0.51960366703E+02  0.46639691481E+03  0.00000000000E+00 0.  1.
         -3    1    6    6    0  502  0.67329384510E+00 -0.68309219794E+01  0.53924657682E+01  0.87288892050E+01  0.00000000000E+00 0.  1.
<mgrwt>
<rscale>  0 0.23708450E+04</rscale>
<asrwt>0</asrwt>
<pdfrwt beam="1">  1        2 0.41962523E+00 0.23708450E+04</pdfrwt>
<pdfrwt beam="2">  1       -2 0.79260722E-01 0.23708450E+04</pdfrwt>
<totfact> 0.32531408E+00</totfact>
</mgrwt>
</event>
<event>
12    1  0.1532786E-007  0.2114688E+04  0.7818608E-02  0.8554801E-01
          2   -1    0    0  501    0  0.00000000000E+00  0.00000000000E+00  0.23348270971E+04  0.23348270971E+04  0.00000000000E+00 0. -1.
         -2   -1    0    0    0  501 -0.00000000000E+00 -0.00000000000E+00 -0.47882634243E+03  0.47882634243E+03  0.00000000000E+00 0.  1.
         23    2    1    2    0    0  0.16229638536E+03 -0.46311781702E+03  0.17157404946E+04  0.17869398199E+04  0.92575624493E+02 0.  0.
        254    2    1    2    0    0 -0.16229638536E+03  0.46311781702E+03  0.14026026009E+03  0.10267136196E+04  0.89087018522E+03 0.  0.
        -24    2    4    4    0    0 -0.24033917779E+03  0.69105400912E+03  0.20713165039E+03  0.76528142127E+03  0.86218149114E+02 0.  0.
         24    2    4    4    0    0  0.78042792430E+02 -0.22793619211E+03 -0.66871390300E+02  0.26143219830E+03  0.76350680070E+02 0.  0.
         11    1    3    3    0    0  0.55100170811E+01 -0.59741672277E+01  0.57184668017E+01  0.99373952755E+01  0.00000000000E+00 0.  1.
        -11    1    3    3    0    0  0.15678636828E+03 -0.45714364979E+03  0.17100220278E+04  0.17770024247E+04  0.00000000000E+00 0. -1.
          2    1    6    6  502    0  0.27138079856E+02 -0.92624303131E+02 -0.65879822994E+02  0.11685840999E+03  0.00000000000E+00 0. -1.
          1    1    5    5  503    0  0.30822756551E+01  0.62921612794E+02  0.20682370479E+02  0.66305280547E+02  0.00000000000E+00 0. -1.
         -2    1    5    5    0  503 -0.24342145345E+03  0.62813239633E+03  0.18644927992E+03  0.69897614072E+03  0.00000000000E+00 0.  1.
         -1    1    6    6    0  502  0.50904712575E+02 -0.13531188898E+03 -0.99156730617E+00  0.14457378831E+03  0.00000000000E+00 0.  1.
<mgrwt>
<rscale>  0 0.21146884E+04</rscale>
<asrwt>0</asrwt>
<pdfrwt beam="1">  1        2 0.35920416E+00 0.21146884E+04</pdfrwt>
<pdfrwt beam="2">  1       -2 0.73665592E-01 0.21146884E+04</pdfrwt>
<totfact> 0.66248602E+00</totfact>
</mgrwt>
</event>
<event>
12    1  0.1532786E-007  0.1720344E+04  0.7818608E-02  0.8749846E-01
         -1   -1    0    0    0  501 -0.00000000000E+00  0.00000000000E+00  0.29664194864E+03  0.29664194864E+03  0.00000000000E+00 0.  1.
          1   -1    0    0  501    0  0.00000000000E+00 -0.00000000000E+00 -0.24942383693E+04  0.24942383693E+04  0.00000000000E+00 0. -1.
         23    2    1    2    0    0 -0.42794400783E+03  0.14652352972E+03 -0.12686859784E+03  0.47793784993E+03  0.87884746592E+02 0.  0.
        254    2    1    2    0    0  0.42794400783E+03 -0.14652352972E+03 -0.20707278228E+04  0.23129424680E+04  0.92584227893E+03 0.  0.
        -24    2    4    4    0    0  0.31877455342E+03 -0.43645200213E+03 -0.18376691814E+04  0.19172363584E+04  0.81606787245E+02 0.  0.
         24    2    4    4    0    0  0.10916945441E+03  0.28992847241E+03 -0.23305864140E+03  0.39570610955E+03  0.79312709671E+02 0.  0.
         11    1    3    3    0    0 -0.39177591758E+03  0.12734149850E+03 -0.13976369174E+03  0.43501507602E+03  0.00000000000E+00 0.  1.
        -11    1    3    3    0    0 -0.36168090248E+02  0.19182031219E+02  0.12895093897E+02  0.42922773914E+02  0.00000000000E+00 0. -1.
          2    1    6    6  502    0 -0.20054809819E+01  0.21638331268E+02  0.23606840786E+01  0.21858914963E+02  0.00000000000E+00 0. -1.
          1    1    5    5  503    0  0.24804674564E+03 -0.27587630076E+03 -0.12270295518E+04  0.12818878431E+04  0.00000000000E+00 0. -1.
         -2    1    5    5    0  503  0.70727807780E+02 -0.16057570137E+03 -0.61063962959E+03  0.63534851529E+03  0.00000000000E+00 0.  1.
         -1    1    6    6    0  502  0.11117493540E+03  0.26829014114E+03 -0.23541932548E+03  0.37384719459E+03  0.00000000000E+00 0.  1.
<mgrwt>
<rscale>  0 0.17203438E+04</rscale>
<asrwt>0</asrwt>
<pdfrwt beam="1">  1        1 0.38372899E+00 0.17203438E+04</pdfrwt>
<pdfrwt beam="2">  1       -1 0.45637221E-01 0.17203438E+04</pdfrwt>
<totfact> 0.62047428E+00</totfact>
</mgrwt>
</event>
<event>
12    1  0.1532786E-007  0.2670957E+04  0.7818608E-02  0.8344490E-01
          1   -1    0    0  501    0  0.00000000000E+00  0.00000000000E+00  0.14797292709E+04  0.14797292709E+04  0.00000000000E+00 0. -1.
         -1   -1    0    0    0  501 -0.00000000000E+00 -0.00000000000E+00 -0.12052898868E+04  0.12052898868E+04  0.00000000000E+00 0.  1.
         23    2    1    2    0    0 -0.60820462618E+03 -0.36747514701E+03 -0.82798899896E+03  0.10948533746E+04  0.90483581924E+02 0.  0.
        254    2    1    2    0    0  0.60820462618E+03  0.36747514701E+03  0.11024283831E+04  0.15901657830E+04  0.89907064610E+03 0.  0.
        -24    2    4    4    0    0  0.72015686774E+03  0.48162635573E+03  0.11107802173E+04  0.14109415287E+04  0.79582947279E+02 0.  0.
         24    2    4    4    0    0 -0.11195224156E+03 -0.11415120872E+03 -0.83518342195E+01  0.17922425434E+03  0.80546740254E+02 0.  0.
         13    1    3    3    0    0 -0.56729188383E+03 -0.32653472195E+03 -0.78852447948E+03  0.10248004005E+04  0.00000000000E+00 0.  1.
        -13    1    3    3    0    0 -0.40912742348E+02 -0.40940425063E+02 -0.39464519481E+02  0.70052974159E+02  0.00000000000E+00 0. -1.
          2    1    6    6  502    0 -0.11861365929E+03 -0.11635325035E+03  0.26502581755E+01  0.16617551837E+03  0.00000000000E+00 0. -1.
          3    1    5    5  503    0  0.67630080365E+03  0.42664163395E+03  0.10167078650E+04  0.12934839557E+04  0.00000000000E+00 0. -1.
         -4    1    5    5    0  503  0.43856064092E+02  0.54984721783E+02  0.94072352332E+02  0.11745757302E+03  0.00000000000E+00 0.  1.
         -1    1    6    6    0  502  0.66614177272E+01  0.22020416237E+01 -0.11002092395E+02  0.13048735974E+02  0.00000000000E+00 0.  1.
<mgrwt>
<rscale>  0 0.26709569E+04</rscale>
<asrwt>0</asrwt>
<pdfrwt beam="1">  1        1 0.22765066E+00 0.26709569E+04</pdfrwt>
<pdfrwt beam="2">  1       -1 0.18542921E+00 0.26709569E+04</pdfrwt>
<totfact> 0.11258552E+00</totfact>
</mgrwt>
</event>
<event>
12    1  0.1532786E-007  0.1649087E+04  0.7818608E-02  0.8790947E-01
         -1   -1    0    0    0  501 -0.00000000000E+00  0.00000000000E+00  0.70975875289E+03  0.70975875289E+03  0.00000000000E+00 0.  1.
          1   -1    0    0  501    0  0.00000000000E+00 -0.00000000000E+00 -0.95789192209E+03  0.95789192209E+03  0.00000000000E+00 0. -1.
         23    2    1    2    0    0  0.38671800877E+03 -0.35319153735E+03 -0.29098028451E+03  0.60541881623E+03  0.86990440278E+02 0.  0.
        254    2    1    2    0    0 -0.38671800877E+03  0.35319153735E+03  0.42847115308E+02  0.10622318588E+04  0.92314980697E+03 0.  0.
        -24    2    4    4    0    0  0.23453142870E+02 -0.19904764015E+03 -0.23247115846E+03  0.31702149196E+03  0.79308094698E+02 0.  0.
         24    2    4    4    0    0 -0.41017115164E+03  0.55223917750E+03  0.27531827377E+03  0.74521036680E+03  0.79560392861E+02 0.  0.
         11    1    3    3    0    0  0.34527159463E+03 -0.32531910358E+03 -0.28888665417E+03  0.55542820613E+03  0.00000000000E+00 0. -1.
        -11    1    3    3    0    0  0.41446414142E+02 -0.27872433770E+02 -0.20936303494E+01  0.49990610094E+02  0.00000000000E+00 0.  1.
          4    1    6    6  502    0 -0.20814569731E+03  0.32895913204E+03  0.12640317175E+03  0.40928780057E+03  0.00000000000E+00 0. -1.
          3    1    5    5  503    0 -0.79468012626E+01 -0.47650594810E+01 -0.42462366483E+02  0.43461592348E+02  0.00000000000E+00 0. -1.
         -4    1    5    5    0  503  0.31399944133E+02 -0.19428258067E+03 -0.19000879198E+03  0.27355989961E+03  0.00000000000E+00 0.  1.
         -3    1    6    6    0  502 -0.20202545433E+03  0.22328004546E+03  0.14891510202E+03  0.33592256624E+03  0.00000000000E+00 0.  1.
<mgrwt>
<rscale>  0 0.16490872E+04</rscale>
<asrwt>0</asrwt>
<pdfrwt beam="1">  1        1 0.14736799E+00 0.16490872E+04</pdfrwt>
<pdfrwt beam="2">  1       -1 0.10919365E+00 0.16490872E+04</pdfrwt>
<totfact> 0.12126347E+01</totfact>
</mgrwt>
</event>
<event>
12    1  0.1532786E-007  0.2808536E+04  0.7818608E-02  0.8300623E-01
         -1   -1    0    0    0  501 -0.00000000000E+00  0.00000000000E+00  0.10520139134E+04  0.10520139134E+04  0.00000000000E+00 0.  1.
          1   -1    0    0  501    0  0.00000000000E+00 -0.00000000000E+00 -0.18744699521E+04  0.18744699521E+04  0.00000000000E+00 0. -1.
         23    2    1    2    0    0 -0.14180118904E+03 -0.12583626166E+04 -0.14541052170E+03  0.12777924403E+04  0.89583751258E+02 0.  0.
        254    2    1    2    0    0  0.14180118904E+03  0.12583626166E+04 -0.67704551701E+03  0.16486914252E+04  0.81006711524E+03 0.  0.
        -24    2    4    4    0    0  0.81994083840E+02  0.12198777898E+04 -0.81748213331E+03  0.14729651540E+04  0.80774097097E+02 0.  0.
         24    2    4    4    0    0  0.59807105196E+02  0.38484826822E+02  0.14043661630E+03  0.17572627117E+03  0.78098063060E+02 0.  0.
         13    1    3    3    0    0  0.81462418050E+01 -0.31085481546E+02 -0.11619463718E+02  0.34171338217E+02  0.00000000000E+00 0.  1.
        -13    1    3    3    0    0 -0.14994743084E+03 -0.12272771351E+04 -0.13379105798E+03  0.12436211021E+04  0.00000000000E+00 0. -1.
          2    1    6    6  502    0  0.65156172275E+02  0.48357616612E+02  0.78911369151E+02  0.11318476068E+03  0.00000000000E+00 0. -1.
          3    1    5    5  503    0 -0.28508818485E+01  0.74582290253E+02 -0.72555933692E+02  0.10409134960E+03  0.00000000000E+00 0. -1.
         -2    1    5    5    0  503  0.84844965689E+02  0.11452954996E+04 -0.74492619962E+03  0.13688738044E+04  0.00000000000E+00 0.  1.
         -1    1    6    6    0  502 -0.53490670792E+01 -0.98727897900E+01  0.61525247153E+02  0.62541510488E+02  0.00000000000E+00 0.  1.
<mgrwt>
<rscale>  0 0.28085359E+04</rscale>
<asrwt>0</asrwt>
<pdfrwt beam="1">  1        1 0.28837999E+00 0.28085359E+04</pdfrwt>
<pdfrwt beam="2">  1       -1 0.16184830E+00 0.28085359E+04</pdfrwt>
<totfact> 0.88764452E-01</totfact>
</mgrwt>
</event>
<event>
12    1  0.1532786E-007  0.1811157E+04  0.7818608E-02  0.8700389E-01
         -2   -1    0    0    0  501 -0.00000000000E+00  0.00000000000E+00  0.23276938296E+04  0.23276938296E+04  0.00000000000E+00 0.  1.
          2   -1    0    0  501    0  0.00000000000E+00 -0.00000000000E+00 -0.35231105422E+03  0.35231105422E+03  0.00000000000E+00 0. -1.
         23    2    1    2    0    0 -0.17989044783E+03 -0.25934412780E+03  0.16337730230E+04  0.16666606433E+04  0.94464064378E+02 0.  0.
        254    2    1    2    0    0  0.17989044783E+03  0.25934412780E+03  0.34160975232E+03  0.10133442404E+04  0.90030515766E+03 0.  0.
        -24    2    4    4    0    0 -0.26737068288E+02 -0.28663837931E+03  0.29905383475E+03  0.42281111791E+03  0.80371724134E+02 0.  0.
         24    2    4    4    0    0  0.20662751612E+03  0.54598250711E+03  0.42555917575E+02  0.59053312253E+03  0.78272180195E+02 0.  0.
         13    1    3    3    0    0 -0.96112325139E+02 -0.89944954334E+02  0.86733389914E+03  0.87726607506E+03  0.00000000000E+00 0.  1.
        -13    1    3    3    0    0 -0.83778122690E+02 -0.16939917347E+03  0.76643912389E+03  0.78939456828E+03  0.00000000000E+00 0. -1.
          2    1    6    6  502    0  0.97954459246E+02  0.23275599569E+03 -0.19318677986E+02  0.25326594902E+03  0.00000000000E+00 0. -1.
          1    1    5    5  503    0 -0.24601223154E+01  0.53287117128E+01  0.48709610555E+01  0.76271640817E+01  0.00000000000E+00 0. -1.
         -2    1    5    5    0  503 -0.24276945973E+02 -0.29196709102E+03  0.29418287369E+03  0.41518395383E+03  0.00000000000E+00 0.  1.
         -1    1    6    6    0  502  0.10867305687E+03  0.31322651142E+03  0.61874595561E+02  0.33726717350E+03  0.00000000000E+00 0.  1.
<mgrwt>
<rscale>  0 0.18111568E+04</rscale>
<asrwt>0</asrwt>
<pdfrwt beam="1">  1        2 0.54201702E-01 0.18111568E+04</pdfrwt>
<pdfrwt beam="2">  1       -2 0.35810673E+00 0.18111568E+04</pdfrwt>
<totfact> 0.12008399E+00</totfact>
</mgrwt>
</event>
<event>
12    1  0.1901427E-007  0.2644718E+04  0.7818608E-02  0.8353168E-01
          2   -1    0    0  501    0  0.00000000000E+00  0.00000000000E+00  0.14752864438E+04  0.14752864438E+04  0.00000000000E+00 0. -1.
         -2   -1    0    0    0  501 -0.00000000000E+00 -0.00000000000E+00 -0.11852843574E+04  0.11852843574E+04  0.00000000000E+00 0.  1.
         23    2    1    2    0    0  0.37988843285E+03  0.93520300642E+03 -0.44939394898E+03  0.11086265775E+04  0.90432750680E+02 0.  0.
        254    2    1    2    0    0 -0.37988843285E+03 -0.93520300642E+03  0.73939603539E+03  0.15519442237E+04  0.91809830179E+03 0.  0.
        -24    2    4    4    0    0 -0.13777696985E+03  0.15918677592E+03  0.21774271226E+03  0.31315300946E+03  0.79561269096E+02 0.  0.
         24    2    4    4    0    0 -0.24211146299E+03 -0.10943897823E+04  0.52165332313E+03  0.12387912143E+04  0.78578157258E+02 0.  0.
         13    1    3    3    0    0  0.12253526529E+02  0.21142879598E+02 -0.27736619630E+02  0.36966070099E+02  0.00000000000E+00 0. -1.
        -13    1    3    3    0    0  0.36763490632E+03  0.91406012682E+03 -0.42165732935E+03  0.10716605074E+04  0.00000000000E+00 0.  1.
          2    1    6    6  502    0 -0.23005416875E+03 -0.10567579230E+04  0.51783956590E+03  0.11990913412E+04  0.00000000000E+00 0. -1.
          3    1    5    5  503    0 -0.11607780498E+03  0.16480173377E+03  0.18589762640E+03  0.27421086004E+03  0.00000000000E+00 0. -1.
         -4    1    5    5    0  503 -0.21699164870E+02 -0.56149578512E+01  0.31845085857E+02  0.38942149414E+02  0.00000000000E+00 0.  1.
         -1    1    6    6    0  502 -0.12057294247E+02 -0.37631859310E+02  0.38137572266E+01  0.39699873096E+02  0.00000000000E+00 0.  1.
<mgrwt>
<rscale>  0 0.26447185E+04</rscale>
<asrwt>0</asrwt>
<pdfrwt beam="1">  1        2 0.22696714E+00 0.26447185E+04</pdfrwt>
<pdfrwt beam="2">  1       -2 0.18235144E+00 0.26447185E+04</pdfrwt>
<totfact> 0.20184870E+00</totfact>
</mgrwt>
</event>
<event>
12    1  0.1532786E-007  0.2430005E+04  0.7818608E-02  0.8428355E-01
         -2   -1    0    0    0  501 -0.00000000000E+00  0.00000000000E+00  0.56026384400E+03  0.56026384400E+03  0.00000000000E+00 0.  1.
          2   -1    0    0  501    0  0.00000000000E+00 -0.00000000000E+00 -0.26348854151E+04  0.26348854151E+04  0.00000000000E+00 0. -1.
         23    2    1    2    0    0 -0.83607328001E+02 -0.10395516647E+04 -0.94240027659E+03  0.14084501849E+04  0.89195252239E+02 0.  0.
        254    2    1    2    0    0  0.83607328001E+02  0.10395516647E+04 -0.11322212946E+04  0.17866990743E+04  0.90703399784E+03 0.  0.
        -24    2    4    4    0    0  0.14462640962E+03  0.37974780456E+03  0.60764096629E+02  0.41976023499E+03  0.85913829009E+02 0.  0.
         24    2    4    4    0    0 -0.61019081619E+02  0.65980386016E+03 -0.11929853912E+04  0.13669388393E+04  0.79013824981E+02 0.  0.
         13    1    3    3    0    0 -0.92286198249E+02 -0.96491285304E+03 -0.84882998246E+03  0.12884432061E+04  0.00000000000E+00 0. -1.
        -13    1    3    3    0    0  0.86788702481E+01 -0.74638811682E+02 -0.93570294131E+02  0.12000697872E+03  0.00000000000E+00 0.  1.
          2    1    6    6  502    0 -0.53793051386E+02  0.64394515094E+03 -0.11794793342E+04  0.13448905344E+04  0.00000000000E+00 0. -1.
          3    1    5    5  503    0  0.15532657951E+03  0.34075266143E+03  0.49200869119E+02  0.37770285688E+03  0.00000000000E+00 0. -1.
         -2    1    5    5    0  503 -0.10700169887E+02  0.38995143132E+02  0.11563227510E+02  0.42057378115E+02  0.00000000000E+00 0.  1.
         -3    1    6    6    0  502 -0.72260302328E+01  0.15858709224E+02 -0.13506056968E+02  0.22048304833E+02  0.00000000000E+00 0.  1.
<mgrwt>
<rscale>  0 0.24300050E+04</rscale>
<asrwt>0</asrwt>
<pdfrwt beam="1">  1        2 0.40536699E+00 0.24300050E+04</pdfrwt>
<pdfrwt beam="2">  1       -2 0.86194437E-01 0.24300050E+04</pdfrwt>
<totfact> 0.30386083E+00</totfact>
</mgrwt>
</event>
<event>
12    1  0.1532786E-007  0.1495859E+04  0.7818608E-02  0.8887211E-01
          2   -1    0    0  501    0  0.00000000000E+00  0.00000000000E+00  0.33731301848E+04  0.33731301848E+04  0.00000000000E+00 0. -1.
         -2   -1    0    0    0  501 -0.00000000000E+00 -0.00000000000E+00 -0.16583956002E+03  0.16583956002E+03  0.00000000000E+00 0.  1.
         23    2    1    2    0    0 -0.25507553638E+02  0.30706432372E+03  0.18807193784E+03  0.37144512506E+03  0.87528812007E+02 0.  0.
        254    2    1    2    0    0  0.25507553638E+02 -0.30706432372E+03  0.30192186870E+04  0.31675246198E+04  0.90696835835E+03 0.  0.
        -24    2    4    4    0    0  0.45464102065E+03 -0.20370881391E+03  0.14423881942E+04  0.15280693477E+04  0.79476348618E+02 0.  0.
         24    2    4    4    0    0 -0.42913346701E+03 -0.10335550982E+03  0.15768304928E+04  0.16394552722E+04  0.81125165371E+02 0.  0.
         11    1    3    3    0    0 -0.34758938107E+02  0.10626869641E+03  0.30099200249E+02  0.11578938410E+03  0.00000000000E+00 0.  1.
        -11    1    3    3    0    0  0.92513844694E+01  0.20079562732E+03  0.15797273760E+03  0.25565574097E+03  0.00000000000E+00 0. -1.
          2    1    6    6  502    0 -0.11959783547E+01 -0.38732503331E+01  0.63763314281E+02  0.63892039257E+02  0.00000000000E+00 0. -1.
          1    1    5    5  503    0  0.87920453405E+02 -0.49059063137E+02  0.20762253235E+03  0.23074642737E+03  0.00000000000E+00 0. -1.
         -2    1    5    5    0  503  0.36672056724E+03 -0.15464975077E+03  0.12347656618E+04  0.12973229203E+04  0.00000000000E+00 0.  1.
         -1    1    6    6    0  502 -0.42793748865E+03 -0.99482259482E+02  0.15130671785E+04  0.15755632329E+04  0.00000000000E+00 0.  1.
<mgrwt>
<rscale>  0 0.14958589E+04</rscale>
<asrwt>0</asrwt>
<pdfrwt beam="1">  1        2 0.51894306E+00 0.14958589E+04</pdfrwt>
<pdfrwt beam="2">  1       -2 0.25513781E-01 0.14958589E+04</pdfrwt>
<totfact> 0.13452633E+01</totfact>
</mgrwt>
</event>
<event>
12    1  0.1532786E-007  0.3993985E+04  0.7818608E-02  0.8005761E-01
         -2   -1    0    0    0  501 -0.00000000000E+00  0.00000000000E+00  0.17355249085E+04  0.17355249085E+04  0.00000000000E+00 0.  1.
          2   -1    0    0  501    0  0.00000000000E+00 -0.00000000000E+00 -0.22978517277E+04  0.22978517277E+04  0.00000000000E+00 0. -1.
         23    2    1    2    0    0 -0.93233979798E+03 -0.77450041941E+03  0.12025554996E+04  0.17099283636E+04  0.92773273380E+02 0.  0.
        254    2    1    2    0    0  0.93233979798E+03  0.77450041941E+03 -0.17648823187E+04  0.23234482726E+04  0.90249314578E+03 0.  0.
        -24    2    4    4    0    0  0.56502080445E+03  0.11414670358E+03 -0.25967488849E+03  0.63721913885E+03  0.79619117115E+02 0.  0.
         24    2    4    4    0    0  0.36731899354E+03  0.66035371583E+03 -0.15052074302E+04  0.16862291338E+04  0.82030546972E+02 0.  0.
         11    1    3    3    0    0 -0.19999653637E+02 -0.14898967897E+02  0.90386569962E+01  0.26526641519E+02  0.00000000000E+00 0. -1.
        -11    1    3    3    0    0 -0.91234014435E+03 -0.75960145151E+03  0.11935168426E+04  0.16834017220E+04  0.00000000000E+00 0.  1.
          4    1    6    6  502    0  0.21452734809E+03  0.37611741510E+03 -0.95062348172E+03  0.10445914498E+04  0.00000000000E+00 0. -1.
          3    1    5    5  503    0  0.50076683142E+03  0.94666346384E+02 -0.25511211669E+03  0.56992221282E+03  0.00000000000E+00 0. -1.
         -4    1    5    5    0  503  0.64253973028E+02  0.19480357193E+02 -0.45627717996E+01  0.67296926028E+02  0.00000000000E+00 0.  1.
         -3    1    6    6    0  502  0.15279164545E+03  0.28423630074E+03 -0.55458394851E+03  0.64163768399E+03  0.00000000000E+00 0.  1.
<mgrwt>
<rscale>  0 0.39939849E+04</rscale>
<asrwt>0</asrwt>
<pdfrwt beam="1">  1        2 0.35351565E+00 0.39939849E+04</pdfrwt>
<pdfrwt beam="2">  1       -2 0.26700383E+00 0.39939849E+04</pdfrwt>
<totfact> 0.18141336E-01</totfact>
</mgrwt>
</event>
<event>
12    1  0.1532786E-007  0.1662613E+04  0.7818608E-02  0.8782980E-01
         -1   -1    0    0    0  501 -0.00000000000E+00  0.00000000000E+00  0.12025170110E+04  0.12025170110E+04  0.00000000000E+00 0.  1.
          1   -1    0    0  501    0  0.00000000000E+00 -0.00000000000E+00 -0.57468659084E+03  0.57468659084E+03  0.00000000000E+00 0. -1.
         23    2    1    2    0    0  0.47607963225E+03 -0.19363177429E+03  0.53180032726E+03  0.74517122800E+03  0.91233166671E+02 0.  0.
        254    2    1    2    0    0 -0.47607963225E+03  0.19363177429E+03  0.96030092942E+02  0.10320323739E+04  0.88978871747E+03 0.  0.
        -24    2    4    4    0    0  0.19324299083E+03  0.10538028688E+03  0.24205624598E+03  0.33669960602E+03  0.79545836529E+02 0.  0.
         24    2    4    4    0    0 -0.66932262308E+03  0.88251487413E+02 -0.14602615303E+03  0.69533276787E+03  0.79893190605E+02 0.  0.
         13    1    3    3    0    0  0.17839843242E+03 -0.58300272438E+02  0.25577715726E+03  0.31724891904E+03  0.00000000000E+00 0. -1.
        -13    1    3    3    0    0  0.29768119983E+03 -0.13533150185E+03  0.27602317001E+03  0.42792230896E+03  0.00000000000E+00 0.  1.
          4    1    6    6  502    0 -0.10334717803E+03  0.41065599676E+02 -0.35527335255E+02  0.11674422570E+03  0.00000000000E+00 0. -1.
          1    1    5    5  503    0  0.84945012142E+02  0.18091654135E+02  0.13773098006E+03  0.16282747282E+03  0.00000000000E+00 0. -1.
         -2    1    5    5    0  503  0.10829797869E+03  0.87288632744E+02  0.10432526592E+03  0.17387213320E+03  0.00000000000E+00 0.  1.
         -1    1    6    6    0  502 -0.56597544504E+03  0.47185887737E+02 -0.11049881778E+03  0.57858854217E+03  0.00000000000E+00 0.  1.
<mgrwt>
<rscale>  0 0.16626129E+04</rscale>
<asrwt>0</asrwt>
<pdfrwt beam="1">  1        1 0.88413322E-01 0.16626129E+04</pdfrwt>
<pdfrwt beam="2">  1       -1 0.18500262E+00 0.16626129E+04</pdfrwt>
<totfact> 0.66662371E+00</totfact>
</mgrwt>
</event>
<event>
12    1  0.1532786E-007  0.1319065E+04  0.7818608E-02  0.9014582E-01
          1   -1    0    0  501    0  0.00000000000E+00  0.00000000000E+00  0.36789091534E+04  0.36789091534E+04  0.00000000000E+00 0. -1.
         -1   -1    0    0    0  501 -0.00000000000E+00 -0.00000000000E+00 -0.11823693140E+03  0.11823693140E+03  0.00000000000E+00 0.  1.
         23    2    1    2    0    0  0.14500416501E+03 -0.11382063860E+03  0.11563577663E+03  0.23221381354E+03  0.81057243478E+02 0.  0.
        254    2    1    2    0    0 -0.14500416501E+03  0.11382063860E+03  0.34450364454E+04  0.35649322713E+04  0.89804490042E+03 0.  0.
        -24    2    4    4    0    0 -0.25267749755E+03  0.14569786437E+03  0.34095696424E+04  0.34229503810E+04  0.79689264183E+02 0.  0.
         24    2    4    4    0    0  0.10767333254E+03 -0.31877225765E+02  0.35466802959E+02  0.14198189028E+03  0.79317457042E+02 0.  0.
         11    1    3    3    0    0  0.13770466231E+03 -0.12631093515E+03  0.10859294577E+03  0.21612370123E+03  0.00000000000E+00 0.  1.
        -11    1    3    3    0    0  0.72995026914E+01  0.12490296553E+02  0.70428308593E+01  0.16090112307E+02  0.00000000000E+00 0. -1.
          2    1    6    6  502    0  0.84168730400E+02 -0.55571431434E+02  0.39594813706E+02  0.10835270389E+03  0.00000000000E+00 0. -1.
          1    1    5    5  503    0 -0.78598036934E+01  0.22873729177E+02  0.15502143901E+03  0.15689687872E+03  0.00000000000E+00 0. -1.
         -2    1    5    5    0  503 -0.24481769386E+03  0.12282413519E+03  0.32545482034E+04  0.32660535023E+04  0.00000000000E+00 0.  1.
         -3    1    6    6    0  502  0.23504602143E+02  0.23694205669E+02 -0.41280107467E+01  0.33629186385E+02  0.00000000000E+00 0.  1.
<mgrwt>
<rscale>  0 0.13190647E+04</rscale>
<asrwt>0</asrwt>
<pdfrwt beam="1">  1        1 0.56598594E+00 0.13190647E+04</pdfrwt>
<pdfrwt beam="2">  1       -1 0.18190300E-01 0.13190647E+04</pdfrwt>
<totfact> 0.43079773E+00</totfact>
</mgrwt>
</event>
<event>
12    1  0.1532786E-007  0.1634206E+04  0.7818608E-02  0.8799805E-01
          1   -1    0    0  501    0  0.00000000000E+00  0.00000000000E+00  0.21228645038E+04  0.21228645038E+04  0.00000000000E+00 0. -1.
         -1   -1    0    0    0  501 -0.00000000000E+00 -0.00000000000E+00 -0.31450769032E+03  0.31450769032E+03  0.00000000000E+00 0.  1.
         23    2    1    2    0    0  0.38276042116E+03  0.38613299189E+03  0.82504129057E+03  0.99095094468E+03  0.75408329789E+02 0.  0.
        254    2    1    2    0    0 -0.38276042116E+03 -0.38613299189E+03  0.98331552290E+03  0.14464212494E+04  0.91083521331E+03 0.  0.
        -24    2    4    4    0    0 -0.34931358722E+03 -0.73605927104E+01  0.99527706691E+03  0.10577758474E+04  0.78988244974E+02 0.  0.
         24    2    4    4    0    0 -0.33446833938E+02 -0.37877239918E+03 -0.11961544005E+02  0.38864540205E+03  0.79466652905E+02 0.  0.
         13    1    3    3    0    0  0.24090438209E+03  0.23962152052E+03  0.57946333444E+03  0.67173741176E+03  0.00000000000E+00 0. -1.
        -13    1    3    3    0    0  0.14185603907E+03  0.14651147137E+03  0.24557795613E+03  0.31921353292E+03  0.00000000000E+00 0.  1.
          4    1    6    6  502    0 -0.34913686559E+02 -0.25701781866E+03 -0.43169604116E+02  0.26294626701E+03  0.00000000000E+00 0. -1.
          3    1    5    5  503    0 -0.13437041243E+03 -0.18116198251E+02  0.49365030948E+03  0.51193186307E+03  0.00000000000E+00 0. -1.
         -4    1    5    5    0  503 -0.21494317479E+03  0.10755605541E+02  0.50162675743E+03  0.54584398431E+03  0.00000000000E+00 0.  1.
         -3    1    6    6    0  502  0.14668526215E+01 -0.12175458052E+03  0.31208060111E+02  0.12569913504E+03  0.00000000000E+00 0.  1.
<mgrwt>
<rscale>  0 0.16342059E+04</rscale>
<asrwt>0</asrwt>
<pdfrwt beam="1">  1        1 0.32659453E+00 0.16342059E+04</pdfrwt>
<pdfrwt beam="2">  1       -1 0.48385800E-01 0.16342059E+04</pdfrwt>
<totfact> 0.10057494E+01</totfact>
</mgrwt>
</event>
<event>
12    1  0.1532786E-007  0.2149636E+04  0.7818608E-02  0.8539688E-01
          1   -1    0    0  501    0  0.00000000000E+00  0.00000000000E+00  0.26594609198E+04  0.26594609198E+04  0.00000000000E+00 0. -1.
         -1   -1    0    0    0  501 -0.00000000000E+00 -0.00000000000E+00 -0.43438630626E+03  0.43438630626E+03  0.00000000000E+00 0.  1.
         23    2    1    2    0    0  0.52956114822E+03  0.97046119646E+02 -0.84902997599E+02  0.55325914708E+03  0.95048439148E+02 0.  0.
        254    2    1    2    0    0 -0.52956114822E+03 -0.97046119646E+02  0.23099776112E+04  0.25405880790E+04  0.91035062697E+03 0.  0.
        -24    2    4    4    0    0 -0.55518548841E+03 -0.34672221164E+03  0.95675640527E+03  0.11619548655E+04  0.79429665469E+02 0.  0.
         24    2    4    4    0    0  0.25624340190E+02  0.24967609200E+03  0.13532212059E+04  0.13786332136E+04  0.80169493289E+02 0.  0.
         11    1    3    3    0    0  0.49677539902E+02  0.18619529156E+02 -0.36947193492E+02  0.64650134908E+02  0.00000000000E+00 0. -1.
        -11    1    3    3    0    0  0.47988360832E+03  0.78426590490E+02 -0.47955804107E+02  0.48860901217E+03  0.00000000000E+00 0.  1.
          4    1    6    6  502    0  0.19796689923E+01  0.82737342874E+02  0.66164233103E+03  0.66679829124E+03  0.00000000000E+00 0. -1.
          1    1    5    5  503    0 -0.54630919854E+03 -0.33337506446E+03  0.90991562561E+03  0.11124473559E+04  0.00000000000E+00 0. -1.
         -2    1    5    5    0  503 -0.88762898721E+01 -0.13347147183E+02  0.46840779655E+02  0.49507509516E+02  0.00000000000E+00 0.  1.
         -3    1    6    6    0  502  0.23644671198E+02  0.16693874912E+03  0.69157887490E+03  0.71183492232E+03  0.00000000000E+00 0.  1.
<mgrwt>
<rscale>  0 0.21496357E+04</rscale>
<asrwt>0</asrwt>
<pdfrwt beam="1">  1        1 0.40914782E+00 0.21496357E+04</pdfrwt>
<pdfrwt beam="2">  1       -1 0.66828664E-01 0.21496357E+04</pdfrwt>
<totfact> 0.21780965E+00</totfact>
</mgrwt>
</event>
<event>
12    1  0.1532786E-007  0.1556049E+04  0.7818608E-02  0.8848013E-01
         -1   -1    0    0    0  501 -0.00000000000E+00  0.00000000000E+00  0.40611230448E+03  0.40611230448E+03  0.00000000000E+00 0.  1.
          1   -1    0    0  501    0  0.00000000000E+00 -0.00000000000E+00 -0.14905290763E+04  0.14905290763E+04  0.00000000000E+00 0. -1.
         23    2    1    2    0    0 -0.20817772362E+03  0.36417196546E+03 -0.71742889810E+03  0.83564886199E+03  0.87439188554E+02 0.  0.
        254    2    1    2    0    0  0.20817772362E+03 -0.36417196546E+03 -0.36698787369E+03  0.10609925188E+04  0.90280996914E+03 0.  0.
        -24    2    4    4    0    0  0.20798859092E+03 -0.59427816546E+03 -0.17266323870E+02  0.63482246280E+03  0.79218946255E+02 0.  0.
         24    2    4    4    0    0  0.18913270011E+00  0.23010620000E+03 -0.34972154982E+03  0.42617005595E+03  0.79792575644E+02 0.  0.
         13    1    3    3    0    0 -0.14995952219E+03  0.17932955639E+03 -0.36470414696E+03  0.43319287033E+03  0.00000000000E+00 0.  1.
        -13    1    3    3    0    0 -0.58218201427E+02  0.18484240907E+03 -0.35272475113E+03  0.40245599167E+03  0.00000000000E+00 0. -1.
          4    1    6    6  502    0  0.79108140901E+01 -0.10141363471E+01 -0.14353850356E+01  0.81036894251E+01  0.00000000000E+00 0. -1.
          1    1    5    5  503    0  0.50387148517E+02 -0.11255659936E+03  0.26344611049E+02  0.12610270150E+03  0.00000000000E+00 0. -1.
         -2    1    5    5    0  503  0.15760144240E+03 -0.48172156610E+03 -0.43610934920E+02  0.50871976130E+03  0.00000000000E+00 0.  1.
         -3    1    6    6    0  502 -0.77216813900E+01  0.23112033635E+03 -0.34828616478E+03  0.41806636652E+03  0.00000000000E+00 0.  1.
<mgrwt>
<rscale>  0 0.15560491E+04</rscale>
<asrwt>0</asrwt>
<pdfrwt beam="1">  1        1 0.22931216E+00 0.15560491E+04</pdfrwt>
<pdfrwt beam="2">  1       -1 0.62478816E-01 0.15560491E+04</pdfrwt>
<totfact> 0.16616957E+01</totfact>
</mgrwt>
</event>
<event>
12    1  0.1532786E-007  0.2140731E+04  0.7818608E-02  0.8543510E-01
          2   -1    0    0  501    0  0.00000000000E+00  0.00000000000E+00  0.70592912946E+03  0.70592912946E+03  0.00000000000E+00 0. -1.
         -2   -1    0    0    0  501 -0.00000000000E+00 -0.00000000000E+00 -0.16229416902E+04  0.16229416902E+04  0.00000000000E+00 0.  1.
         23    2    1    2    0    0 -0.55706525652E+03 -0.20604305888E+03  0.32076414316E+03  0.68127225955E+03  0.92015291950E+02 0.  0.
        254    2    1    2    0    0  0.55706525652E+03  0.20604305888E+03 -0.12377767039E+04  0.16475985601E+04  0.91088660352E+03 0.  0.
        -24    2    4    4    0    0  0.50332193350E+01 -0.37506110332E+02 -0.98475935201E+03  0.98862641486E+03  0.78734777452E+02 0.  0.
         24    2    4    4    0    0  0.55203203719E+03  0.24354916922E+03 -0.25301735192E+03  0.65897214529E+03  0.78555330708E+02 0.  0.
         11    1    3    3    0    0 -0.38595565911E+03 -0.11714429290E+03  0.25662594560E+03  0.47806007166E+03  0.00000000000E+00 0. -1.
        -11    1    3    3    0    0 -0.17110959742E+03 -0.88898765983E+02  0.64138197553E+02  0.20321218789E+03  0.00000000000E+00 0.  1.
          2    1    6    6  502    0  0.23592460801E+03  0.85463587257E+02 -0.14298894760E+03  0.28880838725E+03  0.00000000000E+00 0. -1.
          3    1    5    5  503    0 -0.23019007699E+02 -0.50612504242E+02 -0.56625381021E+03  0.56897704513E+03  0.00000000000E+00 0. -1.
         -4    1    5    5    0  503  0.28052227034E+02  0.13106393910E+02 -0.41850554180E+03  0.41964936973E+03  0.00000000000E+00 0.  1.
         -1    1    6    6    0  502  0.31610742918E+03  0.15808558196E+03 -0.11002840432E+03  0.37016375804E+03  0.00000000000E+00 0.  1.
<mgrwt>
<rscale>  0 0.21407305E+04</rscale>
<asrwt>0</asrwt>
<pdfrwt beam="1">  1        2 0.10860448E+00 0.21407305E+04</pdfrwt>
<pdfrwt beam="2">  1       -2 0.24968333E+00 0.21407305E+04</pdfrwt>
<totfact> 0.24028715E+00</totfact>
</mgrwt>
</event>
<event>
12    1  0.1532786E-007  0.1169374E+04  0.7818608E-02  0.9140094E-01
         -2   -1    0    0    0  501 -0.00000000000E+00  0.00000000000E+00  0.40246877969E+03  0.40246877969E+03  0.00000000000E+00 0.  1.
          2   -1    0    0  501    0  0.00000000000E+00 -0.00000000000E+00 -0.84940533885E+03  0.84940533885E+03  0.00000000000E+00 0. -1.
         23    2    1    2    0    0  0.15263556952E+03  0.16650806064E+03 -0.25879492108E+02  0.24472783985E+03  0.90550627525E+02 0.  0.
        254    2    1    2    0    0 -0.15263556952E+03 -0.16650806064E+03 -0.42105706706E+03  0.10071462787E+04  0.88658446953E+03 0.  0.
        -24    2    4    4    0    0 -0.50854235199E+03 -0.47220600219E+01 -0.21442500100E+03  0.55767536676E+03  0.79913152971E+02 0.  0.
         24    2    4    4    0    0  0.35590678247E+03 -0.16178600062E+03 -0.20663206606E+03  0.44947091193E+03  0.80516719610E+02 0.  0.
         11    1    3    3    0    0  0.33370035136E+02  0.26051896193E+02  0.30336121712E+02  0.52082058530E+02  0.00000000000E+00 0.  1.
        -11    1    3    3    0    0  0.11926553438E+03  0.14045616445E+03 -0.56215613820E+02  0.19264578132E+03  0.00000000000E+00 0. -1.
          2    1    6    6  502    0  0.34543562125E+03 -0.13834264453E+03 -0.18341990623E+03  0.41485818990E+03  0.00000000000E+00 0. -1.
          3    1    5    5  503    0 -0.29715944341E+03  0.31693039125E+02 -0.10400449157E+03  0.31642553279E+03  0.00000000000E+00 0. -1.
         -4    1    5    5    0  503 -0.21138290858E+03 -0.36415099147E+02 -0.11042050943E+03  0.24124983396E+03  0.00000000000E+00 0.  1.
         -1    1    6    6    0  502  0.10471161223E+02 -0.23443356095E+02 -0.23212159832E+02  0.34612722031E+02  0.00000000000E+00 0.  1.
<mgrwt>
<rscale>  0 0.11693744E+04</rscale>
<asrwt>0</asrwt>
<pdfrwt beam="1">  1        2 0.13067774E+00 0.11693744E+04</pdfrwt>
<pdfrwt beam="2">  1       -2 0.61918274E-01 0.11693744E+04</pdfrwt>
<totfact> 0.76111839E+01</totfact>
</mgrwt>
</event>
<event>
12    1  0.1532786E-007  0.1231476E+04  0.7818608E-02  0.9085743E-01
          1   -1    0    0  501    0  0.00000000000E+00  0.00000000000E+00  0.46004982254E+03  0.46004982254E+03  0.00000000000E+00 0.  1.
         -1   -1    0    0    0  501 -0.00000000000E+00 -0.00000000000E+00 -0.82411336954E+03  0.82411336954E+03  0.00000000000E+00 0. -1.
         23    2    1    2    0    0 -0.43835421892E+02  0.82009554940E+01  0.19177600370E+03  0.21722051547E+03  0.91749206333E+02 0.  0.
        254    2    1    2    0    0  0.43835421892E+02 -0.82009554940E+01 -0.55583955070E+03  0.10669426766E+04  0.90962644486E+03 0.  0.
        -24    2    4    4    0    0  0.49151702424E+02 -0.21357025310E+03 -0.74121822986E+03  0.77705647873E+03  0.79900963689E+02 0.  0.
         24    2    4    4    0    0 -0.53162805318E+01  0.20536929760E+03  0.18537867916E+03  0.28988619789E+03  0.86394107448E+02 0.  0.
         11    1    3    3    0    0 -0.25753709544E+02  0.48125571352E+02  0.13408621488E+03  0.14477029113E+03  0.00000000000E+00 0.  1.
        -11    1    3    3    0    0 -0.18081712348E+02 -0.39924615858E+02  0.57689788823E+02  0.72450224342E+02  0.00000000000E+00 0. -1.
          4    1    6    6  502    0  0.21985806241E+02  0.18041667984E+03  0.13067354141E+03  0.22385068341E+03  0.00000000000E+00 0. -1.
          3    1    5    5  503    0  0.18782843401E+02 -0.16072852566E+03 -0.62756753110E+03  0.64809525555E+03  0.00000000000E+00 0. -1.
         -4    1    5    5    0  503  0.30368859023E+02 -0.52841727433E+02 -0.11365069876E+03  0.12896122318E+03  0.00000000000E+00 0.  1.
         -3    1    6    6    0  502 -0.27302086773E+02  0.24952617765E+02  0.54705137754E+02  0.66035514476E+02  0.00000000000E+00 0.  1.
<mgrwt>
<rscale>  0 0.12314759E+04</rscale>
<asrwt>0</asrwt>
<pdfrwt beam="1">  1        1 0.70776897E-01 0.12314759E+04</pdfrwt>
<pdfrwt beam="2">  1       -1 0.12678667E+00 0.12314759E+04</pdfrwt>
<totfact> 0.26511293E+01</totfact>
</mgrwt>
</event>
<event>
12    1  0.1532786E-007  0.1498126E+04  0.7818608E-02  0.8885700E-01
          2   -1    0    0  501    0  0.00000000000E+00  0.00000000000E+00  0.79642937341E+03  0.79642937341E+03  0.00000000000E+00 0. -1.
         -2   -1    0    0    0  501 -0.00000000000E+00 -0.00000000000E+00 -0.70451325676E+03  0.70451325676E+03  0.00000000000E+00 0.  1.
         23    2    1    2    0    0  0.21569574801E+03  0.21929601592E+03 -0.32524361829E+03  0.45702429432E+03  0.92045619391E+02 0.  0.
        254    2    1    2    0    0 -0.21569574801E+03 -0.21929601592E+03  0.41715973493E+03  0.10439183358E+04  0.90616105035E+03 0.  0.
        -24    2    4    4    0    0 -0.50852140934E+03 -0.22979336929E+03  0.47675041231E+02  0.56556586209E+03  0.78694462781E+02 0.  0.
         24    2    4    4    0    0  0.29282566133E+03  0.10497353370E+02  0.36948469370E+03  0.47835247376E+03  0.80281304860E+02 0.  0.
         11    1    3    3    0    0  0.18186903615E+03  0.22126234671E+03 -0.30001425369E+03  0.41477936882E+03  0.00000000000E+00 0.  1.
        -11    1    3    3    0    0  0.33826711866E+02 -0.19663307861E+01 -0.25229364598E+02  0.42244925499E+02  0.00000000000E+00 0. -1.
          2    1    6    6  502    0  0.20880804752E+02 -0.21202055229E+02  0.42474516192E+02  0.51861543351E+02  0.00000000000E+00 0. -1.
          3    1    5    5  503    0 -0.53521343747E+02 -0.59115566663E+01  0.20903573673E+02  0.57761926310E+02  0.00000000000E+00 0. -1.
         -4    1    5    5    0  503 -0.45500006560E+03 -0.22388181263E+03  0.26771467559E+02  0.50780393578E+03  0.00000000000E+00 0.  1.
         -1    1    6    6    0  502  0.27194485658E+03  0.31699408599E+02  0.32701017751E+03  0.42649093041E+03  0.00000000000E+00 0.  1.
<mgrwt>
<rscale>  0 0.14981256E+04</rscale>
<asrwt>0</asrwt>
<pdfrwt beam="1">  1        2 0.12252760E+00 0.14981256E+04</pdfrwt>
<pdfrwt beam="2">  1       -2 0.10838666E+00 0.14981256E+04</pdfrwt>
<totfact> 0.22804114E+01</totfact>
</mgrwt>
</event>
<event>
12    1  0.1532786E-007  0.1997456E+04  0.7818608E-02  0.8607811E-01
         -1   -1    0    0    0  501 -0.00000000000E+00  0.00000000000E+00  0.11014930753E+04  0.11014930753E+04  0.00000000000E+00 0.  1.
          1   -1    0    0  501    0  0.00000000000E+00 -0.00000000000E+00 -0.90555041666E+03  0.90555041666E+03  0.00000000000E+00 0. -1.
         23    2    1    2    0    0  0.18388370741E+03 -0.47461220380E+03  0.68366017009E+03  0.85736602957E+03  0.92818740788E+02 0.  0.
        254    2    1    2    0    0 -0.18388370741E+03  0.47461220380E+03 -0.48771751149E+03  0.11496774623E+04  0.90819597806E+03 0.  0.
        -24    2    4    4    0    0  0.20254169351E+03  0.31669475872E+02 -0.51076738388E+03  0.55610811859E+03  0.79666968150E+02 0.  0.
         24    2    4    4    0    0 -0.38642540093E+03  0.44294272793E+03  0.23049872388E+02  0.59356934375E+03  0.79185974283E+02 0.  0.
         13    1    3    3    0    0  0.18057208099E+03 -0.45234463245E+03  0.67679401209E+03  0.83382976544E+03  0.00000000000E+00 0.  1.
        -13    1    3    3    0    0  0.33116264231E+01 -0.22267571350E+02  0.68661580069E+01  0.23536264129E+02  0.00000000000E+00 0. -1.
          4    1    6    6  502    0 -0.30522509134E+03  0.37489813315E+03 -0.68654191689E+01  0.48348536752E+03  0.00000000000E+00 0. -1.
          1    1    5    5  503    0  0.84378036878E+02 -0.67337845995E+01 -0.29729281048E+03  0.30910841484E+03  0.00000000000E+00 0. -1.
         -2    1    5    5    0  503  0.11816365664E+03  0.38403260472E+02 -0.21347457340E+03  0.24699970375E+03  0.00000000000E+00 0.  1.
         -3    1    6    6    0  502 -0.81200309584E+02  0.68044594778E+02  0.29915291557E+02  0.11008397624E+03  0.00000000000E+00 0.  1.
<mgrwt>
<rscale>  0 0.19974559E+04</rscale>
<asrwt>0</asrwt>
<pdfrwt beam="1">  1        1 0.13931545E+00 0.19974559E+04</pdfrwt>
<pdfrwt beam="2">  1       -1 0.16946047E+00 0.19974559E+04</pdfrwt>
<totfact> 0.41489763E+00</totfact>
</mgrwt>
</event>
<event>
12    1  0.1532786E-007  0.1343540E+04  0.7818608E-02  0.8995733E-01
          2   -1    0    0  501    0  0.00000000000E+00  0.00000000000E+00  0.94185481339E+03  0.94185481339E+03  0.00000000000E+00 0.  1.
         -2   -1    0    0    0  501 -0.00000000000E+00 -0.00000000000E+00 -0.47913406835E+03  0.47913406835E+03  0.00000000000E+00 0. -1.
         23    2    1    2    0    0 -0.73134570948E+02  0.18136987453E+03 -0.25511298076E+02  0.21741943271E+03  0.91524240140E+02 0.  0.
        254    2    1    2    0    0  0.73134570948E+02 -0.18136987453E+03  0.48823204312E+03  0.12035694490E+04  0.10825734127E+04 0.  0.
        -24    2    4    4    0    0 -0.25910979532E+03  0.21312235910E+03 -0.15181339176E+03  0.37775935930E+03  0.84236581356E+02 0.  0.
         24    2    4    4    0    0  0.33224436627E+03 -0.39449223364E+03  0.64004543488E+03  0.82581008973E+03  0.79332870079E+02 0.  0.
         11    1    3    3    0    0 -0.19729334699E+02  0.11617634106E+03  0.23167590876E+02  0.12009548758E+03  0.00000000000E+00 0.  1.
        -11    1    3    3    0    0 -0.53405236249E+02  0.65193533473E+02 -0.48678888953E+02  0.97323945128E+02  0.00000000000E+00 0. -1.
          2    1    6    6  502    0  0.21693912528E+02 -0.22460558571E+02  0.76046338835E+02  0.82207956928E+02  0.00000000000E+00 0. -1.
          3    1    5    5  503    0 -0.70306563762E+02  0.18915122071E+02 -0.15100156282E+02  0.74355964594E+02  0.00000000000E+00 0. -1.
         -4    1    5    5    0  503 -0.18880323156E+03  0.19420723703E+03 -0.13671323548E+03  0.30340339470E+03  0.00000000000E+00 0.  1.
         -1    1    6    6    0  502  0.31055045374E+03 -0.37203167506E+03  0.56399909605E+03  0.74360213280E+03  0.00000000000E+00 0.  1.
<mgrwt>
<rscale>  0 0.13435397E+04</rscale>
<asrwt>0</asrwt>
<pdfrwt beam="1">  1        2 0.14490074E+00 0.13435397E+04</pdfrwt>
<pdfrwt beam="2">  1       -2 0.73712934E-01 0.13435397E+04</pdfrwt>
<totfact> 0.44584252E+01</totfact>
</mgrwt>
</event>
<event>
12    1  0.1532786E-007  0.2156585E+04  0.7818608E-02  0.8536719E-01
          1   -1    0    0  501    0  0.00000000000E+00  0.00000000000E+00  0.20359252306E+04  0.20359252306E+04  0.00000000000E+00 0. -1.
         -1   -1    0    0    0  501 -0.00000000000E+00 -0.00000000000E+00 -0.57109894472E+03  0.57109894472E+03  0.00000000000E+00 0.  1.
         23    2    1    2    0    0  0.51464338524E+03  0.12130186803E+03 -0.25439197865E+03  0.59412129131E+03  0.93235577004E+02 0.  0.
        254    2    1    2    0    0 -0.51464338524E+03 -0.12130186803E+03  0.17192182646E+04  0.20129028840E+04  0.90360091979E+03 0.  0.
        -24    2    4    4    0    0  0.51929645132E+02 -0.15425194889E+03 -0.18797057136E+02  0.18285345141E+03  0.81189306918E+02 0.  0.
         24    2    4    4    0    0 -0.56657303037E+03  0.32950080860E+02  0.17380153217E+04  0.18300494326E+04  0.79328184484E+02 0.  0.
         13    1    3    3    0    0  0.64193900067E+02  0.30308758293E+02 -0.67709640661E+02  0.98102360183E+02  0.00000000000E+00 0. -1.
        -13    1    3    3    0    0  0.45044948518E+03  0.90993109734E+02 -0.18668233799E+03  0.49601893112E+03  0.00000000000E+00 0.  1.
          4    1    6    6  502    0 -0.26403203712E+03 -0.19862961895E+02  0.86280356187E+03  0.90251727976E+03  0.00000000000E+00 0. -1.
          3    1    5    5  503    0  0.17889368452E+02  0.44219610218E+01 -0.83559182168E+01  0.20233749335E+02  0.00000000000E+00 0. -1.
         -4    1    5    5    0  503  0.34040276679E+02 -0.15867390991E+03 -0.10441138919E+02  0.16261970208E+03  0.00000000000E+00 0.  1.
         -3    1    6    6    0  502 -0.30254099325E+03  0.52813042754E+02  0.87521175982E+03  0.92753215287E+03  0.00000000000E+00 0.  1.
<mgrwt>
<rscale>  0 0.21565850E+04</rscale>
<asrwt>0</asrwt>
<pdfrwt beam="1">  1        1 0.31321926E+00 0.21565850E+04</pdfrwt>
<pdfrwt beam="2">  1       -1 0.87861377E-01 0.21565850E+04</pdfrwt>
<totfact> 0.32832589E+00</totfact>
</mgrwt>
</event>
<event>
12    1  0.1532786E-007  0.1056588E+04  0.7818608E-02  0.9248568E-01
         -2   -1    0    0    0  501 -0.00000000000E+00  0.00000000000E+00  0.15984777524E+03  0.15984777524E+03  0.00000000000E+00 0.  1.
          2   -1    0    0  501    0  0.00000000000E+00 -0.00000000000E+00 -0.17460036763E+04  0.17460036763E+04  0.00000000000E+00 0. -1.
         23    2    1    2    0    0  0.79283964212E+01  0.80720458554E+02 -0.38851511909E+03  0.40794355182E+03  0.94314854660E+02 0.  0.
        254    2    1    2    0    0 -0.79283964212E+01 -0.80720458554E+02 -0.11976407820E+04  0.14979078997E+04  0.89599440929E+03 0.  0.
        -24    2    4    4    0    0  0.25390988226E+02 -0.45433061563E+03 -0.90450363695E+03  0.10159082177E+04  0.82955812687E+02 0.  0.
         24    2    4    4    0    0 -0.33319384647E+02  0.37361015708E+03 -0.29313714501E+03  0.48199968205E+03  0.75495541880E+02 0.  0.
         13    1    3    3    0    0  0.17901706528E+02  0.73667162628E+02 -0.38839800084E+03  0.39572759444E+03  0.00000000000E+00 0. -1.
        -13    1    3    3    0    0 -0.99733101070E+01  0.70532959260E+01 -0.11711824903E+00  0.12215957375E+02  0.00000000000E+00 0.  1.
          4    1    6    6  502    0  0.14552855715E+02  0.21602773378E+03 -0.14590982156E+03  0.26109278695E+03  0.00000000000E+00 0. -1.
          3    1    5    5  503    0  0.29473528697E+02 -0.60167900680E+02 -0.10580417389E+03  0.12523333573E+03  0.00000000000E+00 0. -1.
         -4    1    5    5    0  503 -0.40825404714E+01 -0.39416271495E+03 -0.79869946306E+03  0.89067488192E+03  0.00000000000E+00 0.  1.
         -1    1    6    6    0  502 -0.47872240362E+02  0.15758242330E+03 -0.14722732345E+03  0.22090689509E+03  0.00000000000E+00 0.  1.
<mgrwt>
<rscale>  0 0.10565885E+04</rscale>
<asrwt>0</asrwt>
<pdfrwt beam="1">  1        2 0.26861595E+00 0.10565885E+04</pdfrwt>
<pdfrwt beam="2">  1       -2 0.24591965E-01 0.10565885E+04</pdfrwt>
<totfact> 0.13607829E+02</totfact>
</mgrwt>
</event>
<event>
12    1  0.1532786E-007  0.2381123E+04  0.7818608E-02  0.8446605E-01
          1   -1    0    0  501    0  0.00000000000E+00  0.00000000000E+00  0.13155178944E+04  0.13155178944E+04  0.00000000000E+00 0. -1.
         -1   -1    0    0    0  501 -0.00000000000E+00 -0.00000000000E+00 -0.10774738777E+04  0.10774738777E+04  0.00000000000E+00 0.  1.
         23    2    1    2    0    0  0.73915730021E+03  0.57337466277E+03  0.50678774172E+03  0.10681235979E+04  0.94563136765E+02 0.  0.
        254    2    1    2    0    0 -0.73915730021E+03 -0.57337466277E+03 -0.26874372501E+03  0.13248681742E+04  0.89885508900E+03 0.  0.
        -24    2    4    4    0    0 -0.92291131096E+03 -0.42142625904E+03 -0.32170864057E+03  0.10672589043E+04  0.78611319784E+02 0.  0.
         24    2    4    4    0    0  0.18375401075E+03 -0.15194840374E+03  0.52964915559E+02  0.25760926998E+03  0.81874292882E+02 0.  0.
         11    1    3    3    0    0  0.71722455194E+03  0.56783518452E+03  0.48004971660E+03  0.10330999879E+04  0.00000000000E+00 0. -1.
        -11    1    3    3    0    0  0.21932748268E+02  0.55394782570E+01  0.26738025117E+02  0.35023609938E+02  0.00000000000E+00 0.  1.
          2    1    6    6  502    0  0.10064673851E+03 -0.73393550619E+02 -0.13574364282E+02  0.12530220513E+03  0.00000000000E+00 0. -1.
          1    1    5    5  503    0 -0.41682197047E+03 -0.19817333271E+03 -0.10604694706E+03  0.47356011217E+03  0.00000000000E+00 0. -1.
         -2    1    5    5    0  503 -0.50608934049E+03 -0.22325292633E+03 -0.21566169352E+03  0.59369879208E+03  0.00000000000E+00 0.  1.
         -1    1    6    6    0  502  0.83107272246E+02 -0.78554853117E+02  0.66539279840E+02  0.13230706485E+03  0.00000000000E+00 0.  1.
<mgrwt>
<rscale>  0 0.23811226E+04</rscale>
<asrwt>0</asrwt>
<pdfrwt beam="1">  1        1 0.20238737E+00 0.23811226E+04</pdfrwt>
<pdfrwt beam="2">  1       -1 0.16576521E+00 0.23811226E+04</pdfrwt>
<totfact> 0.20934261E+00</totfact>
</mgrwt>
</event>
<event>
12    1  0.1532786E-007  0.1956743E+04  0.7818608E-02  0.8627116E-01
         -1   -1    0    0    0  501 -0.00000000000E+00  0.00000000000E+00  0.10017412152E+04  0.10017412152E+04  0.00000000000E+00 0.  1.
          1   -1    0    0  501    0  0.00000000000E+00 -0.00000000000E+00 -0.95554746477E+03  0.95554746477E+03  0.00000000000E+00 0. -1.
         23    2    1    2    0    0 -0.30930007482E+03  0.30862558127E+03 -0.61419037125E+03  0.75914848611E+03  0.90334523481E+02 0.  0.
        254    2    1    2    0    0  0.30930007482E+03 -0.30862558127E+03  0.66038412171E+03  0.11981401939E+04  0.89917542799E+03 0.  0.
        -24    2    4    4    0    0  0.52133553028E+03 -0.15146426531E+03  0.78259474512E+02  0.55453330325E+03  0.81550476784E+02 0.  0.
         24    2    4    4    0    0 -0.21203545546E+03 -0.15716131596E+03  0.58212464720E+03  0.64360689064E+03  0.75511662608E+02 0.  0.
         11    1    3    3    0    0 -0.63473354999E+02  0.11526979321E+03 -0.15151000583E+03  0.20067703876E+03  0.00000000000E+00 0.  1.
        -11    1    3    3    0    0 -0.24582671982E+03  0.19335578806E+03 -0.46268036542E+03  0.55847144735E+03  0.00000000000E+00 0. -1.
          2    1    6    6  502    0 -0.76431641021E+02 -0.68107646639E+02  0.31352857454E+03  0.32981906302E+03  0.00000000000E+00 0. -1.
          3    1    5    5  503    0  0.31117890369E+02 -0.29271839525E+02 -0.29819410982E+01  0.42825876090E+02  0.00000000000E+00 0. -1.
         -4    1    5    5    0  503  0.49021763991E+03 -0.12219242578E+03  0.81241415610E+02  0.51170742716E+03  0.00000000000E+00 0.  1.
         -1    1    6    6    0  502 -0.13560381444E+03 -0.89053669324E+02  0.26859607266E+03  0.31378782761E+03  0.00000000000E+00 0.  1.
<mgrwt>
<rscale>  0 0.19567435E+04</rscale>
<asrwt>0</asrwt>
<pdfrwt beam="1">  1        1 0.14700730E+00 0.19567435E+04</pdfrwt>
<pdfrwt beam="2">  1       -1 0.15411403E+00 0.19567435E+04</pdfrwt>
<totfact> 0.49523665E+00</totfact>
</mgrwt>
</event>
<event>
12    1  0.1532786E-007  0.2672565E+04  0.7818608E-02  0.8343962E-01
         -2   -1    0    0    0  501 -0.00000000000E+00  0.00000000000E+00  0.10328691248E+04  0.10328691248E+04  0.00000000000E+00 0.  1.
          2   -1    0    0  501    0  0.00000000000E+00 -0.00000000000E+00 -0.17288256976E+04  0.17288256976E+04  0.00000000000E+00 0. -1.
         23    2    1    2    0    0  0.36663275691E+03 -0.46781682268E+02 -0.14628272956E+04  0.15114902552E+04  0.90172004614E+02 0.  0.
        254    2    1    2    0    0 -0.36663275691E+03  0.46781682268E+02  0.76687072281E+03  0.12502045672E+04  0.91559415136E+03 0.  0.
        -24    2    4    4    0    0 -0.33146248365E+03 -0.26356401151E+03  0.81742318906E+03  0.92408721633E+03  0.80144539087E+02 0.  0.
         24    2    4    4    0    0 -0.35170273257E+02  0.31034569378E+03 -0.50552466253E+02  0.32611735082E+03  0.79028962377E+02 0.  0.
         11    1    3    3    0    0  0.36488081494E+03 -0.34163090452E+02 -0.13869338549E+04  0.14345349921E+04  0.00000000000E+00 0. -1.
        -11    1    3    3    0    0  0.17519419693E+01 -0.12618591816E+02 -0.75893440758E+02  0.76955263044E+02  0.00000000000E+00 0.  1.
          2    1    6    6  502    0  0.18746673113E+02  0.23333059609E+02 -0.81599201052E+01  0.31023438231E+02  0.00000000000E+00 0. -1.
          3    1    5    5  503    0 -0.12655465992E+03 -0.70819529903E+02  0.21659161614E+03  0.26065957866E+03  0.00000000000E+00 0. -1.
         -4    1    5    5    0  503 -0.20490782373E+03 -0.19274448161E+03  0.60083157292E+03  0.66342763768E+03  0.00000000000E+00 0.  1.
         -1    1    6    6    0  502 -0.53916946371E+02  0.28701263417E+03 -0.42392546147E+02  0.29509391259E+03  0.00000000000E+00 0.  1.
<mgrwt>
<rscale>  0 0.26725648E+04</rscale>
<asrwt>0</asrwt>
<pdfrwt beam="1">  1        2 0.26597318E+00 0.26725648E+04</pdfrwt>
<pdfrwt beam="2">  1       -2 0.15890294E+00 0.26725648E+04</pdfrwt>
<totfact> 0.21332222E+00</totfact>
</mgrwt>
</event>
<event>
12    1  0.1532786E-007  0.1509040E+04  0.7818608E-02  0.8878464E-01
          1   -1    0    0  501    0  0.00000000000E+00  0.00000000000E+00  0.15309399775E+04  0.15309399775E+04  0.00000000000E+00 0. -1.
         -1   -1    0    0    0  501 -0.00000000000E+00 -0.00000000000E+00 -0.37186325877E+03  0.37186325877E+03  0.00000000000E+00 0.  1.
         23    2    1    2    0    0  0.21854696870E+03 -0.74510242931E+02  0.90870727892E+03  0.94202506920E+03  0.91366068151E+02 0.  0.
        254    2    1    2    0    0 -0.21854696870E+03  0.74510242931E+02  0.25036943985E+03  0.96077816712E+03  0.89838481519E+03 0.  0.
        -24    2    4    4    0    0 -0.88910784847E+01  0.10505077252E+03  0.56073790352E+03  0.57602371955E+03  0.79130354176E+02 0.  0.
         24    2    4    4    0    0 -0.20965589022E+03 -0.30540529591E+02 -0.31036846367E+03  0.38475444757E+03  0.82577753892E+02 0.  0.
         13    1    3    3    0    0  0.21373706267E+03 -0.59080952207E+02  0.89042990296E+03  0.91762710453E+03  0.00000000000E+00 0. -1.
        -13    1    3    3    0    0  0.48099060324E+01 -0.15429290724E+02  0.18277375954E+02  0.24397964670E+02  0.00000000000E+00 0.  1.
          2    1    6    6  502    0 -0.41076227744E+02  0.89350760964E+01 -0.19693367607E+02  0.46421124482E+02  0.00000000000E+00 0. -1.
          3    1    5    5  503    0  0.19241224402E+00 -0.10290300088E+02  0.11695400725E+03  0.11740599265E+03  0.00000000000E+00 0. -1.
         -4    1    5    5    0  503 -0.90834907287E+01  0.11534107261E+03  0.44378389627E+03  0.45861772689E+03  0.00000000000E+00 0.  1.
         -1    1    6    6    0  502 -0.16857966247E+03 -0.39475605688E+02 -0.29067509606E+03  0.33833332309E+03  0.00000000000E+00 0.  1.
<mgrwt>
<rscale>  0 0.15090399E+04</rscale>
<asrwt>0</asrwt>
<pdfrwt beam="1">  1        1 0.23552922E+00 0.15090399E+04</pdfrwt>
<pdfrwt beam="2">  1       -1 0.57209733E-01 0.15090399E+04</pdfrwt>
<totfact> 0.18620724E+01</totfact>
</mgrwt>
</event>
<event>
12    1  0.1532786E-007  0.1323176E+04  0.7818608E-02  0.9011386E-01
         -2   -1    0    0    0  501 -0.00000000000E+00  0.00000000000E+00  0.33020843246E+03  0.33020843246E+03  0.00000000000E+00 0.  1.
          2   -1    0    0  501    0  0.00000000000E+00 -0.00000000000E+00 -0.13255223223E+04  0.13255223223E+04  0.00000000000E+00 0. -1.
         23    2    1    2    0    0 -0.63212725934E+02  0.45304374509E+02 -0.69769750625E+03  0.70830592230E+03  0.94165462181E+02 0.  0.
        254    2    1    2    0    0  0.63212725934E+02 -0.45304374509E+02 -0.29761638359E+03  0.94742483247E+03  0.89609707417E+03 0.  0.
        -24    2    4    4    0    0  0.58085368283E+02 -0.38687048010E+03 -0.41697807985E+03  0.57703205580E+03  0.77798431616E+02 0.  0.
         24    2    4    4    0    0  0.51273576507E+01  0.34156610559E+03  0.11936169626E+03  0.37039277667E+03  0.79056310262E+02 0.  0.
         13    1    3    3    0    0 -0.64824784085E+02  0.70895202215E+02 -0.57336592423E+03  0.58135777745E+03  0.00000000000E+00 0. -1.
        -13    1    3    3    0    0  0.16120581514E+01 -0.25590827707E+02 -0.12433158202E+03  0.12694814486E+03  0.00000000000E+00 0.  1.
          4    1    6    6  502    0  0.22117463557E+02  0.73527472337E+02  0.73684524311E+00  0.76785508551E+02  0.00000000000E+00 0. -1.
          1    1    5    5  503    0  0.45380524996E+01 -0.16313198758E+03 -0.12647267178E+03  0.20646543536E+03  0.00000000000E+00 0. -1.
         -2    1    5    5    0  503  0.53547315783E+02 -0.22373849252E+03 -0.29050540808E+03  0.37056662044E+03  0.00000000000E+00 0.  1.
         -3    1    6    6    0  502 -0.16990105906E+02  0.26803863325E+03  0.11862485102E+03  0.29360726812E+03  0.00000000000E+00 0.  1.
<mgrwt>
<rscale>  0 0.13231759E+04</rscale>
<asrwt>0</asrwt>
<pdfrwt beam="1">  1        2 0.20392652E+00 0.13231759E+04</pdfrwt>
<pdfrwt beam="2">  1       -2 0.50801296E-01 0.13231759E+04</pdfrwt>
<totfact> 0.57253190E+01</totfact>
</mgrwt>
</event>
<event>
12    1  0.1532786E-007  0.1637152E+04  0.7818608E-02  0.8798044E-01
         -3   -1    0    0    0  501 -0.00000000000E+00  0.00000000000E+00  0.31857599389E+03  0.31857599389E+03  0.00000000000E+00 0.  1.
          3   -1    0    0  501    0  0.00000000000E+00 -0.00000000000E+00 -0.21033187473E+04  0.21033187473E+04  0.00000000000E+00 0. -1.
         23    2    1    2    0    0  0.49682349863E+03 -0.22076248193E+03 -0.44705907571E+03  0.70968669086E+03  0.90684727410E+02 0.  0.
        254    2    1    2    0    0 -0.49682349863E+03  0.22076248193E+03 -0.13376836777E+04  0.17122080503E+04  0.92015711908E+03 0.  0.
        -24    2    4    4    0    0  0.68334944612E+02  0.36268806039E+03 -0.18934046706E+03  0.42231494308E+03  0.79295680041E+02 0.  0.
         24    2    4    4    0    0 -0.56515844324E+03 -0.14192557846E+03 -0.11483432106E+04  0.12898931072E+04  0.74733947678E+02 0.  0.
         11    1    3    3    0    0  0.32336530581E+03 -0.14882468418E+03 -0.34608612805E+03  0.49647710486E+03  0.00000000000E+00 0. -1.
        -11    1    3    3    0    0  0.17345819282E+03 -0.71937797748E+02 -0.10097294766E+03  0.21320958599E+03  0.00000000000E+00 0.  1.
          2    1    6    6  502    0 -0.22650389938E+03 -0.84395870172E+02 -0.41944362519E+03  0.48410704813E+03  0.00000000000E+00 0. -1.
          3    1    5    5  503    0  0.55327027890E+02  0.19578572557E+03 -0.14277319870E+03  0.24855043073E+03  0.00000000000E+00 0. -1.
         -4    1    5    5    0  503  0.13007916722E+02  0.16690233482E+03 -0.46567268365E+02  0.17376451234E+03  0.00000000000E+00 0.  1.
         -1    1    6    6    0  502 -0.33865454386E+03 -0.57529708290E+02 -0.72889958542E+03  0.80578605910E+03  0.00000000000E+00 0.  1.
<mgrwt>
<rscale>  0 0.16371522E+04</rscale>
<asrwt>0</asrwt>
<pdfrwt beam="1">  1        3 0.32358749E+00 0.16371522E+04</pdfrwt>
<pdfrwt beam="2">  1       -3 0.49011692E-01 0.16371522E+04</pdfrwt>
<totfact> 0.29835241E-01</totfact>
</mgrwt>
</event>
<event>
12    1  0.1532786E-007  0.2667788E+04  0.7818608E-02  0.8345533E-01
          1   -1    0    0  501    0  0.00000000000E+00  0.00000000000E+00  0.29661724568E+04  0.29661724568E+04  0.00000000000E+00 0. -1.
         -1   -1    0    0    0  501 -0.00000000000E+00 -0.00000000000E+00 -0.59985503521E+03  0.59985503521E+03  0.00000000000E+00 0.  1.
         23    2    1    2    0    0  0.94116497633E+03 -0.67060811113E+03  0.13708091350E+04  0.17951831787E+04  0.89767527277E+02 0.  0.
        254    2    1    2    0    0 -0.94116497633E+03  0.67060811113E+03  0.99550828650E+03  0.17708443133E+04  0.89963663888E+03 0.  0.
        -24    2    4    4    0    0 -0.57601231904E+03 -0.11129870494E+03  0.47658185848E+03  0.76059307752E+03  0.84817264315E+02 0.  0.
         24    2    4    4    0    0 -0.36515265728E+03  0.78190681607E+03  0.51892642802E+03  0.10102512358E+04  0.81290771417E+02 0.  0.
         11    1    3    3    0    0  0.25424744286E+03 -0.21066119753E+03  0.34180148637E+03  0.47523484555E+03  0.00000000000E+00 0. -1.
        -11    1    3    3    0    0  0.68691753347E+03 -0.45994691360E+03  0.10290076487E+04  0.13199483331E+04  0.00000000000E+00 0.  1.
          4    1    6    6  502    0 -0.20899619924E+03  0.53724117506E+03  0.35143724216E+03  0.67514119016E+03  0.00000000000E+00 0. -1.
          3    1    5    5  503    0 -0.28198631071E+03 -0.12281887471E+02  0.23832271507E+03  0.36941147886E+03  0.00000000000E+00 0. -1.
         -4    1    5    5    0  503 -0.29402600833E+03 -0.99016817472E+02  0.23825914340E+03  0.39118159866E+03  0.00000000000E+00 0.  1.
         -3    1    6    6    0  502 -0.15615645805E+03  0.24466564101E+03  0.16748918587E+03  0.33511004560E+03  0.00000000000E+00 0.  1.
<mgrwt>
<rscale>  0 0.26677882E+04</rscale>
<asrwt>0</asrwt>
<pdfrwt beam="1">  1        1 0.45633422E+00 0.26677882E+04</pdfrwt>
<pdfrwt beam="2">  1       -1 0.92285392E-01 0.26677882E+04</pdfrwt>
<totfact> 0.63264139E-01</totfact>
</mgrwt>
</event>
<event>
12    1  0.1532786E-007  0.2140835E+04  0.7818608E-02  0.8543466E-01
          1   -1    0    0  501    0  0.00000000000E+00  0.00000000000E+00  0.17939923126E+04  0.17939923126E+04  0.00000000000E+00 0. -1.
         -1   -1    0    0    0  501 -0.00000000000E+00 -0.00000000000E+00 -0.63868340465E+03  0.63868340465E+03  0.00000000000E+00 0.  1.
         23    2    1    2    0    0  0.12143830121E+03  0.59479216647E+02 -0.50806667021E+03  0.53388258246E+03  0.92810733545E+02 0.  0.
        254    2    1    2    0    0 -0.12143830121E+03 -0.59479216647E+02  0.16633755782E+04  0.18987931348E+04  0.90571077971E+03 0.  0.
        -24    2    4    4    0    0  0.26098475394E+03 -0.51998528182E+02  0.14006834656E+04  0.14281186525E+04  0.82412535332E+02 0.  0.
         24    2    4    4    0    0 -0.38242305515E+03 -0.74806884650E+01  0.26269211256E+03  0.47067448232E+03  0.78892132044E+02 0.  0.
         13    1    3    3    0    0  0.10986219647E+03  0.65696507304E+02 -0.31011435997E+03  0.33549463416E+03  0.00000000000E+00 0.  1.
        -13    1    3    3    0    0  0.11576104740E+02 -0.62172906567E+01 -0.19795231024E+03  0.19838794831E+03  0.00000000000E+00 0. -1.
          2    1    6    6  502    0 -0.11442936701E+03 -0.15119768171E+02  0.40033756284E+02  0.12216950956E+03  0.00000000000E+00 0. -1.
          3    1    5    5  503    0  0.18265043526E+02  0.32687557454E+01  0.32073397749E+02  0.37054006832E+02  0.00000000000E+00 0. -1.
         -4    1    5    5    0  503  0.24271971041E+03 -0.55267283928E+02  0.13686100679E+04  0.13910646457E+04  0.00000000000E+00 0.  1.
         -1    1    6    6    0  502 -0.26799368814E+03  0.76390797058E+01  0.22265835627E+03  0.34850497277E+03  0.00000000000E+00 0.  1.
<mgrwt>
<rscale>  0 0.21408345E+04</rscale>
<asrwt>0</asrwt>
<pdfrwt beam="1">  1        1 0.27599882E+00 0.21408345E+04</pdfrwt>
<pdfrwt beam="2">  1       -1 0.98258986E-01 0.21408345E+04</pdfrwt>
<totfact> 0.37385996E+00</totfact>
</mgrwt>
</event>
<event>
12    1  0.1532786E-007  0.1705296E+04  0.7818608E-02  0.8758350E-01
          2   -1    0    0  501    0  0.00000000000E+00  0.00000000000E+00  0.70776856998E+03  0.70776856998E+03  0.00000000000E+00 0. -1.
         -2   -1    0    0    0  501 -0.00000000000E+00 -0.00000000000E+00 -0.10271841299E+04  0.10271841299E+04  0.00000000000E+00 0.  1.
         23    2    1    2    0    0  0.44046395362E+03 -0.35040905347E+03  0.12324240147E+03  0.58368337855E+03  0.93287714521E+02 0.  0.
        254    2    1    2    0    0 -0.44046395362E+03  0.35040905347E+03 -0.44265796137E+03  0.11512693213E+04  0.90148764841E+03 0.  0.
        -24    2    4    4    0    0  0.12994939977E+02  0.29829003041E+03  0.19341917399E+03  0.36427862960E+03  0.78371757707E+02 0.  0.
         24    2    4    4    0    0 -0.45345889360E+03  0.52119023065E+02 -0.63607713536E+03  0.78699069172E+03  0.80117825549E+02 0.  0.
         13    1    3    3    0    0  0.10055014948E+03 -0.37026698376E+02  0.37127167420E+02  0.11340077387E+03  0.00000000000E+00 0.  1.
        -13    1    3    3    0    0  0.33991380414E+03 -0.31338235510E+03  0.86115234048E+02  0.47028260468E+03  0.00000000000E+00 0. -1.
          4    1    6    6  502    0 -0.71951289980E+02  0.25823111332E+02 -0.15150462128E+03  0.16969817759E+03  0.00000000000E+00 0. -1.
          3    1    5    5  503    0  0.16798978356E+02  0.12465498166E+02  0.38177060753E+01  0.21264270456E+02  0.00000000000E+00 0. -1.
         -4    1    5    5    0  503 -0.38040383795E+01  0.28582453224E+03  0.18960146792E+03  0.34301435914E+03  0.00000000000E+00 0.  1.
         -3    1    6    6    0  502 -0.38150760362E+03  0.26295911733E+02 -0.48457251408E+03  0.61729251413E+03  0.00000000000E+00 0.  1.
<mgrwt>
<rscale>  0 0.17052960E+04</rscale>
<asrwt>0</asrwt>
<pdfrwt beam="1">  1        2 0.10888747E+00 0.17052960E+04</pdfrwt>
<pdfrwt beam="2">  1       -2 0.15802833E+00 0.17052960E+04</pdfrwt>
<totfact> 0.10005758E+01</totfact>
</mgrwt>
</event>
<event>
12    1  0.1532786E-007  0.1911060E+04  0.7818608E-02  0.8649370E-01
         -2   -1    0    0    0  501 -0.00000000000E+00  0.00000000000E+00  0.20134704354E+04  0.20134704354E+04  0.00000000000E+00 0. -1.
          2   -1    0    0  501    0  0.00000000000E+00 -0.00000000000E+00 -0.45346475991E+03  0.45346475991E+03  0.00000000000E+00 0.  1.
         23    2    1    2    0    0  0.39413450858E+03  0.62866604815E+03  0.54098619823E+03  0.92259830061E+03  0.89210686972E+02 0.  0.
        254    2    1    2    0    0 -0.39413450858E+03 -0.62866604815E+03  0.10190194772E+04  0.15443368947E+04  0.89219545969E+03 0.  0.
        -24    2    4    4    0    0 -0.32412657008E+03 -0.74040525572E+03  0.11011898171E+04  0.13683510995E+04  0.80670578344E+02 0.  0.
         24    2    4    4    0    0 -0.70007938502E+02  0.11173920758E+03 -0.82170339831E+02  0.17598579515E+03  0.82657567001E+02 0.  0.
         11    1    3    3    0    0 -0.38428024827E+01  0.10351046246E+02  0.28718098990E+01  0.11408706386E+02  0.00000000000E+00 0.  1.
        -11    1    3    3    0    0  0.39797731106E+03  0.61831500190E+03  0.53811438833E+03  0.91118959423E+03  0.00000000000E+00 0. -1.
          4    1    6    6  502    0  0.15869817437E+02  0.30026573569E+02 -0.33923451521E+02  0.48002570648E+02  0.00000000000E+00 0. -1.
          3    1    5    5  503    0  0.71128504305E+00 -0.38498855565E+02  0.60867960138E+02  0.72024831674E+02  0.00000000000E+00 0. -1.
         -2    1    5    5    0  503 -0.32483785512E+03 -0.70190640016E+03  0.10403218569E+04  0.12963262678E+04  0.00000000000E+00 0.  1.
         -3    1    6    6    0  502 -0.85877755939E+02  0.81712634007E+02 -0.48246888311E+02  0.12798322450E+03  0.00000000000E+00 0.  1.
<mgrwt>
<rscale>  0 0.19110603E+04</rscale>
<asrwt>0</asrwt>
<pdfrwt beam="1">  1        2 0.69763811E-01 0.19110603E+04</pdfrwt>
<pdfrwt beam="2">  1       -2 0.30976468E+00 0.19110603E+04</pdfrwt>
<totfact> 0.17889867E+00</totfact>
</mgrwt>
</event>
<event>
12    1  0.1532786E-007  0.1881223E+04  0.7818608E-02  0.8664260E-01
         -2   -1    0    0    0  501 -0.00000000000E+00  0.00000000000E+00  0.26159864722E+03  0.26159864722E+03  0.00000000000E+00 0.  1.
          2   -1    0    0  501    0  0.00000000000E+00 -0.00000000000E+00 -0.33820885579E+04  0.33820885579E+04  0.00000000000E+00 0. -1.
         23    2    1    2    0    0 -0.34927759724E+03 -0.14386654502E+03 -0.24086342346E+04  0.24398209710E+04  0.92277148221E+02 0.  0.
        254    2    1    2    0    0  0.34927759724E+03  0.14386654502E+03 -0.71185567616E+03  0.12038662341E+04  0.89435059305E+03 0.  0.
        -24    2    4    4    0    0  0.14648224371E+03  0.18794560663E+03  0.16438922378E+03  0.29983740539E+03  0.78090037772E+02 0.  0.
         24    2    4    4    0    0  0.20279535353E+03 -0.44079061615E+02 -0.87624489994E+03  0.90402882874E+03  0.79962987916E+02 0.  0.
         11    1    3    3    0    0 -0.12006029536E+03 -0.80044311408E+01 -0.63763775901E+03  0.64889171451E+03  0.00000000000E+00 0. -1.
        -11    1    3    3    0    0 -0.22921730188E+03 -0.13586211388E+03 -0.17709964755E+04  0.17909292565E+04  0.00000000000E+00 0.  1.
          2    1    6    6  502    0  0.18594691346E+03 -0.58995177272E+02 -0.71169614959E+03  0.73794857199E+03  0.00000000000E+00 0. -1.
          3    1    5    5  503    0  0.14439933999E+03  0.19523855119E+03  0.15651897577E+03  0.28890733988E+03  0.00000000000E+00 0. -1.
         -4    1    5    5    0  503  0.20829037170E+01 -0.72929445574E+01  0.78702480114E+01  0.10930065506E+02  0.00000000000E+00 0.  1.
         -1    1    6    6    0  502  0.16848440069E+02  0.14916115657E+02 -0.16454875035E+03  0.16608025675E+03  0.00000000000E+00 0.  1.
<mgrwt>
<rscale>  0 0.18812228E+04</rscale>
<asrwt>0</asrwt>
<pdfrwt beam="1">  1        2 0.52032130E+00 0.18812228E+04</pdfrwt>
<pdfrwt beam="2">  1       -2 0.40245947E-01 0.18812228E+04</pdfrwt>
<totfact> 0.54071757E+00</totfact>
</mgrwt>
</event>
<event>
12    1  0.1532786E-007  0.1543513E+04  0.7818608E-02  0.8856022E-01
          1   -1    0    0  501    0  0.00000000000E+00  0.00000000000E+00  0.76626216452E+03  0.76626216452E+03  0.00000000000E+00 0. -1.
         -1   -1    0    0    0  501 -0.00000000000E+00 -0.00000000000E+00 -0.77728995147E+03  0.77728995147E+03  0.00000000000E+00 0.  1.
         23    2    1    2    0    0 -0.24150306708E+03 -0.43694561954E+03 -0.12237071399E+01  0.51041833653E+03  0.10620816801E+03 0.  0.
        254    2    1    2    0    0  0.24150306708E+03  0.43694561954E+03 -0.98040798123E+01  0.10331337795E+04  0.90444683671E+03 0.  0.
        -24    2    4    4    0    0  0.77523223121E+02 -0.21090359659E+03  0.21745748884E+03  0.32276998516E+03  0.80015790271E+02 0.  0.
         24    2    4    4    0    0  0.16397984396E+03  0.64784921614E+03 -0.22726156865E+03  0.71036379430E+03  0.79817940259E+02 0.  0.
         13    1    3    3    0    0 -0.64175634575E+02 -0.61617192141E+02 -0.31069988743E+02  0.94236588653E+02  0.00000000000E+00 0.  1.
        -13    1    3    3    0    0 -0.17732743251E+03 -0.37532842740E+03  0.29846281603E+02  0.41618174787E+03  0.00000000000E+00 0. -1.
          4    1    6    6  502    0  0.12008015589E+03  0.37279624930E+03 -0.16476394546E+03  0.42490404217E+03  0.00000000000E+00 0. -1.
          3    1    5    5  503    0  0.21736464338E+02 -0.40867446413E+02  0.95747986942E+02  0.10634988981E+03  0.00000000000E+00 0. -1.
         -4    1    5    5    0  503  0.55786758783E+02 -0.17003615018E+03  0.12170950189E+03  0.21642009536E+03  0.00000000000E+00 0.  1.
         -3    1    6    6    0  502  0.43899688077E+02  0.27505296683E+03 -0.62497623187E+02  0.28545975212E+03  0.00000000000E+00 0.  1.
<mgrwt>
<rscale>  0 0.15435127E+04</rscale>
<asrwt>0</asrwt>
<pdfrwt beam="1">  1        1 0.11788649E+00 0.15435127E+04</pdfrwt>
<pdfrwt beam="2">  1       -1 0.11958307E+00 0.15435127E+04</pdfrwt>
<totfact> 0.14257400E+01</totfact>
</mgrwt>
</event>
<event>
12    1  0.1532786E-007  0.2016358E+04  0.7818608E-02  0.8599011E-01
          1   -1    0    0  501    0  0.00000000000E+00  0.00000000000E+00  0.11615125997E+04  0.11615125997E+04  0.00000000000E+00 0. -1.
         -1   -1    0    0    0  501 -0.00000000000E+00 -0.00000000000E+00 -0.87508709245E+03  0.87508709245E+03  0.00000000000E+00 0.  1.
         23    2    1    2    0    0  0.25348453616E+03 -0.76083408103E+03  0.82370766269E+02  0.81133805694E+03  0.91441733223E+02 0.  0.
        254    2    1    2    0    0 -0.25348453616E+03  0.76083408103E+03  0.20405474100E+03  0.12252616352E+04  0.90360656731E+03 0.  0.
        -24    2    4    4    0    0 -0.51119344776E+03  0.78146280820E+03  0.16025577679E+03  0.95103888182E+03  0.82402543071E+02 0.  0.
         24    2    4    4    0    0  0.25770891160E+03 -0.20628727168E+02  0.43798964211E+02  0.27422275340E+03  0.80251739662E+02 0.  0.
         13    1    3    3    0    0 -0.69401484343E+01 -0.37861446188E+02  0.29112505142E-01  0.38492279944E+02  0.00000000000E+00 0.  1.
        -13    1    3    3    0    0  0.26042468460E+03 -0.72297263484E+03  0.82341653764E+02  0.77284577700E+03  0.00000000000E+00 0. -1.
          2    1    6    6  502    0  0.14235052454E+03 -0.50003820493E+02  0.34829752897E+02  0.15484561857E+03  0.00000000000E+00 0. -1.
          1    1    5    5  503    0 -0.49145201001E+03  0.76383798373E+03  0.14305842709E+03  0.91947770886E+03  0.00000000000E+00 0. -1.
         -2    1    5    5    0  503 -0.19741437747E+02  0.17624824474E+02  0.17197349692E+02  0.31561172958E+02  0.00000000000E+00 0.  1.
         -1    1    6    6    0  502  0.11535838705E+03  0.29375093326E+02  0.89692113136E+01  0.11937713484E+03  0.00000000000E+00 0.  1.
<mgrwt>
<rscale>  0 0.20163578E+04</rscale>
<asrwt>0</asrwt>
<pdfrwt beam="1">  1        1 0.17869425E+00 0.20163578E+04</pdfrwt>
<pdfrwt beam="2">  1       -1 0.13462878E+00 0.20163578E+04</pdfrwt>
<totfact> 0.49020664E+00</totfact>
</mgrwt>
</event>
<event>
12    1  0.1532786E-007  0.1834231E+04  0.7818608E-02  0.8688305E-01
         -2   -1    0    0    0  501 -0.00000000000E+00  0.00000000000E+00  0.13728482502E+04  0.13728482502E+04  0.00000000000E+00 0. -1.
          2   -1    0    0  501    0  0.00000000000E+00 -0.00000000000E+00 -0.61266820296E+03  0.61266820296E+03  0.00000000000E+00 0.  1.
         23    2    1    2    0    0 -0.53237424718E+03  0.90551100267E+02 -0.17931815964E+03  0.57726927604E+03  0.97277817942E+02 0.  0.
        254    2    1    2    0    0  0.53237424718E+03 -0.90551100267E+02  0.93949820685E+03  0.14082471771E+04  0.89937833546E+03 0.  0.
        -24    2    4    4    0    0  0.59738797800E+03 -0.32802088715E+03  0.36453756467E+03  0.77710320287E+03  0.80818643810E+02 0.  0.
         24    2    4    4    0    0 -0.65013730817E+02  0.23746978689E+03  0.57496064218E+03  0.63114397422E+03  0.84523909399E+02 0.  0.
         11    1    3    3    0    0 -0.16743117412E+03  0.70642482855E+02 -0.79826768739E+02  0.19848393250E+03  0.00000000000E+00 0. -1.
        -11    1    3    3    0    0 -0.36494307306E+03  0.19908617412E+02 -0.99491390897E+02  0.37878534355E+03  0.00000000000E+00 0.  1.
          4    1    6    6  502    0  0.18787147159E+02  0.26014138609E+02  0.88377291435E+02  0.94022539571E+02  0.00000000000E+00 0. -1.
          1    1    5    5  503    0  0.45771560253E+03 -0.25374082566E+03  0.31724132726E+03  0.61198859395E+03  0.00000000000E+00 0. -1.
         -2    1    5    5    0  503  0.13967237547E+03 -0.74280061495E+02  0.47296237411E+02  0.16511460892E+03  0.00000000000E+00 0.  1.
         -3    1    6    6    0  502 -0.83800877976E+02  0.21145564828E+03  0.48658335075E+03  0.53712143465E+03  0.00000000000E+00 0.  1.
<mgrwt>
<rscale>  0 0.18342306E+04</rscale>
<asrwt>0</asrwt>
<pdfrwt beam="1">  1        2 0.94256647E-01 0.18342306E+04</pdfrwt>
<pdfrwt beam="2">  1       -2 0.21120742E+00 0.18342306E+04</pdfrwt>
<totfact> 0.51165844E+00</totfact>
</mgrwt>
</event>
<event>
12    1  0.1532786E-007  0.1953762E+04  0.7818608E-02  0.8628549E-01
         -2   -1    0    0    0  501 -0.00000000000E+00  0.00000000000E+00  0.30643544105E+03  0.30643544105E+03  0.00000000000E+00 0.  1.
          2   -1    0    0  501    0  0.00000000000E+00 -0.00000000000E+00 -0.31141851082E+04  0.31141851082E+04  0.00000000000E+00 0. -1.
         23    2    1    2    0    0 -0.74190542857E+03 -0.73726153103E+02 -0.14233063894E+04  0.16094878112E+04  0.93758869394E+02 0.  0.
        254    2    1    2    0    0  0.74190542857E+03  0.73726153103E+02 -0.13844432777E+04  0.18111327381E+04  0.89869872319E+03 0.  0.
        -24    2    4    4    0    0 -0.11697708768E+02  0.21193903594E+03 -0.83424608828E+03  0.86454268573E+03  0.80078263526E+02 0.  0.
         24    2    4    4    0    0  0.75360313734E+03 -0.13821288284E+03 -0.55019718944E+03  0.94659005233E+03  0.79342865591E+02 0.  0.
         13    1    3    3    0    0 -0.39803653831E+03 -0.21478552152E+02 -0.85191990801E+03  0.94056469405E+03  0.00000000000E+00 0.  1.
        -13    1    3    3    0    0 -0.34386889026E+03 -0.52247600950E+02 -0.57138648139E+03  0.66892311712E+03  0.00000000000E+00 0. -1.
          4    1    6    6  502    0  0.49537065751E+03 -0.98756861794E+02 -0.40700432224E+03  0.64868908145E+03  0.00000000000E+00 0. -1.
          1    1    5    5  503    0 -0.40372624724E+02  0.17065087626E+03 -0.60830945709E+03  0.63308140549E+03  0.00000000000E+00 0. -1.
         -2    1    5    5    0  503  0.28674915956E+02  0.41288159685E+02 -0.22593663119E+03  0.23146128023E+03  0.00000000000E+00 0.  1.
         -3    1    6    6    0  502  0.25823247983E+03 -0.39456021046E+02 -0.14319286720E+03  0.29790097089E+03  0.00000000000E+00 0.  1.
<mgrwt>
<rscale>  0 0.19537622E+04</rscale>
<asrwt>0</asrwt>
<pdfrwt beam="1">  1        2 0.47910541E+00 0.19537622E+04</pdfrwt>
<pdfrwt beam="2">  1       -2 0.47143913E-01 0.19537622E+04</pdfrwt>
<totfact> 0.58804108E+00</totfact>
</mgrwt>
</event>
<event>
12    1  0.1532786E-007  0.1570830E+04  0.7818608E-02  0.8838671E-01
         -2   -1    0    0    0  501 -0.00000000000E+00  0.00000000000E+00  0.34190335908E+03  0.34190335908E+03  0.00000000000E+00 0.  1.
          2   -1    0    0  501    0  0.00000000000E+00 -0.00000000000E+00 -0.18042435951E+04  0.18042435951E+04  0.00000000000E+00 0. -1.
         23    2    1    2    0    0 -0.25782309035E+03 -0.29022361732E+03 -0.98299972407E+03  0.10604952877E+04  0.87517447964E+02 0.  0.
        254    2    1    2    0    0  0.25782309035E+03  0.29022361732E+03 -0.47934051193E+03  0.10856516665E+04  0.89340344783E+03 0.  0.
        -24    2    4    4    0    0  0.34458961677E+02  0.18231311254E+03  0.24402822617E+03  0.31696863234E+03  0.80584413332E+02 0.  0.
         24    2    4    4    0    0  0.22336412867E+03  0.10791050479E+03 -0.72336873810E+03  0.76868303415E+03  0.77942701435E+02 0.  0.
         13    1    3    3    0    0 -0.24319534635E+03 -0.28042990638E+03 -0.86630665860E+03  0.94248190201E+03  0.00000000000E+00 0. -1.
        -13    1    3    3    0    0 -0.14627743999E+02 -0.97937109435E+01 -0.11669306548E+03  0.11801338568E+03  0.00000000000E+00 0.  1.
          2    1    6    6  502    0 -0.10507057900E+01  0.13689300902E+02 -0.72634244518E+02  0.73920460081E+02  0.00000000000E+00 0. -1.
          3    1    5    5  503    0  0.27174705773E+02  0.17840663208E+02  0.71236001573E+02  0.78302757407E+02  0.00000000000E+00 0. -1.
         -4    1    5    5    0  503  0.72842559045E+01  0.16447244933E+03  0.17279222460E+03  0.23866587493E+03  0.00000000000E+00 0.  1.
         -1    1    6    6    0  502  0.22441483446E+03  0.94221203884E+02 -0.65073449358E+03  0.69476257407E+03  0.00000000000E+00 0.  1.
<mgrwt>
<rscale>  0 0.15708303E+04</rscale>
<asrwt>0</asrwt>
<pdfrwt beam="1">  1        2 0.27757594E+00 0.15708303E+04</pdfrwt>
<pdfrwt beam="2">  1       -2 0.52600517E-01 0.15708303E+04</pdfrwt>
<totfact> 0.28124934E+01</totfact>
</mgrwt>
</event>
<event>
12    1  0.1532786E-007  0.1520838E+04  0.7818608E-02  0.8870713E-01
         -1   -1    0    0    0  501 -0.00000000000E+00  0.00000000000E+00  0.45544456262E+03  0.45544456262E+03  0.00000000000E+00 0.  1.
          1   -1    0    0  501    0  0.00000000000E+00 -0.00000000000E+00 -0.12696099977E+04  0.12696099977E+04  0.00000000000E+00 0. -1.
         23    2    1    2    0    0 -0.78333485917E+02 -0.32731228760E+03 -0.67064437483E+03  0.75586674521E+03  0.91110868691E+02 0.  0.
        254    2    1    2    0    0  0.78333485917E+02  0.32731228760E+03 -0.14352106022E+03  0.96918781508E+03  0.89747270574E+03 0.  0.
        -24    2    4    4    0    0  0.37354301164E+03  0.40545080859E+03  0.10404577866E+03  0.56785176130E+03  0.87780174396E+02 0.  0.
         24    2    4    4    0    0 -0.29520952572E+03 -0.78138520996E+02 -0.24756683887E+03  0.40133605379E+03  0.80789824976E+02 0.  0.
         13    1    3    3    0    0  0.10196046761E+02 -0.77776248651E+02 -0.21520045062E+03  0.22905095104E+03  0.00000000000E+00 0.  1.
        -13    1    3    3    0    0 -0.88529532678E+02 -0.24953603895E+03 -0.45544392420E+03  0.52681579417E+03  0.00000000000E+00 0. -1.
          2    1    6    6  502    0 -0.28419044536E+03 -0.67762426759E+02 -0.20705450041E+03  0.35808870669E+03  0.00000000000E+00 0. -1.
          1    1    5    5  503    0  0.34343224406E+03  0.38038649525E+03  0.11865239212E+03  0.52603990551E+03  0.00000000000E+00 0. -1.
         -2    1    5    5    0  503  0.30110767575E+02  0.25064313345E+02 -0.14606613468E+02  0.41811855788E+02  0.00000000000E+00 0.  1.
         -1    1    6    6    0  502 -0.11019080358E+02 -0.10376094236E+02 -0.40512338462E+02  0.43247347100E+02  0.00000000000E+00 0.  1.
<mgrwt>
<rscale>  0 0.15208379E+04</rscale>
<asrwt>0</asrwt>
<pdfrwt beam="1">  1        1 0.19532461E+00 0.15208379E+04</pdfrwt>
<pdfrwt beam="2">  1       -1 0.70068394E-01 0.15208379E+04</pdfrwt>
<totfact> 0.18914346E+01</totfact>
</mgrwt>
</event>
<event>
12    1  0.1532786E-007  0.1495754E+04  0.7818608E-02  0.8887281E-01
          2   -1    0    0  501    0  0.00000000000E+00  0.00000000000E+00  0.71817408016E+03  0.71817408016E+03  0.00000000000E+00 0. -1.
         -2   -1    0    0    0  501 -0.00000000000E+00 -0.00000000000E+00 -0.77880871039E+03  0.77880871039E+03  0.00000000000E+00 0.  1.
         23    2    1    2    0    0  0.19342171555E+02  0.42004609014E+03 -0.22590616315E+03  0.48614234933E+03  0.92130080970E+02 0.  0.
        254    2    1    2    0    0 -0.19342171555E+02 -0.42004609014E+03  0.16527153291E+03  0.10108404412E+04  0.90425155824E+03 0.  0.
        -24    2    4    4    0    0 -0.13509361210E+03 -0.12138983577E+03 -0.34810056828E+03  0.40047853381E+03  0.78887731269E+02 0.  0.
         24    2    4    4    0    0  0.11575144055E+03 -0.29865625437E+03  0.51337210119E+03  0.61036190742E+03  0.79979931776E+02 0.  0.
         11    1    3    3    0    0 -0.74091399847E+01  0.38068150354E+03 -0.21519354700E+03  0.43735747983E+03  0.00000000000E+00 0. -1.
        -11    1    3    3    0    0  0.26751311540E+02  0.39364586598E+02 -0.10712616152E+02  0.48784869498E+02  0.00000000000E+00 0.  1.
          4    1    6    6  502    0  0.66830844636E+02 -0.10130182700E+03  0.14051636309E+03  0.18566978818E+03  0.00000000000E+00 0. -1.
          3    1    5    5  503    0 -0.53362397618E+02 -0.23150324124E+02 -0.52176254328E+02  0.78139903393E+02  0.00000000000E+00 0. -1.
         -4    1    5    5    0  503 -0.81731214484E+02 -0.98239511644E+02 -0.29592431395E+03  0.32233863041E+03  0.00000000000E+00 0.  1.
         -3    1    6    6    0  502  0.48920595910E+02 -0.19735442737E+03  0.37285573810E+03  0.42469211924E+03  0.00000000000E+00 0.  1.
<mgrwt>
<rscale>  0 0.14957543E+04</rscale>
<asrwt>0</asrwt>
<pdfrwt beam="1">  1        2 0.11048832E+00 0.14957543E+04</pdfrwt>
<pdfrwt beam="2">  1       -2 0.11981672E+00 0.14957543E+04</pdfrwt>
<totfact> 0.20427470E+01</totfact>
</mgrwt>
</event>
<event>
12    1  0.1532786E-007  0.1419848E+04  0.7818608E-02  0.8939575E-01
          1   -1    0    0  501    0  0.00000000000E+00  0.00000000000E+00  0.84268713108E+03  0.84268713108E+03  0.00000000000E+00 0. -1.
         -1   -1    0    0    0  501 -0.00000000000E+00 -0.00000000000E+00 -0.59807770638E+03  0.59807770638E+03  0.00000000000E+00 0.  1.
         23    2    1    2    0    0 -0.20578045145E+03 -0.20332859880E+03  0.38196690421E+03  0.48757854773E+03  0.90255254714E+02 0.  0.
        254    2    1    2    0    0  0.20578045145E+03  0.20332859880E+03 -0.13735747951E+03  0.95318628973E+03  0.89777999112E+03 0.  0.
        -24    2    4    4    0    0 -0.11134888945E+03  0.48883035699E+03 -0.94805733964E+02  0.51653077590E+03  0.80387947892E+02 0.  0.
         24    2    4    4    0    0  0.31712934090E+03 -0.28550175819E+03 -0.42551745547E+02  0.43665551383E+03  0.82311080133E+02 0.  0.
         13    1    3    3    0    0 -0.59721771594E+02 -0.13453802948E+02  0.10351629289E+03  0.12026353441E+03  0.00000000000E+00 0.  1.
        -13    1    3    3    0    0 -0.14605867986E+03 -0.18987479585E+03  0.27845061132E+03  0.36731501332E+03  0.00000000000E+00 0. -1.
          2    1    6    6  502    0  0.37010751300E+02 -0.51382727434E+02  0.19689801857E+02  0.66314920550E+02  0.00000000000E+00 0. -1.
          3    1    5    5  503    0  0.91855470771E+01  0.62860873656E+02 -0.25448122159E+02  0.68435887028E+02  0.00000000000E+00 0. -1.
         -4    1    5    5    0  503 -0.12053443653E+03  0.42596948333E+03 -0.69357611804E+02  0.44809488888E+03  0.00000000000E+00 0.  1.
         -1    1    6    6    0  502  0.28011858960E+03 -0.23411903076E+03 -0.62241547404E+02  0.37034059328E+03  0.00000000000E+00 0.  1.
<mgrwt>
<rscale>  0 0.14198484E+04</rscale>
<asrwt>0</asrwt>
<pdfrwt beam="1">  1        1 0.12964417E+00 0.14198484E+04</pdfrwt>
<pdfrwt beam="2">  1       -1 0.92011954E-01 0.14198484E+04</pdfrwt>
<totfact> 0.22756098E+01</totfact>
</mgrwt>
</event>
<event>
12    1  0.1532786E-007  0.1316110E+04  0.7818608E-02  0.9016886E-01
         -2   -1    0    0    0  501 -0.00000000000E+00  0.00000000000E+00  0.34083155988E+03  0.34083155988E+03  0.00000000000E+00 0.  1.
          2   -1    0    0  501    0  0.00000000000E+00 -0.00000000000E+00 -0.12705293271E+04  0.12705293271E+04  0.00000000000E+00 0. -1.
         23    2    1    2    0    0 -0.20095489226E+02 -0.64116110698E+02 -0.62534174978E+03  0.63514106609E+03  0.88527766650E+02 0.  0.
        254    2    1    2    0    0  0.20095489226E+02  0.64116110698E+02 -0.30435601742E+03  0.97621982088E+03  0.92512585576E+03 0.  0.
        -24    2    4    4    0    0 -0.36951097655E+02  0.10164327377E+03  0.31786886156E+03  0.34547266901E+03  0.81326583370E+02 0.  0.
         24    2    4    4    0    0  0.57046586880E+02 -0.37527163071E+02 -0.62222487898E+03  0.63074715187E+03  0.77560096235E+02 0.  0.
         13    1    3    3    0    0  0.60517086682E+01 -0.75596742231E+02 -0.53620797804E+03  0.54154453771E+03  0.00000000000E+00 0. -1.
        -13    1    3    3    0    0 -0.26147197894E+02  0.11480631533E+02 -0.89133771744E+02  0.93596528373E+02  0.00000000000E+00 0.  1.
          2    1    6    6  502    0  0.22299065624E+02 -0.58399284974E+02 -0.35406197339E+03  0.35953804502E+03  0.00000000000E+00 0. -1.
          1    1    5    5  503    0  0.61924330749E+01  0.85180402446E+02  0.16516730345E+03  0.18594161803E+03  0.00000000000E+00 0. -1.
         -2    1    5    5    0  503 -0.43143530729E+02  0.16462871324E+02  0.15270155811E+03  0.15953105098E+03  0.00000000000E+00 0.  1.
         -1    1    6    6    0  502  0.34747521256E+02  0.20872121903E+02 -0.26816290559E+03  0.27120910685E+03  0.00000000000E+00 0.  1.
<mgrwt>
<rscale>  0 0.13161102E+04</rscale>
<asrwt>0</asrwt>
<pdfrwt beam="1">  1        2 0.19546605E+00 0.13161102E+04</pdfrwt>
<pdfrwt beam="2">  1       -2 0.52435624E-01 0.13161102E+04</pdfrwt>
<totfact> 0.57795063E+01</totfact>
</mgrwt>
</event>
<event>
12    1  0.1532786E-007  0.1752533E+04  0.7818608E-02  0.8731957E-01
         -2   -1    0    0    0  501 -0.00000000000E+00  0.00000000000E+00  0.54404610940E+03  0.54404610940E+03  0.00000000000E+00 0. -1.
          2   -1    0    0  501    0  0.00000000000E+00 -0.00000000000E+00 -0.14113564977E+04  0.14113564977E+04  0.00000000000E+00 0.  1.
         23    2    1    2    0    0  0.16702219174E+03 -0.34495632288E+03  0.24942445245E+03  0.46550316423E+03  0.87116939791E+02 0.  0.
        254    2    1    2    0    0 -0.16702219174E+03  0.34495632288E+03 -0.11167348407E+04  0.14898994429E+04  0.90874219011E+03 0.  0.
        -24    2    4    4    0    0 -0.12429497795E+03  0.59238485216E+03 -0.10528670446E+04  0.12171362283E+04  0.80762181404E+02 0.  0.
         24    2    4    4    0    0 -0.42727213783E+02 -0.24742852929E+03 -0.63867796150E+02  0.27276321459E+03  0.85288826637E+02 0.  0.
         13    1    3    3    0    0  0.14854353836E+03 -0.33476961075E+03  0.21375575871E+03  0.42406060823E+03  0.00000000000E+00 0. -1.
        -13    1    3    3    0    0  0.18478653373E+02 -0.10186712132E+02  0.35668693741E+02  0.41442555999E+02  0.00000000000E+00 0.  1.
          2    1    6    6  502    0 -0.58963988859E+02 -0.10422376995E+03 -0.42501042589E+02  0.12706567131E+03  0.00000000000E+00 0. -1.
          3    1    5    5  503    0 -0.52549930032E+01  0.18109293416E+03 -0.27755610693E+03  0.33145083836E+03  0.00000000000E+00 0. -1.
         -4    1    5    5    0  503 -0.11903998495E+03  0.41129191800E+03 -0.77531093767E+03  0.88568538991E+03  0.00000000000E+00 0.  1.
         -1    1    6    6    0  502  0.16236775076E+02 -0.14320475933E+03 -0.21366753561E+02  0.14569754328E+03  0.00000000000E+00 0.  1.
<mgrwt>
<rscale>  0 0.17525330E+04</rscale>
<asrwt>0</asrwt>
<pdfrwt beam="1">  1        2 0.21713177E+00 0.17525330E+04</pdfrwt>
<pdfrwt beam="2">  1       -2 0.83699402E-01 0.17525330E+04</pdfrwt>
<totfact> 0.16859210E+01</totfact>
</mgrwt>
</event>
<event>
12    1  0.1532786E-007  0.1483143E+04  0.7818608E-02  0.8895740E-01
         -2   -1    0    0    0  501 -0.00000000000E+00  0.00000000000E+00  0.63761396910E+03  0.63761396910E+03  0.00000000000E+00 0.  1.
          2   -1    0    0  501    0  0.00000000000E+00 -0.00000000000E+00 -0.86247881308E+03  0.86247881308E+03  0.00000000000E+00 0. -1.
         23    2    1    2    0    0  0.45309894549E+03 -0.94441151749E+02 -0.33437353997E+02  0.47300366712E+03  0.91633110406E+02 0.  0.
        254    2    1    2    0    0 -0.45309894549E+03  0.94441151749E+02 -0.19142748999E+03  0.10270891151E+04  0.89668822943E+03 0.  0.
        -24    2    4    4    0    0  0.97698579586E+02  0.21858241424E+03 -0.35320640594E+03  0.43417337130E+03  0.80177720566E+02 0.  0.
         24    2    4    4    0    0 -0.55079752508E+03 -0.12414126249E+03  0.16177891595E+03  0.59291574376E+03  0.81164615895E+02 0.  0.
         11    1    3    3    0    0  0.27991591188E+02 -0.31319551146E+02 -0.10788883912E+01  0.42019132088E+02  0.00000000000E+00 0.  1.
        -11    1    3    3    0    0  0.42510735430E+03 -0.63121600603E+02 -0.32358465606E+02  0.43098453504E+03  0.00000000000E+00 0. -1.
          2    1    6    6  502    0 -0.39034201202E+03 -0.11669729012E+03  0.91363993568E+02  0.41753146372E+03  0.00000000000E+00 0. -1.
          1    1    5    5  503    0  0.37819614502E+02  0.52187063582E+02 -0.44224904279E+02  0.78164282155E+02  0.00000000000E+00 0. -1.
         -2    1    5    5    0  503  0.59878965085E+02  0.16639535066E+03 -0.30898150166E+03  0.35600908914E+03  0.00000000000E+00 0.  1.
         -1    1    6    6    0  502 -0.16045551305E+03 -0.74439723725E+01  0.70414922387E+02  0.17538428005E+03  0.00000000000E+00 0.  1.
<mgrwt>
<rscale>  0 0.14831433E+04</rscale>
<asrwt>0</asrwt>
<pdfrwt beam="1">  1        2 0.13268905E+00 0.14831433E+04</pdfrwt>
<pdfrwt beam="2">  1       -2 0.98094457E-01 0.14831433E+04</pdfrwt>
<totfact> 0.26022203E+01</totfact>
</mgrwt>
</event>
<event>
12    1  0.1532786E-007  0.1324380E+04  0.7818608E-02  0.9010452E-01
          1   -1    0    0  501    0  0.00000000000E+00  0.00000000000E+00  0.23160311148E+04  0.23160311148E+04  0.00000000000E+00 0. -1.
         -1   -1    0    0    0  501 -0.00000000000E+00 -0.00000000000E+00 -0.18933066729E+03  0.18933066729E+03  0.00000000000E+00 0.  1.
         23    2    1    2    0    0  0.22867501405E+03 -0.24819261643E+03  0.72009460054E+03  0.80070987868E+03  0.93317946759E+02 0.  0.
        254    2    1    2    0    0 -0.22867501405E+03  0.24819261643E+03  0.14066058469E+04  0.17046519034E+04  0.90189038480E+03 0.  0.
        -24    2    4    4    0    0 -0.22915330395E+03 -0.16856015515E+03  0.11938976994E+04  0.12298109147E+04  0.78226636271E+02 0.  0.
         24    2    4    4    0    0  0.47828989604E+00  0.41675277158E+03  0.21270814751E+03  0.47484098868E+03  0.80908016471E+02 0.  0.
         11    1    3    3    0    0  0.13630282059E+03 -0.16627524508E+03  0.55000480765E+03  0.59053467677E+03  0.00000000000E+00 0. -1.
        -11    1    3    3    0    0  0.92372193461E+02 -0.81917371346E+02  0.17008979289E+03  0.21017520191E+03  0.00000000000E+00 0.  1.
          4    1    6    6  502    0  0.22213664512E+02  0.37760986406E+03  0.17727068464E+03  0.41774101062E+03  0.00000000000E+00 0. -1.
          1    1    5    5  503    0 -0.14393357790E+03 -0.11934568122E+03  0.62154712458E+03  0.64906170319E+03  0.00000000000E+00 0. -1.
         -2    1    5    5    0  503 -0.85219726046E+02 -0.49214473936E+02  0.57235057485E+03  0.58074921153E+03  0.00000000000E+00 0.  1.
         -3    1    6    6    0  502 -0.21735374616E+02  0.39142907524E+02  0.35437462867E+02  0.57099978053E+02  0.00000000000E+00 0.  1.
<mgrwt>
<rscale>  0 0.13243802E+04</rscale>
<asrwt>0</asrwt>
<pdfrwt beam="1">  1        1 0.35631246E+00 0.13243802E+04</pdfrwt>
<pdfrwt beam="2">  1       -1 0.29127797E-01 0.13243802E+04</pdfrwt>
<totfact> 0.19181125E+01</totfact>
</mgrwt>
</event>
<event>
12    1  0.1532786E-007  0.2215222E+04  0.7818608E-02  0.8512119E-01
          1   -1    0    0  501    0  0.00000000000E+00  0.00000000000E+00  0.14491259655E+04  0.14491259655E+04  0.00000000000E+00 0. -1.
         -1   -1    0    0    0  501 -0.00000000000E+00 -0.00000000000E+00 -0.84658042012E+03  0.84658042012E+03  0.00000000000E+00 0.  1.
         23    2    1    2    0    0  0.55428226439E+03  0.72384379459E+03  0.39524946207E+03  0.99686907487E+03  0.79668987548E+02 0.  0.
        254    2    1    2    0    0 -0.55428226439E+03 -0.72384379459E+03  0.20729608332E+03  0.12988373108E+04  0.90156975662E+03 0.  0.
        -24    2    4    4    0    0 -0.47547035466E+03 -0.15311344900E+03 -0.24525300024E+03  0.56169777611E+03  0.76417086616E+02 0.  0.
         24    2    4    4    0    0 -0.78811909727E+02 -0.57073034559E+03  0.45254908356E+03  0.73713953464E+03  0.81422208346E+02 0.  0.
         11    1    3    3    0    0  0.19777707615E+03  0.20145271880E+03  0.10829963243E+03  0.30237026995E+03  0.00000000000E+00 0.  1.
        -11    1    3    3    0    0  0.35650518824E+03  0.52239107580E+03  0.28694982963E+03  0.69449880492E+03  0.00000000000E+00 0. -1.
          2    1    6    6  502    0  0.12554064190E+02 -0.12719859222E+03  0.80437504312E+02  0.15102078828E+03  0.00000000000E+00 0. -1.
          1    1    5    5  503    0 -0.14145832329E+02  0.85050008398E+01 -0.84786406939E+01  0.18556049137E+02  0.00000000000E+00 0. -1.
         -2    1    5    5    0  503 -0.46132452233E+03 -0.16161844984E+03 -0.23677435955E+03  0.54314172697E+03  0.00000000000E+00 0.  1.
         -1    1    6    6    0  502 -0.91365973917E+02 -0.44353175337E+03  0.37211157925E+03  0.58611874637E+03  0.00000000000E+00 0.  1.
<mgrwt>
<rscale>  0 0.22152216E+04</rscale>
<asrwt>0</asrwt>
<pdfrwt beam="1">  1        1 0.22294246E+00 0.22152216E+04</pdfrwt>
<pdfrwt beam="2">  1       -1 0.13024314E+00 0.22152216E+04</pdfrwt>
<totfact> 0.32619430E+00</totfact>
</mgrwt>
</event>
<event>
12    1  0.1532786E-007  0.2114912E+04  0.7818608E-02  0.8554703E-01
         -2   -1    0    0    0  501 -0.00000000000E+00  0.00000000000E+00  0.15521120834E+04  0.15521120834E+04  0.00000000000E+00 0. -1.
          2   -1    0    0  501    0  0.00000000000E+00 -0.00000000000E+00 -0.72044637207E+03  0.72044637207E+03  0.00000000000E+00 0.  1.
         23    2    1    2    0    0 -0.13466369230E+03 -0.82094964718E+03  0.59106427118E+03  0.10245626584E+04  0.90989203370E+02 0.  0.
        254    2    1    2    0    0  0.13466369230E+03  0.82094964718E+03  0.24060144014E+03  0.12479957970E+04  0.89861661637E+03 0.  0.
        -24    2    4    4    0    0 -0.32444127575E+03  0.25920983667E+03  0.29681585013E+03  0.51647706104E+03  0.78721184292E+02 0.  0.
         24    2    4    4    0    0  0.45910496805E+03  0.56173981051E+03 -0.56214409986E+02  0.73151873600E+03  0.75037422869E+02 0.  0.
         13    1    3    3    0    0 -0.45710868080E+01 -0.92014859529E+02  0.34962593869E+02  0.98539394045E+02  0.00000000000E+00 0.  1.
        -13    1    3    3    0    0 -0.13009260549E+03 -0.72893478765E+03  0.55610167731E+03  0.92602326437E+03  0.00000000000E+00 0. -1.
          4    1    6    6  502    0  0.11283300087E+03  0.19019996776E+03 -0.70753147988E+01  0.22126313272E+03  0.00000000000E+00 0. -1.
          3    1    5    5  503    0 -0.23100846737E+02 -0.13448963954E+01  0.82064621949E+01  0.24552064843E+02  0.00000000000E+00 0. -1.
         -4    1    5    5    0  503 -0.30134042902E+03  0.26055473307E+03  0.28860938793E+03  0.49192499620E+03  0.00000000000E+00 0.  1.
         -3    1    6    6    0  502  0.34627196718E+03  0.37153984275E+03 -0.49139095188E+02  0.51025560328E+03  0.00000000000E+00 0.  1.
<mgrwt>
<rscale>  0 0.21149123E+04</rscale>
<asrwt>0</asrwt>
<pdfrwt beam="1">  1        2 0.11083790E+00 0.21149123E+04</pdfrwt>
<pdfrwt beam="2">  1       -2 0.23878647E+00 0.21149123E+04</pdfrwt>
<totfact> 0.27390800E+00</totfact>
</mgrwt>
</event>
<event>
12    1  0.1532786E-007  0.2465125E+04  0.7818608E-02  0.8415516E-01
         -1   -1    0    0    0  501 -0.00000000000E+00  0.00000000000E+00  0.17270252181E+04  0.17270252181E+04  0.00000000000E+00 0.  1.
          1   -1    0    0  501    0  0.00000000000E+00 -0.00000000000E+00 -0.87966887217E+03  0.87966887217E+03  0.00000000000E+00 0. -1.
         23    2    1    2    0    0  0.22895602491E+02 -0.10530622547E+04  0.17357749640E+03  0.10714243787E+04  0.91415158690E+02 0.  0.
        254    2    1    2    0    0 -0.22895602491E+02  0.10530622547E+04  0.67377884948E+03  0.15352697115E+04  0.89084837551E+03 0.  0.
        -24    2    4    4    0    0  0.67601236675E+02  0.16657473732E+03  0.60704162894E+03  0.63813315495E+03  0.79983209911E+02 0.  0.
         24    2    4    4    0    0 -0.90496839166E+02  0.88648751737E+03  0.66737220541E+02  0.89713655654E+03  0.79689071597E+02 0.  0.
         13    1    3    3    0    0  0.10846106004E+02 -0.81755835732E+03  0.17240639361E+03  0.83560952017E+03  0.00000000000E+00 0.  1.
        -13    1    3    3    0    0  0.12049496487E+02 -0.23550389736E+03  0.11711027930E+01  0.23581485857E+03  0.00000000000E+00 0. -1.
          4    1    6    6  502    0 -0.74609761889E+02  0.70822865735E+03  0.21175410587E+02  0.71246252229E+03  0.00000000000E+00 0. -1.
          1    1    5    5  503    0  0.34144087955E+02  0.15698278879E+03  0.52453476276E+03  0.54858557406E+03  0.00000000000E+00 0. -1.
         -2    1    5    5    0  503  0.33457148721E+02  0.95919485267E+01  0.82506866175E+02  0.89547580889E+02  0.00000000000E+00 0.  1.
         -3    1    6    6    0  502 -0.15887077278E+02  0.17825886002E+03  0.45561809954E+02  0.18467403425E+03  0.00000000000E+00 0.  1.
<mgrwt>
<rscale>  0 0.24651250E+04</rscale>
<asrwt>0</asrwt>
<pdfrwt beam="1">  1        1 0.13533367E+00 0.24651250E+04</pdfrwt>
<pdfrwt beam="2">  1       -1 0.26569619E+00 0.24651250E+04</pdfrwt>
<totfact> 0.92866763E-01</totfact>
</mgrwt>
</event>
<event>
12    1  0.1532786E-007  0.2948387E+04  0.7818608E-02  0.8258625E-01
         -1   -1    0    0    0  501 -0.00000000000E+00  0.00000000000E+00  0.18904913391E+04  0.18904913391E+04  0.00000000000E+00 0.  1.
          1   -1    0    0  501    0  0.00000000000E+00 -0.00000000000E+00 -0.11495669023E+04  0.11495669023E+04  0.00000000000E+00 0. -1.
         23    2    1    2    0    0 -0.13070914287E+04  0.27596091778E+03  0.32086020929E+03  0.13769067659E+04  0.90986465992E+02 0.  0.
        254    2    1    2    0    0  0.13070914287E+04 -0.27596091778E+03  0.42006422750E+03  0.16631514755E+04  0.89720479502E+03 0.  0.
        -24    2    4    4    0    0  0.11439491942E+04 -0.53468996202E+03  0.20793709256E+03  0.12824245583E+04  0.82835975760E+02 0.  0.
         24    2    4    4    0    0  0.16314223447E+03  0.25872904424E+03  0.21212713495E+03  0.38072691720E+03  0.79993481628E+02 0.  0.
         13    1    3    3    0    0 -0.11374851387E+04  0.26113569784E+03  0.30267685676E+03  0.12056855200E+04  0.00000000000E+00 0. -1.
        -13    1    3    3    0    0 -0.16960628998E+03  0.14825219940E+02  0.18183352533E+02  0.17122124592E+03  0.00000000000E+00 0.  1.
          2    1    6    6  502    0  0.96102947922E+02  0.21037864577E+03  0.17541318823E+03  0.29028389173E+03  0.00000000000E+00 0. -1.
          1    1    5    5  503    0  0.11177594620E+04 -0.50712907430E+03  0.20073084616E+03  0.12437278583E+04  0.00000000000E+00 0. -1.
         -2    1    5    5    0  503  0.26189732193E+02 -0.27560887713E+02  0.72062464000E+01  0.38696700002E+02  0.00000000000E+00 0.  1.
         -1    1    6    6    0  502  0.67039286544E+02  0.48350398471E+02  0.36713946713E+02  0.90443025469E+02  0.00000000000E+00 0.  1.
<mgrwt>
<rscale>  0 0.29483869E+04</rscale>
<asrwt>0</asrwt>
<pdfrwt beam="1">  1        1 0.17685645E+00 0.29483869E+04</pdfrwt>
<pdfrwt beam="2">  1       -1 0.29084482E+00 0.29483869E+04</pdfrwt>
<totfact> 0.37670702E-01</totfact>
</mgrwt>
</event>
<event>
12    1  0.1532786E-007  0.1986871E+04  0.7818608E-02  0.8612784E-01
          1   -1    0    0  501    0  0.00000000000E+00  0.00000000000E+00  0.11974375543E+04  0.11974375543E+04  0.00000000000E+00 0.  1.
         -1   -1    0    0    0  501 -0.00000000000E+00 -0.00000000000E+00 -0.82418824906E+03  0.82418824906E+03  0.00000000000E+00 0. -1.
         23    2    1    2    0    0 -0.12970506992E+03 -0.34668384145E+03 -0.56276226178E+03  0.67979549428E+03  0.91692200773E+02 0.  0.
        254    2    1    2    0    0  0.12970506992E+03  0.34668384145E+03  0.93601156699E+03  0.13418303090E+04  0.88734313185E+03 0.  0.
        -24    2    4    4    0    0  0.39850346004E+03  0.63753184650E+02  0.83447902709E+03  0.93042574087E+03  0.80419751328E+02 0.  0.
         24    2    4    4    0    0 -0.26879839012E+03  0.28293065680E+03  0.10153253990E+03  0.41140456817E+03  0.81501723685E+02 0.  0.
         13    1    3    3    0    0 -0.92301362026E+02 -0.31640053376E+03 -0.51863862770E+03  0.61450375535E+03  0.00000000000E+00 0. -1.
        -13    1    3    3    0    0 -0.37403707894E+02 -0.30283307690E+02 -0.44123634075E+02  0.65291738932E+02  0.00000000000E+00 0.  1.
          2    1    6    6  502    0 -0.19493032977E+03  0.25141227598E+03  0.86744139342E+02  0.32974309953E+03  0.00000000000E+00 0. -1.
          3    1    5    5  503    0  0.38075080388E+03  0.67035128311E+02  0.74712521954E+03  0.84122587737E+03  0.00000000000E+00 0. -1.
         -4    1    5    5    0  503  0.17752656157E+02 -0.32819436616E+01  0.87353807551E+02  0.89199863500E+02  0.00000000000E+00 0.  1.
         -1    1    6    6    0  502 -0.73868060345E+02  0.31518380820E+02  0.14788400555E+02  0.81661468635E+02  0.00000000000E+00 0.  1.
<mgrwt>
<rscale>  0 0.19868709E+04</rscale>
<asrwt>0</asrwt>
<pdfrwt beam="1">  1        1 0.18422116E+00 0.19868709E+04</pdfrwt>
<pdfrwt beam="2">  1       -1 0.12679819E+00 0.19868709E+04</pdfrwt>
<totfact> 0.53825940E+00</totfact>
</mgrwt>
</event>
<event>
12    1  0.1532786E-007  0.1494473E+04  0.7818608E-02  0.8888136E-01
          4   -1    0    0  501    0  0.00000000000E+00  0.00000000000E+00  0.18265218338E+04  0.18265218338E+04  0.00000000000E+00 0. -1.
         -4   -1    0    0    0  501 -0.00000000000E+00 -0.00000000000E+00 -0.30569722327E+03  0.30569722327E+03  0.00000000000E+00 0.  1.
         23    2    1    2    0    0  0.99308864458E+02 -0.23153200912E+03  0.10897311704E+04  0.11221172158E+04  0.90353198142E+02 0.  0.
        254    2    1    2    0    0 -0.99308864458E+02  0.23153200912E+03  0.43109344014E+03  0.10101018413E+04  0.87806312635E+03 0.  0.
        -24    2    4    4    0    0  0.29212211473E+03  0.37941146455E+03  0.26052366014E+03  0.55099554731E+03  0.80219239068E+02 0.  0.
         24    2    4    4    0    0 -0.39143097919E+03 -0.14787945543E+03  0.17056978000E+03  0.45910629399E+03  0.81228040279E+02 0.  0.
         11    1    3    3    0    0 -0.10751296978E+02  0.11660971060E+00  0.32891067988E+02  0.34603848600E+02  0.00000000000E+00 0.  1.
        -11    1    3    3    0    0  0.11006016144E+03 -0.23164861883E+03  0.10568401024E+04  0.10875133672E+04  0.00000000000E+00 0. -1.
          4    1    6    6  502    0 -0.35277888130E+03 -0.11385283883E+03  0.12761463314E+03  0.39204706681E+03  0.00000000000E+00 0. -1.
          3    1    5    5  503    0  0.28963809771E+03  0.38074065692E+03  0.24934790810E+03  0.53947016114E+03  0.00000000000E+00 0. -1.
         -4    1    5    5    0  503  0.24840170168E+01 -0.13291923729E+01  0.11175752034E+02  0.11525386172E+02  0.00000000000E+00 0.  1.
         -3    1    6    6    0  502 -0.38652097882E+02 -0.34026616606E+02  0.42955146861E+02  0.67059227181E+02  0.00000000000E+00 0.  1.
<mgrwt>
<rscale>  0 0.14944734E+04</rscale>
<asrwt>0</asrwt>
<pdfrwt beam="1">  1        4 0.28100335E+00 0.14944734E+04</pdfrwt>
<pdfrwt beam="2">  1       -4 0.47030343E-01 0.14944734E+04</pdfrwt>
<totfact> 0.34523070E-01</totfact>
</mgrwt>
</event>
<event>
12    1  0.1532786E-007  0.1456881E+04  0.7818608E-02  0.8913644E-01
         -2   -1    0    0    0  501 -0.00000000000E+00  0.00000000000E+00  0.59647489573E+03  0.59647489573E+03  0.00000000000E+00 0.  1.
          2   -1    0    0  501    0  0.00000000000E+00 -0.00000000000E+00 -0.88960198954E+03  0.88960198954E+03  0.00000000000E+00 0. -1.
         23    2    1    2    0    0  0.78898235522E+02 -0.36102143650E+02 -0.54167331649E+03  0.55611943671E+03  0.91271845281E+02 0.  0.
        254    2    1    2    0    0 -0.78898235522E+02  0.36102143650E+02  0.24854622268E+03  0.92995744857E+03  0.89191778488E+03 0.  0.
        -24    2    4    4    0    0  0.11217243540E+02  0.27686028804E+03 -0.23818370459E+03  0.37385548788E+03  0.79113861222E+02 0.  0.
         24    2    4    4    0    0 -0.90115479062E+02 -0.24075814439E+03  0.48672992728E+03  0.55610196069E+03  0.79108058501E+02 0.  0.
         13    1    3    3    0    0  0.66775774860E+01 -0.45846575342E+01  0.62699642872E+00  0.81241769005E+01  0.00000000000E+00 0.  1.
        -13    1    3    3    0    0  0.72220658036E+02 -0.31517486116E+02 -0.54230031292E+03  0.54799525981E+03  0.00000000000E+00 0. -1.
          2    1    6    6  502    0 -0.85718839862E+02 -0.24370688510E+03  0.48645763607E+03  0.55080105034E+03  0.00000000000E+00 0. -1.
          3    1    5    5  503    0 -0.12355196599E+02  0.21080189960E+03 -0.14063435337E+03  0.25370871705E+03  0.00000000000E+00 0. -1.
         -4    1    5    5    0  503  0.23572440139E+02  0.66058388437E+02 -0.97549351221E+02  0.12014677083E+03  0.00000000000E+00 0.  1.
         -1    1    6    6    0  502 -0.43966391999E+01  0.29487407190E+01  0.27229120299E+00  0.53009103541E+01  0.00000000000E+00 0.  1.
<mgrwt>
<rscale>  0 0.14568806E+04</rscale>
<asrwt>0</asrwt>
<pdfrwt beam="1">  1        2 0.13686184E+00 0.14568806E+04</pdfrwt>
<pdfrwt beam="2">  1       -2 0.91765369E-01 0.14568806E+04</pdfrwt>
<totfact> 0.29194193E+01</totfact>
</mgrwt>
</event>
<event>
12    1  0.1532786E-007  0.2171001E+04  0.7818608E-02  0.8530596E-01
          1   -1    0    0  501    0  0.00000000000E+00  0.00000000000E+00  0.11333238777E+04  0.11333238777E+04  0.00000000000E+00 0. -1.
         -1   -1    0    0    0  501 -0.00000000000E+00 -0.00000000000E+00 -0.10396948199E+04  0.10396948199E+04  0.00000000000E+00 0.  1.
         23    2    1    2    0    0 -0.82947366120E+03 -0.27658576624E+03 -0.17338963824E+03  0.89609637063E+03  0.91643319969E+02 0.  0.
        254    2    1    2    0    0  0.82947366120E+03  0.27658576624E+03  0.26701869605E+03  0.12769223270E+04  0.89146250877E+03 0.  0.
        -24    2    4    4    0    0  0.34116422070E+03 -0.31877718532E+03  0.81531098822E+02  0.48075771118E+03  0.80428461496E+02 0.  0.
         24    2    4    4    0    0  0.48830944050E+03  0.59536295156E+03  0.18548759723E+03  0.79616461586E+03  0.81051175512E+02 0.  0.
         11    1    3    3    0    0 -0.54328362943E+03 -0.22306559549E+03 -0.13288480782E+03  0.60214095862E+03  0.00000000000E+00 0.  1.
        -11    1    3    3    0    0 -0.28619003178E+03 -0.53520170743E+02 -0.40504830422E+02  0.29395541202E+03  0.00000000000E+00 0. -1.
          2    1    6    6  502    0  0.28004817633E+03  0.36593737802E+03  0.14836192200E+03  0.48409545091E+03  0.00000000000E+00 0. -1.
          1    1    5    5  503    0  0.32478404838E+03 -0.30291805782E+03  0.57830545920E+02  0.44787096342E+03  0.00000000000E+00 0. -1.
         -2    1    5    5    0  503  0.16380172321E+02 -0.15859127502E+02  0.23700552903E+02  0.32886747761E+02  0.00000000000E+00 0.  1.
         -1    1    6    6    0  502  0.20826126417E+03  0.22942557354E+03  0.37125675223E+02  0.31206916495E+03  0.00000000000E+00 0.  1.
<mgrwt>
<rscale>  0 0.21710007E+04</rscale>
<asrwt>0</asrwt>
<pdfrwt beam="1">  1        1 0.17435752E+00 0.21710007E+04</pdfrwt>
<pdfrwt beam="2">  1       -1 0.15995305E+00 0.21710007E+04</pdfrwt>
<totfact> 0.32001174E+00</totfact>
</mgrwt>
</event>
<event>
12    1  0.1532786E-007  0.1782677E+04  0.7818608E-02  0.8715567E-01
          1   -1    0    0  501    0  0.00000000000E+00  0.00000000000E+00  0.11280836710E+04  0.11280836710E+04  0.00000000000E+00 0. -1.
         -1   -1    0    0    0  501 -0.00000000000E+00 -0.00000000000E+00 -0.70427745000E+03  0.70427745000E+03  0.00000000000E+00 0.  1.
         23    2    1    2    0    0 -0.48669691323E+03 -0.40903354570E+03  0.29703473222E+03  0.70732259187E+03  0.88844189230E+02 0.  0.
        254    2    1    2    0    0  0.48669691323E+03  0.40903354570E+03  0.12677148881E+03  0.11250385292E+04  0.91948809394E+03 0.  0.
        -24    2    4    4    0    0  0.61221852386E+01  0.52983098897E+03 -0.14336363638E+03  0.55515409141E+03  0.82973338782E+02 0.  0.
         24    2    4    4    0    0  0.48057472799E+03 -0.12079744327E+03  0.27013512520E+03  0.56988443776E+03  0.79064499335E+02 0.  0.
         11    1    3    3    0    0 -0.45675967216E+03 -0.36319071808E+03  0.29144429459E+03  0.65228572931E+03  0.00000000000E+00 0. -1.
        -11    1    3    3    0    0 -0.29937241066E+02 -0.45842827618E+02  0.55904376346E+01  0.55036862553E+02  0.00000000000E+00 0.  1.
          4    1    6    6  502    0  0.32336104285E+03 -0.45850604011E+02  0.15860819765E+03  0.36307189685E+03  0.00000000000E+00 0. -1.
          1    1    5    5  503    0 -0.26963764673E+02  0.17359007166E+03 -0.74484020379E+02  0.19080992342E+03  0.00000000000E+00 0. -1.
         -2    1    5    5    0  503  0.33085949912E+02  0.35624091731E+03 -0.68879616005E+02  0.36434416799E+03  0.00000000000E+00 0.  1.
         -3    1    6    6    0  502  0.15721368514E+03 -0.74946839258E+02  0.11152692755E+03  0.20681254092E+03  0.00000000000E+00 0.  1.
<mgrwt>
<rscale>  0 0.17826765E+04</rscale>
<asrwt>0</asrwt>
<pdfrwt beam="1">  1        1 0.17355133E+00 0.17826765E+04</pdfrwt>
<pdfrwt beam="2">  1       -1 0.10835038E+00 0.17826765E+04</pdfrwt>
<totfact> 0.90285101E+00</totfact>
</mgrwt>
</event>
<event>
12    1  0.1532786E-007  0.1196660E+04  0.7818608E-02  0.9115785E-01
          2   -1    0    0  501    0  0.00000000000E+00  0.00000000000E+00  0.18408520811E+04  0.18408520811E+04  0.00000000000E+00 0. -1.
         -2   -1    0    0    0  501 -0.00000000000E+00 -0.00000000000E+00 -0.19447437483E+03  0.19447437483E+03  0.00000000000E+00 0.  1.
         23    2    1    2    0    0  0.36654276453E+02 -0.20950860289E+03  0.52894266355E+03  0.57736748409E+03  0.91298848232E+02 0.  0.
        254    2    1    2    0    0 -0.36654276453E+02  0.20950860289E+03  0.11174350427E+04  0.14579589718E+04  0.91200104069E+03 0.  0.
        -24    2    4    4    0    0 -0.28427586152E+03  0.19500275397E+03  0.11407137317E+04  0.11943959563E+04  0.80715816955E+02 0.  0.
         24    2    4    4    0    0  0.24762158506E+03  0.14505848921E+02 -0.23278689005E+02  0.26356301558E+03  0.86004050929E+02 0.  0.
         11    1    3    3    0    0  0.65517756927E+02 -0.15788846232E+03  0.36395924294E+03  0.40210405809E+03  0.00000000000E+00 0. -1.
        -11    1    3    3    0    0 -0.28863480474E+02 -0.51620140573E+02  0.16498342061E+03  0.17526342600E+03  0.00000000000E+00 0.  1.
          4    1    6    6  502    0  0.23606616405E+03  0.20122016475E+02 -0.42240702482E+02  0.24065827703E+03  0.00000000000E+00 0. -1.
          3    1    5    5  503    0 -0.25066434624E+03  0.15743777799E+03  0.86857725829E+03  0.91763049319E+03  0.00000000000E+00 0. -1.
         -4    1    5    5    0  503 -0.33611515281E+02  0.37564975983E+02  0.27213647342E+03  0.27676546307E+03  0.00000000000E+00 0.  1.
         -3    1    6    6    0  502  0.11555421010E+02 -0.56161675538E+01  0.18962013477E+02  0.22904738545E+02  0.00000000000E+00 0.  1.
<mgrwt>
<rscale>  0 0.11966596E+04</rscale>
<asrwt>0</asrwt>
<pdfrwt beam="1">  1        2 0.28320800E+00 0.11966596E+04</pdfrwt>
<pdfrwt beam="2">  1       -2 0.29919136E-01 0.11966596E+04</pdfrwt>
<totfact> 0.83341307E+01</totfact>
</mgrwt>
</event>
<event>
12    1  0.1532786E-007  0.1393305E+04  0.7818608E-02  0.8958679E-01
         -2   -1    0    0    0  501 -0.00000000000E+00  0.00000000000E+00  0.61732495450E+03  0.61732495450E+03  0.00000000000E+00 0. -1.
          2   -1    0    0  501    0  0.00000000000E+00 -0.00000000000E+00 -0.78617344478E+03  0.78617344478E+03  0.00000000000E+00 0.  1.
         23    2    1    2    0    0 -0.38581830336E+02 -0.37169730360E+03 -0.19773908377E+03  0.43262246640E+03  0.91727913146E+02 0.  0.
        254    2    1    2    0    0  0.38581830336E+02  0.37169730360E+03  0.28890593484E+02  0.97087593288E+03  0.89561038824E+03 0.  0.
        -24    2    4    4    0    0  0.19271034912E+03  0.55845213592E+03 -0.20071657130E+03  0.62865442761E+03  0.76897207925E+02 0.  0.
         24    2    4    4    0    0 -0.15412851878E+03 -0.18675483232E+03  0.22960716479E+03  0.34222150527E+03  0.75915353209E+02 0.  0.
         11    1    3    3    0    0 -0.19972171744E+01 -0.11603995253E+03 -0.10989052345E+03  0.15982861635E+03  0.00000000000E+00 0.  1.
        -11    1    3    3    0    0 -0.36584613161E+02 -0.25565735107E+03 -0.87848560315E+02  0.27279385005E+03  0.00000000000E+00 0. -1.
          4    1    6    6  502    0 -0.70290329861E+02 -0.71299826841E+02  0.47344629060E+02  0.11075156739E+03  0.00000000000E+00 0. -1.
          3    1    5    5  503    0  0.27087363765E+02  0.18805050041E+03 -0.61904112401E+02  0.19982200858E+03  0.00000000000E+00 0. -1.
         -4    1    5    5    0  503  0.16562298535E+03  0.37040163551E+03 -0.13881245890E+03  0.42883241903E+03  0.00000000000E+00 0.  1.
         -3    1    6    6    0  502 -0.83838188921E+02 -0.11545500548E+03  0.18226253573E+03  0.23146993788E+03  0.00000000000E+00 0.  1.
<mgrwt>
<rscale>  0 0.13933047E+04</rscale>
<asrwt>0</asrwt>
<pdfrwt beam="1">  1        2 0.12094976E+00 0.13933047E+04</pdfrwt>
<pdfrwt beam="2">  1       -2 0.94973071E-01 0.13933047E+04</pdfrwt>
<totfact> 0.32025165E+01</totfact>
</mgrwt>
</event>
<event>
12    1  0.1532786E-007  0.2506424E+04  0.7818608E-02  0.8400701E-01
          1   -1    0    0  501    0  0.00000000000E+00  0.00000000000E+00  0.39570593465E+04  0.39570593465E+04  0.00000000000E+00 0. -1.
         -1   -1    0    0    0  501 -0.00000000000E+00 -0.00000000000E+00 -0.39689582353E+03  0.39689582353E+03  0.00000000000E+00 0.  1.
         23    2    1    2    0    0 -0.55022772602E+03  0.13272703717E+03 -0.32149737681E+02  0.57437068353E+03  0.92201190856E+02 0.  0.
        254    2    1    2    0    0  0.55022772602E+03 -0.13272703717E+03  0.35923132606E+04  0.37795844865E+04  0.10296491203E+04 0.  0.
        -24    2    4    4    0    0 -0.61412361252E+00 -0.49420239705E+03  0.12982165537E+04  0.13914330784E+04  0.80519593437E+02 0.  0.
         24    2    4    4    0    0  0.55084184963E+03  0.36147535988E+03  0.22940967069E+04  0.23881514081E+04  0.79349027022E+02 0.  0.
         11    1    3    3    0    0 -0.13354424524E+02 -0.11384926970E+02 -0.21944852849E+01  0.17685388945E+02  0.00000000000E+00 0. -1.
        -11    1    3    3    0    0 -0.53687330149E+03  0.14411196414E+03 -0.29955252397E+02  0.55668529459E+03  0.00000000000E+00 0.  1.
          4    1    6    6  502    0  0.38150999139E+02  0.52902896294E+02  0.22796952377E+03  0.23711667790E+03  0.00000000000E+00 0. -1.
          1    1    5    5  503    0  0.47801391377E+01 -0.94955737058E+01  0.73701095982E+02  0.74463865056E+02  0.00000000000E+00 0. -1.
         -2    1    5    5    0  503 -0.53942627502E+01 -0.48470682334E+03  0.12245154577E+04  0.13169692133E+04  0.00000000000E+00 0.  1.
         -3    1    6    6    0  502  0.51269085049E+03  0.30857246358E+03  0.20661271831E+04  0.21510347302E+04  0.00000000000E+00 0.  1.
<mgrwt>
<rscale>  0 0.25064240E+04</rscale>
<asrwt>0</asrwt>
<pdfrwt beam="1">  1        1 0.60877834E+00 0.25064240E+04</pdfrwt>
<pdfrwt beam="2">  1       -1 0.61060898E-01 0.25064240E+04</pdfrwt>
<totfact> 0.25331080E-01</totfact>
</mgrwt>
</event>
<event>
12    1  0.1532786E-007  0.1856869E+04  0.7818608E-02  0.8676629E-01
          2   -1    0    0  501    0  0.00000000000E+00  0.00000000000E+00  0.10712615500E+04  0.10712615500E+04  0.00000000000E+00 0. -1.
         -2   -1    0    0    0  501 -0.00000000000E+00 -0.00000000000E+00 -0.80464974163E+03  0.80464974163E+03  0.00000000000E+00 0.  1.
         23    2    1    2    0    0 -0.19071787440E+03 -0.37430925767E+03  0.67873905517E+03  0.80325086752E+03  0.89691265794E+02 0.  0.
        254    2    1    2    0    0  0.19071787440E+03  0.37430925767E+03 -0.41212724682E+03  0.10726604241E+04  0.89681145723E+03 0.  0.
        -24    2    4    4    0    0 -0.19417475959E+03  0.46909277881E+03 -0.27408340225E+02  0.51466125634E+03  0.79831818646E+02 0.  0.
         24    2    4    4    0    0  0.38489263400E+03 -0.94783521140E+02 -0.38471890660E+03  0.55799916774E+03  0.78918809684E+02 0.  0.
         11    1    3    3    0    0 -0.96483235874E+02 -0.27143190081E+03  0.42004397568E+03  0.50933410752E+03  0.00000000000E+00 0. -1.
        -11    1    3    3    0    0 -0.94234638528E+02 -0.10287735687E+03  0.25869507949E+03  0.29391676000E+03  0.00000000000E+00 0.  1.
          4    1    6    6  502    0  0.20586767165E+02 -0.11370343399E+02 -0.54194451109E+02  0.59077391803E+02  0.00000000000E+00 0. -1.
          1    1    5    5  503    0 -0.48320212730E+02  0.97369552274E+02 -0.38157042595E+02  0.11520257188E+03  0.00000000000E+00 0. -1.
         -2    1    5    5    0  503 -0.14585454686E+03  0.37172322654E+03  0.10748702370E+02  0.39945868446E+03  0.00000000000E+00 0.  1.
         -3    1    6    6    0  502  0.36430586683E+03 -0.83413177741E+02 -0.33052445549E+03  0.49892177594E+03  0.00000000000E+00 0.  1.
<mgrwt>
<rscale>  0 0.18568687E+04</rscale>
<asrwt>0</asrwt>
<pdfrwt beam="1">  1        2 0.16480947E+00 0.18568687E+04</pdfrwt>
<pdfrwt beam="2">  1       -2 0.12379227E+00 0.18568687E+04</pdfrwt>
<totfact> 0.10482365E+01</totfact>
</mgrwt>
</event>
<event>
12    1  0.1532786E-007  0.1257519E+04  0.7818608E-02  0.9063948E-01
          2   -1    0    0  501    0  0.00000000000E+00  0.00000000000E+00  0.83095042625E+03  0.83095042625E+03  0.00000000000E+00 0. -1.
         -2   -1    0    0    0  501 -0.00000000000E+00 -0.00000000000E+00 -0.47576661884E+03  0.47576661884E+03  0.00000000000E+00 0.  1.
         23    2    1    2    0    0 -0.32489430738E+03  0.47196818589E+02  0.20844791429E+03  0.39909338663E+03  0.89672446329E+02 0.  0.
        254    2    1    2    0    0  0.32489430738E+03 -0.47196818589E+02  0.14673589313E+03  0.90762365846E+03  0.83334592602E+03 0.  0.
        -24    2    4    4    0    0 -0.60204155522E+02 -0.19519935871E+03  0.37029149371E+03  0.43046137038E+03  0.80335988781E+02 0.  0.
         24    2    4    4    0    0  0.38509846290E+03  0.14800254012E+03 -0.22355560058E+03  0.47716228808E+03  0.86609263978E+02 0.  0.
         11    1    3    3    0    0 -0.11314210097E+02  0.15049443984E+02 -0.36214387053E+01  0.19173208721E+02  0.00000000000E+00 0.  1.
        -11    1    3    3    0    0 -0.31358009728E+03  0.32147374604E+02  0.21206935299E+03  0.37992017791E+03  0.00000000000E+00 0. -1.
          4    1    6    6  502    0  0.11515464509E+03  0.82046290180E+02 -0.99197954610E+02  0.17272064213E+03  0.00000000000E+00 0. -1.
          3    1    5    5  503    0  0.17103492844E+02 -0.67987026003E+02  0.10484490998E+03  0.12612382932E+03  0.00000000000E+00 0. -1.
         -4    1    5    5    0  503 -0.77307648366E+02 -0.12721233271E+03  0.26544658373E+03  0.30433754106E+03  0.00000000000E+00 0.  1.
         -3    1    6    6    0  502  0.26994381781E+03  0.65956249943E+02 -0.12435764597E+03  0.30444164595E+03  0.00000000000E+00 0.  1.
<mgrwt>
<rscale>  0 0.12575189E+04</rscale>
<asrwt>0</asrwt>
<pdfrwt beam="1">  1        2 0.12783853E+00 0.12575189E+04</pdfrwt>
<pdfrwt beam="2">  1       -2 0.73194865E-01 0.12575189E+04</pdfrwt>
<totfact> 0.54249843E+01</totfact>
</mgrwt>
</event>
<event>
12    1  0.1532786E-007  0.1606698E+04  0.7818608E-02  0.8816444E-01
         -1   -1    0    0    0  501 -0.00000000000E+00  0.00000000000E+00  0.50217714612E+03  0.50217714612E+03  0.00000000000E+00 0.  1.
          1   -1    0    0  501    0  0.00000000000E+00 -0.00000000000E+00 -0.12851437041E+04  0.12851437041E+04  0.00000000000E+00 0. -1.
         23    2    1    2    0    0  0.41605246792E+03 -0.32967378136E+03 -0.42751152531E+03  0.68782522864E+03  0.92482337265E+02 0.  0.
        254    2    1    2    0    0 -0.41605246792E+03  0.32967378136E+03 -0.35545503266E+03  0.10994956216E+04  0.89485076041E+03 0.  0.
        -24    2    4    4    0    0  0.11483580134E+02  0.30965061994E+03  0.21239631475E+03  0.38394178537E+03  0.79269924906E+02 0.  0.
         24    2    4    4    0    0 -0.42753604806E+03  0.20023161421E+02 -0.56785134740E+03  0.71555383619E+03  0.79838213641E+02 0.  0.
         11    1    3    3    0    0  0.16035939628E+03 -0.12440122044E+03 -0.22228200900E+03  0.30099849027E+03  0.00000000000E+00 0. -1.
        -11    1    3    3    0    0  0.25569307164E+03 -0.20527256092E+03 -0.20522951631E+03  0.38682673837E+03  0.00000000000E+00 0.  1.
          4    1    6    6  502    0 -0.39099353310E+03  0.38154124678E+02 -0.49377214025E+03  0.63098542506E+03  0.00000000000E+00 0. -1.
          1    1    5    5  503    0  0.30033093371E+02  0.11500520393E+03  0.11544496243E+03  0.16569768550E+03  0.00000000000E+00 0. -1.
         -2    1    5    5    0  503 -0.18549513237E+02  0.19464541601E+03  0.96951352319E+02  0.21824409987E+03  0.00000000000E+00 0.  1.
         -3    1    6    6    0  502 -0.36542514957E+02 -0.18130963257E+02 -0.74079207153E+02  0.84568411127E+02  0.00000000000E+00 0.  1.
<mgrwt>
<rscale>  0 0.16066982E+04</rscale>
<asrwt>0</asrwt>
<pdfrwt beam="1">  1        1 0.19771441E+00 0.16066982E+04</pdfrwt>
<pdfrwt beam="2">  1       -1 0.77258023E-01 0.16066982E+04</pdfrwt>
<totfact> 0.14933790E+01</totfact>
</mgrwt>
</event>
<event>
12    1  0.1532786E-007  0.1579259E+04  0.7818608E-02  0.8833392E-01
          2   -1    0    0  501    0  0.00000000000E+00  0.00000000000E+00  0.90419742168E+03  0.90419742168E+03  0.00000000000E+00 0. -1.
         -2   -1    0    0    0  501 -0.00000000000E+00 -0.00000000000E+00 -0.68957825477E+03  0.68957825477E+03  0.00000000000E+00 0.  1.
         23    2    1    2    0    0  0.12645273294E+02  0.31263118788E+03  0.51815577126E+03  0.61222832145E+03  0.91869209900E+02 0.  0.
        254    2    1    2    0    0 -0.12645273294E+02 -0.31263118788E+03 -0.30353660434E+03  0.98154735500E+03  0.87943309999E+03 0.  0.
        -24    2    4    4    0    0 -0.11545674348E+03 -0.60006511847E+03 -0.16761424726E+03  0.63867359869E+03  0.80006398269E+02 0.  0.
         24    2    4    4    0    0  0.10281147019E+03  0.28743393058E+03 -0.13592235708E+03  0.34287375631E+03  0.76805356308E+02 0.  0.
         13    1    3    3    0    0 -0.78831375331E+01  0.12559079608E+03  0.13032731809E+03  0.18116401894E+03  0.00000000000E+00 0. -1.
        -13    1    3    3    0    0  0.20528410827E+02  0.18704039181E+03  0.38782845316E+03  0.43106430251E+03  0.00000000000E+00 0.  1.
          2    1    6    6  502    0  0.99393686263E+02  0.26815940096E+03 -0.14573300845E+03  0.32097769229E+03  0.00000000000E+00 0. -1.
          1    1    5    5  503    0 -0.10226415761E+03 -0.35907454478E+03 -0.79373278918E+02  0.38169700555E+03  0.00000000000E+00 0. -1.
         -2    1    5    5    0  503 -0.13192585875E+02 -0.24099057369E+03 -0.88240968343E+02  0.25697659314E+03  0.00000000000E+00 0.  1.
         -1    1    6    6    0  502  0.34177839268E+01  0.19274529620E+02  0.98106513772E+01  0.21896064018E+02  0.00000000000E+00 0.  1.
<mgrwt>
<rscale>  0 0.15792592E+04</rscale>
<asrwt>0</asrwt>
<pdfrwt beam="1">  1        2 0.13910730E+00 0.15792592E+04</pdfrwt>
<pdfrwt beam="2">  1       -2 0.10608896E+00 0.15792592E+04</pdfrwt>
<totfact> 0.20065268E+01</totfact>
</mgrwt>
</event>
<event>
12    1  0.1532786E-007  0.2262536E+04  0.7818608E-02  0.8492841E-01
          2   -1    0    0  501    0  0.00000000000E+00  0.00000000000E+00  0.19078292766E+04  0.19078292766E+04  0.00000000000E+00 0. -1.
         -2   -1    0    0    0  501 -0.00000000000E+00 -0.00000000000E+00 -0.67079781959E+03  0.67079781959E+03  0.00000000000E+00 0.  1.
         23    2    1    2    0    0 -0.66430237624E+03 -0.46862805788E+03  0.10864663030E+04  0.13601241810E+04  0.92837795433E+02 0.  0.
        254    2    1    2    0    0  0.66430237624E+03  0.46862805788E+03  0.15056515392E+03  0.12185029152E+04  0.89508077013E+03 0.  0.
        -24    2    4    4    0    0  0.14909535067E+03 -0.15889251636E+03 -0.22194352303E+03  0.32083841146E+03  0.78753434898E+02 0.  0.
         24    2    4    4    0    0  0.51520702557E+03  0.62752057424E+03  0.37250867694E+03  0.89766450374E+03  0.88422262908E+02 0.  0.
         13    1    3    3    0    0 -0.40453815685E+03 -0.31486434211E+03  0.61964659808E+03  0.80420928918E+03  0.00000000000E+00 0. -1.
        -13    1    3    3    0    0 -0.25976421938E+03 -0.15376371577E+03  0.46681970497E+03  0.55591489178E+03  0.00000000000E+00 0.  1.
          2    1    6    6  502    0  0.36196843396E+03  0.47931772521E+03  0.30759465316E+03  0.67481930880E+03  0.00000000000E+00 0. -1.
          1    1    5    5  503    0  0.10280426507E+03 -0.14282348519E+03 -0.20208712740E+03  0.26796729633E+03  0.00000000000E+00 0. -1.
         -2    1    5    5    0  503  0.46291085592E+02 -0.16069031168E+02 -0.19856395626E+02  0.52871115131E+02  0.00000000000E+00 0.  1.
         -1    1    6    6    0  502  0.15323859162E+03  0.14820284903E+03  0.64914023780E+02  0.22284519493E+03  0.00000000000E+00 0.  1.
<mgrwt>
<rscale>  0 0.22625364E+04</rscale>
<asrwt>0</asrwt>
<pdfrwt beam="1">  1        2 0.29351219E+00 0.22625364E+04</pdfrwt>
<pdfrwt beam="2">  1       -2 0.10319967E+00 0.22625364E+04</pdfrwt>
<totfact> 0.52381934E+00</totfact>
</mgrwt>
</event>
<event>
12    1  0.1532786E-007  0.1526831E+04  0.7818608E-02  0.8866804E-01
         -3   -1    0    0    0  501 -0.00000000000E+00  0.00000000000E+00  0.23474372131E+03  0.23474372131E+03  0.00000000000E+00 0.  1.
          3   -1    0    0  501    0  0.00000000000E+00 -0.00000000000E+00 -0.24827226921E+04  0.24827226921E+04  0.00000000000E+00 0. -1.
         23    2    1    2    0    0 -0.44413762469E+03  0.11060446382E+03 -0.37813987304E+03  0.60036336854E+03  0.89189874029E+02 0.  0.
        254    2    1    2    0    0  0.44413762469E+03 -0.11060446382E+03 -0.18698390978E+04  0.21171030449E+04  0.88109901491E+03 0.  0.
        -24    2    4    4    0    0 -0.51520227876E+02 -0.41297324634E+01  0.65155368284E+02  0.11502658928E+03  0.79463863830E+02 0.  0.
         24    2    4    4    0    0  0.49565785256E+03 -0.10647473135E+03 -0.19349944661E+04  0.20020764556E+04  0.84219803097E+02 0.  0.
         13    1    3    3    0    0 -0.56021986412E+02 -0.98150454947E+01 -0.25536814843E+02  0.62345224291E+02  0.00000000000E+00 0.  1.
        -13    1    3    3    0    0 -0.38811563827E+03  0.12041950931E+03 -0.35260305819E+03  0.53801814425E+03  0.00000000000E+00 0. -1.
          4    1    6    6  502    0  0.46830141820E+03 -0.94563949080E+02 -0.17236317948E+04  0.17886182160E+04  0.00000000000E+00 0. -1.
          3    1    5    5  503    0  0.18183784912E+02 -0.11082918223E+02  0.29615263314E+02  0.36476635416E+02  0.00000000000E+00 0. -1.
         -4    1    5    5    0  503 -0.69704012789E+02  0.69531857595E+01  0.35540104969E+02  0.78549953865E+02  0.00000000000E+00 0.  1.
         -3    1    6    6    0  502  0.27356434360E+02 -0.11910782274E+02 -0.21136267128E+03  0.21345823958E+03  0.00000000000E+00 0.  1.
<mgrwt>
<rscale>  0 0.15268314E+04</rscale>
<asrwt>0</asrwt>
<pdfrwt beam="1">  1        3 0.38195734E+00 0.15268314E+04</pdfrwt>
<pdfrwt beam="2">  1       -3 0.36114419E-01 0.15268314E+04</pdfrwt>
<totfact> 0.26865150E-01</totfact>
</mgrwt>
</event>
<event>
12    1  0.1532786E-007  0.1717804E+04  0.7818608E-02  0.8751275E-01
         -1   -1    0    0    0  501 -0.00000000000E+00  0.00000000000E+00  0.42743054473E+03  0.42743054473E+03  0.00000000000E+00 0. -1.
          1   -1    0    0  501    0  0.00000000000E+00 -0.00000000000E+00 -0.17259244916E+04  0.17259244916E+04  0.00000000000E+00 0.  1.
         23    2    1    2    0    0  0.29047660736E+03 -0.13908107067E+03 -0.11677727124E+04  0.12147735952E+04  0.90893212825E+02 0.  0.
        254    2    1    2    0    0 -0.29047660736E+03  0.13908107067E+03 -0.13072123447E+03  0.93858144112E+03  0.87185255452E+03 0.  0.
        -24    2    4    4    0    0  0.29925277907E+03  0.10998209713E+03 -0.41382645864E+01  0.32958368537E+03  0.83426572241E+02 0.  0.
         24    2    4    4    0    0 -0.58972938643E+03  0.29098973536E+02 -0.12658296988E+03  0.60899775575E+03  0.78914629606E+02 0.  0.
         13    1    3    3    0    0  0.24600406797E+03 -0.86824039656E+02 -0.82738007313E+03  0.86753340035E+03  0.00000000000E+00 0. -1.
        -13    1    3    3    0    0  0.44472539394E+02 -0.52257031011E+02 -0.34039263924E+03  0.34724019482E+03  0.00000000000E+00 0.  1.
          4    1    6    6  502    0 -0.73149212017E+02 -0.16215111180E+02 -0.33812115942E+02  0.82200950322E+02  0.00000000000E+00 0. -1.
          1    1    5    5  503    0  0.10351925120E+03  0.71528837401E+02  0.24115242834E+02  0.12811773837E+03  0.00000000000E+00 0. -1.
         -2    1    5    5    0  503  0.19573352787E+03  0.38453259730E+02 -0.28253507421E+02  0.20146594699E+03  0.00000000000E+00 0.  1.
         -3    1    6    6    0  502 -0.51658017441E+03  0.45314084716E+02 -0.92770853941E+02  0.52679680543E+03  0.00000000000E+00 0.  1.
<mgrwt>
<rscale>  0 0.17178042E+04</rscale>
<asrwt>0</asrwt>
<pdfrwt beam="1">  1        1 0.26552685E+00 0.17178042E+04</pdfrwt>
<pdfrwt beam="2">  1       -1 0.65758544E-01 0.17178042E+04</pdfrwt>
<totfact> 0.10191257E+01</totfact>
</mgrwt>
</event>
<event>
12    1  0.1532786E-007  0.2337084E+04  0.7818608E-02  0.8463441E-01
         -2   -1    0    0    0  501 -0.00000000000E+00  0.00000000000E+00  0.58772397477E+03  0.58772397477E+03  0.00000000000E+00 0.  1.
          2   -1    0    0  501    0  0.00000000000E+00 -0.00000000000E+00 -0.23233531949E+04  0.23233531949E+04  0.00000000000E+00 0. -1.
         23    2    1    2    0    0  0.57730102962E+03 -0.70908137099E+03 -0.33639111171E+03  0.97854281267E+03  0.91182162231E+02 0.  0.
        254    2    1    2    0    0 -0.57730102962E+03  0.70908137099E+03 -0.13992381084E+04  0.19325343570E+04  0.96992210378E+03 0.  0.
        -24    2    4    4    0    0 -0.15531693223E+03  0.74529774573E+03 -0.12695168264E+04  0.14824814073E+04  0.80536149722E+02 0.  0.
         24    2    4    4    0    0 -0.42198409739E+03 -0.36216374736E+02 -0.12972128204E+03  0.45005294965E+03  0.79610566046E+02 0.  0.
         13    1    3    3    0    0  0.30705406970E+03 -0.42069897028E+03 -0.22926669372E+03  0.56906330242E+03  0.00000000000E+00 0. -1.
        -13    1    3    3    0    0  0.27024695992E+03 -0.28838240071E+03 -0.10712441799E+03  0.40947951025E+03  0.00000000000E+00 0.  1.
          2    1    6    6  502    0 -0.46914427912E+02  0.42645718333E+01 -0.41143643034E+02  0.62545579231E+02  0.00000000000E+00 0. -1.
          3    1    5    5  503    0 -0.57921168993E+02  0.23089157154E+03 -0.32934414004E+03  0.40636601999E+03  0.00000000000E+00 0. -1.
         -4    1    5    5    0  503 -0.97395763233E+02  0.51440617419E+03 -0.94017268633E+03  0.10761153873E+04  0.00000000000E+00 0.  1.
         -1    1    6    6    0  502 -0.37506966948E+03 -0.40480946570E+02 -0.88577639001E+02  0.38750737042E+03  0.00000000000E+00 0.  1.
<mgrwt>
<rscale>  0 0.23370840E+04</rscale>
<asrwt>0</asrwt>
<pdfrwt beam="1">  1        2 0.35743895E+00 0.23370840E+04</pdfrwt>
<pdfrwt beam="2">  1       -2 0.90419075E-01 0.23370840E+04</pdfrwt>
<totfact> 0.41548397E+00</totfact>
</mgrwt>
</event>
<event>
12    1  0.1532786E-007  0.1774361E+04  0.7818608E-02  0.8720054E-01
         -1   -1    0    0    0  501 -0.00000000000E+00  0.00000000000E+00  0.66865477307E+03  0.66865477307E+03  0.00000000000E+00 0.  1.
          1   -1    0    0  501    0  0.00000000000E+00 -0.00000000000E+00 -0.11771238474E+04  0.11771238474E+04  0.00000000000E+00 0. -1.
         23    2    1    2    0    0 -0.93908040020E+02 -0.63228790498E+03  0.20575183260E+02  0.64594518088E+03  0.90637319987E+02 0.  0.
        254    2    1    2    0    0  0.93908040020E+02  0.63228790498E+03 -0.52904425758E+03  0.11998334396E+04  0.86666356881E+03 0.  0.
        -24    2    4    4    0    0  0.27545436875E+03  0.76419886349E+03 -0.30403433730E+03  0.87089437229E+03  0.78390797950E+02 0.  0.
         24    2    4    4    0    0 -0.18154632873E+03 -0.13191095851E+03 -0.22500992028E+03  0.32893906729E+03  0.84922760886E+02 0.  0.
         13    1    3    3    0    0 -0.61287782953E+02 -0.56947057329E+03  0.19846331930E+01  0.57276248564E+03  0.00000000000E+00 0.  1.
        -13    1    3    3    0    0 -0.32620257066E+02 -0.62817331688E+02  0.18590550067E+02  0.73182695245E+02  0.00000000000E+00 0. -1.
          4    1    6    6  502    0 -0.18747782496E+03 -0.12102888825E+03 -0.19453424367E+03  0.29603969092E+03  0.00000000000E+00 0. -1.
          1    1    5    5  503    0  0.24481878705E+03  0.59091477753E+03 -0.25095906303E+03  0.68709312623E+03  0.00000000000E+00 0. -1.
         -2    1    5    5    0  503  0.30635581694E+02  0.17328408596E+03 -0.53075274266E+02  0.18380124606E+03  0.00000000000E+00 0.  1.
         -3    1    6    6    0  502  0.59314962289E+01 -0.10882070267E+02 -0.30475676608E+02  0.32899376370E+02  0.00000000000E+00 0.  1.
<mgrwt>
<rscale>  0 0.17743613E+04</rscale>
<asrwt>0</asrwt>
<pdfrwt beam="1">  1        1 0.18109597E+00 0.17743613E+04</pdfrwt>
<pdfrwt beam="2">  1       -1 0.10286997E+00 0.17743613E+04</pdfrwt>
<totfact> 0.93800262E+00</totfact>
</mgrwt>
</event>
<event>
12    1  0.1532786E-007  0.1405028E+04  0.7818608E-02  0.8950187E-01
         -2   -1    0    0    0  501 -0.00000000000E+00  0.00000000000E+00  0.28584724858E+03  0.28584724858E+03  0.00000000000E+00 0.  1.
          2   -1    0    0  501    0  0.00000000000E+00 -0.00000000000E+00 -0.17265365865E+04  0.17265365865E+04  0.00000000000E+00 0. -1.
         23    2    1    2    0    0  0.95097564977E+02 -0.45506505743E+02 -0.99578437952E+03  0.10056592829E+04  0.93003623295E+02 0.  0.
        254    2    1    2    0    0 -0.95097564977E+02  0.45506505743E+02 -0.44490495841E+03  0.10067245522E+04  0.89690552065E+03 0.  0.
        -24    2    4    4    0    0 -0.19117474829E+03  0.40885844076E+03 -0.58394439175E+02  0.46215278828E+03  0.80388309052E+02 0.  0.
         24    2    4    4    0    0  0.96077183309E+02 -0.36335193501E+03 -0.38651051924E+03  0.54457176387E+03  0.76893242197E+02 0.  0.
         11    1    3    3    0    0  0.73986346063E+01 -0.52114496502E+02 -0.37219082984E+03  0.37589449897E+03  0.00000000000E+00 0.  1.
        -11    1    3    3    0    0  0.87698930371E+02  0.66079907594E+01 -0.62359354968E+03  0.62976478397E+03  0.00000000000E+00 0. -1.
          4    1    6    6  502    0  0.67549797423E+02 -0.33799761693E+03 -0.33693594206E+03  0.48200746181E+03  0.00000000000E+00 0. -1.
          1    1    5    5  503    0 -0.19641899856E+03  0.40614477362E+03 -0.53172252351E+02  0.45427006125E+03  0.00000000000E+00 0. -1.
         -2    1    5    5    0  503  0.52442502690E+01  0.27136671380E+01 -0.52221868240E+01  0.78827270310E+01  0.00000000000E+00 0.  1.
         -3    1    6    6    0  502  0.28527385886E+02 -0.25354318081E+02 -0.49574577178E+02  0.62564302068E+02  0.00000000000E+00 0.  1.
<mgrwt>
<rscale>  0 0.14050277E+04</rscale>
<asrwt>0</asrwt>
<pdfrwt beam="1">  1        2 0.26562101E+00 0.14050277E+04</pdfrwt>
<pdfrwt beam="2">  1       -2 0.43976500E-01 0.14050277E+04</pdfrwt>
<totfact> 0.45220006E+01</totfact>
</mgrwt>
</event>
<event>
12    1  0.1532786E-007  0.1861161E+04  0.7818608E-02  0.8674434E-01
         -2   -1    0    0    0  501 -0.00000000000E+00  0.00000000000E+00  0.13872326945E+04  0.13872326945E+04  0.00000000000E+00 0.  1.
          2   -1    0    0  501    0  0.00000000000E+00 -0.00000000000E+00 -0.62424983448E+03  0.62424983448E+03  0.00000000000E+00 0. -1.
         23    2    1    2    0    0  0.57603372147E+03 -0.12319237907E+03  0.72532240860E+03  0.93821332793E+03  0.84619393487E+02 0.  0.
        254    2    1    2    0    0 -0.57603372147E+03  0.12319237907E+03  0.37660451437E+02  0.10732692011E+04  0.89638008557E+03 0.  0.
        -24    2    4    4    0    0  0.18383718114E+03 -0.13591788558E+03 -0.84892713902E+02  0.25647470723E+03  0.79389683107E+02 0.  0.
         24    2    4    4    0    0 -0.75987090261E+03  0.25911026465E+03  0.12255316534E+03  0.81679449383E+03  0.87132364457E+02 0.  0.
         13    1    3    3    0    0  0.39882605510E+03 -0.45729263701E+02  0.50258568192E+03  0.64323071713E+03  0.00000000000E+00 0.  1.
        -13    1    3    3    0    0  0.17720766637E+03 -0.77463115368E+02  0.22273672667E+03  0.29498261080E+03  0.00000000000E+00 0. -1.
          2    1    6    6  502    0 -0.43425379793E+03  0.13892573692E+03  0.11226425514E+03  0.46955296227E+03  0.00000000000E+00 0. -1.
          3    1    5    5  503    0  0.10909319047E+03 -0.45196520562E+02 -0.71804285581E+02  0.13820240629E+03  0.00000000000E+00 0. -1.
         -4    1    5    5    0  503  0.74743990670E+02 -0.90721365019E+02 -0.13088428321E+02  0.11827230093E+03  0.00000000000E+00 0.  1.
         -1    1    6    6    0  502 -0.32561710468E+03  0.12018452773E+03  0.10288910197E+02  0.34724153156E+03  0.00000000000E+00 0.  1.
<mgrwt>
<rscale>  0 0.18611607E+04</rscale>
<asrwt>0</asrwt>
<pdfrwt beam="1">  1        2 0.96038437E-01 0.18611607E+04</pdfrwt>
<pdfrwt beam="2">  1       -2 0.21342041E+00 0.18611607E+04</pdfrwt>
<totfact> 0.48296176E+00</totfact>
</mgrwt>
</event>
<event>
12    1  0.1532786E-007  0.1380762E+04  0.7818608E-02  0.8967863E-01
          1   -1    0    0  501    0  0.00000000000E+00  0.00000000000E+00  0.25522218671E+03  0.25522218671E+03  0.00000000000E+00 0. -1.
         -1   -1    0    0    0  501 -0.00000000000E+00 -0.00000000000E+00 -0.18674941918E+04  0.18674941918E+04  0.00000000000E+00 0.  1.
         23    2    1    2    0    0 -0.20350052962E+03  0.29689300971E+03 -0.22478404005E+03  0.43393719384E+03  0.90640491860E+02 0.  0.
        254    2    1    2    0    0  0.20350052962E+03 -0.29689300971E+03 -0.13874879651E+04  0.16887791847E+04  0.89291340941E+03 0.  0.
        -24    2    4    4    0    0 -0.11789088287E+02 -0.48647621852E+03 -0.33773879683E+03  0.59759167288E+03  0.79058325417E+02 0.  0.
         24    2    4    4    0    0  0.21528961791E+03  0.18958320881E+03 -0.10497491683E+04  0.10911875118E+04  0.80158948998E+02 0.  0.
         11    1    3    3    0    0 -0.13747007635E+03  0.24195337148E+03 -0.20541600038E+03  0.34588320149E+03  0.00000000000E+00 0.  1.
        -11    1    3    3    0    0 -0.66030453270E+02  0.54939638231E+02 -0.19368039676E+02  0.88053992351E+02  0.00000000000E+00 0. -1.
          2    1    6    6  502    0  0.83459197929E+02  0.31501612609E+02 -0.25249236591E+03  0.26778757283E+03  0.00000000000E+00 0. -1.
          1    1    5    5  503    0 -0.10194051696E+02 -0.32335729931E+03 -0.17788250343E+03  0.36919648798E+03  0.00000000000E+00 0. -1.
         -2    1    5    5    0  503 -0.15950365909E+01 -0.16311891921E+03 -0.15985629340E+03  0.22839518490E+03  0.00000000000E+00 0.  1.
         -1    1    6    6    0  502  0.13183041998E+03  0.15808159620E+03 -0.79725680234E+03  0.82339993901E+03  0.00000000000E+00 0.  1.
<mgrwt>
<rscale>  0 0.13807620E+04</rscale>
<asrwt>0</asrwt>
<pdfrwt beam="1">  1        1 0.39264953E-01 0.13807620E+04</pdfrwt>
<pdfrwt beam="2">  1       -1 0.28730679E+00 0.13807620E+04</pdfrwt>
<totfact> 0.42315702E+00</totfact>
</mgrwt>
</event>
<event>
12    1  0.1532786E-007  0.2429524E+04  0.7818608E-02  0.8428532E-01
          2   -1    0    0  501    0  0.00000000000E+00  0.00000000000E+00  0.12018359966E+04  0.12018359966E+04  0.00000000000E+00 0. -1.
         -2   -1    0    0    0  501 -0.00000000000E+00 -0.00000000000E+00 -0.12278267551E+04  0.12278267551E+04  0.00000000000E+00 0.  1.
         23    2    1    2    0    0  0.41441649155E+03  0.37126825263E+03 -0.89230780200E+03  0.10553063809E+04  0.88753592483E+02 0.  0.
        254    2    1    2    0    0 -0.41441649155E+03 -0.37126825263E+03  0.86631704351E+03  0.13743563708E+04  0.91036754671E+03 0.  0.
        -24    2    4    4    0    0 -0.28302767920E+03  0.54467680349E+02 -0.92899298296E+02  0.31366490718E+03  0.81755727468E+02 0.  0.
         24    2    4    4    0    0 -0.13138881235E+03 -0.42573593298E+03  0.95921634181E+03  0.10606914636E+04  0.80351016752E+02 0.  0.
         13    1    3    3    0    0  0.40519779806E+03  0.37625687749E+03 -0.87606346696E+03  0.10359737890E+04  0.00000000000E+00 0.  1.
        -13    1    3    3    0    0  0.92186934951E+01 -0.49886248567E+01 -0.16244335041E+02  0.19332591876E+02  0.00000000000E+00 0. -1.
          4    1    6    6  502    0 -0.78232266317E+02 -0.27873799049E+03  0.70680076117E+03  0.76379478319E+03  0.00000000000E+00 0. -1.
          3    1    5    5  503    0 -0.26443006233E+03  0.41814110565E+02 -0.60907720540E+02  0.27455678489E+03  0.00000000000E+00 0. -1.
         -4    1    5    5    0  503 -0.18597616867E+02  0.12653569784E+02 -0.31991577756E+02  0.39108122286E+02  0.00000000000E+00 0.  1.
         -3    1    6    6    0  502 -0.53156546036E+02 -0.14699794249E+03  0.25241558064E+03  0.29689668040E+03  0.00000000000E+00 0.  1.
<mgrwt>
<rscale>  0 0.24295237E+04</rscale>
<asrwt>0</asrwt>
<pdfrwt beam="1">  1        2 0.18489785E+00 0.24295237E+04</pdfrwt>
<pdfrwt beam="2">  1       -2 0.18889642E+00 0.24295237E+04</pdfrwt>
<totfact> 0.26722132E+00</totfact>
</mgrwt>
</event>
<event>
12    1  0.1532786E-007  0.2298673E+04  0.7818608E-02  0.8478445E-01
         -2   -1    0    0    0  501 -0.00000000000E+00  0.00000000000E+00  0.74094888918E+03  0.74094888918E+03  0.00000000000E+00 0. -1.
          2   -1    0    0  501    0  0.00000000000E+00 -0.00000000000E+00 -0.17828139101E+04  0.17828139101E+04  0.00000000000E+00 0.  1.
         23    2    1    2    0    0 -0.41277240259E+02 -0.26861750588E+02  0.62992696452E+03  0.63846389336E+03  0.91666778549E+02 0.  0.
        254    2    1    2    0    0  0.41277240259E+02  0.26861750588E+02 -0.16717919854E+04  0.18852989059E+04  0.87007939746E+03 0.  0.
        -24    2    4    4    0    0 -0.20122904703E+03  0.24372973890E+03 -0.14403349994E+04  0.14767251674E+04  0.79088523361E+02 0.  0.
         24    2    4    4    0    0  0.24250628729E+03 -0.21686798831E+03 -0.23145698605E+03  0.40857373854E+03  0.86712973127E+02 0.  0.
         13    1    3    3    0    0 -0.44624925174E+02 -0.57010858808E+02  0.39421582361E+03  0.40080885414E+03  0.00000000000E+00 0.  1.
        -13    1    3    3    0    0  0.33476849150E+01  0.30149108220E+02  0.23571114091E+03  0.23765503922E+03  0.00000000000E+00 0. -1.
          2    1    6    6  502    0  0.24460532875E+03 -0.22130001191E+03 -0.22106668090E+03  0.39708429776E+03  0.00000000000E+00 0. -1.
          3    1    5    5  503    0 -0.18938213849E+03  0.18378683879E+03 -0.12079885959E+04  0.12364787278E+04  0.00000000000E+00 0. -1.
         -4    1    5    5    0  503 -0.11846908539E+02  0.59942900109E+02 -0.23234640345E+03  0.24024643954E+03  0.00000000000E+00 0.  1.
         -1    1    6    6    0  502 -0.20990414632E+01  0.44320236035E+01 -0.10390305156E+02  0.11489440784E+02  0.00000000000E+00 0.  1.
<mgrwt>
<rscale>  0 0.22986726E+04</rscale>
<asrwt>0</asrwt>
<pdfrwt beam="1">  1        2 0.27427906E+00 0.22986726E+04</pdfrwt>
<pdfrwt beam="2">  1       -2 0.11399214E+00 0.22986726E+04</pdfrwt>
<totfact> 0.48185799E+00</totfact>
</mgrwt>
</event>
<event>
12    1  0.1532786E-007  0.1727867E+04  0.7818608E-02  0.8745629E-01
          2   -1    0    0  501    0  0.00000000000E+00  0.00000000000E+00  0.28094316550E+04  0.28094316550E+04  0.00000000000E+00 0. -1.
         -2   -1    0    0    0  501 -0.00000000000E+00 -0.00000000000E+00 -0.26566974140E+03  0.26566974140E+03  0.00000000000E+00 0.  1.
         23    2    1    2    0    0 -0.84310123399E+02 -0.62548927214E+03  0.85922030454E+03  0.10682895581E+04  0.68103023375E+02 0.  0.
        254    2    1    2    0    0  0.84310123399E+02  0.62548927214E+03  0.16845416091E+04  0.20068118383E+04  0.88953262737E+03 0.  0.
        -24    2    4    4    0    0  0.42998016986E+03  0.46684126872E+03  0.13496951524E+04  0.14936599166E+04  0.80741719461E+02 0.  0.
         24    2    4    4    0    0 -0.34567004646E+03  0.15864800342E+03  0.33484645665E+03  0.51315192172E+03  0.80905965286E+02 0.  0.
         13    1    3    3    0    0 -0.33464275350E+02 -0.40627520609E+03  0.51096299825E+03  0.65365326159E+03  0.00000000000E+00 0.  1.
        -13    1    3    3    0    0 -0.50845848048E+02 -0.21921406605E+03  0.34825730629E+03  0.41463629654E+03  0.00000000000E+00 0. -1.
          4    1    6    6  502    0 -0.25022199723E+03  0.10618570344E+03  0.18876257101E+03  0.33093467592E+03  0.00000000000E+00 0. -1.
          1    1    5    5  503    0  0.18027890516E+03  0.20958330895E+03  0.67981058665E+03  0.73387197845E+03  0.00000000000E+00 0. -1.
         -2    1    5    5    0  503  0.24970126470E+03  0.25725795978E+03  0.66988456575E+03  0.75978793811E+03  0.00000000000E+00 0.  1.
         -3    1    6    6    0  502 -0.95448049235E+02  0.52462299974E+02  0.14608388564E+03  0.18221724579E+03  0.00000000000E+00 0.  1.
<mgrwt>
<rscale>  0 0.17278669E+04</rscale>
<asrwt>0</asrwt>
<pdfrwt beam="1">  1        2 0.43222023E+00 0.17278669E+04</pdfrwt>
<pdfrwt beam="2">  1       -2 0.40872270E-01 0.17278669E+04</pdfrwt>
<totfact> 0.12322988E+01</totfact>
</mgrwt>
</event>
<event>
12    1  0.1532786E-007  0.1533235E+04  0.7818608E-02  0.8862648E-01
         -2   -1    0    0    0  501 -0.00000000000E+00  0.00000000000E+00  0.17901471494E+03  0.17901471494E+03  0.00000000000E+00 0.  1.
          2   -1    0    0  501    0  0.00000000000E+00 -0.00000000000E+00 -0.32829827580E+04  0.32829827580E+04  0.00000000000E+00 0. -1.
         23    2    1    2    0    0 -0.43922004471E+03 -0.17753094719E+03 -0.67403364073E+03  0.82700624584E+03  0.72017337810E+02 0.  0.
        254    2    1    2    0    0  0.43922004471E+03  0.17753094719E+03 -0.24299344023E+04  0.26349912271E+04  0.90231152176E+03 0.  0.
        -24    2    4    4    0    0  0.56165310984E+03  0.43976028585E+03 -0.17645394366E+04  0.19050014936E+04  0.81166140456E+02 0.  0.
         24    2    4    4    0    0 -0.12243306512E+03 -0.26222933866E+03 -0.66539496574E+03  0.72998973353E+03  0.79877838875E+02 0.  0.
         13    1    3    3    0    0 -0.34077301600E+03 -0.10666758046E+03 -0.48166122070E+03  0.59958465013E+03  0.00000000000E+00 0.  1.
        -13    1    3    3    0    0 -0.98447028716E+02 -0.70863366725E+02 -0.19237242003E+03  0.22742159571E+03  0.00000000000E+00 0. -1.
          4    1    6    6  502    0 -0.68231725069E+02 -0.17061042242E+03 -0.32511675286E+03  0.37344931053E+03  0.00000000000E+00 0. -1.
          3    1    5    5  503    0  0.23652803164E+03  0.17006960966E+03 -0.82315045333E+03  0.87318145348E+03  0.00000000000E+00 0. -1.
         -4    1    5    5    0  503  0.32512507820E+03  0.26969067618E+03 -0.94138898328E+03  0.10318200401E+04  0.00000000000E+00 0.  1.
         -3    1    6    6    0  502 -0.54201340053E+02 -0.91618916244E+02 -0.34027821287E+03  0.35654042300E+03  0.00000000000E+00 0.  1.
<mgrwt>
<rscale>  0 0.15332348E+04</rscale>
<asrwt>0</asrwt>
<pdfrwt beam="1">  1        2 0.50507424E+00 0.15332348E+04</pdfrwt>
<pdfrwt beam="2">  1       -2 0.27540727E-01 0.15332348E+04</pdfrwt>
<totfact> 0.13379399E+01</totfact>
</mgrwt>
</event>
<event>
12    1  0.1532786E-007  0.1535457E+04  0.7818608E-02  0.8861211E-01
         -2   -1    0    0    0  501 -0.00000000000E+00  0.00000000000E+00  0.26173168367E+03  0.26173168367E+03  0.00000000000E+00 0.  1.
          2   -1    0    0  501    0  0.00000000000E+00 -0.00000000000E+00 -0.22519519325E+04  0.22519519325E+04  0.00000000000E+00 0. -1.
         23    2    1    2    0    0 -0.42455041131E+03 -0.92905041486E+02 -0.27420273813E+03  0.52169109419E+03  0.90000320460E+02 0.  0.
        254    2    1    2    0    0  0.42455041131E+03  0.92905041486E+02 -0.17160175107E+04  0.19919925220E+04  0.91347890623E+03 0.  0.
        -24    2    4    4    0    0 -0.37060456747E+02 -0.34274895282E+03 -0.43804215352E+03  0.56281042938E+03  0.77616551389E+02 0.  0.
         24    2    4    4    0    0  0.46161086806E+03  0.43565399431E+03 -0.12779753572E+04  0.14291820926E+04  0.80383107523E+02 0.  0.
         13    1    3    3    0    0 -0.33420761796E+03 -0.10795827173E+03 -0.23143899212E+03  0.42061113563E+03  0.00000000000E+00 0.  1.
        -13    1    3    3    0    0 -0.90342793346E+02  0.15053230247E+02 -0.42763746017E+02  0.10107995857E+03  0.00000000000E+00 0. -1.
          2    1    6    6  502    0  0.27512282463E+03  0.20492060852E+03 -0.69586717472E+03  0.77583255235E+03  0.00000000000E+00 0. -1.
          1    1    5    5  503    0 -0.53219877269E+02 -0.16235638700E+03 -0.18763299455E+03  0.25376779224E+03  0.00000000000E+00 0. -1.
         -2    1    5    5    0  503  0.16159420523E+02 -0.18039256582E+03 -0.25040915897E+03  0.30904263714E+03  0.00000000000E+00 0.  1.
         -1    1    6    6    0  502  0.18648804343E+03  0.23073338578E+03 -0.58210818251E+03  0.65334954029E+03  0.00000000000E+00 0.  1.
<mgrwt>
<rscale>  0 0.15354572E+04</rscale>
<asrwt>0</asrwt>
<pdfrwt beam="1">  1        2 0.34645414E+00 0.15354572E+04</pdfrwt>
<pdfrwt beam="2">  1       -2 0.40266414E-01 0.15354572E+04</pdfrwt>
<totfact> 0.27184894E+01</totfact>
</mgrwt>
</event>
<event>
12    1  0.1532786E-007  0.1414943E+04  0.7818608E-02  0.8943072E-01
          1   -1    0    0  501    0  0.00000000000E+00  0.00000000000E+00  0.11618976936E+04  0.11618976936E+04  0.00000000000E+00 0. -1.
         -1   -1    0    0    0  501 -0.00000000000E+00 -0.00000000000E+00 -0.43077466464E+03  0.43077466464E+03  0.00000000000E+00 0.  1.
         23    2    1    2    0    0 -0.39498428729E+03  0.12178658147E+03  0.25022528369E+03  0.49171126618E+03  0.91228932164E+02 0.  0.
        254    2    1    2    0    0  0.39498428729E+03 -0.12178658147E+03  0.48089774527E+03  0.11009610921E+04  0.90000451453E+03 0.  0.
        -24    2    4    4    0    0  0.43516508877E+03 -0.39700023826E+03  0.70130726950E+02  0.59856920577E+03  0.79930792416E+02 0.  0.
         24    2    4    4    0    0 -0.40180801476E+02  0.27521365679E+03  0.41076701832E+03  0.50239188628E+03  0.79441867845E+02 0.  0.
         11    1    3    3    0    0 -0.30821878744E+03  0.12529669140E+03  0.17063195277E+03  0.37391622740E+03  0.00000000000E+00 0. -1.
        -11    1    3    3    0    0 -0.86765499855E+02 -0.35101099311E+01  0.79593330912E+02  0.11779503879E+03  0.00000000000E+00 0.  1.
          2    1    6    6  502    0 -0.28190063334E+02  0.22004642329E+02  0.50669241358E+02  0.62018190675E+02  0.00000000000E+00 0. -1.
          3    1    5    5  503    0  0.12108421697E+02 -0.55955704977E+00  0.99394284045E+01  0.15675433553E+02  0.00000000000E+00 0. -1.
         -4    1    5    5    0  503  0.42305666707E+03 -0.39644068121E+03  0.60191298546E+02  0.58289377222E+03  0.00000000000E+00 0.  1.
         -1    1    6    6    0  502 -0.11990738142E+02  0.25320901446E+03  0.36009777697E+03  0.44037369561E+03  0.00000000000E+00 0.  1.
<mgrwt>
<rscale>  0 0.14149432E+04</rscale>
<asrwt>0</asrwt>
<pdfrwt beam="1">  1        1 0.17875349E+00 0.14149432E+04</pdfrwt>
<pdfrwt beam="2">  1       -1 0.66273025E-01 0.14149432E+04</pdfrwt>
<totfact> 0.25614705E+01</totfact>
</mgrwt>
</event>
<event>
12    1  0.1532786E-007  0.1233685E+04  0.7818608E-02  0.9083872E-01
          1   -1    0    0  501    0  0.00000000000E+00  0.00000000000E+00  0.28473655037E+03  0.28473655037E+03  0.00000000000E+00 0. -1.
         -1   -1    0    0    0  501 -0.00000000000E+00 -0.00000000000E+00 -0.13363049946E+04  0.13363049946E+04  0.00000000000E+00 0.  1.
         23    2    1    2    0    0  0.27756921056E+03 -0.46159148225E+02 -0.11130131762E+03  0.31659275022E+03  0.93100228647E+02 0.  0.
        254    2    1    2    0    0 -0.27756921056E+03  0.46159148225E+02 -0.94026712658E+03  0.13044487947E+04  0.85924912285E+03 0.  0.
        -24    2    4    4    0    0  0.26063729587E+03 -0.49386404656E+02 -0.58544876302E+03  0.64757707237E+03  0.78961975453E+02 0.  0.
         24    2    4    4    0    0 -0.53820650643E+03  0.95545552881E+02 -0.35481836356E+03  0.65687172236E+03  0.82396554984E+02 0.  0.
         13    1    3    3    0    0 -0.28385543516E+01 -0.12028289903E+02 -0.11844396839E+02  0.17118028078E+02  0.00000000000E+00 0. -1.
        -13    1    3    3    0    0  0.28040776491E+03 -0.34130858321E+02 -0.99456920782E+02  0.29947472215E+03  0.00000000000E+00 0.  1.
          2    1    6    6  502    0 -0.16003598991E+03  0.72829138415E+01 -0.14183350767E+03  0.21396565799E+03  0.00000000000E+00 0. -1.
          3    1    5    5  503    0  0.12048908242E+02 -0.18946904779E+02 -0.85602934562E+02  0.88498722002E+02  0.00000000000E+00 0. -1.
         -4    1    5    5    0  503  0.24858838763E+03 -0.30439499877E+02 -0.49984582846E+03  0.55907835037E+03  0.00000000000E+00 0.  1.
         -1    1    6    6    0  502 -0.37817051652E+03  0.88262639039E+02 -0.21298485588E+03  0.44290606436E+03  0.00000000000E+00 0.  1.
<mgrwt>
<rscale>  0 0.12336853E+04</rscale>
<asrwt>0</asrwt>
<pdfrwt beam="1">  1        1 0.43805623E-01 0.12336853E+04</pdfrwt>
<pdfrwt beam="2">  1       -1 0.20558538E+00 0.12336853E+04</pdfrwt>
<totfact> 0.12772341E+01</totfact>
</mgrwt>
</event>
<event>
12    1  0.1532786E-007  0.1602790E+04  0.7818608E-02  0.8818836E-01
         -2   -1    0    0    0  501 -0.00000000000E+00  0.00000000000E+00  0.14154187497E+04  0.14154187497E+04  0.00000000000E+00 0.  1.
          2   -1    0    0  501    0  0.00000000000E+00 -0.00000000000E+00 -0.45374142121E+03  0.45374142121E+03  0.00000000000E+00 0. -1.
         23    2    1    2    0    0 -0.34303237547E+03  0.41540436619E+03  0.26674966719E+03  0.60828165263E+03  0.92839570860E+02 0.  0.
        254    2    1    2    0    0  0.34303237547E+03 -0.41540436619E+03  0.69492766134E+03  0.12608785183E+04  0.90369142155E+03 0.  0.
        -24    2    4    4    0    0  0.44953556984E+03 -0.57510717250E+03  0.25960635432E+03  0.77845805323E+03  0.75967052229E+02 0.  0.
         24    2    4    4    0    0 -0.10650319437E+03  0.15970280632E+03  0.43532130702E+03  0.48242046508E+03  0.79855795194E+02 0.  0.
         13    1    3    3    0    0  0.61093472551E+01  0.86579283481E+01  0.42648642362E+01  0.11422474080E+02  0.00000000000E+00 0.  1.
        -13    1    3    3    0    0 -0.34914172272E+03  0.40674643784E+03  0.26248480295E+03  0.59685917855E+03  0.00000000000E+00 0. -1.
          2    1    6    6  502    0 -0.11362893233E+03  0.14346527660E+03  0.42280876190E+03  0.46071799291E+03  0.00000000000E+00 0. -1.
          3    1    5    5  503    0  0.35510104749E+03 -0.42667915194E+03  0.16722833361E+03  0.57975612820E+03  0.00000000000E+00 0. -1.
         -4    1    5    5    0  503  0.94434522348E+02 -0.14842802057E+03  0.92378020709E+02  0.19870192503E+03  0.00000000000E+00 0.  1.
         -3    1    6    6    0  502  0.71257379613E+01  0.16237529718E+02  0.12512545117E+02  0.21702472167E+02  0.00000000000E+00 0.  1.
<mgrwt>
<rscale>  0 0.16027902E+04</rscale>
<asrwt>0</asrwt>
<pdfrwt beam="1">  1        2 0.69806373E-01 0.16027902E+04</pdfrwt>
<pdfrwt beam="2">  1       -2 0.21775673E+00 0.16027902E+04</pdfrwt>
<totfact> 0.67406338E+00</totfact>
</mgrwt>
</event>
<event>
12    1  0.1532786E-007  0.1584167E+04  0.7818608E-02  0.8830334E-01
          2   -1    0    0  501    0  0.00000000000E+00  0.00000000000E+00  0.12770195160E+04  0.12770195160E+04  0.00000000000E+00 0. -1.
         -2   -1    0    0    0  501 -0.00000000000E+00 -0.00000000000E+00 -0.49129716718E+03  0.49129716718E+03  0.00000000000E+00 0.  1.
         23    2    1    2    0    0 -0.49515541850E+03 -0.55335810035E+02  0.47331364030E+03  0.69332322987E+03  0.91816984494E+02 0.  0.
        254    2    1    2    0    0  0.49515541850E+03  0.55335810035E+02  0.31240870848E+03  0.10749934533E+04  0.89987264826E+03 0.  0.
        -24    2    4    4    0    0 -0.21807004197E+03 -0.13504500985E+03  0.17318745289E+03  0.31964036698E+03  0.79902268276E+02 0.  0.
         24    2    4    4    0    0  0.71322546047E+03  0.19038081988E+03  0.13922125559E+03  0.75535308628E+03  0.78995651182E+02 0.  0.
         11    1    3    3    0    0 -0.90822149297E+02 -0.17419934142E+02  0.44161565943E+02  0.10248102661E+03  0.00000000000E+00 0. -1.
        -11    1    3    3    0    0 -0.40433326920E+03 -0.37915875893E+02  0.42915207435E+03  0.59084220326E+03  0.00000000000E+00 0.  1.
          4    1    6    6  502    0  0.65597663260E+03  0.15447321571E+03  0.13720797270E+03  0.68774511606E+03  0.00000000000E+00 0. -1.
          3    1    5    5  503    0 -0.14034497513E+03 -0.57589924643E+02  0.13612299285E+03  0.20382046180E+03  0.00000000000E+00 0. -1.
         -4    1    5    5    0  503 -0.77725066842E+02 -0.77455085204E+02  0.37064460047E+02  0.11581990519E+03  0.00000000000E+00 0.  1.
         -3    1    6    6    0  502  0.57248827867E+02  0.35907604171E+02  0.20132828932E+01  0.67607970221E+02  0.00000000000E+00 0.  1.
<mgrwt>
<rscale>  0 0.15841667E+04</rscale>
<asrwt>0</asrwt>
<pdfrwt beam="1">  1        2 0.19646454E+00 0.15841667E+04</pdfrwt>
<pdfrwt beam="2">  1       -2 0.75584180E-01 0.15841667E+04</pdfrwt>
<totfact> 0.25696388E+01</totfact>
</mgrwt>
</event>
<event>
12    1  0.1532786E-007  0.1968324E+04  0.7818608E-02  0.8621575E-01
         -1   -1    0    0    0  501 -0.00000000000E+00  0.00000000000E+00  0.55922737367E+03  0.55922737367E+03  0.00000000000E+00 0.  1.
          1   -1    0    0  501    0  0.00000000000E+00 -0.00000000000E+00 -0.17319868801E+04  0.17319868801E+04  0.00000000000E+00 0. -1.
         23    2    1    2    0    0  0.15102405193E+03 -0.14698713716E+02 -0.13504730299E+04  0.13621308809E+04  0.92729799433E+02 0.  0.
        254    2    1    2    0    0 -0.15102405193E+03  0.14698713716E+02  0.17771352351E+03  0.92908337285E+03  0.89921604792E+03 0.  0.
        -24    2    4    4    0    0  0.25126978806E+03 -0.29369589107E+03  0.12302723239E+03  0.41339709814E+03  0.79797731899E+02 0.  0.
         24    2    4    4    0    0 -0.40229383999E+03  0.30839460479E+03  0.54686291115E+02  0.51568627471E+03  0.77422073977E+02 0.  0.
         11    1    3    3    0    0  0.98527080925E+02 -0.11844868092E+02 -0.48423772559E+03  0.49430158958E+03  0.00000000000E+00 0.  1.
        -11    1    3    3    0    0  0.52496971001E+02 -0.28538456243E+01 -0.86623530434E+03  0.86782929133E+03  0.00000000000E+00 0. -1.
          4    1    6    6  502    0 -0.27488601179E+02  0.41914200878E+02 -0.10488419696E+02  0.51209670744E+02  0.00000000000E+00 0. -1.
          1    1    5    5  503    0  0.39513788125E+02 -0.21956010737E+02 -0.58391172549E+01  0.45579613314E+02  0.00000000000E+00 0. -1.
         -2    1    5    5    0  503  0.21175599994E+03 -0.27173988034E+03  0.12886634964E+03  0.36781748483E+03  0.00000000000E+00 0.  1.
         -3    1    6    6    0  502 -0.37480523881E+03  0.26648040391E+03  0.65174710812E+02  0.46447660397E+03  0.00000000000E+00 0.  1.
<mgrwt>
<rscale>  0 0.19683236E+04</rscale>
<asrwt>0</asrwt>
<pdfrwt beam="1">  1        1 0.26645952E+00 0.19683236E+04</pdfrwt>
<pdfrwt beam="2">  1       -1 0.86034982E-01 0.19683236E+04</pdfrwt>
<totfact> 0.56214121E+00</totfact>
</mgrwt>
</event>
<event>
12    1  0.1532786E-007  0.1571861E+04  0.7818608E-02  0.8838024E-01
         -2   -1    0    0    0  501 -0.00000000000E+00  0.00000000000E+00  0.29362304067E+03  0.29362304067E+03  0.00000000000E+00 0.  1.
          2   -1    0    0  501    0  0.00000000000E+00 -0.00000000000E+00 -0.21036729872E+04  0.21036729872E+04  0.00000000000E+00 0. -1.
         23    2    1    2    0    0 -0.20034314543E+03 -0.32050766316E+03 -0.11253824526E+04  0.11906352959E+04  0.90907674189E+02 0.  0.
        254    2    1    2    0    0  0.20034314543E+03  0.32050766316E+03 -0.68466749399E+03  0.12066607320E+04  0.91891131606E+03 0.  0.
        -24    2    4    4    0    0  0.51679746226E+03  0.12182095238E+03 -0.61855968774E+03  0.81916052612E+03  0.80547618319E+02 0.  0.
         24    2    4    4    0    0 -0.31645431684E+03  0.19868671078E+03 -0.66107806250E+02  0.38750020589E+03  0.78526580405E+02 0.  0.
         11    1    3    3    0    0 -0.62567697917E+01 -0.77409646959E+02 -0.22911361847E+03  0.24191827293E+03  0.00000000000E+00 0.  1.
        -11    1    3    3    0    0 -0.19408637563E+03 -0.24309801620E+03 -0.89626883411E+03  0.94871702297E+03  0.00000000000E+00 0. -1.
          4    1    6    6  502    0 -0.28610930450E+03  0.15712081649E+03 -0.75879622935E+02  0.33511669948E+03  0.00000000000E+00 0. -1.
          3    1    5    5  503    0  0.47155405237E+03  0.90043638116E+02 -0.53338013217E+03  0.71761092972E+03  0.00000000000E+00 0. -1.
         -4    1    5    5    0  503  0.45243409899E+02  0.31777314264E+02 -0.85179555572E+02  0.10154959640E+03  0.00000000000E+00 0.  1.
         -3    1    6    6    0  502 -0.30345012340E+02  0.41565894292E+02  0.97718166847E+01  0.52383506407E+02  0.00000000000E+00 0.  1.
<mgrwt>
<rscale>  0 0.15718611E+04</rscale>
<asrwt>0</asrwt>
<pdfrwt beam="1">  1        2 0.32364201E+00 0.15718611E+04</pdfrwt>
<pdfrwt beam="2">  1       -2 0.45172774E-01 0.15718611E+04</pdfrwt>
<totfact> 0.26131909E+01</totfact>
</mgrwt>
</event>
<event>
12    1  0.1532786E-007  0.1337137E+04  0.7818608E-02  0.9000623E-01
          2   -1    0    0  501    0  0.00000000000E+00  0.00000000000E+00  0.11933515115E+04  0.11933515115E+04  0.00000000000E+00 0. -1.
         -2   -1    0    0    0  501 -0.00000000000E+00 -0.00000000000E+00 -0.37456168726E+03  0.37456168726E+03  0.00000000000E+00 0.  1.
         23    2    1    2    0    0 -0.31396926616E+03  0.71382936023E+02  0.39963440180E+03  0.52085069840E+03  0.88913279534E+02 0.  0.
        254    2    1    2    0    0  0.31396926616E+03 -0.71382936023E+02  0.41915542240E+03  0.10470625003E+04  0.90386746140E+03 0.  0.
        -24    2    4    4    0    0 -0.29276911289E+03 -0.73460859301E+02  0.12033223379E+02  0.31209896320E+03  0.78426481853E+02 0.  0.
         24    2    4    4    0    0  0.60673837904E+03  0.20779232778E+01  0.40712219902E+03  0.73496353711E+03  0.79291472273E+02 0.  0.
         13    1    3    3    0    0 -0.17243844180E+03  0.33351520418E+02  0.14811636943E+03  0.22975160286E+03  0.00000000000E+00 0.  1.
        -13    1    3    3    0    0 -0.14153082435E+03  0.38031415605E+02  0.25151803237E+03  0.29109909554E+03  0.00000000000E+00 0. -1.
          2    1    6    6  502    0  0.43626173261E+02 -0.16584452513E+02  0.47278227411E+02  0.66434312261E+02  0.00000000000E+00 0. -1.
          1    1    5    5  503    0 -0.99965965979E+02 -0.14557355422E+02  0.39835008960E+02  0.10859069431E+03  0.00000000000E+00 0. -1.
         -2    1    5    5    0  503 -0.19280314691E+03 -0.58903503879E+02 -0.27801785581E+02  0.20350826889E+03  0.00000000000E+00 0.  1.
         -1    1    6    6    0  502  0.56311220578E+03  0.18662375791E+02  0.35984397161E+03  0.66852922485E+03  0.00000000000E+00 0.  1.
<mgrwt>
<rscale>  0 0.13371369E+04</rscale>
<asrwt>0</asrwt>
<pdfrwt beam="1">  1        2 0.18359254E+00 0.13371369E+04</pdfrwt>
<pdfrwt beam="2">  1       -2 0.57624875E-01 0.13371369E+04</pdfrwt>
<totfact> 0.52701497E+01</totfact>
</mgrwt>
</event>
<event>
12    1  0.1936779E-007  0.2077908E+04  0.7818608E-02  0.8571038E-01
         -2   -1    0    0    0  501 -0.00000000000E+00  0.00000000000E+00  0.46706601141E+03  0.46706601141E+03  0.00000000000E+00 0.  1.
          2   -1    0    0  501    0  0.00000000000E+00 -0.00000000000E+00 -0.23110764040E+04  0.23110764040E+04  0.00000000000E+00 0. -1.
         23    2    1    2    0    0 -0.24868302356E+02  0.83817846296E+03 -0.82319944011E+03  0.11785134232E+04  0.89861016739E+02 0.  0.
        254    2    1    2    0    0  0.24868302356E+02 -0.83817846296E+03 -0.10208109525E+04  0.15996289922E+04  0.90199575593E+03 0.  0.
        -24    2    4    4    0    0  0.11414442710E+03 -0.88132363106E+03 -0.11244045670E+04  0.14354427355E+04  0.80311418056E+02 0.  0.
         24    2    4    4    0    0 -0.89276124741E+02  0.43145168099E+02  0.10359361445E+03  0.16418625668E+03  0.79960977662E+02 0.  0.
         11    1    3    3    0    0 -0.36818617033E+00  0.67051717593E+03 -0.61271886008E+03  0.90830491592E+03  0.00000000000E+00 0. -1.
        -11    1    3    3    0    0 -0.24500116186E+02  0.16766128703E+03 -0.21048058002E+03  0.27020850732E+03  0.00000000000E+00 0.  1.
          4    1    6    6  502    0 -0.86428129402E+02  0.34677622559E+02  0.11608918945E+03  0.14882559916E+03  0.00000000000E+00 0. -1.
          1    1    5    5  503    0  0.10285755411E+03 -0.82920575434E+03 -0.10833669378E+04  0.13681541512E+04  0.00000000000E+00 0. -1.
         -2    1    5    5    0  503  0.11286872992E+02 -0.52117876725E+02 -0.41037629137E+02  0.67288584333E+02  0.00000000000E+00 0.  1.
         -3    1    6    6    0  502 -0.28479953387E+01  0.84675455402E+01 -0.12495574998E+02  0.15360657520E+02  0.00000000000E+00 0.  1.
<mgrwt>
<rscale>  0 0.20779078E+04</rscale>
<asrwt>0</asrwt>
<pdfrwt beam="1">  1        2 0.35555022E+00 0.20779078E+04</pdfrwt>
<pdfrwt beam="2">  1       -2 0.71856309E-01 0.20779078E+04</pdfrwt>
<totfact> 0.72412464E+00</totfact>
</mgrwt>
</event>
<event>
12    1  0.1532786E-007  0.1281199E+04  0.7818608E-02  0.9044609E-01
          2   -1    0    0  501    0  0.00000000000E+00  0.00000000000E+00  0.19803317480E+03  0.19803317480E+03  0.00000000000E+00 0. -1.
         -2   -1    0    0    0  501 -0.00000000000E+00 -0.00000000000E+00 -0.20722180766E+04  0.20722180766E+04  0.00000000000E+00 0.  1.
         23    2    1    2    0    0  0.13077890820E+03  0.23446521642E+03 -0.19063557614E+03  0.34155842591E+03  0.90791931830E+02 0.  0.
        254    2    1    2    0    0 -0.13077890820E+03 -0.23446521642E+03 -0.16835493257E+04  0.19286928255E+04  0.90190943148E+03 0.  0.
        -24    2    4    4    0    0 -0.16691194687E+03 -0.30959140984E+03 -0.14970059431E+03  0.39046797475E+03  0.79677677627E+02 0.  0.
         24    2    4    4    0    0  0.36133038672E+02  0.75126193427E+02 -0.15338487314E+04  0.15382248508E+04  0.80586719164E+02 0.  0.
         11    1    3    3    0    0  0.71415456035E+02  0.44426085047E+02 -0.50708569363E+02  0.98209996437E+02  0.00000000000E+00 0.  1.
        -11    1    3    3    0    0  0.59363452160E+02  0.19003913137E+03 -0.13992700677E+03  0.24334842947E+03  0.00000000000E+00 0. -1.
          4    1    6    6  502    0 -0.11007240279E+02  0.24559277063E+02 -0.93689068186E+03  0.93727715601E+03  0.00000000000E+00 0. -1.
          1    1    5    5  503    0 -0.15205791470E+03 -0.23935549097E+03 -0.91245957945E+02  0.29789005576E+03  0.00000000000E+00 0. -1.
         -2    1    5    5    0  503 -0.14854032167E+02 -0.70235918871E+02 -0.58454636361E+02  0.92577918984E+02  0.00000000000E+00 0.  1.
         -3    1    6    6    0  502  0.47140278950E+02  0.50566916364E+02 -0.59695804953E+03  0.60094769475E+03  0.00000000000E+00 0.  1.
<mgrwt>
<rscale>  0 0.12811993E+04</rscale>
<asrwt>0</asrwt>
<pdfrwt beam="1">  1        2 0.30466641E-01 0.12811993E+04</pdfrwt>
<pdfrwt beam="2">  1       -2 0.31880279E+00 0.12811993E+04</pdfrwt>
<totfact> 0.42192228E+00</totfact>
</mgrwt>
</event>
<event>
12    1  0.1532786E-007  0.2042549E+04  0.7818608E-02  0.8586982E-01
         -1   -1    0    0    0  501 -0.00000000000E+00  0.00000000000E+00  0.59441052273E+03  0.59441052273E+03  0.00000000000E+00 0.  1.
          1   -1    0    0  501    0  0.00000000000E+00 -0.00000000000E+00 -0.17546822927E+04  0.17546822927E+04  0.00000000000E+00 0. -1.
         23    2    1    2    0    0 -0.70532812035E+03 -0.42552501686E+03 -0.71067972943E+03  0.10917797393E+04  0.91422228828E+02 0.  0.
        254    2    1    2    0    0  0.70532812035E+03  0.42552501686E+03 -0.44959204051E+03  0.12573130761E+04  0.83674600160E+03 0.  0.
        -24    2    4    4    0    0  0.77597397189E+03  0.94497923175E+02 -0.15334309063E+03  0.80024987212E+03  0.76290837326E+02 0.  0.
         24    2    4    4    0    0 -0.70645851535E+02  0.33102709368E+03 -0.29624894989E+03  0.45706320401E+03  0.81077488016E+02 0.  0.
         11    1    3    3    0    0 -0.57711801693E+03 -0.32679259073E+03 -0.61071937991E+03  0.90157460247E+03  0.00000000000E+00 0. -1.
        -11    1    3    3    0    0 -0.12821010342E+03 -0.98732426129E+02 -0.99960349523E+02  0.19020513680E+03  0.00000000000E+00 0.  1.
          4    1    6    6  502    0 -0.12942332975E+02  0.35160437272E+02 -0.48104965179E+01  0.37774345908E+02  0.00000000000E+00 0. -1.
          3    1    5    5  503    0  0.27409074753E+03  0.84248276362E+01 -0.26628925517E+02  0.27551010014E+03  0.00000000000E+00 0. -1.
         -4    1    5    5    0  503  0.50188322436E+03  0.86073095539E+02 -0.12671416511E+03  0.52473977199E+03  0.00000000000E+00 0.  1.
         -3    1    6    6    0  502 -0.57703518561E+02  0.29586665641E+03 -0.29143845337E+03  0.41928885811E+03  0.00000000000E+00 0.  1.
<mgrwt>
<rscale>  0 0.20425490E+04</rscale>
<asrwt>0</asrwt>
<pdfrwt beam="1">  1        1 0.26995111E+00 0.20425490E+04</pdfrwt>
<pdfrwt beam="2">  1       -1 0.91447775E-01 0.20425490E+04</pdfrwt>
<totfact> 0.47129933E+00</totfact>
</mgrwt>
</event>
<event>
12    1  0.1532786E-007  0.2415134E+04  0.7818608E-02  0.8433859E-01
          2   -1    0    0  501    0  0.00000000000E+00  0.00000000000E+00  0.68804265024E+03  0.68804265024E+03  0.00000000000E+00 0. -1.
         -2   -1    0    0    0  501 -0.00000000000E+00 -0.00000000000E+00 -0.21193716486E+04  0.21193716486E+04  0.00000000000E+00 0.  1.
         23    2    1    2    0    0 -0.93516067825E+03 -0.39562488250E+03 -0.87511789450E+03  0.13436632251E+04  0.92493197132E+02 0.  0.
        254    2    1    2    0    0  0.93516067825E+03  0.39562488250E+03 -0.55621110387E+03  0.14637510737E+04  0.89562931613E+03 0.  0.
        -24    2    4    4    0    0  0.74212793245E+03  0.32281322048E+02  0.23856408739E+02  0.74794964606E+03  0.84045183777E+02 0.  0.
         24    2    4    4    0    0  0.19303274579E+03  0.36334356045E+03 -0.58006751260E+03  0.71580142765E+03  0.81321465650E+02 0.  0.
         13    1    3    3    0    0 -0.73042269440E+03 -0.28307763638E+03 -0.63235999868E+03  0.10067419871E+04  0.00000000000E+00 0.  1.
        -13    1    3    3    0    0 -0.20473798385E+03 -0.11254724612E+03 -0.24275789582E+03  0.33692123801E+03  0.00000000000E+00 0. -1.
          2    1    6    6  502    0  0.17593688518E+02  0.10879860864E+03 -0.14827203383E+03  0.18474650506E+03  0.00000000000E+00 0. -1.
          1    1    5    5  503    0  0.46884622081E+03  0.49321003180E-01 -0.20140663602E+02  0.46927862463E+03  0.00000000000E+00 0. -1.
         -2    1    5    5    0  503  0.27328171164E+03  0.32232001045E+02  0.43997072341E+02  0.27867102143E+03  0.00000000000E+00 0.  1.
         -3    1    6    6    0  502  0.17543905728E+03  0.25454495181E+03 -0.43179547878E+03  0.53105492259E+03  0.00000000000E+00 0.  1.
<mgrwt>
<rscale>  0 0.24151340E+04</rscale>
<asrwt>0</asrwt>
<pdfrwt beam="1">  1        2 0.10585272E+00 0.24151340E+04</pdfrwt>
<pdfrwt beam="2">  1       -2 0.32605717E+00 0.24151340E+04</pdfrwt>
<totfact> 0.82644462E-01</totfact>
</mgrwt>
</event>
<event>
12    1  0.1532786E-007  0.1346164E+04  0.7818608E-02  0.8993737E-01
         -1   -1    0    0    0  501 -0.00000000000E+00  0.00000000000E+00  0.33057729970E+03  0.33057729970E+03  0.00000000000E+00 0.  1.
          1   -1    0    0  501    0  0.00000000000E+00 -0.00000000000E+00 -0.13704486981E+04  0.13704486981E+04  0.00000000000E+00 0. -1.
         23    2    1    2    0    0 -0.25137765897E+03  0.12678312936E+03  0.21476906248E+02  0.29629283451E+03  0.89796976339E+02 0.  0.
        254    2    1    2    0    0  0.25137765897E+03 -0.12678312936E+03 -0.10613483046E+04  0.14047331633E+04  0.87609950744E+03 0.  0.
        -24    2    4    4    0    0  0.54941113931E+03 -0.10760929992E+03 -0.88188514314E+03  0.10476549799E+04  0.80169755832E+02 0.  0.
         24    2    4    4    0    0 -0.29803348033E+03 -0.19173829437E+02 -0.17946316147E+03  0.35707818337E+03  0.78142252220E+02 0.  0.
         11    1    3    3    0    0 -0.17085750941E+03  0.84705080186E+02  0.56544108792E+02  0.19890820840E+03  0.00000000000E+00 0.  1.
        -11    1    3    3    0    0 -0.80520149562E+02  0.42078049173E+02 -0.35067202544E+02  0.97384626107E+02  0.00000000000E+00 0. -1.
          4    1    6    6  502    0 -0.10112844092E+03 -0.41513612074E+02 -0.79177979375E+02  0.13497960575E+03  0.00000000000E+00 0. -1.
          1    1    5    5  503    0  0.76878572113E+01  0.73243041121E+01 -0.27682289551E+02  0.29648907805E+02  0.00000000000E+00 0. -1.
         -2    1    5    5    0  503  0.54172328210E+03 -0.11493360403E+03 -0.85420285359E+03  0.10180060721E+04  0.00000000000E+00 0.  1.
         -3    1    6    6    0  502 -0.19690503942E+03  0.22339782638E+02 -0.10028518209E+03  0.22209857763E+03  0.00000000000E+00 0.  1.
<mgrwt>
<rscale>  0 0.13461638E+04</rscale>
<asrwt>0</asrwt>
<pdfrwt beam="1">  1        1 0.21083826E+00 0.13461638E+04</pdfrwt>
<pdfrwt beam="2">  1       -1 0.50858047E-01 0.13461638E+04</pdfrwt>
<totfact> 0.30659747E+01</totfact>
</mgrwt>
</event>
<event>
12    1  0.1532786E-007  0.8941454E+03  0.7818608E-02  0.9432930E-01
          2   -1    0    0  501    0  0.00000000000E+00  0.00000000000E+00  0.35903643981E+03  0.35903643981E+03  0.00000000000E+00 0.  1.
         -2   -1    0    0    0  501 -0.00000000000E+00 -0.00000000000E+00 -0.55669560539E+03  0.55669560539E+03  0.00000000000E+00 0. -1.
         23    2    1    2    0    0  0.51141567367E+02  0.36230929730E+02  0.56327510561E+02  0.12182341415E+03  0.87977358492E+02 0.  0.
        254    2    1    2    0    0 -0.51141567367E+02 -0.36230929730E+02 -0.25398667614E+03  0.79390863105E+03  0.74956890452E+03 0.  0.
        -24    2    4    4    0    0  0.27985911076E+03  0.18658598117E+03 -0.11871210170E+03  0.36522964999E+03  0.78515500996E+02 0.  0.
         24    2    4    4    0    0 -0.33100067812E+03 -0.22281691090E+03 -0.13527457444E+03  0.42867898106E+03  0.79105205994E+02 0.  0.
         11    1    3    3    0    0  0.43943399113E+02  0.35348819305E+02  0.79539847195E+02  0.97504608320E+02  0.00000000000E+00 0.  1.
        -11    1    3    3    0    0  0.71981682542E+01  0.88211042479E+00 -0.23212336633E+02  0.24318805830E+02  0.00000000000E+00 0. -1.
          4    1    6    6  502    0 -0.32875702675E+03 -0.20873930790E+03 -0.11934874588E+03  0.40730505085E+03  0.00000000000E+00 0. -1.
          3    1    5    5  503    0  0.26105155337E+03  0.16949874462E+03 -0.13014508135E+03  0.33736549934E+03  0.00000000000E+00 0. -1.
         -4    1    5    5    0  503  0.18807557386E+02  0.17087236553E+02  0.11432979646E+02  0.27864150650E+02  0.00000000000E+00 0.  1.
         -3    1    6    6    0  502 -0.22436513700E+01 -0.14077603002E+02 -0.15925828555E+02  0.21373930217E+02  0.00000000000E+00 0.  1.
<mgrwt>
<rscale>  0 0.89414542E+03</rscale>
<asrwt>0</asrwt>
<pdfrwt beam="1">  1        2 0.55236375E-01 0.89414542E+03</pdfrwt>
<pdfrwt beam="2">  1       -2 0.85645478E-01 0.89414542E+03</pdfrwt>
<totfact> 0.10678633E+02</totfact>
</mgrwt>
</event>
<event>
12    1  0.1532786E-007  0.3228623E+04  0.7818608E-02  0.8181299E-01
          2   -1    0    0  501    0  0.00000000000E+00  0.00000000000E+00  0.18723212880E+04  0.18723212880E+04  0.00000000000E+00 0. -1.
         -2   -1    0    0    0  501 -0.00000000000E+00 -0.00000000000E+00 -0.13918556935E+04  0.13918556935E+04  0.00000000000E+00 0.  1.
         23    2    1    2    0    0 -0.62868774082E+03  0.12189134241E+04  0.77793455583E+03  0.15794142237E+04  0.91481725844E+02 0.  0.
        254    2    1    2    0    0  0.62868774082E+03 -0.12189134241E+04 -0.29746896140E+03  0.16847627578E+04  0.93216927443E+03 0.  0.
        -24    2    4    4    0    0  0.15003331533E+03 -0.10493311993E+03  0.27670976196E+03  0.34094029545E+03  0.78428549207E+02 0.  0.
         24    2    4    4    0    0  0.47865442550E+03 -0.11139803041E+04 -0.57417872336E+03  0.13438224623E+04  0.78201194726E+02 0.  0.
         13    1    3    3    0    0 -0.10413703648E+03  0.23991095126E+03  0.18522885877E+03  0.32048637572E+03  0.00000000000E+00 0. -1.
        -13    1    3    3    0    0 -0.52455070435E+03  0.97900247281E+03  0.59270569706E+03  0.12589278480E+04  0.00000000000E+00 0.  1.
          2    1    6    6  502    0  0.25188876932E+03 -0.65157558732E+03 -0.29857941305E+03  0.75970281294E+03  0.00000000000E+00 0. -1.
          1    1    5    5  503    0  0.22539456377E+02 -0.50609668556E+02  0.11721406974E+03  0.12964761390E+03  0.00000000000E+00 0. -1.
         -2    1    5    5    0  503  0.12749385895E+03 -0.54323451371E+02  0.15949569222E+03  0.21129268155E+03  0.00000000000E+00 0.  1.
         -1    1    6    6    0  502  0.22676565618E+03 -0.46240471682E+03 -0.27559931031E+03  0.58411964939E+03  0.00000000000E+00 0.  1.
<mgrwt>
<rscale>  0 0.32286226E+04</rscale>
<asrwt>0</asrwt>
<pdfrwt beam="1">  1        2 0.28804943E+00 0.32286226E+04</pdfrwt>
<pdfrwt beam="2">  1       -2 0.21413165E+00 0.32286226E+04</pdfrwt>
<totfact> 0.71196554E-01</totfact>
</mgrwt>
</event>
<event>
12    1  0.1532786E-007  0.1331981E+04  0.7818608E-02  0.9004582E-01
          1   -1    0    0  501    0  0.00000000000E+00  0.00000000000E+00  0.13255047631E+04  0.13255047631E+04  0.00000000000E+00 0. -1.
         -1   -1    0    0    0  501 -0.00000000000E+00 -0.00000000000E+00 -0.33462200244E+03  0.33462200244E+03  0.00000000000E+00 0.  1.
         23    2    1    2    0    0 -0.22601552794E+03  0.84588213518E+02 -0.70148175743E+02  0.26745009408E+03  0.91490991494E+02 0.  0.
        254    2    1    2    0    0  0.22601552794E+03 -0.84588213518E+02  0.10610309364E+04  0.13926766715E+04  0.86920853568E+03 0.  0.
        -24    2    4    4    0    0  0.51867293787E+03  0.11154896220E+03  0.56613510720E+03  0.78041737773E+03  0.84128095257E+02 0.  0.
         24    2    4    4    0    0 -0.29265740993E+03 -0.19613717572E+03  0.49489582924E+03  0.61225929376E+03  0.76298163253E+02 0.  0.
         13    1    3    3    0    0 -0.45032729860E+02  0.56180005307E+02 -0.21317972756E+01  0.72032522617E+02  0.00000000000E+00 0. -1.
        -13    1    3    3    0    0 -0.18098279809E+03  0.28408208211E+02 -0.68016378467E+02  0.19541757146E+03  0.00000000000E+00 0.  1.
          4    1    6    6  502    0 -0.27827547942E+03 -0.19986861680E+03  0.45416422398E+03  0.56890231918E+03  0.00000000000E+00 0. -1.
          3    1    5    5  503    0  0.34794912513E+03  0.82255465028E+02  0.43546360272E+03  0.56343864306E+03  0.00000000000E+00 0. -1.
         -4    1    5    5    0  503  0.17072381275E+03  0.29293497169E+02  0.13067150448E+03  0.21697873467E+03  0.00000000000E+00 0.  1.
         -3    1    6    6    0  502 -0.14381930513E+02  0.37314410847E+01  0.40731605261E+02  0.43356974583E+02  0.00000000000E+00 0.  1.
<mgrwt>
<rscale>  0 0.13319806E+04</rscale>
<asrwt>0</asrwt>
<pdfrwt beam="1">  1        1 0.20392381E+00 0.13319806E+04</pdfrwt>
<pdfrwt beam="2">  1       -1 0.51480309E-01 0.13319806E+04</pdfrwt>
<totfact> 0.32269589E+01</totfact>
</mgrwt>
</event>
<event>
12    1  0.1532786E-007  0.1528883E+04  0.7818608E-02  0.8865470E-01
          1   -1    0    0  501    0  0.00000000000E+00  0.00000000000E+00  0.19196776740E+04  0.19196776740E+04  0.00000000000E+00 0. -1.
         -1   -1    0    0    0  501 -0.00000000000E+00 -0.00000000000E+00 -0.30441096414E+03  0.30441096414E+03  0.00000000000E+00 0.  1.
         23    2    1    2    0    0  0.12397489077E+03 -0.48020296612E+03  0.54849597807E+03  0.74553528648E+03  0.94922933096E+02 0.  0.
        254    2    1    2    0    0 -0.12397489077E+03  0.48020296612E+03  0.10667707318E+04  0.14785533517E+04  0.89563137356E+03 0.  0.
        -24    2    4    4    0    0 -0.13388511330E+03  0.73628417580E+03  0.83490737723E+03  0.11240772073E+04  0.80247295072E+02 0.  0.
         24    2    4    4    0    0  0.99102225303E+01 -0.25608120969E+03  0.23186335460E+03  0.35447614437E+03  0.78847468283E+02 0.  0.
         13    1    3    3    0    0  0.11560956969E+03 -0.48038662772E+03  0.54684800198E+03  0.73700720619E+03  0.00000000000E+00 0. -1.
        -13    1    3    3    0    0  0.83653210831E+01  0.18366160415E+00  0.16479760850E+01  0.85280802989E+01  0.00000000000E+00 0.  1.
          2    1    6    6  502    0 -0.28907716729E+02 -0.16377742352E+03  0.12513839920E+03  0.20813053476E+03  0.00000000000E+00 0. -1.
          3    1    5    5  503    0 -0.17892891076E+02  0.31630227052E+03  0.34100770132E+03  0.46546056143E+03  0.00000000000E+00 0. -1.
         -4    1    5    5    0  503 -0.11599222223E+03  0.41998190528E+03  0.49389967591E+03  0.65861664589E+03  0.00000000000E+00 0.  1.
         -1    1    6    6    0  502  0.38817939260E+02 -0.92303786162E+02  0.10672495540E+03  0.14634560961E+03  0.00000000000E+00 0.  1.
<mgrwt>
<rscale>  0 0.15288832E+04</rscale>
<asrwt>0</asrwt>
<pdfrwt beam="1">  1        1 0.29533502E+00 0.15288832E+04</pdfrwt>
<pdfrwt beam="2">  1       -1 0.46832457E-01 0.15288832E+04</pdfrwt>
<totfact> 0.14821640E+01</totfact>
</mgrwt>
</event>
<event>
12    1  0.1532786E-007  0.1113114E+04  0.7818608E-02  0.9192504E-01
          2   -1    0    0  501    0  0.00000000000E+00  0.00000000000E+00  0.52279716831E+03  0.52279716831E+03  0.00000000000E+00 0. -1.
         -2   -1    0    0    0  501 -0.00000000000E+00 -0.00000000000E+00 -0.59249654507E+03  0.59249654507E+03  0.00000000000E+00 0.  1.
         23    2    1    2    0    0 -0.63872489616E+02  0.74261903582E+01 -0.14820945377E+03  0.19410014724E+03  0.10758244158E+03 0.  0.
        254    2    1    2    0    0  0.63872489616E+02 -0.74261903582E+01  0.78510077011E+02  0.92119356614E+03  0.91558664848E+03 0.  0.
        -24    2    4    4    0    0 -0.49821953060E+02 -0.44350856427E+03 -0.14776248156E+02  0.45361681145E+03  0.79798499600E+02 0.  0.
         24    2    4    4    0    0  0.11369444268E+03  0.43608237391E+03  0.93286325167E+02  0.46757675469E+03  0.82652404260E+02 0.  0.
         13    1    3    3    0    0 -0.71187638825E+02 -0.36536060325E+02 -0.84755794337E+02  0.11655946250E+03  0.00000000000E+00 0.  1.
        -13    1    3    3    0    0  0.73151492092E+01  0.43962250683E+02 -0.63453659437E+02  0.77540684734E+02  0.00000000000E+00 0. -1.
          4    1    6    6  502    0  0.88489664567E+02  0.36335001648E+03  0.44898813140E+02  0.37665575614E+03  0.00000000000E+00 0. -1.
          3    1    5    5  503    0 -0.24724110560E+02 -0.41355329445E+03 -0.12920991358E+02  0.41449313748E+03  0.00000000000E+00 0. -1.
         -4    1    5    5    0  503 -0.25097842500E+02 -0.29955269814E+02 -0.18552567977E+01  0.39123673979E+02  0.00000000000E+00 0.  1.
         -3    1    6    6    0  502  0.25204778109E+02  0.72732357431E+02  0.48387512027E+02  0.90920998549E+02  0.00000000000E+00 0.  1.
<mgrwt>
<rscale>  0 0.11131137E+04</rscale>
<asrwt>0</asrwt>
<pdfrwt beam="1">  1        2 0.80430333E-01 0.11131137E+04</pdfrwt>
<pdfrwt beam="2">  1       -2 0.91153315E-01 0.11131137E+04</pdfrwt>
<totfact> 0.59530904E+01</totfact>
</mgrwt>
</event>
<event>
12    1  0.1532786E-007  0.2225414E+04  0.7818608E-02  0.8507924E-01
         -1   -1    0    0    0  501 -0.00000000000E+00  0.00000000000E+00  0.66178029665E+03  0.66178029665E+03  0.00000000000E+00 0.  1.
          1   -1    0    0  501    0  0.00000000000E+00 -0.00000000000E+00 -0.18708884165E+04  0.18708884165E+04  0.00000000000E+00 0. -1.
         23    2    1    2    0    0  0.29899307787E+03 -0.69313574455E+03 -0.99655410530E+03  0.12535827418E+04  0.92279925794E+02 0.  0.
        254    2    1    2    0    0 -0.29899307787E+03  0.69313574455E+03 -0.21255401459E+03  0.12790859714E+04  0.10104690456E+04 0.  0.
        -24    2    4    4    0    0 -0.30748620653E+03 -0.17302180138E+03 -0.19059795145E+03  0.40895267189E+03  0.80189761083E+02 0.  0.
         24    2    4    4    0    0  0.84931286589E+01  0.86615754593E+03 -0.21956063135E+02  0.87013329953E+03  0.79679750440E+02 0.  0.
         11    1    3    3    0    0  0.25317379578E+03 -0.50637223592E+03 -0.78265429163E+03  0.96594904234E+03  0.00000000000E+00 0. -1.
        -11    1    3    3    0    0  0.45819282089E+02 -0.18676350863E+03 -0.21389981367E+03  0.28763369944E+03  0.00000000000E+00 0.  1.
          2    1    6    6  502    0  0.29565066367E+02  0.27500939183E+03  0.18617032741E+02  0.27721986338E+03  0.00000000000E+00 0. -1.
          3    1    5    5  503    0 -0.17462255492E+03 -0.61539073562E+02 -0.12561632769E+03  0.22373992948E+03  0.00000000000E+00 0. -1.
         -4    1    5    5    0  503 -0.13286365161E+03 -0.11148272782E+03 -0.64981623765E+02  0.18521274240E+03  0.00000000000E+00 0.  1.
         -1    1    6    6    0  502 -0.21071937708E+02  0.59114815410E+03 -0.40573095875E+02  0.59291343614E+03  0.00000000000E+00 0.  1.
<mgrwt>
<rscale>  0 0.22254142E+04</rscale>
<asrwt>0</asrwt>
<pdfrwt beam="1">  1        1 0.28782898E+00 0.22254142E+04</pdfrwt>
<pdfrwt beam="2">  1       -1 0.10181236E+00 0.22254142E+04</pdfrwt>
<totfact> 0.30330604E+00</totfact>
</mgrwt>
</event>
<event>
12    1  0.1532786E-007  0.1202584E+04  0.7818608E-02  0.9110597E-01
          2   -1    0    0  501    0  0.00000000000E+00  0.00000000000E+00  0.10081111549E+04  0.10081111549E+04  0.00000000000E+00 0. -1.
         -2   -1    0    0    0  501 -0.00000000000E+00 -0.00000000000E+00 -0.35864324911E+03  0.35864324911E+03  0.00000000000E+00 0.  1.
         23    2    1    2    0    0  0.10301482279E+03 -0.13190990945E+03  0.37017840341E+03  0.41614080621E+03  0.90160092691E+02 0.  0.
        254    2    1    2    0    0 -0.10301482279E+03  0.13190990945E+03  0.27928950237E+03  0.95061359779E+03  0.89311326731E+03 0.  0.
        -24    2    4    4    0    0 -0.21897532802E+03  0.17791992868E+03  0.56068945727E+03  0.63268431220E+03  0.79442281618E+02 0.  0.
         24    2    4    4    0    0  0.11596050522E+03 -0.46010019229E+02 -0.28139995490E+03  0.31792928559E+03  0.79557120186E+02 0.  0.
         13    1    3    3    0    0 -0.10471609883E+02 -0.16749140421E+02  0.94545408702E+02  0.96586865696E+02  0.00000000000E+00 0. -1.
        -13    1    3    3    0    0  0.11348643268E+03 -0.11516076903E+03  0.27563299471E+03  0.31955394051E+03  0.00000000000E+00 0.  1.
          4    1    6    6  502    0  0.61961130457E+02  0.15256689900E+02 -0.95211863851E+02  0.11461783148E+03  0.00000000000E+00 0. -1.
          3    1    5    5  503    0 -0.11574152618E+03  0.46882176348E+02  0.20962360421E+03  0.24400019423E+03  0.00000000000E+00 0. -1.
         -4    1    5    5    0  503 -0.10323380183E+03  0.13103775233E+03  0.35106585307E+03  0.38868411797E+03  0.00000000000E+00 0.  1.
         -3    1    6    6    0  502  0.53999374767E+02 -0.61266709129E+02 -0.18618809105E+03  0.20331145411E+03  0.00000000000E+00 0.  1.
<mgrwt>
<rscale>  0 0.12025843E+04</rscale>
<asrwt>0</asrwt>
<pdfrwt beam="1">  1        2 0.15509402E+00 0.12025843E+04</pdfrwt>
<pdfrwt beam="2">  1       -2 0.55175885E-01 0.12025843E+04</pdfrwt>
<totfact> 0.75831487E+01</totfact>
</mgrwt>
</event>
<event>
12    1  0.1532786E-007  0.1353069E+04  0.7818608E-02  0.8988508E-01
          1   -1    0    0  501    0  0.00000000000E+00  0.00000000000E+00  0.18910945343E+04  0.18910945343E+04  0.00000000000E+00 0. -1.
         -1   -1    0    0    0  501 -0.00000000000E+00 -0.00000000000E+00 -0.24202844258E+03  0.24202844258E+03  0.00000000000E+00 0.  1.
         23    2    1    2    0    0 -0.16245149697E+03  0.33177526342E+03  0.40143444540E+03  0.55430660284E+03  0.98187991729E+02 0.  0.
        254    2    1    2    0    0  0.16245149697E+03 -0.33177526342E+03  0.12476316463E+04  0.15788163740E+04  0.89420976495E+03 0.  0.
        -24    2    4    4    0    0  0.45803988156E+03  0.50207466962E+02  0.72305263114E+03  0.86135192393E+03  0.82466396910E+02 0.  0.
         24    2    4    4    0    0 -0.29558838459E+03 -0.38198273038E+03  0.52457901513E+03  0.71746445006E+03  0.79301920408E+02 0.  0.
         13    1    3    3    0    0 -0.16435031523E+03  0.27756024742E+03  0.37274326372E+03  0.49293839140E+03  0.00000000000E+00 0. -1.
        -13    1    3    3    0    0  0.18988182575E+01  0.54215015992E+02  0.28691181679E+02  0.61368211445E+02  0.00000000000E+00 0.  1.
          2    1    6    6  502    0 -0.29634211340E+03 -0.37035384927E+03  0.52240248637E+03  0.70560965102E+03  0.00000000000E+00 0. -1.
          1    1    5    5  503    0  0.13269542273E+03  0.99313740997E+01  0.14495321038E+03  0.19676925727E+03  0.00000000000E+00 0. -1.
         -2    1    5    5    0  503  0.32534445883E+03  0.40276092863E+02  0.57809942076E+03  0.66458266666E+03  0.00000000000E+00 0.  1.
         -1    1    6    6    0  502  0.75372881292E+00 -0.11628881109E+02  0.21765287580E+01  0.11854799045E+02  0.00000000000E+00 0.  1.
<mgrwt>
<rscale>  0 0.13530686E+04</rscale>
<asrwt>0</asrwt>
<pdfrwt beam="1">  1        1 0.29093761E+00 0.13530686E+04</pdfrwt>
<pdfrwt beam="2">  1       -1 0.37235146E-01 0.13530686E+04</pdfrwt>
<totfact> 0.24010359E+01</totfact>
</mgrwt>
</event>
<event>
12    1  0.1577428E-007  0.2112266E+04  0.7818608E-02  0.8555859E-01
         -1   -1    0    0    0  501 -0.00000000000E+00  0.00000000000E+00  0.74589370644E+03  0.74589370644E+03  0.00000000000E+00 0.  1.
          1   -1    0    0  501    0  0.00000000000E+00 -0.00000000000E+00 -0.14954093224E+04  0.14954093224E+04  0.00000000000E+00 0. -1.
         23    2    1    2    0    0 -0.39294924390E+03  0.35128391634E+03 -0.10284484708E+04  0.11592471724E+04  0.91314026720E+02 0.  0.
        254    2    1    2    0    0  0.39294924390E+03 -0.35128391634E+03  0.27893285482E+03  0.10820558565E+04  0.90290189989E+03 0.  0.
        -24    2    4    4    0    0  0.35222037018E+03  0.17414258704E+03  0.36491066172E+03  0.54207628952E+03  0.79385658888E+02 0.  0.
         24    2    4    4    0    0  0.40728873724E+02 -0.52542650338E+03 -0.85977806898E+02  0.53997956693E+03  0.80336155099E+02 0.  0.
         13    1    3    3    0    0 -0.38395866488E+03  0.31988488323E+03 -0.98849365386E+03  0.11076417736E+04  0.00000000000E+00 0. -1.
        -13    1    3    3    0    0 -0.89905790168E+01  0.31399033107E+02 -0.39954816947E+02  0.51605398830E+02  0.00000000000E+00 0.  1.
          4    1    6    6  502    0  0.26373495683E+02 -0.19388235788E+03  0.55075070000E+01  0.19574540252E+03  0.00000000000E+00 0. -1.
          3    1    5    5  503    0 -0.20174994545E+01 -0.25155722639E+01  0.97061642574E+01  0.10227806825E+02  0.00000000000E+00 0. -1.
         -4    1    5    5    0  503  0.35423786963E+03  0.17665815930E+03  0.35520449746E+03  0.53184848270E+03  0.00000000000E+00 0.  1.
         -3    1    6    6    0  502  0.14355378040E+02 -0.33154414550E+03 -0.91485313898E+02  0.34423416441E+03  0.00000000000E+00 0.  1.
<mgrwt>
<rscale>  0 0.21122655E+04</rscale>
<asrwt>0</asrwt>
<pdfrwt beam="1">  1        1 0.23006297E+00 0.21122655E+04</pdfrwt>
<pdfrwt beam="2">  1       -1 0.11475288E+00 0.21122655E+04</pdfrwt>
<totfact> 0.41770247E+00</totfact>
</mgrwt>
</event>
<event>
12    1  0.1532786E-007  0.2267875E+04  0.7818608E-02  0.8490696E-01
          1   -1    0    0  501    0  0.00000000000E+00  0.00000000000E+00  0.25894944547E+04  0.25894944547E+04  0.00000000000E+00 0.  1.
         -1   -1    0    0    0  501 -0.00000000000E+00 -0.00000000000E+00 -0.49655036835E+03  0.49655036835E+03  0.00000000000E+00 0. -1.
         23    2    1    2    0    0 -0.58374932001E+03 -0.41497575147E+03  0.17469759192E+04  0.18904011696E+04  0.93400088482E+02 0.  0.
        254    2    1    2    0    0  0.58374932001E+03  0.41497575147E+03  0.34596816713E+03  0.11956436535E+04  0.89269346956E+03 0.  0.
        -24    2    4    4    0    0  0.58335599163E+03  0.12225009893E+03  0.56236922627E+03  0.82327825792E+03  0.79237892686E+02 0.  0.
         24    2    4    4    0    0  0.39332838123E+00  0.29272565254E+03 -0.21640105914E+03  0.37236539560E+03  0.78346072487E+02 0.  0.
         11    1    3    3    0    0 -0.24866219451E+03 -0.23369866360E+03  0.81338775290E+03  0.88207005896E+03  0.00000000000E+00 0. -1.
        -11    1    3    3    0    0 -0.33508712550E+03 -0.18127708788E+03  0.93358816635E+03  0.10083311106E+04  0.00000000000E+00 0.  1.
          2    1    6    6  502    0  0.17403737950E+02  0.20496294354E+03 -0.10956175050E+03  0.23305895283E+03  0.00000000000E+00 0. -1.
          1    1    5    5  503    0  0.13267878587E+03 -0.18174786882E+01  0.14596228795E+03  0.19726112884E+03  0.00000000000E+00 0. -1.
         -2    1    5    5    0  503  0.45067720577E+03  0.12406757762E+03  0.41640693832E+03  0.62601712907E+03  0.00000000000E+00 0.  1.
         -1    1    6    6    0  502 -0.17010409568E+02  0.87762709000E+02 -0.10683930865E+03  0.13930644277E+03  0.00000000000E+00 0.  1.
<mgrwt>
<rscale>  0 0.22678752E+04</rscale>
<asrwt>0</asrwt>
<pdfrwt beam="1">  1        1 0.39838376E+00 0.22678752E+04</pdfrwt>
<pdfrwt beam="2">  1       -1 0.76392366E-01 0.22678752E+04</pdfrwt>
<totfact> 0.18297062E+00</totfact>
</mgrwt>
</event>
<event>
12    1  0.1532786E-007  0.1362132E+04  0.7818608E-02  0.8981695E-01
         -2   -1    0    0    0  501 -0.00000000000E+00  0.00000000000E+00  0.10304711441E+04  0.10304711441E+04  0.00000000000E+00 0.  1.
          2   -1    0    0  501    0  0.00000000000E+00 -0.00000000000E+00 -0.45013502166E+03  0.45013502166E+03  0.00000000000E+00 0. -1.
         23    2    1    2    0    0 -0.41500026037E+01  0.26594161476E+03 -0.12061551279E+03  0.30607992163E+03  0.91622330901E+02 0.  0.
        254    2    1    2    0    0  0.41500026037E+01 -0.26594161476E+03  0.70095163523E+03  0.11745262441E+04  0.90412197090E+03 0.  0.
        -24    2    4    4    0    0  0.38635536750E+03 -0.30462150703E+02  0.58123329652E+03  0.70320117107E+03  0.80382394706E+02 0.  0.
         24    2    4    4    0    0 -0.38220536490E+03 -0.23547946406E+03  0.11971833870E+03  0.47132507307E+03  0.79267426675E+02 0.  0.
         13    1    3    3    0    0  0.10793477443E+02  0.89792984072E+02 -0.88246652061E+02  0.12635960883E+03  0.00000000000E+00 0. -1.
        -13    1    3    3    0    0 -0.14943480046E+02  0.17614863069E+03 -0.32368860724E+02  0.17972031280E+03  0.00000000000E+00 0.  1.
          2    1    6    6  502    0 -0.15008417906E+02 -0.20565481300E+02 -0.86931465751E+01  0.26902833058E+02  0.00000000000E+00 0. -1.
          3    1    5    5  503    0  0.51168234184E+02  0.10852370231E+02  0.12555786664E+03  0.13601742537E+03  0.00000000000E+00 0. -1.
         -4    1    5    5    0  503  0.33518713332E+03 -0.41314520934E+02  0.45567542988E+03  0.56718374569E+03  0.00000000000E+00 0.  1.
         -3    1    6    6    0  502 -0.36719694700E+03 -0.21491398276E+03  0.12841148528E+03  0.44442224001E+03  0.00000000000E+00 0.  1.
<mgrwt>
<rscale>  0 0.13621324E+04</rscale>
<asrwt>0</asrwt>
<pdfrwt beam="1">  1        2 0.69251542E-01 0.13621324E+04</pdfrwt>
<pdfrwt beam="2">  1       -2 0.15853402E+00 0.13621324E+04</pdfrwt>
<totfact> 0.17506019E+01</totfact>
</mgrwt>
</event>
<event>
12    1  0.1532786E-007  0.1810532E+04  0.7818608E-02  0.8700719E-01
         -2   -1    0    0    0  501 -0.00000000000E+00  0.00000000000E+00  0.34950688285E+03  0.34950688285E+03  0.00000000000E+00 0. -1.
          2   -1    0    0  501    0  0.00000000000E+00 -0.00000000000E+00 -0.23447514573E+04  0.23447514573E+04  0.00000000000E+00 0.  1.
         23    2    1    2    0    0  0.59618989071E+03  0.19947644842E+03 -0.11125246810E+04  0.12810916835E+04  0.90837746887E+02 0.  0.
        254    2    1    2    0    0 -0.59618989071E+03 -0.19947644842E+03 -0.88271989345E+03  0.14131666567E+04  0.90697979587E+03 0.  0.
        -24    2    4    4    0    0 -0.21688789077E+03 -0.16412465251E+03  0.14236371592E+03  0.31669585636E+03  0.77791896124E+02 0.  0.
         24    2    4    4    0    0 -0.37930199994E+03 -0.35351795916E+02 -0.10250836094E+04  0.10964708004E+04  0.79574199361E+02 0.  0.
         13    1    3    3    0    0  0.53580756279E+02  0.31563370540E+02 -0.68188474509E+02  0.92286574642E+02  0.00000000000E+00 0. -1.
        -13    1    3    3    0    0  0.54260913443E+03  0.16791307788E+03 -0.10443362065E+04  0.11888051088E+04  0.00000000000E+00 0.  1.
          4    1    6    6  502    0 -0.18842978714E+03 -0.54100209507E+02 -0.47275463144E+03  0.51179054202E+03  0.00000000000E+00 0. -1.
          1    1    5    5  503    0 -0.95969962354E+02 -0.46831721182E+02  0.91771409815E+02  0.14080282470E+03  0.00000000000E+00 0. -1.
         -2    1    5    5    0  503 -0.12091792842E+03 -0.11729293133E+03  0.50592306108E+02  0.17589303167E+03  0.00000000000E+00 0.  1.
         -3    1    6    6    0  502 -0.19087221280E+03  0.18748413591E+02 -0.55232897793E+03  0.58468025834E+03  0.00000000000E+00 0.  1.
<mgrwt>
<rscale>  0 0.18105323E+04</rscale>
<asrwt>0</asrwt>
<pdfrwt beam="1">  1        2 0.36073100E+00 0.18105323E+04</pdfrwt>
<pdfrwt beam="2">  1       -2 0.53770289E-01 0.18105323E+04</pdfrwt>
<totfact> 0.13149401E+01</totfact>
</mgrwt>
</event>
<event>
12    1  0.1532786E-007  0.3455087E+04  0.7818608E-02  0.8124517E-01
         -2   -1    0    0    0  501 -0.00000000000E+00  0.00000000000E+00  0.28010707269E+04  0.28010707269E+04  0.00000000000E+00 0. -1.
          2   -1    0    0  501    0  0.00000000000E+00 -0.00000000000E+00 -0.10654522729E+04  0.10654522729E+04  0.00000000000E+00 0.  1.
         23    2    1    2    0    0 -0.99178162673E+03 -0.12334289322E+04  0.11204235897E+04  0.19411374489E+04  0.87680381366E+02 0.  0.
        254    2    1    2    0    0  0.99178162673E+03  0.12334289322E+04  0.61519486439E+03  0.19253855509E+04  0.90756105720E+03 0.  0.
        -24    2    4    4    0    0 -0.11901679831E+03 -0.22376958020E+02  0.40999525606E+02  0.15124996539E+03  0.80807576379E+02 0.  0.
         24    2    4    4    0    0  0.11107984250E+04  0.12558058903E+04  0.57419533879E+03  0.17741355855E+04  0.83277930358E+02 0.  0.
         11    1    3    3    0    0 -0.21988410854E+03 -0.28771197489E+03  0.21341733573E+03  0.42032625527E+03  0.00000000000E+00 0.  1.
        -11    1    3    3    0    0 -0.77189751820E+03 -0.94571695735E+03  0.90700625393E+03  0.15208111936E+04  0.00000000000E+00 0. -1.
          4    1    6    6  502    0  0.77715291811E+03  0.91247530645E+03  0.44201415469E+03  0.12774796891E+04  0.00000000000E+00 0. -1.
          1    1    5    5  503    0  0.10507219297E+02 -0.50819596789E+01 -0.50259473861E+01  0.12707797553E+02  0.00000000000E+00 0. -1.
         -2    1    5    5    0  503 -0.12952401761E+03 -0.17294998341E+02  0.46025472992E+02  0.13854216784E+03  0.00000000000E+00 0.  1.
         -3    1    6    6    0  502  0.33364550694E+03  0.34333058380E+03  0.13218118410E+03  0.49665589648E+03  0.00000000000E+00 0.  1.
<mgrwt>
<rscale>  0 0.34550874E+04</rscale>
<asrwt>0</asrwt>
<pdfrwt beam="1">  1        2 0.16391574E+00 0.34550874E+04</pdfrwt>
<pdfrwt beam="2">  1       -2 0.43093395E+00 0.34550874E+04</pdfrwt>
<totfact> 0.87539917E-02</totfact>
</mgrwt>
</event>
<event>
12    1  0.1532786E-007  0.1993756E+04  0.7818608E-02  0.8609546E-01
         -2   -1    0    0    0  501 -0.00000000000E+00  0.00000000000E+00  0.10137619099E+04  0.10137619099E+04  0.00000000000E+00 0.  1.
          2   -1    0    0  501    0  0.00000000000E+00 -0.00000000000E+00 -0.98027517051E+03  0.98027517051E+03  0.00000000000E+00 0. -1.
         23    2    1    2    0    0 -0.40997156119E+02 -0.32811927345E+03  0.73935186181E+03  0.81462980275E+03  0.87392880398E+02 0.  0.
        254    2    1    2    0    0  0.40997156119E+02  0.32811927345E+03 -0.70586512242E+03  0.11794072777E+04  0.88510616942E+03 0.  0.
        -24    2    4    4    0    0 -0.20885677691E+02 -0.10183633340E+03  0.15810961648E+03  0.20914352431E+03  0.89081494156E+02 0.  0.
         24    2    4    4    0    0  0.61882833810E+02  0.42995560686E+03 -0.86397473890E+03  0.97026375336E+03  0.79171286686E+02 0.  0.
         13    1    3    3    0    0 -0.85964226412E+01 -0.15828714589E+03  0.25405119913E+03  0.29945071517E+03  0.00000000000E+00 0. -1.
        -13    1    3    3    0    0 -0.32400733478E+02 -0.16983212757E+03  0.48530066269E+03  0.51517908759E+03  0.00000000000E+00 0.  1.
          2    1    6    6  502    0  0.22646901173E+02  0.31367467309E+03 -0.67880744172E+03  0.74812046196E+03  0.00000000000E+00 0. -1.
          3    1    5    5  503    0 -0.52796096032E+00 -0.31271091172E+02  0.12451282236E+03  0.12838069488E+03  0.00000000000E+00 0. -1.
         -4    1    5    5    0  503 -0.20357716731E+02 -0.70565242230E+02  0.33596794124E+02  0.80762829426E+02  0.00000000000E+00 0.  1.
         -1    1    6    6    0  502  0.39235932637E+02  0.11628093377E+03 -0.18516729718E+03  0.22214329140E+03  0.00000000000E+00 0.  1.
<mgrwt>
<rscale>  0 0.19937559E+04</rscale>
<asrwt>0</asrwt>
<pdfrwt beam="1">  1        2 0.15081156E+00 0.19937559E+04</pdfrwt>
<pdfrwt beam="2">  1       -2 0.15596337E+00 0.19937559E+04</pdfrwt>
<totfact> 0.65083868E+00</totfact>
</mgrwt>
</event>
<event>
12    1  0.1532786E-007  0.1364066E+04  0.7818608E-02  0.8980248E-01
          1   -1    0    0  501    0  0.00000000000E+00  0.00000000000E+00  0.49762953085E+03  0.49762953085E+03  0.00000000000E+00 0. -1.
         -1   -1    0    0    0  501 -0.00000000000E+00 -0.00000000000E+00 -0.93476915584E+03  0.93476915584E+03  0.00000000000E+00 0.  1.
         23    2    1    2    0    0  0.35842756059E+03 -0.18658616640E+02  0.29414966749E+02  0.36494679941E+03  0.59181635382E+02 0.  0.
        254    2    1    2    0    0 -0.35842756059E+03  0.18658616640E+02 -0.46655459174E+03  0.10674518873E+04  0.89048407308E+03 0.  0.
        -24    2    4    4    0    0 -0.28967390843E+03 -0.15851414983E+03  0.18300481970E+03  0.38592811815E+03  0.80075211045E+02 0.  0.
         24    2    4    4    0    0 -0.68753652161E+02  0.17717276647E+03 -0.64955941145E+03  0.68152376913E+03  0.80187062665E+02 0.  0.
         11    1    3    3    0    0  0.21702881488E+03 -0.17628062833E+02 -0.10569049565E+02  0.21799990802E+03  0.00000000000E+00 0.  1.
        -11    1    3    3    0    0  0.14139874571E+03 -0.10305538072E+01  0.39984016313E+02  0.14694689139E+03  0.00000000000E+00 0. -1.
          2    1    6    6  502    0 -0.96826471510E+01  0.68454314337E+01 -0.61962232537E+01  0.13379341164E+02  0.00000000000E+00 0. -1.
          3    1    5    5  503    0 -0.86068081308E+02 -0.16649213913E+02  0.22894039598E+02  0.90603796791E+02  0.00000000000E+00 0. -1.
         -4    1    5    5    0  503 -0.20360582712E+03 -0.14186493591E+03  0.16011078011E+03  0.29532432136E+03  0.00000000000E+00 0.  1.
         -1    1    6    6    0  502 -0.59071005010E+02  0.17032733503E+03 -0.64336318820E+03  0.66814442796E+03  0.00000000000E+00 0.  1.
<mgrwt>
<rscale>  0 0.13640656E+04</rscale>
<asrwt>0</asrwt>
<pdfrwt beam="1">  1        1 0.76558390E-01 0.13640656E+04</pdfrwt>
<pdfrwt beam="2">  1       -1 0.14381064E+00 0.13640656E+04</pdfrwt>
<totfact> 0.17038279E+01</totfact>
</mgrwt>
</event>
<event>
12    1  0.1532786E-007  0.1124382E+04  0.7818608E-02  0.9181748E-01
         -2   -1    0    0    0  501 -0.00000000000E+00  0.00000000000E+00  0.21310392547E+03  0.21310392547E+03  0.00000000000E+00 0. -1.
          2   -1    0    0  501    0  0.00000000000E+00 -0.00000000000E+00 -0.14831203149E+04  0.14831203149E+04  0.00000000000E+00 0.  1.
         23    2    1    2    0    0 -0.50791098492E+02  0.28774211291E+01  0.36303458482E+02  0.10763555110E+03  0.87632502678E+02 0.  0.
        254    2    1    2    0    0  0.50791098492E+02 -0.28774211291E+01 -0.13063198479E+04  0.15885886893E+04  0.90252671061E+03 0.  0.
        -24    2    4    4    0    0  0.41637065627E+03 -0.21077371798E+03 -0.73793146894E+03  0.87694190056E+03  0.81817849622E+02 0.  0.
         24    2    4    4    0    0 -0.36557955778E+03  0.20789629685E+03 -0.56838837899E+03  0.71164678872E+03  0.80662997717E+02 0.  0.
         13    1    3    3    0    0  0.84209287881E+01  0.20895810189E+02 -0.15149462320E+02  0.27148722506E+02  0.00000000000E+00 0.  1.
        -13    1    3    3    0    0 -0.59212027280E+02 -0.18018389060E+02  0.51452920801E+02  0.80486828599E+02  0.00000000000E+00 0. -1.
          4    1    6    6  502    0 -0.10203948599E+03  0.42677978274E+02 -0.20808579298E+03  0.23565475546E+03  0.00000000000E+00 0. -1.
          1    1    5    5  503    0  0.31030080713E+02 -0.58507181232E+01 -0.92994050334E+02  0.98208911047E+02  0.00000000000E+00 0. -1.
         -2    1    5    5    0  503  0.38534057556E+03 -0.20492299986E+03 -0.64493741860E+03  0.77873298952E+03  0.00000000000E+00 0.  1.
         -3    1    6    6    0  502 -0.26354007179E+03  0.16521831858E+03 -0.36030258601E+03  0.47599203325E+03  0.00000000000E+00 0.  1.
<mgrwt>
<rscale>  0 0.11243821E+04</rscale>
<asrwt>0</asrwt>
<pdfrwt beam="1">  1        2 0.22817236E+00 0.11243821E+04</pdfrwt>
<pdfrwt beam="2">  1       -2 0.32785219E-01 0.11243821E+04</pdfrwt>
<totfact> 0.11154315E+02</totfact>
</mgrwt>
</event>
<event>
12    1  0.1532786E-007  0.1971374E+04  0.7818608E-02  0.8620122E-01
          2   -1    0    0  501    0  0.00000000000E+00  0.00000000000E+00  0.63913193289E+03  0.63913193289E+03  0.00000000000E+00 0. -1.
         -2   -1    0    0    0  501 -0.00000000000E+00 -0.00000000000E+00 -0.15201542169E+04  0.15201542169E+04  0.00000000000E+00 0.  1.
         23    2    1    2    0    0 -0.26501880979E+03 -0.20008306710E+03  0.42220514058E+03  0.54354809992E+03  0.83181445668E+02 0.  0.
        254    2    1    2    0    0  0.26501880979E+03  0.20008306710E+03 -0.13032274246E+04  0.16157380499E+04  0.89551076058E+03 0.  0.
        -24    2    4    4    0    0 -0.57148677536E+02  0.48430196147E+03 -0.86603353891E+03  0.99725361163E+03  0.81769885391E+02 0.  0.
         24    2    4    4    0    0  0.32216748733E+03 -0.28421889438E+03 -0.43719388570E+03  0.61848443826E+03  0.82536276061E+02 0.  0.
         13    1    3    3    0    0 -0.65739242264E+02 -0.20596343678E+02  0.51557318020E+02  0.86046582662E+02  0.00000000000E+00 0.  1.
        -13    1    3    3    0    0 -0.19927956753E+03 -0.17948672342E+03  0.37064782256E+03  0.45750151725E+03  0.00000000000E+00 0. -1.
          4    1    6    6  502    0  0.14229809822E+03 -0.13245584138E+03 -0.14088187637E+03  0.24008540514E+03  0.00000000000E+00 0. -1.
          3    1    5    5  503    0 -0.15672791455E+02  0.35879495623E+03 -0.68042581218E+03  0.76938855131E+03  0.00000000000E+00 0. -1.
         -4    1    5    5    0  503 -0.41475886081E+02  0.12550700524E+03 -0.18560772673E+03  0.22786506032E+03  0.00000000000E+00 0.  1.
         -3    1    6    6    0  502  0.17986938911E+03 -0.15176305300E+03 -0.29631200933E+03  0.37839903312E+03  0.00000000000E+00 0.  1.
<mgrwt>
<rscale>  0 0.19713742E+04</rscale>
<asrwt>0</asrwt>
<pdfrwt beam="1">  1        2 0.98327990E-01 0.19713742E+04</pdfrwt>
<pdfrwt beam="2">  1       -2 0.23386988E+00 0.19713742E+04</pdfrwt>
<totfact> 0.34557270E+00</totfact>
</mgrwt>
</event>
<event>
12    1  0.1532786E-007  0.1656339E+04  0.7818608E-02  0.8786665E-01
          2   -1    0    0  501    0  0.00000000000E+00  0.00000000000E+00  0.19282035634E+04  0.19282035634E+04  0.00000000000E+00 0. -1.
         -2   -1    0    0    0  501 -0.00000000000E+00 -0.00000000000E+00 -0.35570124525E+03  0.35570124525E+03  0.00000000000E+00 0.  1.
         23    2    1    2    0    0  0.66518289885E+02 -0.78541711757E+02  0.13538413135E+04  0.13599008500E+04  0.76488798901E+02 0.  0.
        254    2    1    2    0    0 -0.66518289885E+02  0.78541711757E+02  0.21866100464E+03  0.92400395863E+03  0.89183922163E+03 0.  0.
        -24    2    4    4    0    0  0.78178504510E+02 -0.86347866130E+02  0.52291931981E+03  0.54103132120E+03  0.75514521359E+02 0.  0.
         24    2    4    4    0    0 -0.14469679440E+03  0.16488957789E+03 -0.30425831517E+03  0.38297263743E+03  0.77260490958E+02 0.  0.
         13    1    3    3    0    0  0.74192706275E+02 -0.40561597633E+02  0.73503515624E+03  0.73988274867E+03  0.00000000000E+00 0. -1.
        -13    1    3    3    0    0 -0.76744163901E+01 -0.37980114124E+02  0.61880615727E+03  0.62001810135E+03  0.00000000000E+00 0.  1.
          2    1    6    6  502    0 -0.35860527991E+02  0.97491966914E+02 -0.12172600230E+03  0.16002462534E+03  0.00000000000E+00 0. -1.
          1    1    5    5  503    0  0.38048720554E+02 -0.88075433119E+02  0.41315241436E+03  0.42414608869E+03  0.00000000000E+00 0. -1.
         -2    1    5    5    0  503  0.40129783956E+02  0.17275669888E+01  0.10976690545E+03  0.11688523251E+03  0.00000000000E+00 0.  1.
         -1    1    6    6    0  502 -0.10883626640E+03  0.67397610973E+02 -0.18253231287E+03  0.22294801208E+03  0.00000000000E+00 0.  1.
<mgrwt>
<rscale>  0 0.16563386E+04</rscale>
<asrwt>0</asrwt>
<pdfrwt beam="1">  1        2 0.29664670E+00 0.16563386E+04</pdfrwt>
<pdfrwt beam="2">  1       -2 0.54723270E-01 0.16563386E+04</pdfrwt>
<totfact> 0.21972442E+01</totfact>
</mgrwt>
</event>
<event>
12    1  0.1532786E-007  0.2113657E+04  0.7818608E-02  0.8555251E-01
         -1   -1    0    0    0  501 -0.00000000000E+00  0.00000000000E+00  0.35215387504E+03  0.35215387504E+03  0.00000000000E+00 0.  1.
          1   -1    0    0  501    0  0.00000000000E+00 -0.00000000000E+00 -0.31715867605E+04  0.31715867605E+04  0.00000000000E+00 0. -1.
         23    2    1    2    0    0  0.80395045937E+03  0.58129219801E+02 -0.16566926868E+04  0.18448616278E+04  0.95751867015E+02 0.  0.
        254    2    1    2    0    0 -0.80395045937E+03 -0.58129219801E+02 -0.11627401987E+04  0.16788790077E+04  0.90385541191E+03 0.  0.
        -24    2    4    4    0    0 -0.36391937010E+03  0.25074780255E+03 -0.10240294999E+04  0.11181255555E+04  0.79098501004E+02 0.  0.
         24    2    4    4    0    0 -0.44003108928E+03 -0.30887702235E+03 -0.13871069883E+03  0.56075345223E+03  0.78558269785E+02 0.  0.
         11    1    3    3    0    0  0.71189888519E+03  0.28940310449E+02 -0.15034331406E+04  0.16637153520E+04  0.00000000000E+00 0. -1.
        -11    1    3    3    0    0  0.92051574180E+02  0.29188909352E+02 -0.15325954620E+03  0.18114627581E+03  0.00000000000E+00 0.  1.
          2    1    6    6  502    0 -0.20746145090E+03 -0.10480685863E+03 -0.80072693895E+02  0.24583809211E+03  0.00000000000E+00 0. -1.
          1    1    5    5  503    0 -0.77697827722E+02  0.96127297012E+02 -0.27483442253E+03  0.30134924834E+03  0.00000000000E+00 0. -1.
         -2    1    5    5    0  503 -0.28622154237E+03  0.15462050554E+03 -0.74919507732E+03  0.81677630716E+03  0.00000000000E+00 0.  1.
         -1    1    6    6    0  502 -0.23256963838E+03 -0.20407016372E+03 -0.58638004932E+02  0.31491536012E+03  0.00000000000E+00 0.  1.
<mgrwt>
<rscale>  0 0.21136571E+04</rscale>
<asrwt>0</asrwt>
<pdfrwt beam="1">  1        1 0.48793645E+00 0.21136571E+04</pdfrwt>
<pdfrwt beam="2">  1       -1 0.54177517E-01 0.21136571E+04</pdfrwt>
<totfact> 0.14134928E+00</totfact>
</mgrwt>
</event>
<event>
12    1  0.1532786E-007  0.2522511E+04  0.7818608E-02  0.8395010E-01
          2   -1    0    0  501    0  0.00000000000E+00  0.00000000000E+00  0.58789418741E+03  0.58789418741E+03  0.00000000000E+00 0.  1.
         -2   -1    0    0    0  501 -0.00000000000E+00 -0.00000000000E+00 -0.27058700542E+04  0.27058700542E+04  0.00000000000E+00 0. -1.
         23    2    1    2    0    0 -0.70253502673E+03 -0.10101611119E+02  0.17770139863E+03  0.73018807217E+03  0.89102903076E+02 0.  0.
        254    2    1    2    0    0  0.70253502673E+03  0.10101611119E+02 -0.22956772654E+04  0.25635761694E+04  0.89896115777E+03 0.  0.
        -24    2    4    4    0    0  0.88835767893E+02  0.22961909473E+02 -0.17006589940E+04  0.17049827476E+04  0.79411037287E+02 0.  0.
         24    2    4    4    0    0  0.61369925883E+03 -0.12860298355E+02 -0.59501827137E+03  0.85859342177E+03  0.79647680904E+02 0.  0.
         11    1    3    3    0    0 -0.45853785088E+03  0.15777007650E+02  0.78252365903E+02  0.46543453613E+03  0.00000000000E+00 0.  1.
        -11    1    3    3    0    0 -0.24399717585E+03 -0.25878618769E+02  0.99449032728E+02  0.26475353604E+03  0.00000000000E+00 0. -1.
          4    1    6    6  502    0  0.54097382556E+03 -0.36345636053E+02 -0.53092738638E+03  0.75885280180E+03  0.00000000000E+00 0. -1.
          3    1    5    5  503    0  0.95398524005E+02  0.22013855648E+02 -0.16865917027E+04  0.16894309870E+04  0.00000000000E+00 0. -1.
         -4    1    5    5    0  503 -0.65627561124E+01  0.94805382528E+00 -0.14067291375E+02  0.15551760687E+02  0.00000000000E+00 0.  1.
         -3    1    6    6    0  502  0.72725433275E+02  0.23485337698E+02 -0.64090884988E+02  0.99740619962E+02  0.00000000000E+00 0.  1.
<mgrwt>
<rscale>  0 0.25225109E+04</rscale>
<asrwt>0</asrwt>
<pdfrwt beam="1">  1        2 0.90445261E-01 0.25225109E+04</pdfrwt>
<pdfrwt beam="2">  1       -2 0.41628769E+00 0.25225109E+04</pdfrwt>
<totfact> 0.26253191E-01</totfact>
</mgrwt>
</event>
<event>
12    1  0.1532786E-007  0.2151779E+04  0.7818608E-02  0.8538771E-01
         -2   -1    0    0    0  501 -0.00000000000E+00  0.00000000000E+00  0.65609979525E+03  0.65609979525E+03  0.00000000000E+00 0.  1.
          2   -1    0    0  501    0  0.00000000000E+00 -0.00000000000E+00 -0.17642709218E+04  0.17642709218E+04  0.00000000000E+00 0. -1.
         23    2    1    2    0    0  0.20682512285E+03 -0.65539427745E+03  0.17020471784E+03  0.71393771637E+03  0.91755798274E+02 0.  0.
        254    2    1    2    0    0 -0.20682512285E+03  0.65539427745E+03 -0.12783758443E+04  0.17064330006E+04  0.89741322473E+03 0.  0.
        -24    2    4    4    0    0 -0.33487328031E+03  0.43186905284E+03 -0.13223090488E+04  0.14330689983E+04  0.80836506247E+02 0.  0.
         24    2    4    4    0    0  0.12804815746E+03  0.22352522461E+03  0.43933204448E+02  0.27336400233E+03  0.80236492005E+02 0.  0.
         11    1    3    3    0    0  0.13593800121E+03 -0.29944398858E+03  0.57049607186E+02  0.33376713461E+03  0.00000000000E+00 0. -1.
        -11    1    3    3    0    0  0.70887121649E+02 -0.35595028888E+03  0.11315511065E+03  0.38017058176E+03  0.00000000000E+00 0.  1.
          4    1    6    6  502    0  0.50770540316E+01  0.10816786066E+01  0.16993968996E+02  0.17769116142E+02  0.00000000000E+00 0. -1.
          3    1    5    5  503    0 -0.69516104920E+02  0.71530252440E+02 -0.32499367463E+03  0.33995581244E+03  0.00000000000E+00 0. -1.
         -2    1    5    5    0  503 -0.26535717539E+03  0.36033880040E+03 -0.99731537416E+03  0.10931131859E+04  0.00000000000E+00 0.  1.
         -3    1    6    6    0  502  0.12297110343E+03  0.22244354600E+03  0.26939235453E+02  0.25559488619E+03  0.00000000000E+00 0.  1.
<mgrwt>
<rscale>  0 0.21517786E+04</rscale>
<asrwt>0</asrwt>
<pdfrwt beam="1">  1        2 0.27142629E+00 0.21517786E+04</pdfrwt>
<pdfrwt beam="2">  1       -2 0.10093843E+00 0.21517786E+04</pdfrwt>
<totfact> 0.66960609E+00</totfact>
</mgrwt>
</event>
<event>
12    1  0.1532786E-007  0.1436843E+04  0.7818608E-02  0.8927573E-01
          2   -1    0    0  501    0  0.00000000000E+00  0.00000000000E+00  0.10152377718E+04  0.10152377718E+04  0.00000000000E+00 0. -1.
         -2   -1    0    0    0  501 -0.00000000000E+00 -0.00000000000E+00 -0.50838288813E+03  0.50838288813E+03  0.00000000000E+00 0.  1.
         23    2    1    2    0    0 -0.32080862470E+03 -0.30598084169E+02 -0.16661493295E+03  0.37420260313E+03  0.91720422306E+02 0.  0.
        254    2    1    2    0    0  0.32080862470E+03  0.30598084169E+02  0.67346981658E+03  0.11494180568E+04  0.87392554540E+03 0.  0.
        -24    2    4    4    0    0  0.18137693775E+03  0.44024651183E+03  0.27319785401E+03  0.55458119469E+03  0.78794982961E+02 0.  0.
         24    2    4    4    0    0  0.13943168694E+03 -0.40964842766E+03  0.40027196257E+03  0.59483686206E+03  0.79750980157E+02 0.  0.
         11    1    3    3    0    0 -0.19968999344E+02 -0.21595800330E+02 -0.34975353822E+02  0.45699178348E+02  0.00000000000E+00 0. -1.
        -11    1    3    3    0    0 -0.30083962535E+03 -0.90022838398E+01 -0.13163957913E+03  0.32850342478E+03  0.00000000000E+00 0.  1.
          2    1    6    6  502    0  0.13816528450E+03 -0.32932291339E+03  0.35014796933E+03  0.50014680600E+03  0.00000000000E+00 0. -1.
          1    1    5    5  503    0  0.97586684629E+02  0.26405476993E+03  0.11783193698E+03  0.30517609328E+03  0.00000000000E+00 0. -1.
         -2    1    5    5    0  503  0.83790253124E+02  0.17619174190E+03  0.15536591703E+03  0.24940510141E+03  0.00000000000E+00 0.  1.
         -1    1    6    6    0  502  0.12664024429E+01 -0.80325514278E+02  0.50123993234E+02  0.94690056061E+02  0.00000000000E+00 0.  1.
<mgrwt>
<rscale>  0 0.14368431E+04</rscale>
<asrwt>0</asrwt>
<pdfrwt beam="1">  1        2 0.15619043E+00 0.14368431E+04</pdfrwt>
<pdfrwt beam="2">  1       -2 0.78212752E-01 0.14368431E+04</pdfrwt>
<totfact> 0.34774464E+01</totfact>
</mgrwt>
</event>
<event>
12    1  0.1532786E-007  0.1865499E+04  0.7818608E-02  0.8672223E-01
         -1   -1    0    0    0  501 -0.00000000000E+00  0.00000000000E+00  0.61314534223E+03  0.61314534223E+03  0.00000000000E+00 0.  1.
          1   -1    0    0  501    0  0.00000000000E+00 -0.00000000000E+00 -0.14189489312E+04  0.14189489312E+04  0.00000000000E+00 0. -1.
         23    2    1    2    0    0  0.23713295598E+03 -0.62906229423E+03 -0.50191070989E+02  0.68025713898E+03  0.90990234073E+02 0.  0.
        254    2    1    2    0    0 -0.23713295598E+03  0.62906229423E+03 -0.75561251795E+03  0.13518371344E+04  0.89697377433E+03 0.  0.
        -24    2    4    4    0    0  0.12430978110E+03 -0.16862232441E+03 -0.64215034785E+02  0.23293788074E+03  0.79057419775E+02 0.  0.
         24    2    4    4    0    0 -0.36144273708E+03  0.79768461865E+03 -0.69139748317E+03  0.11188992537E+04  0.83447331394E+02 0.  0.
         13    1    3    3    0    0  0.17518015735E+03 -0.53786312487E+03 -0.20348099448E+02  0.56603787310E+03  0.00000000000E+00 0.  1.
        -13    1    3    3    0    0  0.61952798630E+02 -0.91199169356E+02 -0.29842971541E+02  0.11421926589E+03  0.00000000000E+00 0. -1.
          4    1    6    6  502    0 -0.17681269705E+03  0.29340548343E+03 -0.25956263055E+03  0.42979328370E+03  0.00000000000E+00 0. -1.
          1    1    5    5  503    0  0.80946935047E+02 -0.54774949025E+02 -0.51428616978E+02  0.11044276336E+03  0.00000000000E+00 0. -1.
         -4    1    5    5    0  503  0.43362846056E+02 -0.11384737539E+03 -0.12786417806E+02  0.12249511738E+03  0.00000000000E+00 0.  1.
         -3    1    6    6    0  502 -0.18463004003E+03  0.50427913522E+03 -0.43183485262E+03  0.68910596997E+03  0.00000000000E+00 0.  1.
<mgrwt>
<rscale>  0 0.18654993E+04</rscale>
<asrwt>0</asrwt>
<pdfrwt beam="1">  1        1 0.21829983E+00 0.18654993E+04</pdfrwt>
<pdfrwt beam="2">  1       -1 0.94330053E-01 0.18654993E+04</pdfrwt>
<totfact> 0.76064273E+00</totfact>
</mgrwt>
</event>
<event>
12    1  0.1532786E-007  0.1377636E+04  0.7818608E-02  0.8970167E-01
         -2   -1    0    0    0  501 -0.00000000000E+00  0.00000000000E+00  0.18446704550E+03  0.18446704550E+03  0.00000000000E+00 0.  1.
          2   -1    0    0  501    0  0.00000000000E+00 -0.00000000000E+00 -0.25721149968E+04  0.25721149968E+04  0.00000000000E+00 0. -1.
         23    2    1    2    0    0 -0.28656874407E+03  0.22833377400E+03 -0.45744909547E+03  0.59338142257E+03  0.92649232482E+02 0.  0.
        254    2    1    2    0    0  0.28656874407E+03 -0.22833377400E+03 -0.19301988558E+04  0.21632006197E+04  0.90526865664E+03 0.  0.
        -24    2    4    4    0    0  0.17075452930E+03  0.33825386740E+03 -0.88555066404E+03  0.96647323235E+03  0.79358315097E+02 0.  0.
         24    2    4    4    0    0  0.11581421477E+03 -0.56658764140E+03 -0.10446481918E+04  0.11967273874E+04  0.80200419964E+02 0.  0.
         13    1    3    3    0    0 -0.12977662040E+03  0.14152666668E+03 -0.18072630714E+03  0.26369256090E+03  0.00000000000E+00 0.  1.
        -13    1    3    3    0    0 -0.15679212368E+03  0.86807107320E+02 -0.27672278833E+03  0.32968886167E+03  0.00000000000E+00 0. -1.
          2    1    6    6  502    0  0.10204954960E+02 -0.13177905724E+02 -0.12530474184E+02  0.20852124312E+02  0.00000000000E+00 0. -1.
          1    1    5    5  503    0  0.41904708364E+02  0.34768419631E+02 -0.88328670298E+02  0.10376319956E+03  0.00000000000E+00 0. -1.
         -2    1    5    5    0  503  0.12884982094E+03  0.30348544777E+03 -0.79722199374E+03  0.86271003279E+03  0.00000000000E+00 0.  1.
         -1    1    6    6    0  502  0.10560925981E+03 -0.55340973567E+03 -0.10321177176E+04  0.11758752631E+04  0.00000000000E+00 0.  1.
<mgrwt>
<rscale>  0 0.13776363E+04</rscale>
<asrwt>0</asrwt>
<pdfrwt beam="1">  1        2 0.39571000E+00 0.13776363E+04</pdfrwt>
<pdfrwt beam="2">  1       -2 0.28379546E-01 0.13776363E+04</pdfrwt>
<totfact> 0.35187810E+01</totfact>
</mgrwt>
</event>
<event>
12    1  0.1532786E-007  0.1381476E+04  0.7818608E-02  0.8967337E-01
         -2   -1    0    0    0  501 -0.00000000000E+00  0.00000000000E+00  0.64495263514E+03  0.64495263514E+03  0.00000000000E+00 0.  1.
          2   -1    0    0  501    0  0.00000000000E+00 -0.00000000000E+00 -0.73977415857E+03  0.73977415857E+03  0.00000000000E+00 0. -1.
         23    2    1    2    0    0 -0.17054880225E+03  0.19126077723E+03 -0.31260919417E+03  0.41399493956E+03  0.89441169736E+02 0.  0.
        254    2    1    2    0    0  0.17054880225E+03 -0.19126077723E+03  0.21778767073E+03  0.97073185415E+03  0.91061588186E+03 0.  0.
        -24    2    4    4    0    0  0.33402481907E+03 -0.19663858249E+03  0.49838895795E+03  0.63630371454E+03  0.79066755683E+02 0.  0.
         24    2    4    4    0    0 -0.16347601682E+03  0.53778052555E+01 -0.28060128722E+03  0.33442813961E+03  0.79697988125E+02 0.  0.
         13    1    3    3    0    0 -0.11854993160E+03  0.12234591809E+03 -0.26602040523E+03  0.31589470707E+03  0.00000000000E+00 0. -1.
        -13    1    3    3    0    0 -0.51998870652E+02  0.68914859139E+02 -0.46588788937E+02  0.98100232486E+02  0.00000000000E+00 0.  1.
          2    1    6    6  502    0 -0.62112891040E+02  0.24514159291E+02 -0.17266153230E+03  0.18512417448E+03  0.00000000000E+00 0. -1.
          1    1    5    5  503    0  0.29855778318E+03 -0.15694825499E+03  0.46116237363E+03  0.57134948980E+03  0.00000000000E+00 0. -1.
         -2    1    5    5    0  503  0.35467035894E+02 -0.39690327496E+02  0.37226584320E+02  0.64954224743E+02  0.00000000000E+00 0.  1.
         -1    1    6    6    0  502 -0.10136312578E+03 -0.19136354035E+02 -0.10793975492E+03  0.14930396514E+03  0.00000000000E+00 0.  1.
<mgrwt>
<rscale>  0 0.13814764E+04</rscale>
<asrwt>0</asrwt>
<pdfrwt beam="1">  1        2 0.11381141E+00 0.13814764E+04</pdfrwt>
<pdfrwt beam="2">  1       -2 0.99223482E-01 0.13814764E+04</pdfrwt>
<totfact> 0.31310574E+01</totfact>
</mgrwt>
</event>
<event>
12    1  0.1532786E-007  0.1476357E+04  0.7818608E-02  0.8900329E-01
          1   -1    0    0  501    0  0.00000000000E+00  0.00000000000E+00  0.13147719913E+04  0.13147719913E+04  0.00000000000E+00 0. -1.
         -1   -1    0    0    0  501 -0.00000000000E+00 -0.00000000000E+00 -0.41445023824E+03  0.41445023824E+03  0.00000000000E+00 0.  1.
         23    2    1    2    0    0  0.15720807033E+03  0.41188613038E+03  0.36172366728E+03  0.57773081218E+03  0.92543601079E+02 0.  0.
        254    2    1    2    0    0 -0.15720807033E+03 -0.41188613038E+03  0.53859808581E+03  0.11514914174E+04  0.91732220320E+03 0.  0.
        -24    2    4    4    0    0 -0.34551765638E+03 -0.41879003990E+03  0.70003191375E+03  0.88947161775E+03  0.79671388351E+02 0.  0.
         24    2    4    4    0    0  0.18830958604E+03  0.69039095253E+01 -0.16143382794E+03  0.26201979963E+03  0.84174404854E+02 0.  0.
         11    1    3    3    0    0  0.20603605513E+02  0.50351502653E+01  0.19612148836E+02  0.28887673501E+02  0.00000000000E+00 0. -1.
        -11    1    3    3    0    0  0.13660446482E+03  0.40685098011E+03  0.34211151844E+03  0.54884313868E+03  0.00000000000E+00 0.  1.
          2    1    6    6  502    0  0.13635676214E+03  0.39343488908E+02 -0.13297401537E+03  0.19448178697E+03  0.00000000000E+00 0. -1.
          1    1    5    5  503    0 -0.23786090803E+03 -0.34003353710E+03  0.54370593628E+03  0.68397131743E+03  0.00000000000E+00 0. -1.
         -2    1    5    5    0  503 -0.10765674835E+03 -0.78756502802E+02  0.15632597747E+03  0.20550030032E+03  0.00000000000E+00 0.  1.
         -1    1    6    6    0  502  0.51952823905E+02 -0.32439579383E+02 -0.28459812568E+02  0.67538012657E+02  0.00000000000E+00 0.  1.
<mgrwt>
<rscale>  0 0.14763571E+04</rscale>
<asrwt>0</asrwt>
<pdfrwt beam="1">  1        1 0.20227261E+00 0.14763571E+04</pdfrwt>
<pdfrwt beam="2">  1       -1 0.63761576E-01 0.14763571E+04</pdfrwt>
<totfact> 0.21343683E+01</totfact>
</mgrwt>
</event>
<event>
12    1  0.1532786E-007  0.1862770E+04  0.7818608E-02  0.8673613E-01
          2   -1    0    0  501    0  0.00000000000E+00  0.00000000000E+00  0.16073022315E+04  0.16073022315E+04  0.00000000000E+00 0. -1.
         -2   -1    0    0    0  501 -0.00000000000E+00 -0.00000000000E+00 -0.53971084402E+03  0.53971084402E+03  0.00000000000E+00 0.  1.
         23    2    1    2    0    0 -0.63538020769E+03  0.32060782391E+03  0.60794718338E+03  0.94069766447E+03  0.93887875018E+02 0.  0.
        254    2    1    2    0    0  0.63538020769E+03 -0.32060782391E+03  0.45964420408E+03  0.12063154110E+04  0.85873551895E+03 0.  0.
        -24    2    4    4    0    0  0.75497536178E+03 -0.21000824525E+03  0.88146351164E+02  0.79241676112E+03  0.77867092643E+02 0.  0.
         24    2    4    4    0    0 -0.11959515409E+03 -0.11059957866E+03  0.37149785291E+03  0.41389864992E+03  0.82256732299E+02 0.  0.
         13    1    3    3    0    0 -0.17755273027E+03  0.11164055848E+03  0.13068199379E+03  0.24711610596E+03  0.00000000000E+00 0.  1.
        -13    1    3    3    0    0 -0.45782747741E+03  0.20896726542E+03  0.47726518960E+03  0.69358155850E+03  0.00000000000E+00 0. -1.
          4    1    6    6  502    0 -0.12905086704E+03 -0.11190769335E+03  0.33324260109E+03  0.37447041177E+03  0.00000000000E+00 0. -1.
          1    1    5    5  503    0  0.75001388212E+03 -0.21504943878E+03  0.88988591638E+02  0.78529361002E+03  0.00000000000E+00 0. -1.
         -2    1    5    5    0  503  0.49614796533E+01  0.50411935303E+01 -0.84224047410E+00  0.71231510988E+01  0.00000000000E+00 0.  1.
         -3    1    6    6    0  502  0.94557129521E+01  0.13081146847E+01  0.38255251827E+02  0.39428238152E+02  0.00000000000E+00 0.  1.
<mgrwt>
<rscale>  0 0.18627705E+04</rscale>
<asrwt>0</asrwt>
<pdfrwt beam="1">  1        2 0.24727726E+00 0.18627705E+04</pdfrwt>
<pdfrwt beam="2">  1       -2 0.83032438E-01 0.18627705E+04</pdfrwt>
<totfact> 0.13187294E+01</totfact>
</mgrwt>
</event>
<event>
12    1  0.1532786E-007  0.2633098E+04  0.7818608E-02  0.8357045E-01
         -2   -1    0    0    0  501 -0.00000000000E+00  0.00000000000E+00  0.77657060164E+03  0.77657060164E+03  0.00000000000E+00 0.  1.
          2   -1    0    0  501    0  0.00000000000E+00 -0.00000000000E+00 -0.22319939039E+04  0.22319939039E+04  0.00000000000E+00 0. -1.
         23    2    1    2    0    0 -0.61859366957E+03  0.82728258784E+03 -0.12482513949E+04  0.16231691259E+04  0.97426169227E+02 0.  0.
        254    2    1    2    0    0  0.61859366957E+03 -0.82728258784E+03 -0.20717190739E+03  0.13853953796E+04  0.89963634341E+03 0.  0.
        -24    2    4    4    0    0  0.47380178826E+02  0.10527016396E+03  0.17501172624E+03  0.22410197413E+03  0.79157448928E+02 0.  0.
         24    2    4    4    0    0  0.57121349074E+03 -0.93255275180E+03 -0.38218363363E+03  0.11612934055E+04  0.81231501591E+02 0.  0.
         13    1    3    3    0    0 -0.58290635666E+03  0.76313261856E+03 -0.11919734998E+04  0.15306704539E+04  0.00000000000E+00 0.  1.
        -13    1    3    3    0    0 -0.35687312908E+02  0.64149969279E+02 -0.56277895084E+02  0.92498672078E+02  0.00000000000E+00 0. -1.
          2    1    6    6  502    0  0.38208367719E+03 -0.56598416877E+03 -0.21141746321E+03  0.71485897869E+03  0.00000000000E+00 0. -1.
          1    1    5    5  503    0 -0.24164658952E+01  0.15630595004E+02 -0.52925254091E+01  0.16678298259E+02  0.00000000000E+00 0. -1.
         -2    1    5    5    0  503  0.49796644721E+02  0.89639568952E+02  0.18030425165E+03  0.20742367587E+03  0.00000000000E+00 0.  1.
         -1    1    6    6    0  502  0.18912981356E+03 -0.36656858303E+03 -0.17076617041E+03  0.44643442676E+03  0.00000000000E+00 0.  1.
<mgrwt>
<rscale>  0 0.26330977E+04</rscale>
<asrwt>0</asrwt>
<pdfrwt beam="1">  1        2 0.34338367E+00 0.26330977E+04</pdfrwt>
<pdfrwt beam="2">  1       -2 0.11947240E+00 0.26330977E+04</pdfrwt>
<totfact> 0.23457777E+00</totfact>
</mgrwt>
</event>
<event>
12    1  0.1532786E-007  0.1450082E+04  0.7818608E-02  0.8918343E-01
          2   -1    0    0  501    0  0.00000000000E+00  0.00000000000E+00  0.32834349224E+04  0.32834349224E+04  0.00000000000E+00 0. -1.
         -2   -1    0    0    0  501 -0.00000000000E+00 -0.00000000000E+00 -0.16010206909E+03  0.16010206909E+03  0.00000000000E+00 0.  1.
         23    2    1    2    0    0 -0.19309871922E+03  0.36812687123E+03  0.12956187305E+04  0.13638506260E+04  0.93038307395E+02 0.  0.
        254    2    1    2    0    0  0.19309871922E+03 -0.36812687123E+03  0.18277141228E+04  0.20796863655E+04  0.90097278276E+03 0.  0.
        -24    2    4    4    0    0 -0.13212170279E+03  0.16962278970E+03  0.12397478818E+03  0.26174120057E+03  0.83130456742E+02 0.  0.
         24    2    4    4    0    0  0.32522042200E+03 -0.53774966093E+03  0.17037393346E+04  0.18179451649E+04  0.85169721377E+02 0.  0.
         13    1    3    3    0    0 -0.94955339863E+01 -0.26551824980E+01  0.14174318818E+02  0.17266339327E+02  0.00000000000E+00 0.  1.
        -13    1    3    3    0    0 -0.18360318523E+03  0.37078205373E+03  0.12814444116E+04  0.13465842867E+04  0.00000000000E+00 0. -1.
          4    1    6    6  502    0  0.38197511253E+02 -0.55097133343E+02  0.11803571387E+03  0.13574672636E+03  0.00000000000E+00 0. -1.
          1    1    5    5  503    0 -0.68338959370E+01  0.68829570797E+02  0.45707264452E+02  0.82905765622E+02  0.00000000000E+00 0. -1.
         -2    1    5    5    0  503 -0.12528780685E+03  0.10079321891E+03  0.78267523725E+02  0.17883543495E+03  0.00000000000E+00 0.  1.
         -3    1    6    6    0  502  0.28702291075E+03 -0.48265252759E+03  0.15857036208E+04  0.16821984385E+04  0.00000000000E+00 0.  1.
<mgrwt>
<rscale>  0 0.14500824E+04</rscale>
<asrwt>0</asrwt>
<pdfrwt beam="1">  1        2 0.50514379E+00 0.14500824E+04</pdfrwt>
<pdfrwt beam="2">  1       -2 0.24631090E-01 0.14500824E+04</pdfrwt>
<totfact> 0.16528704E+01</totfact>
</mgrwt>
</event>
<event>
12    1  0.1532786E-007  0.1973141E+04  0.7818608E-02  0.8619282E-01
         -1   -1    0    0    0  501 -0.00000000000E+00  0.00000000000E+00  0.98485008542E+03  0.98485008542E+03  0.00000000000E+00 0.  1.
          1   -1    0    0  501    0  0.00000000000E+00 -0.00000000000E+00 -0.98829421607E+03  0.98829421607E+03  0.00000000000E+00 0. -1.
         23    2    1    2    0    0  0.75264426557E+03  0.21860994804E+03 -0.12869988561E+03  0.79931729543E+03  0.89893149586E+02 0.  0.
        254    2    1    2    0    0 -0.75264426557E+03 -0.21860994804E+03  0.12525575496E+03  0.11738270061E+04  0.86482202568E+03 0.  0.
        -24    2    4    4    0    0 -0.18869400182E+03  0.32230489049E+03  0.50100325617E+02  0.38463348803E+03  0.77116851174E+02 0.  0.
         24    2    4    4    0    0 -0.56395026375E+03 -0.54091483852E+03  0.75155429343E+02  0.78919351802E+03  0.80927793751E+02 0.  0.
         11    1    3    3    0    0  0.63377175597E+03  0.17996551157E+03 -0.14090268703E+03  0.67372679272E+03  0.00000000000E+00 0. -1.
        -11    1    3    3    0    0  0.11887250960E+03  0.38644436463E+02  0.12202801414E+02  0.12559050271E+03  0.00000000000E+00 0.  1.
          4    1    6    6  502    0 -0.38297165199E+03 -0.36212521658E+03  0.88485877644E+02  0.53444523503E+03  0.00000000000E+00 0. -1.
          1    1    5    5  503    0 -0.10645927988E+03  0.23175935965E+03  0.76319977784E+01  0.25515529869E+03  0.00000000000E+00 0. -1.
         -2    1    5    5    0  503 -0.82234721932E+02  0.90545530833E+02  0.42468327839E+02  0.12947818934E+03  0.00000000000E+00 0.  1.
         -3    1    6    6    0  502 -0.18097861176E+03 -0.17878962195E+03 -0.13330448301E+02  0.25474828299E+03  0.00000000000E+00 0.  1.
<mgrwt>
<rscale>  0 0.19731413E+04</rscale>
<asrwt>0</asrwt>
<pdfrwt beam="1">  1        1 0.15204526E+00 0.19731413E+04</pdfrwt>
<pdfrwt beam="2">  1       -1 0.15151540E+00 0.19731413E+04</pdfrwt>
<totfact> 0.48793459E+00</totfact>
</mgrwt>
</event>
<event>
12    1  0.1532786E-007  0.2459873E+04  0.7818608E-02  0.8417422E-01
         -1   -1    0    0    0  501 -0.00000000000E+00  0.00000000000E+00  0.18606269103E+04  0.18606269103E+04  0.00000000000E+00 0.  1.
          1   -1    0    0  501    0  0.00000000000E+00 -0.00000000000E+00 -0.81302889643E+03  0.81302889643E+03  0.00000000000E+00 0. -1.
         23    2    1    2    0    0 -0.95481149039E+03 -0.34774056492E+03  0.12731768621E+03  0.10284934001E+04  0.94870428473E+02 0.  0.
        254    2    1    2    0    0  0.95481149039E+03  0.34774056492E+03  0.92028032768E+03  0.16451624066E+04  0.90942563192E+03 0.  0.
        -24    2    4    4    0    0  0.48371640603E+03 -0.81685270833E+02 -0.31108674871E+02  0.49721971440E+03  0.74870887519E+02 0.  0.
         24    2    4    4    0    0  0.47109508435E+03  0.42942583575E+03  0.95138900255E+03  0.11479426922E+04  0.79336394844E+02 0.  0.
         13    1    3    3    0    0 -0.28763382637E+03 -0.85123592096E+02  0.77201766157E+02  0.30974078954E+03  0.00000000000E+00 0.  1.
        -13    1    3    3    0    0 -0.66717766402E+03 -0.26261697283E+03  0.50115920056E+02  0.71875261058E+03  0.00000000000E+00 0. -1.
          2    1    6    6  502    0  0.75576507323E+02  0.48498938301E+02  0.95910776275E+02  0.13138809870E+03  0.00000000000E+00 0. -1.
          3    1    5    5  503    0  0.36454595533E+02 -0.27517757436E+02 -0.10155958682E+01  0.45685839652E+02  0.00000000000E+00 0. -1.
         -4    1    5    5    0  503  0.44726181050E+03 -0.54167513397E+02 -0.30093079003E+02  0.45153387475E+03  0.00000000000E+00 0.  1.
         -1    1    6    6    0  502  0.39551857703E+03  0.38092689745E+03  0.85547822628E+03  0.10165545935E+04  0.00000000000E+00 0.  1.
<mgrwt>
<rscale>  0 0.24598727E+04</rscale>
<asrwt>0</asrwt>
<pdfrwt beam="1">  1        1 0.12508137E+00 0.24598727E+04</pdfrwt>
<pdfrwt beam="2">  1       -1 0.28625029E+00 0.24598727E+04</pdfrwt>
<totfact> 0.77865651E-01</totfact>
</mgrwt>
</event>
<event>
12    1  0.1532786E-007  0.2318439E+04  0.7818608E-02  0.8470686E-01
          2   -1    0    0  501    0  0.00000000000E+00  0.00000000000E+00  0.56892876611E+03  0.56892876611E+03  0.00000000000E+00 0.  1.
         -2   -1    0    0    0  501 -0.00000000000E+00 -0.00000000000E+00 -0.23619644238E+04  0.23619644238E+04  0.00000000000E+00 0. -1.
         23    2    1    2    0    0 -0.42995276038E+03  0.25417344423E+03  0.30482005340E+03  0.59213815832E+03  0.90823001885E+02 0.  0.
        254    2    1    2    0    0  0.42995276038E+03 -0.25417344423E+03 -0.20978557110E+04  0.23387550316E+04  0.90515910058E+03 0.  0.
        -24    2    4    4    0    0  0.26137989554E+03 -0.40015207081E+03 -0.41017319082E+03  0.63454693783E+03  0.77244030734E+02 0.  0.
         24    2    4    4    0    0  0.16857286484E+03  0.14597862658E+03 -0.16876825202E+04  0.17042080937E+04  0.79538465278E+02 0.  0.
         13    1    3    3    0    0 -0.62085447124E+02  0.68418518599E+02  0.82636636733E+02  0.12395366135E+03  0.00000000000E+00 0. -1.
        -13    1    3    3    0    0 -0.36786731325E+03  0.18575492563E+03  0.22218341667E+03  0.46818449696E+03  0.00000000000E+00 0.  1.
          2    1    6    6  502    0  0.15652099687E+03  0.14749966903E+03 -0.16612982381E+04  0.16751617267E+04  0.00000000000E+00 0. -1.
          3    1    5    5  503    0  0.23934724884E+03 -0.35345856753E+03 -0.33163150591E+03  0.54055482626E+03  0.00000000000E+00 0. -1.
         -4    1    5    5    0  503  0.22032646701E+02 -0.46693503282E+02 -0.78541684906E+02  0.93992111570E+02  0.00000000000E+00 0.  1.
         -1    1    6    6    0  502  0.12051867972E+02 -0.15210424508E+01 -0.26384282161E+02  0.29046367017E+02  0.00000000000E+00 0.  1.
<mgrwt>
<rscale>  0 0.23184387E+04</rscale>
<asrwt>0</asrwt>
<pdfrwt beam="1">  1        2 0.87527500E-01 0.23184387E+04</pdfrwt>
<pdfrwt beam="2">  1       -2 0.36337915E+00 0.23184387E+04</pdfrwt>
<totfact> 0.61324305E-01</totfact>
</mgrwt>
</event>
<event>
12    1  0.1532786E-007  0.1698453E+04  0.7818608E-02  0.8762247E-01
          2   -1    0    0  501    0  0.00000000000E+00  0.00000000000E+00  0.44417592111E+03  0.44417592111E+03  0.00000000000E+00 0. -1.
         -2   -1    0    0    0  501 -0.00000000000E+00 -0.00000000000E+00 -0.16236483981E+04  0.16236483981E+04  0.00000000000E+00 0.  1.
         23    2    1    2    0    0 -0.12790937694E+03 -0.49111244645E+03 -0.81846456150E+03  0.96698614196E+03  0.87325348857E+02 0.  0.
        254    2    1    2    0    0  0.12790937694E+03  0.49111244645E+03 -0.36100791545E+03  0.11008381772E+04  0.90772558277E+03 0.  0.
        -24    2    4    4    0    0 -0.31209577425E+03 -0.93384348774E+01  0.30708081806E+02  0.32380910116E+03  0.80114724197E+02 0.  0.
         24    2    4    4    0    0  0.44000515119E+03  0.50045088133E+03 -0.39171599726E+03  0.77702907606E+03  0.79228434508E+02 0.  0.
         11    1    3    3    0    0 -0.49500809686E+02 -0.22979396869E+03 -0.45921079992E+03  0.51587804467E+03  0.00000000000E+00 0. -1.
        -11    1    3    3    0    0 -0.78408567253E+02 -0.26131847776E+03 -0.35925376157E+03  0.45110809729E+03  0.00000000000E+00 0.  1.
          2    1    6    6  502    0  0.99663056701E+02  0.81134991178E+02 -0.10266352287E+03  0.16448528990E+03  0.00000000000E+00 0. -1.
          1    1    5    5  503    0 -0.12745898084E+03  0.15098937722E+02  0.47383156872E+02  0.13681715270E+03  0.00000000000E+00 0. -1.
         -2    1    5    5    0  503 -0.18463679341E+03 -0.24437372600E+02 -0.16675075066E+02  0.18699194846E+03  0.00000000000E+00 0.  1.
         -1    1    6    6    0  502  0.34034209449E+03  0.41931589015E+03 -0.28905247439E+03  0.61254378616E+03  0.00000000000E+00 0.  1.
<mgrwt>
<rscale>  0 0.16984529E+04</rscale>
<asrwt>0</asrwt>
<pdfrwt beam="1">  1        2 0.68334757E-01 0.16984529E+04</pdfrwt>
<pdfrwt beam="2">  1       -2 0.24979206E+00 0.16984529E+04</pdfrwt>
<totfact> 0.43302028E+00</totfact>
</mgrwt>
</event>
<event>
12    1  0.1532786E-007  0.1764631E+04  0.7818608E-02  0.8725337E-01
         -2   -1    0    0    0  501 -0.00000000000E+00  0.00000000000E+00  0.10498066461E+04  0.10498066461E+04  0.00000000000E+00 0. -1.
          2   -1    0    0  501    0  0.00000000000E+00 -0.00000000000E+00 -0.74154709896E+03  0.74154709896E+03  0.00000000000E+00 0.  1.
         23    2    1    2    0    0 -0.15786772237E+03  0.50852618012E+03 -0.27788367776E+03  0.60826625024E+03  0.96163398357E+02 0.  0.
        254    2    1    2    0    0  0.15786772237E+03 -0.50852618012E+03  0.58614322492E+03  0.11830874948E+04  0.87898296155E+03 0.  0.
        -24    2    4    4    0    0  0.24034359778E+03 -0.67228739508E+03  0.19552392693E+03  0.74447231601E+03  0.79208817211E+02 0.  0.
         24    2    4    4    0    0 -0.82475875406E+02  0.16376121497E+03  0.39061929799E+03  0.43861517883E+03  0.78611917572E+02 0.  0.
         11    1    3    3    0    0 -0.77604035183E+02  0.29797944498E+03 -0.10887858364E+03  0.32660171751E+03  0.00000000000E+00 0. -1.
        -11    1    3    3    0    0 -0.80263687189E+02  0.21054673514E+03 -0.16900509412E+03  0.28166453273E+03  0.00000000000E+00 0.  1.
          4    1    6    6  502    0 -0.23541892241E+02  0.47800760915E+02  0.46458982133E+02  0.70693496555E+02  0.00000000000E+00 0. -1.
          1    1    5    5  503    0  0.43493299457E+02 -0.17432645302E+03  0.19021607640E+02  0.18067429501E+03  0.00000000000E+00 0. -1.
         -2    1    5    5    0  503  0.19685029832E+03 -0.49796094206E+03  0.17650231929E+03  0.56379802100E+03  0.00000000000E+00 0.  1.
         -1    1    6    6    0  502 -0.58933983165E+02  0.11596045405E+03  0.34416031586E+03  0.36792168227E+03  0.00000000000E+00 0.  1.
<mgrwt>
<rscale>  0 0.17646315E+04</rscale>
<asrwt>0</asrwt>
<pdfrwt beam="1">  1        2 0.11408417E+00 0.17646315E+04</pdfrwt>
<pdfrwt beam="2">  1       -2 0.16150871E+00 0.17646315E+04</pdfrwt>
<totfact> 0.88404643E+00</totfact>
</mgrwt>
</event>
<event>
12    1  0.1532786E-007  0.1760186E+04  0.7818608E-02  0.8727763E-01
         -2   -1    0    0    0  501 -0.00000000000E+00  0.00000000000E+00  0.14099406228E+04  0.14099406228E+04  0.00000000000E+00 0.  1.
          2   -1    0    0  501    0  0.00000000000E+00 -0.00000000000E+00 -0.54935925640E+03  0.54935925640E+03  0.00000000000E+00 0. -1.
         23    2    1    2    0    0  0.53687462546E+03 -0.36754994740E+03  0.36035998235E+03  0.74954859777E+03  0.92932535979E+02 0.  0.
        254    2    1    2    0    0 -0.53687462546E+03  0.36754994740E+03  0.50022138409E+03  0.12097512815E+04  0.88879097801E+03 0.  0.
        -24    2    4    4    0    0  0.15801602313E+03  0.34584558480E+03  0.93110172257E+02  0.39972869635E+03  0.80841167810E+02 0.  0.
         24    2    4    4    0    0 -0.69489064860E+03  0.21704362595E+02  0.40711121183E+03  0.81002258511E+03  0.83981883346E+02 0.  0.
         11    1    3    3    0    0  0.60972767293E+02 -0.30461578189E+02  0.71352235707E+02  0.98674858183E+02  0.00000000000E+00 0.  1.
        -11    1    3    3    0    0  0.47590185817E+03 -0.33708836921E+03  0.28900774664E+03  0.65087373959E+03  0.00000000000E+00 0. -1.
          2    1    6    6  502    0 -0.29202777453E+02 -0.16397439905E+02  0.20598322775E+02  0.39318814167E+02  0.00000000000E+00 0. -1.
          3    1    5    5  503    0  0.11306483422E+03  0.17780042798E+03  0.79643464062E+02  0.22525481192E+03  0.00000000000E+00 0. -1.
         -4    1    5    5    0  503  0.44951188909E+02  0.16804515683E+03  0.13466708195E+02  0.17447388443E+03  0.00000000000E+00 0.  1.
         -1    1    6    6    0  502 -0.66568787114E+03  0.38101802500E+02  0.38651288906E+03  0.77070377094E+03  0.00000000000E+00 0.  1.
<mgrwt>
<rscale>  0 0.17601863E+04</rscale>
<asrwt>0</asrwt>
<pdfrwt beam="1">  1        2 0.84516809E-01 0.17601863E+04</pdfrwt>
<pdfrwt beam="2">  1       -2 0.21691394E+00 0.17601863E+04</pdfrwt>
<totfact> 0.53945518E+00</totfact>
</mgrwt>
</event>
<event>
12    1  0.1532786E-007  0.2311528E+04  0.7818608E-02  0.8473390E-01
          2   -1    0    0  501    0  0.00000000000E+00  0.00000000000E+00  0.30596097127E+04  0.30596097127E+04  0.00000000000E+00 0. -1.
         -2   -1    0    0    0  501 -0.00000000000E+00 -0.00000000000E+00 -0.43658832662E+03  0.43658832662E+03  0.00000000000E+00 0.  1.
         23    2    1    2    0    0 -0.78828732301E+02  0.89217256152E+03  0.17427195330E+04  0.19618745604E+04  0.98461014098E+02 0.  0.
        254    2    1    2    0    0  0.78828732301E+02 -0.89217256152E+03  0.88030185306E+03  0.15343234789E+04  0.88149380994E+03 0.  0.
        -24    2    4    4    0    0  0.20781468541E+03 -0.10227404050E+04  0.80407579817E+03  0.13198900920E+04  0.79919249215E+02 0.  0.
         24    2    4    4    0    0 -0.12898595311E+03  0.13056784343E+03  0.76226054887E+02  0.21443338692E+03  0.80535260247E+02 0.  0.
         11    1    3    3    0    0 -0.53468473817E+02  0.53728249182E+03  0.11525042880E+04  0.12727126493E+04  0.00000000000E+00 0. -1.
        -11    1    3    3    0    0 -0.25360258484E+02  0.35489006970E+03  0.59021524500E+03  0.68916191110E+03  0.00000000000E+00 0.  1.
          2    1    6    6  502    0 -0.65148580135E+02  0.13386191144E+02  0.18453353847E+02  0.69022125982E+02  0.00000000000E+00 0. -1.
          1    1    5    5  503    0  0.29490306643E+02 -0.60975725673E+02  0.39834410017E+02  0.78577971014E+02  0.00000000000E+00 0. -1.
         -2    1    5    5    0  503  0.17832437877E+03 -0.96176467928E+03  0.76424138815E+03  0.12413121210E+04  0.00000000000E+00 0.  1.
         -1    1    6    6    0  502 -0.63837372980E+02  0.11718165229E+03  0.57772701040E+02  0.14541126094E+03  0.00000000000E+00 0.  1.
<mgrwt>
<rscale>  0 0.23115275E+04</rscale>
<asrwt>0</asrwt>
<pdfrwt beam="1">  1        2 0.47070917E+00 0.23115275E+04</pdfrwt>
<pdfrwt beam="2">  1       -2 0.67167437E-01 0.23115275E+04</pdfrwt>
<totfact> 0.29441403E+00</totfact>
</mgrwt>
</event>
<event>
12    1  0.2022796E-007  0.1999462E+04  0.7818608E-02  0.8606872E-01
         -1   -1    0    0    0  501 -0.00000000000E+00  0.00000000000E+00  0.45554601529E+03  0.45554601529E+03  0.00000000000E+00 0.  1.
          1   -1    0    0  501    0  0.00000000000E+00 -0.00000000000E+00 -0.21939861382E+04  0.21939861382E+04  0.00000000000E+00 0. -1.
         23    2    1    2    0    0  0.17261175231E+03 -0.34591521524E+03  0.22749505045E+03  0.45777774906E+03  0.91401949587E+02 0.  0.
        254    2    1    2    0    0 -0.17261175231E+03  0.34591521524E+03 -0.19659351734E+04  0.21917544044E+04  0.88850104688E+03 0.  0.
        -24    2    4    4    0    0 -0.44146070891E+03  0.27822778161E+03 -0.61727859687E+03  0.81262244854E+03  0.83810033630E+02 0.  0.
         24    2    4    4    0    0  0.26884895661E+03  0.67687433624E+02 -0.13486565765E+04  0.13791319559E+04  0.79177271468E+02 0.  0.
         11    1    3    3    0    0  0.13893676479E+03 -0.29780593131E+03  0.22637027751E+03  0.39904297999E+03  0.00000000000E+00 0.  1.
        -11    1    3    3    0    0  0.33674987512E+02 -0.48109283925E+02  0.11247729352E+01  0.58734769071E+02  0.00000000000E+00 0. -1.
          4    1    6    6  502    0  0.49671479861E+01 -0.11238481702E+02 -0.78407748020E+02  0.79364670853E+02  0.00000000000E+00 0. -1.
          1    1    5    5  503    0 -0.16901033887E+02 -0.81750979534E+00 -0.41080498614E+02  0.44428826623E+02  0.00000000000E+00 0. -1.
         -2    1    5    5    0  503 -0.42455967502E+03  0.27904529141E+03 -0.57619809826E+03  0.76819362191E+03  0.00000000000E+00 0.  1.
         -3    1    6    6    0  502  0.26388180862E+03  0.78925915326E+02 -0.12702488285E+04  0.12997672850E+04  0.00000000000E+00 0.  1.
<mgrwt>
<rscale>  0 0.19994616E+04</rscale>
<asrwt>0</asrwt>
<pdfrwt beam="1">  1        1 0.33753632E+00 0.19994616E+04</pdfrwt>
<pdfrwt beam="2">  1       -1 0.70084004E-01 0.19994616E+04</pdfrwt>
<totfact> 0.41992723E+00</totfact>
</mgrwt>
</event>
<event>
12    1  0.1532786E-007  0.1551824E+04  0.7818608E-02  0.8850703E-01
          1   -1    0    0  501    0  0.00000000000E+00  0.00000000000E+00  0.82586663211E+03  0.82586663211E+03  0.00000000000E+00 0.  1.
         -1   -1    0    0    0  501 -0.00000000000E+00 -0.00000000000E+00 -0.72897913039E+03  0.72897913039E+03  0.00000000000E+00 0. -1.
         23    2    1    2    0    0 -0.18054451397E+03  0.27169092266E+03  0.42808231039E+03  0.54539377807E+03  0.88247547881E+02 0.  0.
        254    2    1    2    0    0  0.18054451397E+03 -0.27169092266E+03 -0.33119480868E+03  0.10094519844E+04  0.89604186766E+03 0.  0.
        -24    2    4    4    0    0  0.44455867196E+03  0.12372914820E+03 -0.19841702401E+03  0.50964011365E+03  0.86153439250E+02 0.  0.
         24    2    4    4    0    0 -0.26401415800E+03 -0.39542007086E+03 -0.13277778467E+03  0.49981187078E+03  0.78239747005E+02 0.  0.
         11    1    3    3    0    0  0.64251684542E+01  0.59298713785E+01  0.31500485339E+02  0.32691386340E+02  0.00000000000E+00 0. -1.
        -11    1    3    3    0    0 -0.18696968242E+03  0.26576105128E+03  0.39658182505E+03  0.51270239173E+03  0.00000000000E+00 0.  1.
          2    1    6    6  502    0 -0.16103389989E+03 -0.23193231160E+03 -0.38990479524E+02  0.28503468485E+03  0.00000000000E+00 0. -1.
          3    1    5    5  503    0  0.43491523582E+03  0.10550558269E+03 -0.18135932393E+03  0.48288082867E+03  0.00000000000E+00 0. -1.
         -4    1    5    5    0  503  0.96434361448E+01  0.18223565506E+02 -0.17057700080E+02  0.26759284976E+02  0.00000000000E+00 0.  1.
         -1    1    6    6    0  502 -0.10298025811E+03 -0.16348775926E+03 -0.93787305147E+02  0.21477718593E+03  0.00000000000E+00 0.  1.
<mgrwt>
<rscale>  0 0.15518241E+04</rscale>
<asrwt>0</asrwt>
<pdfrwt beam="1">  1        1 0.12705640E+00 0.15518241E+04</pdfrwt>
<pdfrwt beam="2">  1       -1 0.11215064E+00 0.15518241E+04</pdfrwt>
<totfact> 0.14748093E+01</totfact>
</mgrwt>
</event>
<event>
12    1  0.1532786E-007  0.1745360E+04  0.7818608E-02  0.8735908E-01
          1   -1    0    0  501    0  0.00000000000E+00  0.00000000000E+00  0.51047184024E+03  0.51047184024E+03  0.00000000000E+00 0. -1.
         -1   -1    0    0    0  501 -0.00000000000E+00 -0.00000000000E+00 -0.14918953708E+04  0.14918953708E+04  0.00000000000E+00 0.  1.
         23    2    1    2    0    0  0.26892695899E+03 -0.21518480463E+03  0.25206227414E+03  0.43648634779E+03  0.91426103183E+02 0.  0.
        254    2    1    2    0    0 -0.26892695899E+03  0.21518480463E+03 -0.12334858047E+04  0.15658808632E+04  0.90103797813E+03 0.  0.
        -24    2    4    4    0    0 -0.56783100439E+03  0.26419689589E+02 -0.93230308570E+03  0.10947544732E+04  0.78538292414E+02 0.  0.
         24    2    4    4    0    0  0.29890404540E+03  0.18876511504E+03 -0.30118271897E+03  0.47112639004E+03  0.79203208096E+02 0.  0.
         11    1    3    3    0    0  0.18273762200E+03 -0.19380785227E+03  0.20398471611E+03  0.33550601560E+03  0.00000000000E+00 0. -1.
        -11    1    3    3    0    0  0.86189336990E+02 -0.21376952362E+02  0.48077558035E+02  0.10098033219E+03  0.00000000000E+00 0.  1.
          2    1    6    6  502    0  0.19839580700E+03  0.16672621977E+03 -0.20780787928E+03  0.33217863159E+03  0.00000000000E+00 0. -1.
          3    1    5    5  503    0 -0.47997756393E+03 -0.52328965565E+01 -0.76381791818E+03  0.90212175299E+03  0.00000000000E+00 0. -1.
         -4    1    5    5    0  503 -0.87853440466E+02  0.31652586145E+02 -0.16848516752E+03  0.19263272019E+03  0.00000000000E+00 0.  1.
         -3    1    6    6    0  502  0.10050823840E+03  0.22038895272E+02 -0.93374839691E+02  0.13894775845E+03  0.00000000000E+00 0.  1.
<mgrwt>
<rscale>  0 0.17453602E+04</rscale>
<asrwt>0</asrwt>
<pdfrwt beam="1">  1        1 0.78534131E-01 0.17453602E+04</pdfrwt>
<pdfrwt beam="2">  1       -1 0.22952236E+00 0.17453602E+04</pdfrwt>
<totfact> 0.38816711E+00</totfact>
</mgrwt>
</event>
<event>
12    1  0.1532786E-007  0.2390179E+04  0.7818608E-02  0.8443190E-01
         -2   -1    0    0    0  501 -0.00000000000E+00  0.00000000000E+00  0.15472253137E+04  0.15472253137E+04  0.00000000000E+00 0.  1.
          2   -1    0    0  501    0  0.00000000000E+00 -0.00000000000E+00 -0.92309690631E+03  0.92309690631E+03  0.00000000000E+00 0. -1.
         23    2    1    2    0    0  0.18381177009E+02 -0.49724491864E+03  0.11917161794E+04  0.12946679829E+04  0.91582513412E+02 0.  0.
        254    2    1    2    0    0 -0.18381177009E+02  0.49724491864E+03 -0.56758777201E+03  0.11756542372E+04  0.90134157215E+03 0.  0.
        -24    2    4    4    0    0 -0.36072543004E+03  0.80102684169E+01 -0.41424629697E+03  0.55503939750E+03  0.79257415680E+02 0.  0.
         24    2    4    4    0    0  0.34234425304E+03  0.48923465023E+03 -0.15334147504E+03  0.62061483968E+03  0.71407567511E+02 0.  0.
         11    1    3    3    0    0 -0.58651792912E+00 -0.35884557459E+02  0.39485378458E+02  0.53358603611E+02  0.00000000000E+00 0. -1.
        -11    1    3    3    0    0  0.18967694938E+02 -0.46136036118E+03  0.11522308010E+04  0.12413093793E+04  0.00000000000E+00 0.  1.
          4    1    6    6  502    0  0.10696270371E+03  0.12470472153E+03 -0.14081030218E+02  0.16489561234E+03  0.00000000000E+00 0. -1.
          3    1    5    5  503    0  0.36657309057E+01  0.33418978465E+01 -0.47172191307E+01  0.68452918577E+01  0.00000000000E+00 0. -1.
         -4    1    5    5    0  503 -0.36439116095E+03  0.46683705704E+01 -0.40952907784E+03  0.54819410564E+03  0.00000000000E+00 0.  1.
         -3    1    6    6    0  502  0.23538154933E+03  0.36452992869E+03 -0.13926044482E+03  0.45571922734E+03  0.00000000000E+00 0.  1.
<mgrwt>
<rscale>  0 0.23901790E+04</rscale>
<asrwt>0</asrwt>
<pdfrwt beam="1">  1        2 0.14201491E+00 0.23901790E+04</pdfrwt>
<pdfrwt beam="2">  1       -2 0.23803466E+00 0.23901790E+04</pdfrwt>
<totfact> 0.19392476E+00</totfact>
</mgrwt>
</event>
<event>
12    1  0.1532786E-007  0.1733117E+04  0.7818608E-02  0.8742699E-01
         -1   -1    0    0    0  501 -0.00000000000E+00  0.00000000000E+00  0.23895525738E+03  0.23895525738E+03  0.00000000000E+00 0.  1.
          1   -1    0    0  501    0  0.00000000000E+00 -0.00000000000E+00 -0.31425289138E+04  0.31425289138E+04  0.00000000000E+00 0. -1.
         23    2    1    2    0    0  0.49921875998E+03  0.23416582796E+03 -0.47966584032E+03  0.73659864451E+03  0.91897983798E+02 0.  0.
        254    2    1    2    0    0 -0.49921875998E+03 -0.23416582796E+03 -0.24239078161E+04  0.26448855266E+04  0.90334785265E+03 0.  0.
        -24    2    4    4    0    0 -0.41473523793E+03 -0.54673916455E+03 -0.12958026100E+04  0.14684084246E+04  0.78675699223E+02 0.  0.
         24    2    4    4    0    0 -0.84483522048E+02  0.31257333660E+03 -0.11281052061E+04  0.11764771021E+04  0.81470604813E+02 0.  0.
         11    1    3    3    0    0  0.54713027381E+01  0.15855194384E+02 -0.28360981682E+02  0.32949470778E+02  0.00000000000E+00 0. -1.
        -11    1    3    3    0    0  0.49374745724E+03  0.21831063357E+03 -0.45130485863E+03  0.70364917373E+03  0.00000000000E+00 0.  1.
          4    1    6    6  502    0 -0.38207555736E+02  0.14739234475E+03 -0.67565926295E+03  0.69260360973E+03  0.00000000000E+00 0. -1.
          1    1    5    5  503    0 -0.40050696776E+03 -0.51984693240E+03 -0.11977246957E+04  0.13657199973E+04  0.00000000000E+00 0. -1.
         -2    1    5    5    0  503 -0.14228270165E+02 -0.26892232154E+02 -0.98077914280E+02  0.10268842725E+03  0.00000000000E+00 0.  1.
         -3    1    6    6    0  502 -0.46275966313E+02  0.16518099185E+03 -0.45244594312E+03  0.48387349232E+03  0.00000000000E+00 0.  1.
<mgrwt>
<rscale>  0 0.17331172E+04</rscale>
<asrwt>0</asrwt>
<pdfrwt beam="1">  1        1 0.48346600E+00 0.17331172E+04</pdfrwt>
<pdfrwt beam="2">  1       -1 0.36762346E-01 0.17331172E+04</pdfrwt>
<totfact> 0.31776484E+00</totfact>
</mgrwt>
</event>
<event>
12    1  0.1532786E-007  0.2116887E+04  0.7818608E-02  0.8553841E-01
         -2   -1    0    0    0  501 -0.00000000000E+00  0.00000000000E+00  0.57364791732E+03  0.57364791732E+03  0.00000000000E+00 0.  1.
          2   -1    0    0  501    0  0.00000000000E+00 -0.00000000000E+00 -0.19529439358E+04  0.19529439358E+04  0.00000000000E+00 0. -1.
         23    2    1    2    0    0 -0.49970776733E+03 -0.11444309173E+03 -0.14046879193E+04  0.14981976040E+04  0.92966854560E+02 0.  0.
        254    2    1    2    0    0  0.49970776733E+03  0.11444309173E+03  0.25391900850E+02  0.10283942491E+04  0.89114808476E+03 0.  0.
        -24    2    4    4    0    0  0.19600530002E+03  0.36161310187E+03  0.32394433568E+03  0.52955045544E+03  0.79382864408E+02 0.  0.
         24    2    4    4    0    0  0.30370246731E+03 -0.24717001014E+03 -0.29855243483E+03  0.49884379365E+03  0.79896004686E+02 0.  0.
         11    1    3    3    0    0 -0.47359424577E+03 -0.11887372740E+03 -0.13709182553E+04  0.14552798134E+04  0.00000000000E+00 0. -1.
        -11    1    3    3    0    0 -0.26113521553E+02  0.44306356671E+01 -0.33769664013E+02  0.42917790575E+02  0.00000000000E+00 0.  1.
          2    1    6    6  502    0  0.22304993241E+03 -0.13478006813E+03 -0.18085723258E+03  0.31721645242E+03  0.00000000000E+00 0. -1.
          3    1    5    5  503    0  0.12795745117E+03  0.30332585420E+03  0.24988794837E+03  0.41330820205E+03  0.00000000000E+00 0. -1.
         -4    1    5    5    0  503  0.68047848847E+02  0.58287247665E+02  0.74056387302E+02  0.11624225339E+03  0.00000000000E+00 0.  1.
         -1    1    6    6    0  502  0.80652534902E+02 -0.11238994200E+03 -0.11769520225E+03  0.18162734123E+03  0.00000000000E+00 0.  1.
<mgrwt>
<rscale>  0 0.21168866E+04</rscale>
<asrwt>0</asrwt>
<pdfrwt beam="1">  1        2 0.30045291E+00 0.21168866E+04</pdfrwt>
<pdfrwt beam="2">  1       -2 0.88253526E-01 0.21168866E+04</pdfrwt>
<totfact> 0.72197508E+00</totfact>
</mgrwt>
</event>
<event>
12    1  0.1532786E-007  0.1763294E+04  0.7818608E-02  0.8726067E-01
         -1   -1    0    0    0  501 -0.00000000000E+00  0.00000000000E+00  0.57524349989E+03  0.57524349989E+03  0.00000000000E+00 0.  1.
          1   -1    0    0  501    0  0.00000000000E+00 -0.00000000000E+00 -0.13512560608E+04  0.13512560608E+04  0.00000000000E+00 0. -1.
         23    2    1    2    0    0  0.36288706395E+03  0.52792241990E+03 -0.25457442873E+03  0.69548308937E+03  0.92192652733E+02 0.  0.
        254    2    1    2    0    0 -0.36288706395E+03 -0.52792241990E+03 -0.52143813215E+03  0.12310164713E+04  0.91275118423E+03 0.  0.
        -24    2    4    4    0    0 -0.40261663160E+03 -0.52337707039E+03  0.36534952685E+02  0.66611967625E+03  0.79730235574E+02 0.  0.
         24    2    4    4    0    0  0.39729567651E+02 -0.45453495139E+01 -0.55797308484E+03  0.56489679505E+03  0.78583248235E+02 0.  0.
         13    1    3    3    0    0  0.35675204714E+03  0.52091500420E+03 -0.23477956542E+03  0.67360664269E+03  0.00000000000E+00 0. -1.
        -13    1    3    3    0    0  0.61350168171E+01  0.70074157026E+01 -0.19794863301E+02  0.21876446679E+02  0.00000000000E+00 0.  1.
          2    1    6    6  502    0  0.21300726268E+02 -0.23077769925E+02 -0.50349836222E+03  0.50447686286E+03  0.00000000000E+00 0. -1.
          3    1    5    5  503    0 -0.21127790948E+03 -0.31861816983E+03  0.49961477727E+02  0.38555420169E+03  0.00000000000E+00 0. -1.
         -4    1    5    5    0  503 -0.19133872213E+03 -0.20475890055E+03 -0.13426525042E+02  0.28056547456E+03  0.00000000000E+00 0.  1.
         -1    1    6    6    0  502  0.18428841383E+02  0.18532420412E+02 -0.54474722616E+02  0.60419932184E+02  0.00000000000E+00 0.  1.
<mgrwt>
<rscale>  0 0.17632938E+04</rscale>
<asrwt>0</asrwt>
<pdfrwt beam="1">  1        1 0.20788555E+00 0.17632938E+04</pdfrwt>
<pdfrwt beam="2">  1       -1 0.88499001E-01 0.17632938E+04</pdfrwt>
<totfact> 0.98682044E+00</totfact>
</mgrwt>
</event>
<event>
12    1  0.1532786E-007  0.1833766E+04  0.7818608E-02  0.8688547E-01
         -1   -1    0    0    0  501 -0.00000000000E+00  0.00000000000E+00  0.52896637698E+03  0.52896637698E+03  0.00000000000E+00 0.  1.
          1   -1    0    0  501    0  0.00000000000E+00 -0.00000000000E+00 -0.15892769723E+04  0.15892769723E+04  0.00000000000E+00 0. -1.
         23    2    1    2    0    0  0.56120035998E+03 -0.11920033406E+03  0.44406145983E+02  0.58354303189E+03  0.96932969551E+02 0.  0.
        254    2    1    2    0    0 -0.56120035998E+03  0.11920033406E+03 -0.11047167413E+04  0.15347003174E+04  0.89763657566E+03 0.  0.
        -24    2    4    4    0    0 -0.31937095016E+02  0.12523881579E+03 -0.97092174408E+03  0.98265451715E+03  0.78842424735E+02 0.  0.
         24    2    4    4    0    0 -0.52926326497E+03 -0.60384817324E+01 -0.13379499722E+03  0.55204580023E+03  0.81837628031E+02 0.  0.
         11    1    3    3    0    0  0.17319912819E+03 -0.28290959735E+02  0.57918518392E+02  0.18480495443E+03  0.00000000000E+00 0.  1.
        -11    1    3    3    0    0  0.38800123179E+03 -0.90909374323E+02 -0.13512372409E+02  0.39873807747E+03  0.00000000000E+00 0. -1.
          2    1    6    6  502    0 -0.16224050103E+03  0.34599085725E+02 -0.31253919084E+02  0.16880724026E+03  0.00000000000E+00 0. -1.
          3    1    5    5  503    0 -0.33075495703E+02  0.79616002840E+01 -0.23305374304E+03  0.23552371991E+03  0.00000000000E+00 0. -1.
         -4    1    5    5    0  503  0.11384006869E+01  0.11727721551E+03 -0.73786800103E+03  0.74713079724E+03  0.00000000000E+00 0.  1.
         -1    1    6    6    0  502 -0.36702276394E+03 -0.40637567458E+02 -0.10254107814E+03  0.38323855997E+03  0.00000000000E+00 0.  1.
<mgrwt>
<rscale>  0 0.18337656E+04</rscale>
<asrwt>0</asrwt>
<pdfrwt beam="1">  1        1 0.24450415E+00 0.18337656E+04</pdfrwt>
<pdfrwt beam="2">  1       -1 0.81379444E-01 0.18337656E+04</pdfrwt>
<totfact> 0.80305560E+00</totfact>
</mgrwt>
</event>
<event>
12    1  0.1532786E-007  0.1564752E+04  0.7818608E-02  0.8842500E-01
         -2   -1    0    0    0  501 -0.00000000000E+00  0.00000000000E+00  0.25722163502E+03  0.25722163502E+03  0.00000000000E+00 0.  1.
          2   -1    0    0  501    0  0.00000000000E+00 -0.00000000000E+00 -0.23797058983E+04  0.23797058983E+04  0.00000000000E+00 0. -1.
         23    2    1    2    0    0  0.48692229865E+03 -0.13003063119E+03 -0.49234928020E+03  0.71028452993E+03  0.89972272246E+02 0.  0.
        254    2    1    2    0    0 -0.48692229865E+03  0.13003063119E+03 -0.16301349831E+04  0.19266430034E+04  0.89476919342E+03 0.  0.
        -24    2    4    4    0    0 -0.48491783097E+03  0.41162530675E+03 -0.14429520540E+04  0.15789358934E+04  0.79669500409E+02 0.  0.
         24    2    4    4    0    0 -0.20044676822E+01 -0.28159467556E+03 -0.18718292910E+03  0.34770711003E+03  0.81013617550E+02 0.  0.
         11    1    3    3    0    0  0.16593091838E+03 -0.30644084039E+02 -0.11080391255E+03  0.20186539227E+03  0.00000000000E+00 0. -1.
        -11    1    3    3    0    0  0.32099138028E+03 -0.99386547154E+02 -0.38154536764E+03  0.50841913766E+03  0.00000000000E+00 0.  1.
          4    1    6    6  502    0  0.51574712654E+01 -0.31229076605E+02  0.49467806295E+01  0.32036313365E+02  0.00000000000E+00 0. -1.
          1    1    5    5  503    0 -0.24654505547E+03  0.19532657896E+03 -0.80782356275E+03  0.86690013574E+03  0.00000000000E+00 0. -1.
         -2    1    5    5    0  503 -0.23837277550E+03  0.21629872779E+03 -0.63512849127E+03  0.71203575765E+03  0.00000000000E+00 0.  1.
         -3    1    6    6    0  502 -0.71619389476E+01 -0.25036559895E+03 -0.19212970973E+03  0.31567079667E+03  0.00000000000E+00 0.  1.
<mgrwt>
<rscale>  0 0.15647515E+04</rscale>
<asrwt>0</asrwt>
<pdfrwt beam="1">  1        2 0.36610859E+00 0.15647515E+04</pdfrwt>
<pdfrwt beam="2">  1       -2 0.39572560E-01 0.15647515E+04</pdfrwt>
<totfact> 0.23753866E+01</totfact>
</mgrwt>
</event>
<event>
12    1  0.1532786E-007  0.2968251E+04  0.7818608E-02  0.8252856E-01
         -2   -1    0    0    0  501 -0.00000000000E+00  0.00000000000E+00  0.71144429113E+03  0.71144429113E+03  0.00000000000E+00 0. -1.
          2   -1    0    0  501    0  0.00000000000E+00 -0.00000000000E+00 -0.30959953279E+04  0.30959953279E+04  0.00000000000E+00 0.  1.
         23    2    1    2    0    0 -0.85004410958E+03 -0.49810895495E+03  0.90005170526E+02  0.99356609833E+03  0.91570419923E+02 0.  0.
        254    2    1    2    0    0  0.85004410958E+03  0.49810895495E+03 -0.24745562073E+04  0.28138735207E+04  0.90761679588E+03 0.  0.
        -24    2    4    4    0    0  0.17465772462E+03  0.56745894185E+03 -0.75747161468E+03  0.96581516348E+03  0.80750922621E+02 0.  0.
         24    2    4    4    0    0  0.67538638496E+03 -0.69349986897E+02 -0.17170845926E+04  0.18480583572E+04  0.77356343039E+02 0.  0.
         11    1    3    3    0    0 -0.14551064070E+03 -0.80468621210E+02  0.49740091516E+02  0.17355869975E+03  0.00000000000E+00 0.  1.
        -11    1    3    3    0    0 -0.70453346888E+03 -0.41764033374E+03  0.40265079010E+02  0.82000739858E+03  0.00000000000E+00 0. -1.
          4    1    6    6  502    0  0.29928935928E+03 -0.18270568359E+02 -0.66064685092E+03  0.72550823281E+03  0.00000000000E+00 0. -1.
          3    1    5    5  503    0  0.16890870225E+03  0.49588048629E+03 -0.62843309062E+03  0.81814164774E+03  0.00000000000E+00 0. -1.
         -4    1    5    5    0  503  0.57490223639E+01  0.71578455551E+02 -0.12903852406E+03  0.14767351574E+03  0.00000000000E+00 0.  1.
         -3    1    6    6    0  502  0.37609702568E+03 -0.51079418538E+02 -0.10564377417E+04  0.11225501244E+04  0.00000000000E+00 0.  1.
<mgrwt>
<rscale>  0 0.29682508E+04</rscale>
<asrwt>0</asrwt>
<pdfrwt beam="1">  1        2 0.47630698E+00 0.29682508E+04</pdfrwt>
<pdfrwt beam="2">  1       -2 0.10945297E+00 0.29682508E+04</pdfrwt>
<totfact> 0.86340745E-01</totfact>
</mgrwt>
</event>
<event>
12    1  0.1532786E-007  0.1640317E+04  0.7818608E-02  0.8796156E-01
          2   -1    0    0  501    0  0.00000000000E+00  0.00000000000E+00  0.75326336565E+03  0.75326336565E+03  0.00000000000E+00 0. -1.
         -2   -1    0    0    0  501 -0.00000000000E+00 -0.00000000000E+00 -0.89299392662E+03  0.89299392662E+03  0.00000000000E+00 0.  1.
         23    2    1    2    0    0 -0.13383119650E+03 -0.19077364453E+03  0.47164611724E+03  0.53440492837E+03  0.93985078342E+02 0.  0.
        254    2    1    2    0    0  0.13383119650E+03  0.19077364453E+03 -0.61137667821E+03  0.11118523639E+04  0.89895987888E+03 0.  0.
        -24    2    4    4    0    0  0.10671437091E+03  0.19003592845E+02  0.21904587066E+03  0.25969634631E+03  0.87818023957E+02 0.  0.
         24    2    4    4    0    0  0.27116825589E+02  0.17177005169E+03 -0.83042254888E+03  0.85215601759E+03  0.79548700431E+02 0.  0.
         13    1    3    3    0    0  0.14446304180E+02 -0.18925321178E+02  0.35714693939E+02  0.42923220398E+02  0.00000000000E+00 0.  1.
        -13    1    3    3    0    0 -0.14827750068E+03 -0.17184832336E+03  0.43593142330E+03  0.49148170797E+03  0.00000000000E+00 0. -1.
          2    1    6    6  502    0  0.14583808728E+02 -0.33953264193E+01 -0.86502602924E+02  0.87789042773E+02  0.00000000000E+00 0. -1.
          1    1    5    5  503    0  0.50260419131E+02 -0.31293176487E+02  0.63932616028E+02  0.87136398928E+02  0.00000000000E+00 0. -1.
         -4    1    5    5    0  503  0.56453951782E+02  0.50296769332E+02  0.15511325463E+03  0.17255994738E+03  0.00000000000E+00 0.  1.
         -1    1    6    6    0  502  0.12533016861E+02  0.17516537811E+03 -0.74391994595E+03  0.76436697481E+03  0.00000000000E+00 0.  1.
<mgrwt>
<rscale>  0 0.16403166E+04</rscale>
<asrwt>0</asrwt>
<pdfrwt beam="1">  1        2 0.11588667E+00 0.16403166E+04</pdfrwt>
<pdfrwt beam="2">  1       -2 0.13738368E+00 0.16403166E+04</pdfrwt>
<totfact> 0.13440515E+01</totfact>
</mgrwt>
</event>
<event>
12    1  0.1532786E-007  0.1346980E+04  0.7818608E-02  0.8993118E-01
          2   -1    0    0  501    0  0.00000000000E+00  0.00000000000E+00  0.21500076647E+04  0.21500076647E+04  0.00000000000E+00 0. -1.
         -2   -1    0    0    0  501 -0.00000000000E+00 -0.00000000000E+00 -0.21097063571E+03  0.21097063571E+03  0.00000000000E+00 0.  1.
         23    2    1    2    0    0  0.13186012559E+03  0.27331422601E+03  0.19082301196E+03  0.36885731036E+03  0.86916826068E+02 0.  0.
        254    2    1    2    0    0 -0.13186012559E+03 -0.27331422601E+03  0.17482140170E+04  0.19921209900E+04  0.90565226816E+03 0.  0.
        -24    2    4    4    0    0 -0.49792014125E+03 -0.59371096650E+02  0.11223408172E+04  0.12319923841E+04  0.81895850475E+02 0.  0.
         24    2    4    4    0    0  0.36606001566E+03 -0.21394312936E+03  0.62587319982E+03  0.76012860596E+03  0.79414341712E+02 0.  0.
         13    1    3    3    0    0  0.57815584406E+02  0.98637558266E+02  0.12157956380E+03  0.16689397843E+03  0.00000000000E+00 0. -1.
        -13    1    3    3    0    0  0.74044541182E+02  0.17467666775E+03  0.69243448156E+02  0.20196333193E+03  0.00000000000E+00 0.  1.
          4    1    6    6  502    0  0.20799964065E+03 -0.96718605798E+02  0.39494188648E+03  0.45672467955E+03  0.00000000000E+00 0. -1.
          3    1    5    5  503    0 -0.49658015178E+03 -0.65407776080E+02  0.10974386820E+04  0.12063339857E+04  0.00000000000E+00 0. -1.
         -4    1    5    5    0  503 -0.13399894706E+01  0.60366794299E+01  0.24902135192E+02  0.25658398381E+02  0.00000000000E+00 0.  1.
         -3    1    6    6    0  502  0.15806037502E+03 -0.11722452356E+03  0.23093131334E+03  0.30340392641E+03  0.00000000000E+00 0.  1.
<mgrwt>
<rscale>  0 0.13469796E+04</rscale>
<asrwt>0</asrwt>
<pdfrwt beam="1">  1        2 0.33077039E+00 0.13469796E+04</pdfrwt>
<pdfrwt beam="2">  1       -2 0.32457022E-01 0.13469796E+04</pdfrwt>
<totfact> 0.47670733E+01</totfact>
</mgrwt>
</event>
<event>
12    1  0.1532786E-007  0.1090729E+04  0.7818608E-02  0.9214275E-01
         -1   -1    0    0    0  501 -0.00000000000E+00  0.00000000000E+00  0.13658721184E+03  0.13658721184E+03  0.00000000000E+00 0.  1.
          1   -1    0    0  501    0  0.00000000000E+00 -0.00000000000E+00 -0.21775277020E+04  0.21775277020E+04  0.00000000000E+00 0. -1.
         23    2    1    2    0    0 -0.13923440460E+03 -0.55731280105E+02 -0.36243741161E+03  0.40285317601E+03  0.91856459119E+02 0.  0.
        254    2    1    2    0    0  0.13923440460E+03  0.55731280105E+02 -0.16785030786E+04  0.19112617378E+04  0.90169654029E+03 0.  0.
        -24    2    4    4    0    0 -0.19329524360E+03  0.35265517493E+03 -0.48976916405E+03  0.63865347192E+03  0.79219312920E+02 0.  0.
         24    2    4    4    0    0  0.33252964820E+03 -0.29692389483E+03 -0.11887339145E+04  0.12726082659E+04  0.87770796456E+02 0.  0.
         13    1    3    3    0    0  0.88072730385E+01  0.71982994631E+01 -0.51820335827E+02  0.53054036404E+02  0.00000000000E+00 0. -1.
        -13    1    3    3    0    0 -0.14804167763E+03 -0.62929579568E+02 -0.31061707579E+03  0.34979913961E+03  0.00000000000E+00 0.  1.
          2    1    6    6  502    0  0.61293826067E+02 -0.33286779698E+02 -0.27434791413E+03  0.28307546839E+03  0.00000000000E+00 0. -1.
          3    1    5    5  503    0 -0.63521389089E+02  0.12067398785E+03 -0.11055378070E+03  0.17555431251E+03  0.00000000000E+00 0. -1.
         -4    1    5    5    0  503 -0.12977385451E+03  0.23198118708E+03 -0.37921538335E+03  0.46309915941E+03  0.00000000000E+00 0.  1.
         -1    1    6    6    0  502  0.27123582213E+03 -0.26363711513E+03 -0.91438600038E+03  0.98953279752E+03  0.00000000000E+00 0.  1.
<mgrwt>
<rscale>  0 0.10907290E+04</rscale>
<asrwt>0</asrwt>
<pdfrwt beam="1">  1        1 0.33500426E+00 0.10907290E+04</pdfrwt>
<pdfrwt beam="2">  1       -1 0.21013418E-01 0.10907290E+04</pdfrwt>
<totfact> 0.42566721E+01</totfact>
</mgrwt>
</event>
<event>
12    1  0.1532786E-007  0.2248600E+04  0.7818608E-02  0.8498468E-01
          2   -1    0    0  501    0  0.00000000000E+00  0.00000000000E+00  0.12744589794E+04  0.12744589794E+04  0.00000000000E+00 0.  1.
         -2   -1    0    0    0  501 -0.00000000000E+00 -0.00000000000E+00 -0.99183327382E+03  0.99183327382E+03  0.00000000000E+00 0. -1.
         23    2    1    2    0    0  0.92035697496E+03 -0.64958020235E+01 -0.10906909434E+03  0.93064289993E+03  0.84267330804E+02 0.  0.
        254    2    1    2    0    0 -0.92035697496E+03  0.64958020235E+01  0.39169479989E+03  0.13356493533E+04  0.88511876142E+03 0.  0.
        -24    2    4    4    0    0 -0.87746049361E+03 -0.31560616979E+03  0.23286474094E+03  0.96467284534E+03  0.82604713504E+02 0.  0.
         24    2    4    4    0    0 -0.42896481351E+02  0.32210197182E+03  0.15883005895E+03  0.37097650793E+03  0.82503293593E+02 0.  0.
         11    1    3    3    0    0  0.63526173965E+03  0.11490093150E+02 -0.11091940563E+03  0.64497489458E+03  0.00000000000E+00 0. -1.
        -11    1    3    3    0    0  0.28509523532E+03 -0.17985895173E+02  0.18503112909E+01  0.28566800534E+03  0.00000000000E+00 0.  1.
          4    1    6    6  502    0 -0.16711114408E+02  0.21769808702E+03  0.64002827531E+02  0.22752599932E+03  0.00000000000E+00 0. -1.
          3    1    5    5  503    0 -0.61019683703E+03 -0.24629848858E+03  0.19268412300E+03  0.68566048205E+03  0.00000000000E+00 0. -1.
         -4    1    5    5    0  503 -0.26726365658E+03 -0.69307681218E+02  0.40180617945E+02  0.27901236328E+03  0.00000000000E+00 0.  1.
         -3    1    6    6    0  502 -0.26185366942E+02  0.10440388480E+03  0.94827231416E+02  0.14345050861E+03  0.00000000000E+00 0.  1.
<mgrwt>
<rscale>  0 0.22486003E+04</rscale>
<asrwt>0</asrwt>
<pdfrwt beam="1">  1        2 0.19607061E+00 0.22486003E+04</pdfrwt>
<pdfrwt beam="2">  1       -2 0.15258973E+00 0.22486003E+04</pdfrwt>
<totfact> 0.44601047E+00</totfact>
</mgrwt>
</event>
<event>
12    1  0.1532786E-007  0.2139853E+04  0.7818608E-02  0.8543888E-01
          2   -1    0    0  501    0  0.00000000000E+00  0.00000000000E+00  0.32629761342E+04  0.32629761342E+04  0.00000000000E+00 0.  1.
         -2   -1    0    0    0  501 -0.00000000000E+00 -0.00000000000E+00 -0.35082772059E+03  0.35082772059E+03  0.00000000000E+00 0. -1.
         23    2    1    2    0    0  0.44188664495E+03 -0.75337058022E+03  0.13311496161E+04  0.15947012104E+04  0.91003360980E+02 0.  0.
        254    2    1    2    0    0 -0.44188664495E+03  0.75337058022E+03  0.15809987975E+04  0.20191026444E+04  0.90243407125E+03 0.  0.
        -24    2    4    4    0    0 -0.12189357802E+03  0.57284167844E+03  0.15293036299E+04  0.16396019249E+04  0.80741852667E+02 0.  0.
         24    2    4    4    0    0 -0.31999306692E+03  0.18052890178E+03  0.51695167507E+02  0.37950071946E+03  0.79763139809E+02 0.  0.
         11    1    3    3    0    0  0.82831638237E+01 -0.57859930866E+02  0.83394362388E+02  0.10183811703E+03  0.00000000000E+00 0.  1.
        -11    1    3    3    0    0  0.43360348112E+03 -0.69551064935E+03  0.12477552537E+04  0.14928630933E+04  0.00000000000E+00 0. -1.
          2    1    6    6  502    0 -0.15752454442E+01  0.18668536310E+02  0.14884616358E+01  0.18793912956E+02  0.00000000000E+00 0. -1.
          1    1    5    5  503    0 -0.80158568623E+02  0.23049795044E+03  0.70575758095E+03  0.74675863861E+03  0.00000000000E+00 0. -1.
         -2    1    5    5    0  503 -0.41735009399E+02  0.34234372800E+03  0.82354604900E+03  0.89284328632E+03  0.00000000000E+00 0.  1.
         -1    1    6    6    0  502 -0.31841782148E+03  0.16186036547E+03  0.50206705871E+02  0.36070680651E+03  0.00000000000E+00 0.  1.
<mgrwt>
<rscale>  0 0.21398528E+04</rscale>
<asrwt>0</asrwt>
<pdfrwt beam="1">  1        2 0.50199631E+00 0.21398528E+04</pdfrwt>
<pdfrwt beam="2">  1       -2 0.53973498E-01 0.21398528E+04</pdfrwt>
<totfact> 0.35104385E+00</totfact>
</mgrwt>
</event>
<event>
12    1  0.1532786E-007  0.1654093E+04  0.7818608E-02  0.8787989E-01
         -2   -1    0    0    0  501 -0.00000000000E+00  0.00000000000E+00  0.61768241641E+03  0.61768241641E+03  0.00000000000E+00 0.  1.
          2   -1    0    0  501    0  0.00000000000E+00 -0.00000000000E+00 -0.11073747113E+04  0.11073747113E+04  0.00000000000E+00 0. -1.
         23    2    1    2    0    0  0.30752914563E+03  0.64582119762E+02 -0.67999275611E+03  0.75456068995E+03  0.90700941880E+02 0.  0.
        254    2    1    2    0    0 -0.30752914563E+03 -0.64582119762E+02  0.19030046117E+03  0.97049643780E+03  0.89827837816E+03 0.  0.
        -24    2    4    4    0    0 -0.61404912437E+02  0.24351456505E+03  0.42844999726E+03  0.50288244890E+03  0.79066115384E+02 0.  0.
         24    2    4    4    0    0 -0.24612423319E+03 -0.30809668481E+03 -0.23814953609E+03  0.46761398890E+03  0.80292812402E+02 0.  0.
         13    1    3    3    0    0  0.26593630632E+03  0.28794621068E+02 -0.60629401468E+03  0.66267916933E+03  0.00000000000E+00 0. -1.
        -13    1    3    3    0    0  0.41592839305E+02  0.35787498694E+02 -0.73698741424E+02  0.91881520621E+02  0.00000000000E+00 0.  1.
          4    1    6    6  502    0 -0.10777401280E+03 -0.75263353309E+02 -0.72092946944E+02  0.14992399136E+03  0.00000000000E+00 0. -1.
          1    1    5    5  503    0 -0.15210363954E+01  0.16031867914E+03  0.27563218798E+03  0.31886908832E+03  0.00000000000E+00 0. -1.
         -2    1    5    5    0  503 -0.59883876042E+02  0.83195885910E+02  0.15281780927E+03  0.18401336058E+03  0.00000000000E+00 0.  1.
         -3    1    6    6    0  502 -0.13835022039E+03 -0.23283333150E+03 -0.16605658914E+03  0.31768999754E+03  0.00000000000E+00 0.  1.
<mgrwt>
<rscale>  0 0.16540930E+04</rscale>
<asrwt>0</asrwt>
<pdfrwt beam="1">  1        2 0.17036534E+00 0.16540930E+04</pdfrwt>
<pdfrwt beam="2">  1       -2 0.95028065E-01 0.16540930E+04</pdfrwt>
<totfact> 0.19178427E+01</totfact>
</mgrwt>
</event>
<event>
12    1  0.1532786E-007  0.1935666E+04  0.7818608E-02  0.8637304E-01
         -2   -1    0    0    0  501 -0.00000000000E+00  0.00000000000E+00  0.14464552425E+04  0.14464552425E+04  0.00000000000E+00 0.  1.
          2   -1    0    0  501    0  0.00000000000E+00 -0.00000000000E+00 -0.64758378207E+03  0.64758378207E+03  0.00000000000E+00 0. -1.
         23    2    1    2    0    0 -0.39498137716E+03  0.21550633545E+03 -0.37777989844E+03  0.59556163136E+03  0.97584507822E+02 0.  0.
        254    2    1    2    0    0  0.39498137716E+03 -0.21550633545E+03  0.11766513589E+04  0.14984773932E+04  0.81146337485E+03 0.  0.
        -24    2    4    4    0    0  0.63118032074E+03 -0.21591725524E+03  0.77418494557E+03  0.10251284634E+04  0.80729040723E+02 0.  0.
         24    2    4    4    0    0 -0.23619894359E+03  0.41091978583E+00  0.40246641330E+03  0.47334892987E+03  0.79308800042E+02 0.  0.
         13    1    3    3    0    0 -0.16005936350E+02 -0.92095516816E+01 -0.71109461792E+01  0.19788163032E+02  0.00000000000E+00 0.  1.
        -13    1    3    3    0    0 -0.37897544081E+03  0.22471588713E+03 -0.37066895226E+03  0.57577346833E+03  0.00000000000E+00 0. -1.
          4    1    6    6  502    0 -0.14267236619E+03 -0.38603366229E+02  0.23594791190E+03  0.27841882316E+03  0.00000000000E+00 0. -1.
          3    1    5    5  503    0  0.21487806406E+03 -0.51351074955E+02  0.30547187664E+03  0.37699148894E+03  0.00000000000E+00 0. -1.
         -4    1    5    5    0  503  0.41630225668E+03 -0.16456618028E+03  0.46871306893E+03  0.64813697441E+03  0.00000000000E+00 0.  1.
         -3    1    6    6    0  502 -0.93526577396E+02  0.39014286015E+02  0.16651850140E+03  0.19493010671E+03  0.00000000000E+00 0.  1.
<mgrwt>
<rscale>  0 0.19356662E+04</rscale>
<asrwt>0</asrwt>
<pdfrwt beam="1">  1        2 0.99628274E-01 0.19356662E+04</pdfrwt>
<pdfrwt beam="2">  1       -2 0.22253158E+00 0.19356662E+04</pdfrwt>
<totfact> 0.40160188E+00</totfact>
</mgrwt>
</event>
<event>
12    1  0.2131073E-007  0.1839297E+04  0.7818608E-02  0.8685676E-01
          1   -1    0    0  501    0  0.00000000000E+00  0.00000000000E+00  0.15842436451E+04  0.15842436451E+04  0.00000000000E+00 0. -1.
         -1   -1    0    0    0  501 -0.00000000000E+00 -0.00000000000E+00 -0.53385330658E+03  0.53385330658E+03  0.00000000000E+00 0.  1.
         23    2    1    2    0    0  0.16970027147E+03 -0.10823445355E+03  0.11667035433E+04  0.11895834286E+04  0.11575273950E+03 0.  0.
        254    2    1    2    0    0 -0.16970027147E+03  0.10823445355E+03 -0.11631320477E+03  0.92851352303E+03  0.89894144513E+03 0.  0.
        -24    2    4    4    0    0 -0.21256222697E+03  0.40912499249E+03 -0.30829126850E+03  0.56028323097E+03  0.79421866429E+02 0.  0.
         24    2    4    4    0    0  0.42861955492E+02 -0.30089053894E+03  0.19197806372E+03  0.36823029206E+03  0.79785383306E+02 0.  0.
         11    1    3    3    0    0  0.11415469428E+03 -0.54966538793E+01  0.51900860904E+03  0.53144279437E+03  0.00000000000E+00 0.  1.
        -11    1    3    3    0    0  0.55545577192E+02 -0.10273779967E+03  0.64769493424E+03  0.65814063426E+03  0.00000000000E+00 0. -1.
          4    1    6    6  502    0  0.22583640586E+02 -0.13998819372E+02  0.18052846790E+02  0.32123092054E+02  0.00000000000E+00 0. -1.
          1    1    5    5  503    0  0.29592570760E+01  0.12783145013E+02  0.12071596204E+01  0.13176616911E+02  0.00000000000E+00 0. -1.
         -2    1    5    5    0  503 -0.21552148404E+03  0.39634184747E+03 -0.30949842812E+03  0.54710661406E+03  0.00000000000E+00 0.  1.
         -3    1    6    6    0  502  0.20278314906E+02 -0.28689171956E+03  0.17392521693E+03  0.33610720000E+03  0.00000000000E+00 0.  1.
<mgrwt>
<rscale>  0 0.18392974E+04</rscale>
<asrwt>0</asrwt>
<pdfrwt beam="1">  1        1 0.24372979E+00 0.18392974E+04</pdfrwt>
<pdfrwt beam="2">  1       -1 0.82131278E-01 0.18392974E+04</pdfrwt>
<totfact> 0.79328765E+00</totfact>
</mgrwt>
</event>
<event>
12    1  0.1532786E-007  0.2259802E+04  0.7818608E-02  0.8493941E-01
         -2   -1    0    0    0  501 -0.00000000000E+00  0.00000000000E+00  0.10137799934E+04  0.10137799934E+04  0.00000000000E+00 0.  1.
          2   -1    0    0  501    0  0.00000000000E+00 -0.00000000000E+00 -0.12593230074E+04  0.12593230074E+04  0.00000000000E+00 0. -1.
         23    2    1    2    0    0  0.86919544362E+03 -0.16906618991E+03 -0.43981804523E+03  0.99256606587E+03  0.87540770079E+02 0.  0.
        254    2    1    2    0    0 -0.86919544362E+03  0.16906618991E+03  0.19427503113E+03  0.12805369349E+04  0.90440475354E+03 0.  0.
        -24    2    4    4    0    0 -0.35173535904E+03 -0.40431549123E+01  0.52544296054E+03  0.63731965640E+03  0.79698994615E+02 0.  0.
         24    2    4    4    0    0 -0.51746008458E+03  0.17310934483E+03 -0.33116792941E+03  0.64321727853E+03  0.79526634137E+02 0.  0.
         13    1    3    3    0    0  0.51445487475E+03 -0.11358266419E+03 -0.30680286462E+03  0.60966616890E+03  0.00000000000E+00 0. -1.
        -13    1    3    3    0    0  0.35474056887E+03 -0.55483525726E+02 -0.13301518060E+03  0.38289989697E+03  0.00000000000E+00 0.  1.
          4    1    6    6  502    0 -0.46804280810E+03  0.18009733405E+03 -0.30213196933E+03  0.58547659803E+03  0.00000000000E+00 0. -1.
          1    1    5    5  503    0 -0.27371392022E+03  0.30375606417E+02  0.39990097471E+03  0.48555409293E+03  0.00000000000E+00 0. -1.
         -2    1    5    5    0  503 -0.78021438827E+02 -0.34418761329E+02  0.12554198584E+03  0.15176556347E+03  0.00000000000E+00 0.  1.
         -3    1    6    6    0  502 -0.49417276472E+02 -0.69879892193E+01 -0.29035960082E+02  0.57740680504E+02  0.00000000000E+00 0.  1.
<mgrwt>
<rscale>  0 0.22598022E+04</rscale>
<asrwt>0</asrwt>
<pdfrwt beam="1">  1        2 0.19374200E+00 0.22598022E+04</pdfrwt>
<pdfrwt beam="2">  1       -2 0.15596615E+00 0.22598022E+04</pdfrwt>
<totfact> 0.42890719E+00</totfact>
</mgrwt>
</event>
<event>
12    1  0.1532786E-007  0.1641243E+04  0.7818608E-02  0.8795604E-01
         -2   -1    0    0    0  501 -0.00000000000E+00  0.00000000000E+00  0.60061943236E+03  0.60061943236E+03  0.00000000000E+00 0.  1.
          2   -1    0    0  501    0  0.00000000000E+00 -0.00000000000E+00 -0.11212079536E+04  0.11212079536E+04  0.00000000000E+00 0. -1.
         23    2    1    2    0    0 -0.38675492882E+03  0.10405090637E+03  0.23321925465E+03  0.47252205519E+03  0.92086404049E+02 0.  0.
        254    2    1    2    0    0  0.38675492882E+03 -0.10405090637E+03 -0.75380777586E+03  0.12493053307E+04  0.91221251931E+03 0.  0.
        -24    2    4    4    0    0  0.51003753541E+03  0.16178949069E+03 -0.77476058107E+03  0.94505893523E+03  0.81045087737E+02 0.  0.
         24    2    4    4    0    0 -0.12328260659E+03 -0.26584039707E+03  0.20952805203E+02  0.30424639552E+03  0.79102031212E+02 0.  0.
         13    1    3    3    0    0 -0.37781521930E+03  0.10137704047E+03  0.20263902557E+03  0.44054990518E+03  0.00000000000E+00 0.  1.
        -13    1    3    3    0    0 -0.89397095188E+01  0.26738658990E+01  0.30580229080E+02  0.31972150002E+02  0.00000000000E+00 0. -1.
          2    1    6    6  502    0 -0.17116956315E+02 -0.12990742833E+03  0.75455710831E+01  0.13124734577E+03  0.00000000000E+00 0. -1.
          1    1    5    5  503    0  0.17313173372E+03  0.69129416498E+02 -0.33504910486E+03  0.38342062557E+03  0.00000000000E+00 0. -1.
         -2    1    5    5    0  503  0.33690580169E+03  0.92660074194E+02 -0.43971147621E+03  0.56163830966E+03  0.00000000000E+00 0.  1.
         -1    1    6    6    0  502 -0.10616565027E+03 -0.13593296873E+03  0.13407234120E+02  0.17299904975E+03  0.00000000000E+00 0.  1.
<mgrwt>
<rscale>  0 0.16412426E+04</rscale>
<asrwt>0</asrwt>
<pdfrwt beam="1">  1        2 0.17249353E+00 0.16412426E+04</pdfrwt>
<pdfrwt beam="2">  1       -2 0.92402991E-01 0.16412426E+04</pdfrwt>
<totfact> 0.20095706E+01</totfact>
</mgrwt>
</event>
<event>
12    1  0.1532786E-007  0.1902749E+04  0.7818608E-02  0.8653489E-01
         -2   -1    0    0    0  501 -0.00000000000E+00  0.00000000000E+00  0.29723603647E+03  0.29723603647E+03  0.00000000000E+00 0.  1.
          2   -1    0    0  501    0  0.00000000000E+00 -0.00000000000E+00 -0.30450998845E+04  0.30450998845E+04  0.00000000000E+00 0. -1.
         23    2    1    2    0    0  0.63497097986E+03  0.22849763121E+03 -0.55976166598E+03  0.88156946056E+03  0.91827437928E+02 0.  0.
        254    2    1    2    0    0 -0.63497097986E+03 -0.22849763121E+03 -0.21881021821E+04  0.24607664605E+04  0.90121090813E+03 0.  0.
        -24    2    4    4    0    0 -0.18820872088E+03 -0.17678094861E+03 -0.50534540002E+02  0.27504937167E+03  0.80152297011E+02 0.  0.
         24    2    4    4    0    0 -0.44676225897E+03 -0.51716682604E+02 -0.21375676421E+04  0.21857170888E+04  0.76763509745E+02 0.  0.
         13    1    3    3    0    0  0.34034736370E+03  0.12260186941E+03 -0.35898278780E+03  0.50964319705E+03  0.00000000000E+00 0. -1.
        -13    1    3    3    0    0  0.29462361615E+03  0.10589576180E+03 -0.20077887818E+03  0.37192626351E+03  0.00000000000E+00 0.  1.
          2    1    6    6  502    0 -0.42371370789E+03 -0.35940903068E+02 -0.20555594236E+04  0.20990830376E+04  0.00000000000E+00 0. -1.
          1    1    5    5  503    0 -0.10233985471E+03 -0.86102859840E+02  0.14005453490E+02  0.13447416504E+03  0.00000000000E+00 0. -1.
         -2    1    5    5    0  503 -0.85868866173E+02 -0.90678088767E+02 -0.64539993492E+02  0.14057520663E+03  0.00000000000E+00 0.  1.
         -1    1    6    6    0  502 -0.23048551084E+02 -0.15775779536E+02 -0.82008218478E+02  0.86634051187E+02  0.00000000000E+00 0.  1.
<mgrwt>
<rscale>  0 0.19027490E+04</rscale>
<asrwt>0</asrwt>
<pdfrwt beam="1">  1        2 0.46847687E+00 0.19027490E+04</pdfrwt>
<pdfrwt beam="2">  1       -2 0.45728624E-01 0.19027490E+04</pdfrwt>
<totfact> 0.69478909E+00</totfact>
</mgrwt>
</event>
<event>
12    1  0.1532786E-007  0.1583342E+04  0.7818608E-02  0.8830847E-01
         -2   -1    0    0    0  501 -0.00000000000E+00  0.00000000000E+00  0.36528380596E+03  0.36528380596E+03  0.00000000000E+00 0.  1.
          2   -1    0    0  501    0  0.00000000000E+00 -0.00000000000E+00 -0.17157704039E+04  0.17157704039E+04  0.00000000000E+00 0. -1.
         23    2    1    2    0    0 -0.28353699746E+03  0.84684480414E+02  0.11344001904E+03  0.32873854896E+03  0.87382523970E+02 0.  0.
        254    2    1    2    0    0  0.28353699746E+03 -0.84684480414E+02 -0.14639266170E+04  0.17523156609E+04  0.91649568760E+03 0.  0.
        -24    2    4    4    0    0  0.43657265998E+03  0.25683807241E+03 -0.11439951801E+04  0.12535457554E+04  0.78041693041E+02 0.  0.
         24    2    4    4    0    0 -0.15303566251E+03 -0.34152255282E+03 -0.31993143692E+03  0.49876990556E+03  0.79735351466E+02 0.  0.
         11    1    3    3    0    0 -0.66020795538E+02  0.47339963348E+02  0.61813507252E+02  0.10208196340E+03  0.00000000000E+00 0.  1.
        -11    1    3    3    0    0 -0.21751620193E+03  0.37344517066E+02  0.51626511792E+02  0.22665658555E+03  0.00000000000E+00 0. -1.
          4    1    6    6  502    0 -0.89477062421E+02 -0.16598035560E+03 -0.11196860147E+03  0.21930022996E+03  0.00000000000E+00 0. -1.
          3    1    5    5  503    0  0.25503275846E+03  0.10513395779E+03 -0.62548348173E+03  0.68361132443E+03  0.00000000000E+00 0. -1.
         -4    1    5    5    0  503  0.18153990152E+03  0.15170411462E+03 -0.51851169838E+03  0.56993443096E+03  0.00000000000E+00 0.  1.
         -3    1    6    6    0  502 -0.63558600092E+02 -0.17554219722E+03 -0.20796283545E+03  0.27946967560E+03  0.00000000000E+00 0.  1.
<mgrwt>
<rscale>  0 0.15833422E+04</rscale>
<asrwt>0</asrwt>
<pdfrwt beam="1">  1        2 0.26396468E+00 0.15833422E+04</pdfrwt>
<pdfrwt beam="2">  1       -2 0.56197509E-01 0.15833422E+04</pdfrwt>
<totfact> 0.27425097E+01</totfact>
</mgrwt>
</event>
<event>
12    1  0.1532786E-007  0.1603841E+04  0.7818608E-02  0.8818192E-01
          1   -1    0    0  501    0  0.00000000000E+00  0.00000000000E+00  0.14680848670E+04  0.14680848670E+04  0.00000000000E+00 0. -1.
         -1   -1    0    0    0  501 -0.00000000000E+00 -0.00000000000E+00 -0.43803747990E+03  0.43803747990E+03  0.00000000000E+00 0.  1.
         23    2    1    2    0    0  0.36390011084E+03  0.35777548678E+03  0.67564609385E+03  0.85172866046E+03  0.92290179856E+02 0.  0.
        254    2    1    2    0    0 -0.36390011084E+03 -0.35777548678E+03  0.35440129330E+03  0.10543936865E+04  0.85189153053E+03 0.  0.
        -24    2    4    4    0    0 -0.63826946416E+02 -0.29939117953E+03  0.58323200230E+03  0.66355103587E+03  0.80196329256E+02 0.  0.
         24    2    4    4    0    0 -0.30007316443E+03 -0.58384307257E+02 -0.22883070900E+03  0.39084265061E+03  0.83317782100E+02 0.  0.
         11    1    3    3    0    0 -0.86891578846E+00  0.22394635254E+02  0.38896639333E+02  0.44891238056E+02  0.00000000000E+00 0.  1.
        -11    1    3    3    0    0  0.36476902663E+03  0.33538085153E+03  0.63674945452E+03  0.80683742240E+03  0.00000000000E+00 0. -1.
          2    1    6    6  502    0 -0.27378175687E+03 -0.36082903896E+02 -0.22489905810E+03  0.35614324742E+03  0.00000000000E+00 0. -1.
          1    1    5    5  503    0 -0.82123947009E+02 -0.21858940033E+03  0.43755496218E+03  0.49596372199E+03  0.00000000000E+00 0. -1.
         -2    1    5    5    0  503  0.18297000592E+02 -0.80801779196E+02  0.14567704013E+03  0.16758731387E+03  0.00000000000E+00 0.  1.
         -1    1    6    6    0  502 -0.26291407558E+02 -0.22301403361E+02 -0.39316509003E+01  0.34699403194E+02  0.00000000000E+00 0.  1.
<mgrwt>
<rscale>  0 0.16038406E+04</rscale>
<asrwt>0</asrwt>
<pdfrwt beam="1">  1        1 0.22585921E+00 0.16038406E+04</pdfrwt>
<pdfrwt beam="2">  1       -1 0.67390382E-01 0.16038406E+04</pdfrwt>
<totfact> 0.14727014E+01</totfact>
</mgrwt>
</event>
<event>
12    1  0.1532786E-007  0.1838857E+04  0.7818608E-02  0.8685905E-01
          2   -1    0    0  501    0  0.00000000000E+00  0.00000000000E+00  0.99295575312E+03  0.99295575312E+03  0.00000000000E+00 0. -1.
         -2   -1    0    0    0  501 -0.00000000000E+00 -0.00000000000E+00 -0.85134542630E+03  0.85134542630E+03  0.00000000000E+00 0.  1.
         23    2    1    2    0    0 -0.30520934557E+03 -0.10510281322E+03 -0.55947267887E+03  0.65253858247E+03  0.92723121369E+02 0.  0.
        254    2    1    2    0    0  0.30520934557E+03  0.10510281322E+03  0.70108300570E+03  0.11917625969E+04  0.90806462360E+03 0.  0.
        -24    2    4    4    0    0  0.37677940901E+03  0.25361551542E+03 -0.60310430774E+01  0.46143846155E+03  0.81274396983E+02 0.  0.
         24    2    4    4    0    0 -0.71570063439E+02 -0.14851270219E+03  0.70711404878E+03  0.73032413539E+03  0.78643296398E+02 0.  0.
         11    1    3    3    0    0 -0.12670065169E+03 -0.76932993546E+02 -0.31874842324E+03  0.35152851655E+03  0.00000000000E+00 0. -1.
        -11    1    3    3    0    0 -0.17850869388E+03 -0.28169819677E+02 -0.24072425564E+03  0.30101006592E+03  0.00000000000E+00 0.  1.
          2    1    6    6  502    0 -0.40176459513E+02 -0.11093798852E+02  0.15730277362E+03  0.16273101382E+03  0.00000000000E+00 0. -1.
          3    1    5    5  503    0  0.17930999879E+03  0.80907759551E+02  0.20386474757E+02  0.19777196357E+03  0.00000000000E+00 0. -1.
         -4    1    5    5    0  503  0.19746941022E+03  0.17270775587E+03 -0.26417517834E+02  0.26366649798E+03  0.00000000000E+00 0.  1.
         -1    1    6    6    0  502 -0.31393603926E+02 -0.13741890334E+03  0.54981127516E+03  0.56759312157E+03  0.00000000000E+00 0.  1.
<mgrwt>
<rscale>  0 0.18388565E+04</rscale>
<asrwt>0</asrwt>
<pdfrwt beam="1">  1        2 0.15276242E+00 0.18388565E+04</pdfrwt>
<pdfrwt beam="2">  1       -2 0.13097622E+00 0.18388565E+04</pdfrwt>
<totfact> 0.10208102E+01</totfact>
</mgrwt>
</event>
<event>
12    1  0.1532786E-007  0.1589041E+04  0.7818608E-02  0.8827309E-01
          2   -1    0    0  501    0  0.00000000000E+00  0.00000000000E+00  0.12578738702E+04  0.12578738702E+04  0.00000000000E+00 0. -1.
         -2   -1    0    0    0  501 -0.00000000000E+00 -0.00000000000E+00 -0.50184930132E+03  0.50184930132E+03  0.00000000000E+00 0.  1.
         23    2    1    2    0    0  0.32336769169E+03  0.11364802702E+03 -0.19235607740E+03  0.40361440279E+03  0.91767028684E+02 0.  0.
        254    2    1    2    0    0 -0.32336769169E+03 -0.11364802702E+03  0.94838064628E+03  0.13561087687E+04  0.90670976851E+03 0.  0.
        -24    2    4    4    0    0 -0.41015891469E+03  0.10340408909E+03  0.10131772611E+04  0.11008752550E+04  0.80470016357E+02 0.  0.
         24    2    4    4    0    0  0.86791223004E+02 -0.21705211611E+03 -0.64796614864E+02  0.25523351377E+03  0.79380147121E+02 0.  0.
         13    1    3    3    0    0  0.17081071233E+03  0.53532671662E+02 -0.15179221938E+03  0.23469751649E+03  0.00000000000E+00 0. -1.
        -13    1    3    3    0    0  0.15255697936E+03  0.60115355362E+02 -0.40563858025E+02  0.16891688630E+03  0.00000000000E+00 0.  1.
          4    1    6    6  502    0  0.84894412886E+02 -0.22077419192E+03 -0.71701961424E+02  0.24716285407E+03  0.00000000000E+00 0. -1.
          3    1    5    5  503    0 -0.24499403990E+03  0.81845734931E+02  0.70037776464E+03  0.74649167250E+03  0.00000000000E+00 0. -1.
         -4    1    5    5    0  503 -0.16516487480E+03  0.21558354154E+02  0.31279949651E+03  0.35438358246E+03  0.00000000000E+00 0.  1.
         -3    1    6    6    0  502  0.18968101187E+01  0.37220758127E+01  0.69053465606E+01  0.80706597068E+01  0.00000000000E+00 0.  1.
<mgrwt>
<rscale>  0 0.15890414E+04</rscale>
<asrwt>0</asrwt>
<pdfrwt beam="1">  1        2 0.19351906E+00 0.15890414E+04</pdfrwt>
<pdfrwt beam="2">  1       -2 0.77207585E-01 0.15890414E+04</pdfrwt>
<totfact> 0.25142865E+01</totfact>
</mgrwt>
</event>
<event>
12    1  0.1532786E-007  0.1440088E+04  0.7818608E-02  0.8925302E-01
         -1   -1    0    0    0  501 -0.00000000000E+00  0.00000000000E+00  0.10081543206E+04  0.10081543206E+04  0.00000000000E+00 0.  1.
          1   -1    0    0  501    0  0.00000000000E+00 -0.00000000000E+00 -0.51426953970E+03  0.51426953970E+03  0.00000000000E+00 0. -1.
         23    2    1    2    0    0 -0.19451883686E+03 -0.38002797908E+03  0.24233800504E+03  0.49940916016E+03  0.91776673433E+02 0.  0.
        254    2    1    2    0    0  0.19451883686E+03  0.38002797908E+03  0.25154677587E+03  0.10230147001E+04  0.89499969468E+03 0.  0.
        -24    2    4    4    0    0 -0.25403698026E+02  0.51180507166E+03 -0.15010477830E+03  0.53964862756E+03  0.78098767674E+02 0.  0.
         24    2    4    4    0    0  0.21992253489E+03 -0.13177709258E+03  0.40165155417E+03  0.48336607258E+03  0.81164436053E+02 0.  0.
         13    1    3    3    0    0 -0.12941759187E+03 -0.15327660578E+03  0.10476931403E+03  0.22631668106E+03  0.00000000000E+00 0. -1.
        -13    1    3    3    0    0 -0.65101244993E+02 -0.22675137330E+03  0.13756869101E+03  0.27309247910E+03  0.00000000000E+00 0.  1.
          2    1    6    6  502    0 -0.10341711974E+01 -0.22226359595E+02  0.35800415981E+02  0.42151516643E+02  0.00000000000E+00 0. -1.
          3    1    5    5  503    0  0.27765792664E+02  0.19648141671E+03 -0.63668625091E+02  0.20839764916E+03  0.00000000000E+00 0. -1.
         -4    1    5    5    0  503 -0.53169490690E+02  0.31532365495E+03 -0.86436153206E+02  0.33125097840E+03  0.00000000000E+00 0.  1.
         -1    1    6    6    0  502  0.22095670609E+03 -0.10955073298E+03  0.36585113819E+03  0.44121455594E+03  0.00000000000E+00 0.  1.
<mgrwt>
<rscale>  0 0.14400876E+04</rscale>
<asrwt>0</asrwt>
<pdfrwt beam="1">  1        1 0.79118391E-01 0.14400876E+04</pdfrwt>
<pdfrwt beam="2">  1       -1 0.15510066E+00 0.14400876E+04</pdfrwt>
<totfact> 0.13198520E+01</totfact>
</mgrwt>
</event>
<event>
12    1  0.1532786E-007  0.1317422E+04  0.7818608E-02  0.9015862E-01
         -2   -1    0    0    0  501 -0.00000000000E+00  0.00000000000E+00  0.28167022265E+03  0.28167022265E+03  0.00000000000E+00 0.  1.
          2   -1    0    0  501    0  0.00000000000E+00 -0.00000000000E+00 -0.15404540732E+04  0.15404540732E+04  0.00000000000E+00 0. -1.
         23    2    1    2    0    0 -0.90655440031E+02  0.12381730301E+03  0.85891715622E+02  0.19872726334E+03  0.92552714981E+02 0.  0.
        254    2    1    2    0    0  0.90655440031E+02 -0.12381730301E+03 -0.13446755662E+04  0.16233970325E+04  0.89650232211E+03 0.  0.
        -24    2    4    4    0    0 -0.46478351035E+02  0.36279509786E+03 -0.39430489886E+03  0.54400459660E+03  0.81756514777E+02 0.  0.
         24    2    4    4    0    0  0.13713379107E+03 -0.48661240087E+03 -0.95037066729E+03  0.10793924359E+04  0.79286316994E+02 0.  0.
         11    1    3    3    0    0 -0.10402207386E+03  0.76981219968E+02  0.52389757655E+02  0.13961155678E+03  0.00000000000E+00 0.  1.
        -11    1    3    3    0    0  0.13366633833E+02  0.46836083041E+02  0.33501957967E+02  0.59115706562E+02  0.00000000000E+00 0. -1.
          4    1    6    6  502    0  0.10563666210E+03 -0.23011604844E+03 -0.45874234598E+03  0.52398190820E+03  0.00000000000E+00 0. -1.
          1    1    5    5  503    0 -0.26947146529E+02  0.54494262832E+02 -0.34963498036E+02  0.70130019126E+02  0.00000000000E+00 0. -1.
         -2    1    5    5    0  503 -0.19531204505E+02  0.30830083503E+03 -0.35934140082E+03  0.47387457747E+03  0.00000000000E+00 0.  1.
         -3    1    6    6    0  502  0.31497128968E+02 -0.25649635244E+03 -0.49162832131E+03  0.55541052768E+03  0.00000000000E+00 0.  1.
<mgrwt>
<rscale>  0 0.13174218E+04</rscale>
<asrwt>0</asrwt>
<pdfrwt beam="1">  1        2 0.23699293E+00 0.13174218E+04</pdfrwt>
<pdfrwt beam="2">  1       -2 0.43333880E-01 0.13174218E+04</pdfrwt>
<totfact> 0.59519389E+01</totfact>
</mgrwt>
</event>
<event>
12    1  0.1532786E-007  0.1142264E+04  0.7818608E-02  0.9164950E-01
         -1   -1    0    0    0  501 -0.00000000000E+00  0.00000000000E+00  0.39041955779E+03  0.39041955779E+03  0.00000000000E+00 0.  1.
          1   -1    0    0  501    0  0.00000000000E+00 -0.00000000000E+00 -0.83549029343E+03  0.83549029343E+03  0.00000000000E+00 0. -1.
         23    2    1    2    0    0 -0.21555387111E+02 -0.15296067081E+03 -0.23686311010E+03  0.29578028121E+03  0.86719319070E+02 0.  0.
        254    2    1    2    0    0  0.21555387111E+02  0.15296067081E+03 -0.20820762554E+03  0.93012957000E+03  0.89326871664E+03 0.  0.
        -24    2    4    4    0    0  0.43503703846E+03 -0.38396567043E+02 -0.11303457684E+03  0.45807587274E+03  0.79530927578E+02 0.  0.
         24    2    4    4    0    0 -0.41348165134E+03  0.19135723785E+03 -0.95173048706E+02  0.47205369726E+03  0.78689995663E+02 0.  0.
         13    1    3    3    0    0  0.27127079289E+02 -0.49986020102E+02 -0.44454614276E+02  0.72185132588E+02  0.00000000000E+00 0.  1.
        -13    1    3    3    0    0 -0.48682466399E+02 -0.10297465071E+03 -0.19240849582E+03  0.22359514862E+03  0.00000000000E+00 0. -1.
          4    1    6    6  502    0 -0.47220676816E+02  0.38384730386E+02 -0.36109095303E+02  0.70760487627E+02  0.00000000000E+00 0. -1.
          3    1    5    5  503    0  0.37652274399E+03 -0.34721392565E+02 -0.68091568627E+02  0.38420230811E+03  0.00000000000E+00 0. -1.
         -4    1    5    5    0  503  0.58514294470E+02 -0.36751744784E+01 -0.44943008209E+02  0.73873564633E+02  0.00000000000E+00 0.  1.
         -3    1    6    6    0  502 -0.36626097453E+03  0.15297250747E+03 -0.59063953404E+02  0.40129320963E+03  0.00000000000E+00 0.  1.
<mgrwt>
<rscale>  0 0.11422640E+04</rscale>
<asrwt>0</asrwt>
<pdfrwt beam="1">  1        1 0.12853697E+00 0.11422640E+04</pdfrwt>
<pdfrwt beam="2">  1       -1 0.60064548E-01 0.11422640E+04</pdfrwt>
<totfact> 0.57546521E+01</totfact>
</mgrwt>
</event>
<event>
12    1  0.1532786E-007  0.2092914E+04  0.7818608E-02  0.8564371E-01
          1   -1    0    0  501    0  0.00000000000E+00  0.00000000000E+00  0.51569493124E+03  0.51569493124E+03  0.00000000000E+00 0. -1.
         -1   -1    0    0    0  501 -0.00000000000E+00 -0.00000000000E+00 -0.21234886187E+04  0.21234886187E+04  0.00000000000E+00 0.  1.
         23    2    1    2    0    0  0.59915465829E+03 -0.32596919625E+03 -0.12980115955E+04  0.14691768271E+04  0.91674563990E+02 0.  0.
        254    2    1    2    0    0 -0.59915465829E+03  0.32596919625E+03 -0.30978209199E+03  0.11700067229E+04  0.89872607932E+03 0.  0.
        -24    2    4    4    0    0 -0.43813204126E+02 -0.50474313810E+02  0.26349082773E+03  0.28335524237E+03  0.79972019298E+02 0.  0.
         24    2    4    4    0    0 -0.55534145417E+03  0.37644351006E+03 -0.57327291973E+03  0.88665148053E+03  0.85995118739E+02 0.  0.
         13    1    3    3    0    0  0.43902439061E+03 -0.20196590354E+03 -0.96919134566E+03  0.10829886916E+04  0.00000000000E+00 0.  1.
        -13    1    3    3    0    0  0.16013026769E+03 -0.12400329271E+03 -0.32882024983E+03  0.38618813540E+03  0.00000000000E+00 0. -1.
          2    1    6    6  502    0 -0.52658925073E+03  0.37147747892E+03 -0.52959310384E+03  0.83412266002E+03  0.00000000000E+00 0. -1.
          1    1    5    5  503    0 -0.30235543237E+02 -0.68185028369E+02  0.23830362025E+03  0.24970382775E+03  0.00000000000E+00 0. -1.
         -2    1    5    5    0  503 -0.13577660889E+02  0.17710714559E+02  0.25187207482E+02  0.33651414623E+02  0.00000000000E+00 0.  1.
         -1    1    6    6    0  502 -0.28752203433E+02  0.49660311426E+01 -0.43679815885E+02  0.52528820502E+02  0.00000000000E+00 0.  1.
<mgrwt>
<rscale>  0 0.20929141E+04</rscale>
<asrwt>0</asrwt>
<pdfrwt beam="1">  1        1 0.79337681E-01 0.20929141E+04</pdfrwt>
<pdfrwt beam="2">  1       -1 0.32669056E+00 0.20929141E+04</pdfrwt>
<totfact> 0.86549802E-01</totfact>
</mgrwt>
</event>
<event>
12    1  0.1532786E-007  0.1308786E+04  0.7818608E-02  0.9022627E-01
          2   -1    0    0  501    0  0.00000000000E+00  0.00000000000E+00  0.22564399905E+04  0.22564399905E+04  0.00000000000E+00 0. -1.
         -2   -1    0    0    0  501 -0.00000000000E+00 -0.00000000000E+00 -0.18978129903E+03  0.18978129903E+03  0.00000000000E+00 0.  1.
         23    2    1    2    0    0  0.71719992032E+02 -0.17155671807E+03  0.28489408389E+02  0.20869088985E+03  0.90359151979E+02 0.  0.
        254    2    1    2    0    0 -0.71719992032E+02  0.17155671807E+03  0.20381692831E+04  0.22375303997E+04  0.90434108513E+03 0.  0.
        -24    2    4    4    0    0  0.13660545446E+03  0.32051213142E+03  0.19050444234E+04  0.19381350333E+04  0.76053109880E+02 0.  0.
         24    2    4    4    0    0 -0.20832544650E+03 -0.14895541335E+03  0.13312485967E+03  0.29939536639E+03  0.79549672093E+02 0.  0.
         11    1    3    3    0    0  0.52739722074E+02 -0.16338911626E+03  0.50041085627E+02  0.17883397845E+03  0.00000000000E+00 0.  1.
        -11    1    3    3    0    0  0.18980269958E+02 -0.81676018096E+01 -0.21551677239E+02  0.29856911408E+02  0.00000000000E+00 0. -1.
          4    1    6    6  502    0 -0.73072311900E+02 -0.17431098972E+02  0.63279558803E+02  0.98222749605E+02  0.00000000000E+00 0. -1.
          1    1    5    5  503    0 -0.86842894865E+01  0.34408068052E+02  0.21230320364E+03  0.21524865227E+03  0.00000000000E+00 0. -1.
         -2    1    5    5    0  503  0.14528974395E+03  0.28610406337E+03  0.16927412198E+04  0.17228863810E+04  0.00000000000E+00 0.  1.
         -3    1    6    6    0  502 -0.13525313460E+03 -0.13152431438E+03  0.69845300863E+02  0.20117261679E+03  0.00000000000E+00 0.  1.
<mgrwt>
<rscale>  0 0.13087859E+04</rscale>
<asrwt>0</asrwt>
<pdfrwt beam="1">  1        2 0.34714459E+00 0.13087859E+04</pdfrwt>
<pdfrwt beam="2">  1       -2 0.29197125E-01 0.13087859E+04</pdfrwt>
<totfact> 0.50829681E+01</totfact>
</mgrwt>
</event>
<event>
12    1  0.1532786E-007  0.2586627E+04  0.7818608E-02  0.8372758E-01
         -1   -1    0    0    0  501 -0.00000000000E+00  0.00000000000E+00  0.14978434809E+04  0.14978434809E+04  0.00000000000E+00 0.  1.
          1   -1    0    0  501    0  0.00000000000E+00 -0.00000000000E+00 -0.11167117158E+04  0.11167117158E+04  0.00000000000E+00 0. -1.
         23    2    1    2    0    0 -0.84923631876E+03  0.12671192513E+03  0.91096115974E+03  0.12549580893E+04  0.88381753664E+02 0.  0.
        254    2    1    2    0    0  0.84923631876E+03 -0.12671192513E+03 -0.52982939462E+03  0.13595971074E+04  0.91133246945E+03 0.  0.
        -24    2    4    4    0    0  0.98549412701E+03 -0.13212014532E+03 -0.62280453511E+03  0.11760951053E+04  0.81607601974E+02 0.  0.
         24    2    4    4    0    0 -0.13625780825E+03  0.54082201810E+01  0.92975140492E+02  0.18350200201E+03  0.80207037337E+02 0.  0.
         13    1    3    3    0    0 -0.82844248704E+03  0.12144385160E+03  0.90450626694E+03  0.12325571591E+04  0.00000000000E+00 0.  1.
        -13    1    3    3    0    0 -0.20793831712E+02  0.52680735316E+01  0.64548927957E+01  0.22400930271E+02  0.00000000000E+00 0. -1.
          4    1    6    6  502    0 -0.88782175154E+02  0.11947416981E+02  0.10089818933E+03  0.13492761025E+03  0.00000000000E+00 0. -1.
          3    1    5    5  503    0  0.10707078342E+03 -0.27453939290E+02 -0.96534709168E+02  0.14675428961E+03  0.00000000000E+00 0. -1.
         -4    1    5    5    0  503  0.87842334358E+03 -0.10466620603E+03 -0.52626982594E+03  0.10293408157E+04  0.00000000000E+00 0.  1.
         -3    1    6    6    0  502 -0.47475633095E+02 -0.65391968000E+01 -0.79230488330E+01  0.48574391766E+02  0.00000000000E+00 0.  1.
<mgrwt>
<rscale>  0 0.25866267E+04</rscale>
<asrwt>0</asrwt>
<pdfrwt beam="1">  1        1 0.17180180E+00 0.25866267E+04</pdfrwt>
<pdfrwt beam="2">  1       -1 0.23043746E+00 0.25866267E+04</pdfrwt>
<totfact> 0.10183135E+00</totfact>
</mgrwt>
</event>
<event>
12    1  0.1532786E-007  0.2940311E+04  0.7818608E-02  0.8260984E-01
          2   -1    0    0  501    0  0.00000000000E+00  0.00000000000E+00  0.17747242575E+04  0.17747242575E+04  0.00000000000E+00 0. -1.
         -2   -1    0    0    0  501 -0.00000000000E+00 -0.00000000000E+00 -0.12178551543E+04  0.12178551543E+04  0.00000000000E+00 0.  1.
         23    2    1    2    0    0 -0.89166290680E+03 -0.55005040745E+03 -0.59554189491E+03  0.12082025114E+04  0.86400056451E+02 0.  0.
        254    2    1    2    0    0  0.89166290680E+03  0.55005040745E+03  0.11524109981E+04  0.17843769004E+04  0.87082238379E+03 0.  0.
        -24    2    4    4    0    0  0.90968191885E+03  0.12272982544E+03  0.85452907537E+03  0.12566985618E+04  0.80545211745E+02 0.  0.
         24    2    4    4    0    0 -0.18019012053E+02  0.42732058201E+03  0.29788192271E+03  0.52767833857E+03  0.82360333375E+02 0.  0.
         13    1    3    3    0    0 -0.57540713755E+03 -0.33741302191E+03 -0.33394096664E+03  0.74596078349E+03  0.00000000000E+00 0. -1.
        -13    1    3    3    0    0 -0.31625576925E+03 -0.21263738554E+03 -0.26160092827E+03  0.46224172787E+03  0.00000000000E+00 0.  1.
          4    1    6    6  502    0 -0.35835859229E+02  0.31596033166E+03  0.18390227219E+03  0.36733524974E+03  0.00000000000E+00 0. -1.
          3    1    5    5  503    0  0.66679461588E+03  0.10657436888E+03  0.66989693880E+03  0.95117562231E+03  0.00000000000E+00 0. -1.
         -4    1    5    5    0  503  0.24288730298E+03  0.16155456560E+02  0.18463213657E+03  0.30552293953E+03  0.00000000000E+00 0.  1.
         -3    1    6    6    0  502  0.17816847176E+02  0.11136025035E+03  0.11397965052E+03  0.16034308883E+03  0.00000000000E+00 0.  1.
<mgrwt>
<rscale>  0 0.29403109E+04</rscale>
<asrwt>0</asrwt>
<pdfrwt beam="1">  1        2 0.27303450E+00 0.29403109E+04</pdfrwt>
<pdfrwt beam="2">  1       -2 0.18736233E+00 0.29403109E+04</pdfrwt>
<totfact> 0.12381227E+00</totfact>
</mgrwt>
</event>
<event>
12    1  0.1532786E-007  0.1911500E+04  0.7818608E-02  0.8649153E-01
          1   -1    0    0  501    0  0.00000000000E+00  0.00000000000E+00  0.15367528174E+04  0.15367528174E+04  0.00000000000E+00 0. -1.
         -1   -1    0    0    0  501 -0.00000000000E+00 -0.00000000000E+00 -0.59440797815E+03  0.59440797815E+03  0.00000000000E+00 0.  1.
         23    2    1    2    0    0  0.10078395261E+03  0.40468350871E+03 -0.31746113127E+03  0.53153386001E+03  0.88433744387E+02 0.  0.
        254    2    1    2    0    0 -0.10078395261E+03 -0.40468350871E+03  0.12598059706E+04  0.15996269356E+04  0.89317921060E+03 0.  0.
        -24    2    4    4    0    0  0.86808201270E+02  0.23819630815E+03  0.16371988780E+03  0.31207447467E+03  0.79455214158E+02 0.  0.
         24    2    4    4    0    0 -0.18759215388E+03 -0.64287981686E+03  0.10960860827E+04  0.12875524609E+04  0.88889615052E+02 0.  0.
         13    1    3    3    0    0  0.83834199417E+02  0.37541497150E+03 -0.31576926048E+03  0.49766936783E+03  0.00000000000E+00 0.  1.
        -13    1    3    3    0    0  0.16949753191E+02  0.29268537212E+02 -0.16918707934E+01  0.33864492179E+02  0.00000000000E+00 0. -1.
          4    1    6    6  502    0 -0.13471267430E+03 -0.51917344102E+03  0.81107167545E+03  0.97238152451E+03  0.00000000000E+00 0. -1.
          3    1    5    5  503    0  0.39967480112E+02  0.20338718860E+03  0.13011895155E+03  0.24473391573E+03  0.00000000000E+00 0. -1.
         -4    1    5    5    0  503  0.46840721158E+02  0.34809119545E+02  0.33600936252E+02  0.67340558946E+02  0.00000000000E+00 0.  1.
         -3    1    6    6    0  502 -0.52879479576E+02 -0.12370637583E+03  0.28501440730E+03  0.31517093639E+03  0.00000000000E+00 0.  1.
<mgrwt>
<rscale>  0 0.19115001E+04</rscale>
<asrwt>0</asrwt>
<pdfrwt beam="1">  1        1 0.23642351E+00 0.19115001E+04</pdfrwt>
<pdfrwt beam="2">  1       -1 0.91447382E-01 0.19115001E+04</pdfrwt>
<totfact> 0.67231887E+00</totfact>
</mgrwt>
</event>
<event>
12    1  0.1532786E-007  0.1247017E+04  0.7818608E-02  0.9072669E-01
         -2   -1    0    0    0  501 -0.00000000000E+00  0.00000000000E+00  0.43504997526E+03  0.43504997526E+03  0.00000000000E+00 0.  1.
          2   -1    0    0  501    0  0.00000000000E+00 -0.00000000000E+00 -0.89360558388E+03  0.89360558388E+03  0.00000000000E+00 0. -1.
         23    2    1    2    0    0  0.91721308963E-01  0.27210842109E+03 -0.26023808955E+03  0.38606759208E+03  0.85330657785E+02 0.  0.
        254    2    1    2    0    0 -0.91721308963E-01 -0.27210842109E+03 -0.19831751907E+03  0.94258796706E+03  0.88039720356E+03 0.  0.
        -24    2    4    4    0    0  0.85420329581E+02  0.25923521134E+03  0.12366651474E+03  0.31036091715E+03  0.80814383124E+02 0.  0.
         24    2    4    4    0    0 -0.85512050890E+02 -0.53134363243E+03 -0.32198403381E+03  0.63222704991E+03  0.79993487524E+02 0.  0.
         13    1    3    3    0    0 -0.17859889938E+02  0.24814238072E+03 -0.20154739832E+03  0.32017959109E+03  0.00000000000E+00 0.  1.
        -13    1    3    3    0    0  0.17951611247E+02  0.23966040367E+02 -0.58690691231E+02  0.65888000990E+02  0.00000000000E+00 0. -1.
          4    1    6    6  502    0 -0.50379452873E+02 -0.22478358159E+03 -0.95062991090E+02  0.24920417352E+03  0.00000000000E+00 0. -1.
          3    1    5    5  503    0  0.14838901447E+02  0.47041276045E+02 -0.92946681556E+01  0.50194277605E+02  0.00000000000E+00 0. -1.
         -4    1    5    5    0  503  0.70581428134E+02  0.21219393529E+03  0.13296118290E+03  0.26016663954E+03  0.00000000000E+00 0.  1.
         -3    1    6    6    0  502 -0.35132598017E+02 -0.30656005083E+03 -0.22692104272E+03  0.38302287639E+03  0.00000000000E+00 0.  1.
<mgrwt>
<rscale>  0 0.12470174E+04</rscale>
<asrwt>0</asrwt>
<pdfrwt beam="1">  1        2 0.13747778E+00 0.12470174E+04</pdfrwt>
<pdfrwt beam="2">  1       -2 0.66930765E-01 0.12470174E+04</pdfrwt>
<totfact> 0.59726215E+01</totfact>
</mgrwt>
</event>
<event>
12    1  0.1532786E-007  0.1679673E+04  0.7818608E-02  0.8773043E-01
          1   -1    0    0  501    0  0.00000000000E+00  0.00000000000E+00  0.19014720875E+04  0.19014720875E+04  0.00000000000E+00 0. -1.
         -1   -1    0    0    0  501 -0.00000000000E+00 -0.00000000000E+00 -0.37093653573E+03  0.37093653573E+03  0.00000000000E+00 0.  1.
         23    2    1    2    0    0  0.14168021432E+03 -0.12399539428E+02 -0.23094036326E+03  0.28613055718E+03  0.91160367813E+02 0.  0.
        254    2    1    2    0    0 -0.14168021432E+03  0.12399539428E+02  0.17614759151E+04  0.19862780661E+04  0.90679442252E+03 0.  0.
        -24    2    4    4    0    0  0.96306159654E+02  0.31547034444E+03  0.14355486000E+04  0.14751636182E+04  0.80693884231E+02 0.  0.
         24    2    4    4    0    0 -0.23798637398E+03 -0.30307080501E+03  0.32592731506E+03  0.51111444785E+03  0.80746127166E+02 0.  0.
         11    1    3    3    0    0  0.36686034223E+01 -0.22577149368E+01 -0.84644141451E+02  0.84753681983E+02  0.00000000000E+00 0. -1.
        -11    1    3    3    0    0  0.13801161090E+03 -0.10141824491E+02 -0.14629622181E+03  0.20137687520E+03  0.00000000000E+00 0.  1.
          4    1    6    6  502    0 -0.11025572144E+02 -0.31816544245E+02  0.59294986134E+02  0.68189083506E+02  0.00000000000E+00 0. -1.
          1    1    5    5  503    0 -0.10004024762E+02  0.20610182585E+02  0.16194919696E+03  0.16356161693E+03  0.00000000000E+00 0. -1.
         -2    1    5    5    0  503  0.10631018442E+03  0.29486016185E+03  0.12735994031E+04  0.13116020013E+04  0.00000000000E+00 0.  1.
         -3    1    6    6    0  502 -0.22696080183E+03 -0.27125426076E+03  0.26663232892E+03  0.44292536434E+03  0.00000000000E+00 0.  1.
<mgrwt>
<rscale>  0 0.16796731E+04</rscale>
<asrwt>0</asrwt>
<pdfrwt beam="1">  1        1 0.29253416E+00 0.16796731E+04</pdfrwt>
<pdfrwt beam="2">  1       -1 0.57067160E-01 0.16796731E+04</pdfrwt>
<totfact> 0.10303404E+01</totfact>
</mgrwt>
</event>
<event>
12    1  0.1532786E-007  0.1192109E+04  0.7818608E-02  0.9119792E-01
         -1   -1    0    0    0  501 -0.00000000000E+00  0.00000000000E+00  0.13537756863E+03  0.13537756863E+03  0.00000000000E+00 0.  1.
          1   -1    0    0  501    0  0.00000000000E+00 -0.00000000000E+00 -0.26243696426E+04  0.26243696426E+04  0.00000000000E+00 0. -1.
         23    2    1    2    0    0 -0.15193957242E+03  0.99562354255E+02 -0.93237482997E+03  0.95427655309E+03  0.91228395570E+02 0.  0.
        254    2    1    2    0    0  0.15193957242E+03 -0.99562354255E+02 -0.15566172440E+04  0.18054706582E+04  0.89647574258E+03 0.  0.
        -24    2    4    4    0    0  0.97042379671E+02 -0.48118565483E+03 -0.10692948704E+04  0.11790057335E+04  0.75539008984E+02 0.  0.
         24    2    4    4    0    0  0.54897192747E+02  0.38162330058E+03 -0.48732237366E+03  0.62646492470E+03  0.79530878883E+02 0.  0.
         11    1    3    3    0    0 -0.66791763678E+02  0.87637395154E+02 -0.64395270730E+03  0.65331197904E+03  0.00000000000E+00 0. -1.
        -11    1    3    3    0    0 -0.85147808740E+02  0.11924959101E+02 -0.28842212267E+03  0.30096457404E+03  0.00000000000E+00 0.  1.
          2    1    6    6  502    0  0.26581125383E+02  0.39713480108E+02 -0.86854076036E+02  0.99132977626E+02  0.00000000000E+00 0. -1.
          1    1    5    5  503    0  0.47309708876E+02 -0.88223831481E+02 -0.19621779705E+03  0.22027954257E+03  0.00000000000E+00 0. -1.
         -2    1    5    5    0  503  0.49732670795E+02 -0.39296182335E+03 -0.87307707334E+03  0.95872619091E+03  0.00000000000E+00 0.  1.
         -1    1    6    6    0  502  0.28316067365E+02  0.34190982047E+03 -0.40046829762E+03  0.52733194707E+03  0.00000000000E+00 0.  1.
<mgrwt>
<rscale>  0 0.11921087E+04</rscale>
<asrwt>0</asrwt>
<pdfrwt beam="1">  1        1 0.40374915E+00 0.11921087E+04</pdfrwt>
<pdfrwt beam="2">  1       -1 0.20827320E-01 0.11921087E+04</pdfrwt>
<totfact> 0.21160667E+01</totfact>
</mgrwt>
</event>
<event>
12    1  0.1532786E-007  0.1737294E+04  0.7818608E-02  0.8740376E-01
          1   -1    0    0  501    0  0.00000000000E+00  0.00000000000E+00  0.96946705532E+03  0.96946705532E+03  0.00000000000E+00 0. -1.
         -1   -1    0    0    0  501 -0.00000000000E+00 -0.00000000000E+00 -0.77831172716E+03  0.77831172716E+03  0.00000000000E+00 0.  1.
         23    2    1    2    0    0  0.46326847600E+03 -0.41196643621E+03  0.18444142485E+03  0.65357804985E+03  0.93870137026E+02 0.  0.
        254    2    1    2    0    0 -0.46326847600E+03  0.41196643621E+03  0.67139033066E+01  0.10942007326E+04  0.90160753179E+03 0.  0.
        -24    2    4    4    0    0  0.17257519611E+03  0.30459636784E+03  0.20694925650E+03  0.41433420510E+03  0.79269749197E+02 0.  0.
         24    2    4    4    0    0 -0.63584367211E+03  0.10737006837E+03 -0.20023535319E+03  0.67986652754E+03  0.79364927077E+02 0.  0.
         11    1    3    3    0    0  0.12059693656E+03 -0.11497370354E+03  0.93581022031E+02  0.19110201803E+03  0.00000000000E+00 0. -1.
        -11    1    3    3    0    0  0.34267153944E+03 -0.29699273267E+03  0.90860402821E+02  0.46247603181E+03  0.00000000000E+00 0.  1.
          2    1    6    6  502    0 -0.35990466033E+03  0.27404720097E+02 -0.88717816636E+02  0.37168970150E+03  0.00000000000E+00 0. -1.
          3    1    5    5  503    0  0.11739264984E+03  0.23779039810E+03  0.11832686176E+03  0.29039034743E+03  0.00000000000E+00 0. -1.
         -4    1    5    5    0  503  0.55182546270E+02  0.66805969738E+02  0.88622394739E+02  0.12394385767E+03  0.00000000000E+00 0.  1.
         -1    1    6    6    0  502 -0.27593901178E+03  0.79965348275E+02 -0.11151753656E+03  0.30817682604E+03  0.00000000000E+00 0.  1.
<mgrwt>
<rscale>  0 0.17372940E+04</rscale>
<asrwt>0</asrwt>
<pdfrwt beam="1">  1        1 0.14914878E+00 0.17372940E+04</pdfrwt>
<pdfrwt beam="2">  1       -1 0.11974027E+00 0.17372940E+04</pdfrwt>
<totfact> 0.94443108E+00</totfact>
</mgrwt>
</event>
<event>
12    1  0.1532786E-007  0.1213514E+04  0.7818608E-02  0.9101109E-01
          3   -1    0    0  501    0  0.00000000000E+00  0.00000000000E+00  0.13771239591E+03  0.13771239591E+03  0.00000000000E+00 0. -1.
         -3   -1    0    0    0  501 -0.00000000000E+00 -0.00000000000E+00 -0.26733550820E+04  0.26733550820E+04  0.00000000000E+00 0.  1.
         23    2    1    2    0    0  0.18219373151E+03 -0.20075495997E+02 -0.15020669388E+03  0.25394882275E+03  0.91270873522E+02 0.  0.
        254    2    1    2    0    0 -0.18219373151E+03  0.20075495997E+02 -0.23854359922E+04  0.25571186552E+04  0.90274767365E+03 0.  0.
        -24    2    4    4    0    0  0.25095702795E+03 -0.16552103529E+03 -0.16569936597E+04  0.16858617629E+04  0.78263990374E+02 0.  0.
         24    2    4    4    0    0 -0.43315075946E+03  0.18559653129E+03 -0.72844233249E+03  0.87125689228E+03  0.79966791409E+02 0.  0.
         13    1    3    3    0    0  0.10509190441E+03 -0.21253873233E+02 -0.13973476173E+03  0.17613017668E+03  0.00000000000E+00 0.  1.
        -13    1    3    3    0    0  0.77101827098E+02  0.11783772357E+01 -0.10471932145E+02  0.77818646080E+02  0.00000000000E+00 0. -1.
          4    1    6    6  502    0 -0.40498980840E+03  0.18820529438E+03 -0.70489942779E+03  0.83445861553E+03  0.00000000000E+00 0. -1.
          3    1    5    5  503    0  0.19551562171E+03 -0.15638046332E+03 -0.14460170045E+04  0.14675307100E+04  0.00000000000E+00 0. -1.
         -4    1    5    5    0  503  0.55441406243E+02 -0.91405719737E+01 -0.21097665524E+03  0.21833105285E+03  0.00000000000E+00 0.  1.
         -3    1    6    6    0  502 -0.28160951063E+02 -0.26087630904E+01 -0.23542904703E+02  0.36798276746E+02  0.00000000000E+00 0.  1.
<mgrwt>
<rscale>  0 0.12135141E+04</rscale>
<asrwt>0</asrwt>
<pdfrwt beam="1">  1        3 0.21186523E-01 0.12135141E+04</pdfrwt>
<pdfrwt beam="2">  1       -3 0.41128539E+00 0.12135141E+04</pdfrwt>
<totfact> 0.50009452E-01</totfact>
</mgrwt>
</event>
<event>
12    1  0.1532786E-007  0.2678655E+04  0.7818608E-02  0.8341964E-01
         -2   -1    0    0    0  501 -0.00000000000E+00  0.00000000000E+00  0.63004263546E+03  0.63004263546E+03  0.00000000000E+00 0.  1.
          2   -1    0    0  501    0  0.00000000000E+00 -0.00000000000E+00 -0.28471064324E+04  0.28471064324E+04  0.00000000000E+00 0. -1.
         23    2    1    2    0    0  0.41540940493E+03  0.82128397517E+03 -0.19548348661E+04  0.21626645186E+04  0.93092022196E+02 0.  0.
        254    2    1    2    0    0 -0.41540940493E+03 -0.82128397517E+03 -0.26222893082E+03  0.13144845493E+04  0.90112889009E+03 0.  0.
        -24    2    4    4    0    0 -0.42615838660E+03 -0.44506061953E+03 -0.55297067052E+03  0.83206932114E+03  0.82902757479E+02 0.  0.
         24    2    4    4    0    0  0.10748981672E+02 -0.37622335563E+03  0.29074173970E+03  0.48241522813E+03  0.80834022529E+02 0.  0.
         13    1    3    3    0    0  0.13651726183E+03  0.25305252566E+03 -0.71357087279E+03  0.76932173635E+03  0.00000000000E+00 0.  1.
        -13    1    3    3    0    0  0.27889214310E+03  0.56823144950E+03 -0.12412639933E+04  0.13933427822E+04  0.00000000000E+00 0. -1.
          2    1    6    6  502    0 -0.22141784635E+02 -0.56369598734E+02  0.69111413428E+02  0.91892207255E+02  0.00000000000E+00 0. -1.
          3    1    5    5  503    0 -0.10537444331E+03 -0.15794625992E+03 -0.19510085673E+03  0.27224095691E+03  0.00000000000E+00 0. -1.
         -4    1    5    5    0  503 -0.32078394329E+03 -0.28711435961E+03 -0.35786981380E+03  0.55982836423E+03  0.00000000000E+00 0.  1.
         -1    1    6    6    0  502  0.32890766307E+02 -0.31985375690E+03  0.22163032628E+03  0.39052302088E+03  0.00000000000E+00 0.  1.
<mgrwt>
<rscale>  0 0.26786552E+04</rscale>
<asrwt>0</asrwt>
<pdfrwt beam="1">  1        2 0.43801637E+00 0.26786552E+04</pdfrwt>
<pdfrwt beam="2">  1       -2 0.96929636E-01 0.26786552E+04</pdfrwt>
<totfact> 0.16910122E+00</totfact>
</mgrwt>
</event>
<event>
12    1  0.1532786E-007  0.1441125E+04  0.7818608E-02  0.8924577E-01
         -2   -1    0    0    0  501 -0.00000000000E+00  0.00000000000E+00  0.64466205362E+03  0.64466205362E+03  0.00000000000E+00 0. -1.
          2   -1    0    0  501    0  0.00000000000E+00 -0.00000000000E+00 -0.80539891141E+03  0.80539891141E+03  0.00000000000E+00 0.  1.
         23    2    1    2    0    0 -0.35278602446E+03  0.15336950119E+03  0.15316288022E+03  0.42378133998E+03  0.90286063662E+02 0.  0.
        254    2    1    2    0    0  0.35278602446E+03 -0.15336950119E+03 -0.31389973800E+03  0.10262796250E+04  0.89818519267E+03 0.  0.
        -24    2    4    4    0    0  0.23698067328E+03  0.36893864032E+02  0.28540119756E+03  0.38187918795E+03  0.82806243175E+02 0.  0.
         24    2    4    4    0    0  0.11580535118E+03 -0.19026336522E+03 -0.59930093556E+03  0.64440043710E+03  0.80494002688E+02 0.  0.
         11    1    3    3    0    0  0.52147563600E+01  0.24654927525E+01  0.60397181312E+01  0.83516784846E+01  0.00000000000E+00 0.  1.
        -11    1    3    3    0    0 -0.35800078082E+03  0.15090400843E+03  0.14712316209E+03  0.41542966150E+03  0.00000000000E+00 0. -1.
          4    1    6    6  502    0  0.57765394333E+02 -0.12017899990E+03 -0.24878753424E+03  0.28226772751E+03  0.00000000000E+00 0. -1.
          1    1    5    5  503    0  0.22471499351E+03  0.54156633783E+02  0.27139449626E+03  0.35648946954E+03  0.00000000000E+00 0. -1.
         -2    1    5    5    0  503  0.12265679774E+02 -0.17262769751E+02  0.14006701293E+02  0.25389718410E+02  0.00000000000E+00 0.  1.
         -3    1    6    6    0  502  0.58039956845E+02 -0.70084365316E+02 -0.35051340132E+03  0.36213270959E+03  0.00000000000E+00 0.  1.
<mgrwt>
<rscale>  0 0.14411247E+04</rscale>
<asrwt>0</asrwt>
<pdfrwt beam="1">  1        2 0.12390752E+00 0.14411247E+04</pdfrwt>
<pdfrwt beam="2">  1       -2 0.99178778E-01 0.14411247E+04</pdfrwt>
<totfact> 0.27909875E+01</totfact>
</mgrwt>
</event>
<event>
12    1  0.1532786E-007  0.1486973E+04  0.7818608E-02  0.8893162E-01
         -2   -1    0    0    0  501 -0.00000000000E+00  0.00000000000E+00  0.60843042011E+03  0.60843042011E+03  0.00000000000E+00 0.  1.
          2   -1    0    0  501    0  0.00000000000E+00 -0.00000000000E+00 -0.90852209122E+03  0.90852209122E+03  0.00000000000E+00 0. -1.
         23    2    1    2    0    0 -0.26838176802E+03 -0.38240181976E+03 -0.43102164818E+02  0.47775929374E+03  0.90201003220E+02 0.  0.
        254    2    1    2    0    0  0.26838176802E+03  0.38240181976E+03 -0.25698950630E+03  0.10391932176E+04  0.89197478214E+03 0.  0.
        -24    2    4    4    0    0 -0.10583743642E+03 -0.17734742877E+03 -0.28424127706E+03  0.36058767149E+03  0.81096805166E+02 0.  0.
         24    2    4    4    0    0  0.37421920444E+03  0.55974924853E+03  0.27251770759E+02  0.67860554610E+03  0.80022459267E+02 0.  0.
         11    1    3    3    0    0 -0.96263948557E+02 -0.83636239336E+02 -0.37481348746E+02  0.13291583738E+03  0.00000000000E+00 0.  1.
        -11    1    3    3    0    0 -0.17211781946E+03 -0.29876558042E+03 -0.56208160725E+01  0.34484345636E+03  0.00000000000E+00 0. -1.
          4    1    6    6  502    0  0.77313361104E+02  0.67247007996E+02 -0.53519064158E+01  0.10260681650E+03  0.00000000000E+00 0. -1.
          1    1    5    5  503    0 -0.49477746656E+02 -0.22678498346E+02 -0.97374450149E+02  0.11155332914E+03  0.00000000000E+00 0. -1.
         -2    1    5    5    0  503 -0.56359689763E+02 -0.15466893042E+03 -0.18686682691E+03  0.24903434235E+03  0.00000000000E+00 0.  1.
         -3    1    6    6    0  502  0.29690584333E+03  0.49250224053E+03  0.32603677175E+02  0.57599872960E+03  0.00000000000E+00 0.  1.
<mgrwt>
<rscale>  0 0.14869734E+04</rscale>
<asrwt>0</asrwt>
<pdfrwt beam="1">  1        2 0.13977263E+00 0.14869734E+04</pdfrwt>
<pdfrwt beam="2">  1       -2 0.93604681E-01 0.14869734E+04</pdfrwt>
<totfact> 0.27005179E+01</totfact>
</mgrwt>
</event>
<event>
12    1  0.1532786E-007  0.1604748E+04  0.7818608E-02  0.8817636E-01
          2   -1    0    0  501    0  0.00000000000E+00  0.00000000000E+00  0.12347303796E+04  0.12347303796E+04  0.00000000000E+00 0.  1.
         -2   -1    0    0    0  501 -0.00000000000E+00 -0.00000000000E+00 -0.52141290377E+03  0.52141290377E+03  0.00000000000E+00 0. -1.
         23    2    1    2    0    0  0.36379262635E+03  0.14798188978E+03 -0.16384417848E+03  0.43565763553E+03  0.93321733155E+02 0.  0.
        254    2    1    2    0    0 -0.36379262635E+03 -0.14798188978E+03  0.87716165433E+03  0.13204856479E+04  0.90555290497E+03 0.  0.
        -24    2    4    4    0    0  0.20606431687E+02  0.23203572518E+03 -0.43817434568E+02  0.25000249912E+03  0.79473764272E+02 0.  0.
         24    2    4    4    0    0 -0.38439905804E+03 -0.38001761496E+03  0.92097908890E+03  0.10704831487E+04  0.74536340468E+02 0.  0.
         13    1    3    3    0    0  0.36774343986E+03  0.14098211374E+03 -0.16590647471E+03  0.42735951178E+03  0.00000000000E+00 0. -1.
        -13    1    3    3    0    0 -0.39508135102E+01  0.69997760424E+01  0.20622962273E+01  0.82981237497E+01  0.00000000000E+00 0.  1.
          2    1    6    6  502    0 -0.28905678006E+03 -0.32315699820E+03  0.75915119651E+03  0.87423955913E+03  0.00000000000E+00 0. -1.
          1    1    5    5  503    0  0.39152969691E+02  0.21082843018E+03 -0.24467883095E+02  0.21582460311E+03  0.00000000000E+00 0. -1.
         -4    1    5    5    0  503 -0.18546538003E+02  0.21207295006E+02 -0.19349551472E+02  0.34177896008E+02  0.00000000000E+00 0.  1.
         -1    1    6    6    0  502 -0.95342277986E+02 -0.56860616762E+02  0.16182789239E+03  0.19624358961E+03  0.00000000000E+00 0.  1.
<mgrwt>
<rscale>  0 0.16047484E+04</rscale>
<asrwt>0</asrwt>
<pdfrwt beam="1">  1        2 0.18995852E+00 0.16047484E+04</pdfrwt>
<pdfrwt beam="2">  1       -2 0.80217370E-01 0.16047484E+04</pdfrwt>
<totfact> 0.23786816E+01</totfact>
</mgrwt>
</event>
<event>
12    1  0.1532786E-007  0.3107502E+04  0.7818608E-02  0.8213682E-01
          1   -1    0    0  501    0  0.00000000000E+00  0.00000000000E+00  0.11083987916E+04  0.11083987916E+04  0.00000000000E+00 0. -1.
         -1   -1    0    0    0  501 -0.00000000000E+00 -0.00000000000E+00 -0.21780449024E+04  0.21780449024E+04  0.00000000000E+00 0.  1.
         23    2    1    2    0    0 -0.40943988738E+03  0.11505770418E+04  0.27663064810E+03  0.12557236227E+04  0.94067797694E+02 0.  0.
        254    2    1    2    0    0  0.40943988738E+03 -0.11505770418E+04 -0.13462767588E+04  0.20307200713E+04  0.90548017424E+03 0.  0.
        -24    2    4    4    0    0  0.65681361205E+03 -0.55354757121E+03 -0.67704613099E+03  0.10966211274E+04  0.79795984280E+02 0.  0.
         24    2    4    4    0    0 -0.24737372466E+03 -0.59702947064E+03 -0.66923062783E+03  0.93409894384E+03  0.83864504881E+02 0.  0.
         11    1    3    3    0    0 -0.21392722664E+03  0.57264664921E+03  0.18566182905E+03  0.63887350698E+03  0.00000000000E+00 0. -1.
        -11    1    3    3    0    0 -0.19551266074E+03  0.57793039263E+03  0.90968819052E+02  0.61685011573E+03  0.00000000000E+00 0.  1.
          4    1    6    6  502    0 -0.62141736255E+02 -0.79473069902E+02 -0.85058949396E+02  0.13195676980E+03  0.00000000000E+00 0. -1.
          1    1    5    5  503    0  0.15126599069E+03 -0.15833538649E+03 -0.14057665080E+03  0.26021777284E+03  0.00000000000E+00 0. -1.
         -2    1    5    5    0  503  0.50554762136E+03 -0.39521218472E+03 -0.53646948019E+03  0.83640335460E+03  0.00000000000E+00 0.  1.
         -3    1    6    6    0  502 -0.18523198841E+03 -0.51755640073E+03 -0.58417167844E+03  0.80214217403E+03  0.00000000000E+00 0.  1.
<mgrwt>
<rscale>  0 0.31075021E+04</rscale>
<asrwt>0</asrwt>
<pdfrwt beam="1">  1        1 0.17052289E+00 0.31075021E+04</pdfrwt>
<pdfrwt beam="2">  1       -1 0.33508383E+00 0.31075021E+04</pdfrwt>
<totfact> 0.20535389E-01</totfact>
</mgrwt>
</event>
<event>
12    1  0.1532786E-007  0.1187245E+04  0.7818608E-02  0.9124095E-01
         -2   -1    0    0    0  501 -0.00000000000E+00  0.00000000000E+00  0.67370142444E+03  0.67370142444E+03  0.00000000000E+00 0.  1.
          2   -1    0    0  501    0  0.00000000000E+00 -0.00000000000E+00 -0.52306223247E+03  0.52306223247E+03  0.00000000000E+00 0. -1.
         23    2    1    2    0    0  0.61380974343E+02  0.20378100750E+03  0.15403645813E+03  0.27821930954E+03  0.91566537245E+02 0.  0.
        254    2    1    2    0    0 -0.61380974343E+02 -0.20378100750E+03 -0.33972661546E+01  0.91854434737E+03  0.89354230657E+03 0.  0.
        -24    2    4    4    0    0  0.26555972987E+03 -0.25332427881E+03  0.28544598319E+03  0.47198482275E+03  0.81210240873E+02 0.  0.
         24    2    4    4    0    0 -0.32694070421E+03  0.49543271308E+02 -0.28884324935E+03  0.44655952462E+03  0.81487585186E+02 0.  0.
         11    1    3    3    0    0  0.41817985684E+02  0.57811291542E+02  0.96707132683E+02  0.12017969408E+03  0.00000000000E+00 0. -1.
        -11    1    3    3    0    0  0.19562988659E+02  0.14596971596E+03  0.57329325443E+02  0.15803961547E+03  0.00000000000E+00 0.  1.
          4    1    6    6  502    0 -0.26233623915E+02 -0.18675589797E+02 -0.26081297537E+02  0.41439290043E+02  0.00000000000E+00 0. -1.
          1    1    5    5  503    0  0.46313434642E+02 -0.87913244869E+02  0.55677212639E+02  0.11390182114E+03  0.00000000000E+00 0. -1.
         -2    1    5    5    0  503  0.21924629522E+03 -0.16541103394E+03  0.22976877055E+03  0.35808300160E+03  0.00000000000E+00 0.  1.
         -3    1    6    6    0  502 -0.30070708029E+03  0.68218861105E+02 -0.26276195181E+03  0.40512023458E+03  0.00000000000E+00 0.  1.
<mgrwt>
<rscale>  0 0.11872452E+04</rscale>
<asrwt>0</asrwt>
<pdfrwt beam="1">  1        2 0.80471113E-01 0.11872452E+04</pdfrwt>
<pdfrwt beam="2">  1       -2 0.10364637E+00 0.11872452E+04</pdfrwt>
<totfact> 0.43753354E+01</totfact>
</mgrwt>
</event>
<event>
12    1  0.1532786E-007  0.2034785E+04  0.7818608E-02  0.8590528E-01
         -2   -1    0    0    0  501 -0.00000000000E+00  0.00000000000E+00  0.50223768718E+03  0.50223768718E+03  0.00000000000E+00 0.  1.
          2   -1    0    0  501    0  0.00000000000E+00 -0.00000000000E+00 -0.20609515956E+04  0.20609515956E+04  0.00000000000E+00 0. -1.
         23    2    1    2    0    0  0.74910464917E+03  0.57422439347E+02 -0.10331196351E+04  0.12806427069E+04  0.90854005514E+02 0.  0.
        254    2    1    2    0    0 -0.74910464917E+03 -0.57422439347E+02 -0.52559427332E+03  0.12825465759E+04  0.89678384645E+03 0.  0.
        -24    2    4    4    0    0  0.65475087436E+02  0.11291506719E+03  0.14517981877E+03  0.21055712931E+03  0.78869039889E+02 0.  0.
         24    2    4    4    0    0 -0.81457973661E+03 -0.17033750654E+03 -0.67077409208E+03  0.10719894466E+04  0.81660746747E+02 0.  0.
         13    1    3    3    0    0  0.48373069796E+01  0.33883726982E+01  0.35642608398E+00  0.59167261142E+01  0.00000000000E+00 0.  1.
        -13    1    3    3    0    0  0.74426734219E+03  0.54034066649E+02 -0.10334760612E+04  0.12747259808E+04  0.00000000000E+00 0. -1.
          4    1    6    6  502    0 -0.97927321433E+02 -0.28639056573E+02 -0.11735453082E+03  0.15550576114E+03  0.00000000000E+00 0. -1.
          3    1    5    5  503    0  0.24068339526E+02 -0.74159938516E+01  0.26253953228E+02  0.36380654096E+02  0.00000000000E+00 0. -1.
         -4    1    5    5    0  503  0.41406747910E+02  0.12033106104E+03  0.11892586554E+03  0.17417647521E+03  0.00000000000E+00 0.  1.
         -3    1    6    6    0  502 -0.71665241517E+03 -0.14169844997E+03 -0.55341956126E+03  0.91648368544E+03  0.00000000000E+00 0.  1.
<mgrwt>
<rscale>  0 0.20347851E+04</rscale>
<asrwt>0</asrwt>
<pdfrwt beam="1">  1        2 0.31706947E+00 0.20347851E+04</pdfrwt>
<pdfrwt beam="2">  1       -2 0.77267337E-01 0.20347851E+04</pdfrwt>
<totfact> 0.85531042E+00</totfact>
</mgrwt>
</event>
<event>
12    1  0.1532786E-007  0.1775353E+04  0.7818608E-02  0.8719518E-01
          1   -1    0    0  501    0  0.00000000000E+00  0.00000000000E+00  0.44053551655E+03  0.44053551655E+03  0.00000000000E+00 0. -1.
         -1   -1    0    0    0  501 -0.00000000000E+00 -0.00000000000E+00 -0.17886620515E+04  0.17886620515E+04  0.00000000000E+00 0.  1.
         23    2    1    2    0    0  0.46252492616E+03  0.34295933533E+03 -0.16345237693E+03  0.60671645967E+03  0.99185532733E+02 0.  0.
        254    2    1    2    0    0 -0.46252492616E+03 -0.34295933533E+03 -0.11846741580E+04  0.16224811083E+04  0.94733398193E+03 0.  0.
        -24    2    4    4    0    0 -0.71468084657E+03 -0.95376651721E+02 -0.93133575596E+03  0.11804297952E+04  0.78503457664E+02 0.  0.
         24    2    4    4    0    0  0.25215592040E+03 -0.24758268361E+03 -0.25333840203E+03  0.44205131317E+03  0.79682018790E+02 0.  0.
         11    1    3    3    0    0  0.29911175691E+03  0.17522582647E+03 -0.65064415387E+02  0.35271137143E+03  0.00000000000E+00 0. -1.
        -11    1    3    3    0    0  0.16341316925E+03  0.16773350885E+03 -0.98387961543E+02  0.25400508824E+03  0.00000000000E+00 0.  1.
          2    1    6    6  502    0  0.87163941214E+02 -0.68630456895E+02 -0.38607060163E+02  0.11746572843E+03  0.00000000000E+00 0. -1.
          3    1    5    5  503    0 -0.14153576161E+03 -0.19550036660E+02 -0.13675857009E+03  0.19778140014E+03  0.00000000000E+00 0. -1.
         -4    1    5    5    0  503 -0.57314508495E+03 -0.75826615060E+02 -0.79457718587E+03  0.98264839504E+03  0.00000000000E+00 0.  1.
         -1    1    6    6    0  502  0.16499197919E+03 -0.17895222671E+03 -0.21473134186E+03  0.32458558474E+03  0.00000000000E+00 0.  1.
<mgrwt>
<rscale>  0 0.17753525E+04</rscale>
<asrwt>0</asrwt>
<pdfrwt beam="1">  1        1 0.67774694E-01 0.17753525E+04</pdfrwt>
<pdfrwt beam="2">  1       -1 0.27517878E+00 0.17753525E+04</pdfrwt>
<totfact> 0.23846840E+00</totfact>
</mgrwt>
</event>
<event>
12    1  0.1532786E-007  0.1305595E+04  0.7818608E-02  0.9025140E-01
         -1   -1    0    0    0  501 -0.00000000000E+00  0.00000000000E+00  0.22964489464E+03  0.22964489464E+03  0.00000000000E+00 0.  1.
          1   -1    0    0  501    0  0.00000000000E+00 -0.00000000000E+00 -0.18556665125E+04  0.18556665125E+04  0.00000000000E+00 0. -1.
         23    2    1    2    0    0 -0.16581969235E+03 -0.22896221805E+03 -0.78058764767E+03  0.83519292874E+03  0.91160763752E+02 0.  0.
        254    2    1    2    0    0  0.16581969235E+03  0.22896221805E+03 -0.84543397022E+03  0.12501184784E+04  0.87642326787E+03 0.  0.
        -24    2    4    4    0    0  0.51598364820E+03  0.19654870605E+03 -0.47068517793E+03  0.72998501995E+03  0.80393243282E+02 0.  0.
         24    2    4    4    0    0 -0.35016395585E+03  0.32413511996E+02 -0.37474879229E+03  0.52013345849E+03  0.80229206536E+02 0.  0.
         13    1    3    3    0    0 -0.34502241102E+02 -0.11757545785E+03 -0.27433325201E+03  0.30045486531E+03  0.00000000000E+00 0.  1.
        -13    1    3    3    0    0 -0.13131745125E+03 -0.11138676020E+03 -0.50625439566E+03  0.53473806342E+03  0.00000000000E+00 0. -1.
          4    1    6    6  502    0 -0.12860375032E+02 -0.54984259347E+01  0.69278036576E+00  0.14003638040E+02  0.00000000000E+00 0. -1.
          3    1    5    5  503    0  0.21314786439E+03  0.12376282138E+03 -0.20363846535E+03  0.31971529932E+03  0.00000000000E+00 0. -1.
         -4    1    5    5    0  503  0.30283578381E+03  0.72785884672E+02 -0.26704671258E+03  0.41026972063E+03  0.00000000000E+00 0.  1.
         -3    1    6    6    0  502 -0.33730358082E+03  0.37911937931E+02 -0.37544157266E+03  0.50612982045E+03  0.00000000000E+00 0.  1.
<mgrwt>
<rscale>  0 0.13055946E+04</rscale>
<asrwt>0</asrwt>
<pdfrwt beam="1">  1        1 0.28548715E+00 0.13055946E+04</pdfrwt>
<pdfrwt beam="2">  1       -1 0.35329984E-01 0.13055946E+04</pdfrwt>
<totfact> 0.28000971E+01</totfact>
</mgrwt>
</event>
<event>
12    1  0.1532786E-007  0.2855001E+04  0.7818608E-02  0.8286393E-01
          2   -1    0    0  501    0  0.00000000000E+00  0.00000000000E+00  0.31677127764E+04  0.31677127764E+04  0.00000000000E+00 0. -1.
         -2   -1    0    0    0  501 -0.00000000000E+00 -0.00000000000E+00 -0.64329010013E+03  0.64329010013E+03  0.00000000000E+00 0.  1.
         23    2    1    2    0    0  0.50630202805E+02 -0.52015199576E+03  0.27072771787E+04  0.27583364029E+04  0.77126345927E+02 0.  0.
        254    2    1    2    0    0 -0.50630202805E+02  0.52015199576E+03 -0.18285450242E+03  0.10526664736E+04  0.89529292384E+03 0.  0.
        -24    2    4    4    0    0  0.84513267752E+02  0.68237472011E+03 -0.34498753836E+03  0.77346061788E+03  0.80294300585E+02 0.  0.
         24    2    4    4    0    0 -0.13514347056E+03 -0.16222272435E+03  0.16213303594E+03  0.27920585574E+03  0.84195122216E+02 0.  0.
         11    1    3    3    0    0  0.73777677548E+01 -0.23522713006E+03  0.10360480471E+04  0.10624414290E+04  0.00000000000E+00 0.  1.
        -11    1    3    3    0    0  0.43252435050E+02 -0.28492486570E+03  0.16712291316E+04  0.16958949739E+04  0.00000000000E+00 0. -1.
          4    1    6    6  502    0 -0.27168737381E+02 -0.56256800203E+02  0.94983267845E+02  0.11368724216E+03  0.00000000000E+00 0. -1.
          1    1    5    5  503    0 -0.81544341457E+01  0.22453266481E+03 -0.99003918028E+02  0.24552634919E+03  0.00000000000E+00 0. -1.
         -2    1    5    5    0  503  0.92667701897E+02  0.45784205530E+03 -0.24598362033E+03  0.52793426868E+03  0.00000000000E+00 0.  1.
         -3    1    6    6    0  502 -0.10797473318E+03 -0.10596592415E+03  0.67149768099E+02  0.16551861358E+03  0.00000000000E+00 0.  1.
<mgrwt>
<rscale>  0 0.28550014E+04</rscale>
<asrwt>0</asrwt>
<pdfrwt beam="1">  1        2 0.48734042E+00 0.28550014E+04</pdfrwt>
<pdfrwt beam="2">  1       -2 0.98967710E-01 0.28550014E+04</pdfrwt>
<totfact> 0.99760407E-01</totfact>
</mgrwt>
</event>
<event>
12    1  0.1532786E-007  0.1404986E+04  0.7818608E-02  0.8950218E-01
         -1   -1    0    0    0  501 -0.00000000000E+00  0.00000000000E+00  0.10740746284E+04  0.10740746284E+04  0.00000000000E+00 0.  1.
          1   -1    0    0  501    0  0.00000000000E+00 -0.00000000000E+00 -0.45946175310E+03  0.45946175310E+03  0.00000000000E+00 0. -1.
         23    2    1    2    0    0 -0.36329609469E+03  0.16148964256E+03  0.15830628030E+03  0.43725265127E+03  0.89811166279E+02 0.  0.
        254    2    1    2    0    0  0.36329609469E+03 -0.16148964256E+03  0.45630659502E+03  0.10962837303E+04  0.91408935640E+03 0.  0.
        -24    2    4    4    0    0  0.47853893190E+03 -0.36636088611E+03  0.37224578142E+02  0.60934013124E+03  0.81791919563E+02 0.  0.
         24    2    4    4    0    0 -0.11524283721E+03  0.20487124354E+03  0.41908201688E+03  0.48694359902E+03  0.78937910987E+02 0.  0.
         13    1    3    3    0    0 -0.29653589180E+03  0.10057963921E+03  0.14784728416E+03  0.34627823839E+03  0.00000000000E+00 0.  1.
        -13    1    3    3    0    0 -0.66760202883E+02  0.60910003354E+02  0.10458996139E+02  0.90974412874E+02  0.00000000000E+00 0. -1.
          2    1    6    6  502    0 -0.81910060193E+01  0.51364597672E+02  0.45498993001E+02  0.69105519590E+02  0.00000000000E+00 0. -1.
          3    1    5    5  503    0  0.29841137592E+02 -0.43413428741E+02  0.19655163346E+02  0.56227615403E+02  0.00000000000E+00 0. -1.
         -4    1    5    5    0  503  0.44869779431E+03 -0.32294745736E+03  0.17569414797E+02  0.55311251583E+03  0.00000000000E+00 0.  1.
         -1    1    6    6    0  502 -0.10705183119E+03  0.15350664587E+03  0.37358302388E+03  0.41783807943E+03  0.00000000000E+00 0.  1.
<mgrwt>
<rscale>  0 0.14049857E+04</rscale>
<asrwt>0</asrwt>
<pdfrwt beam="1">  1        1 0.70686424E-01 0.14049857E+04</pdfrwt>
<pdfrwt beam="2">  1       -1 0.16524225E+00 0.14049857E+04</pdfrwt>
<totfact> 0.12946749E+01</totfact>
</mgrwt>
</event>
<event>
12    1  0.1532786E-007  0.1253468E+04  0.7818608E-02  0.9067302E-01
          2   -1    0    0  501    0  0.00000000000E+00  0.00000000000E+00  0.12660731821E+04  0.12660731821E+04  0.00000000000E+00 0. -1.
         -2   -1    0    0    0  501 -0.00000000000E+00 -0.00000000000E+00 -0.31024705827E+03  0.31024705827E+03  0.00000000000E+00 0.  1.
         23    2    1    2    0    0  0.21616813724E+02 -0.20943829027E+02 -0.14168540936E+03  0.17014536707E+03  0.89267911928E+02 0.  0.
        254    2    1    2    0    0 -0.21616813724E+02  0.20943829027E+02  0.10975115332E+04  0.14061748733E+04  0.87857286448E+03 0.  0.
        -24    2    4    4    0    0  0.25102852700E+02  0.16339781294E+03  0.11953227127E+04  0.12093301306E+04  0.79711848909E+02 0.  0.
         24    2    4    4    0    0 -0.46719666424E+02 -0.14245398391E+03 -0.97811179520E+02  0.19684474267E+03  0.81883826944E+02 0.  0.
         13    1    3    3    0    0  0.49598345586E+02  0.16504221473E+01 -0.45010897201E+02  0.66997765970E+02  0.00000000000E+00 0. -1.
        -13    1    3    3    0    0 -0.27981531862E+02 -0.22594251174E+02 -0.96674512160E+02  0.10314760110E+03  0.00000000000E+00 0.  1.
          4    1    6    6  502    0  0.19097869032E+02 -0.64173492240E+02 -0.25756538998E+02  0.71738169820E+02  0.00000000000E+00 0. -1.
          1    1    5    5  503    0 -0.27142392514E+02  0.37219840308E+02  0.25243677695E+03  0.25660544098E+03  0.00000000000E+00 0. -1.
         -2    1    5    5    0  503  0.52245245214E+02  0.12617797263E+03  0.94288593573E+03  0.95272468962E+03  0.00000000000E+00 0.  1.
         -3    1    6    6    0  502 -0.65817535456E+02 -0.78280491670E+02 -0.72054640522E+02  0.12510657285E+03  0.00000000000E+00 0.  1.
<mgrwt>
<rscale>  0 0.12534680E+04</rscale>
<asrwt>0</asrwt>
<pdfrwt beam="1">  1        2 0.19478049E+00 0.12534680E+04</pdfrwt>
<pdfrwt beam="2">  1       -2 0.47730317E-01 0.12534680E+04</pdfrwt>
<totfact> 0.70751780E+01</totfact>
</mgrwt>
</event>
<event>
12    1  0.1532786E-007  0.1274549E+04  0.7818608E-02  0.9049995E-01
         -2   -1    0    0    0  501 -0.00000000000E+00  0.00000000000E+00  0.33814627726E+03  0.33814627726E+03  0.00000000000E+00 0. -1.
          2   -1    0    0  501    0  0.00000000000E+00 -0.00000000000E+00 -0.12010160051E+04  0.12010160051E+04  0.00000000000E+00 0.  1.
         23    2    1    2    0    0 -0.21886847046E+03 -0.65783154064E+02 -0.45898408823E+03  0.52169641326E+03  0.96280442661E+02 0.  0.
        254    2    1    2    0    0  0.21886847046E+03  0.65783154064E+02 -0.40388563966E+03  0.10174658691E+04  0.90547355248E+03 0.  0.
        -24    2    4    4    0    0  0.56536514595E+02 -0.40623861767E+03 -0.25827432614E+03  0.49113394452E+03  0.79251069056E+02 0.  0.
         24    2    4    4    0    0  0.16233195587E+03  0.47202177174E+03 -0.14561131352E+03  0.52633192462E+03  0.81648168184E+02 0.  0.
         11    1    3    3    0    0 -0.17753465188E+03 -0.33741883054E+02 -0.41753540746E+03  0.45496470607E+03  0.00000000000E+00 0.  1.
        -11    1    3    3    0    0 -0.41333818579E+02 -0.32041271010E+02 -0.41448680771E+02  0.66731707186E+02  0.00000000000E+00 0. -1.
          4    1    6    6  502    0  0.11232711020E+03  0.37579658727E+03 -0.82318711135E+02  0.40077028943E+03  0.00000000000E+00 0. -1.
          3    1    5    5  503    0  0.57716846105E+02 -0.40849885863E+03 -0.26035799010E+03  0.48784099339E+03  0.00000000000E+00 0. -1.
         -4    1    5    5    0  503 -0.11803315103E+01  0.22602409582E+01  0.20836639549E+01  0.32929511294E+01  0.00000000000E+00 0.  1.
         -3    1    6    6    0  502  0.50004845671E+02  0.96225184463E+02 -0.63292602381E+02  0.12556163519E+03  0.00000000000E+00 0.  1.
<mgrwt>
<rscale>  0 0.12745495E+04</rscale>
<asrwt>0</asrwt>
<pdfrwt beam="1">  1        2 0.18477169E+00 0.12745495E+04</pdfrwt>
<pdfrwt beam="2">  1       -2 0.52022505E-01 0.12745495E+04</pdfrwt>
<totfact> 0.64777008E+01</totfact>
</mgrwt>
</event>
<event>
12    1  0.1532786E-007  0.1519218E+04  0.7818608E-02  0.8871773E-01
         -1   -1    0    0    0  501 -0.00000000000E+00  0.00000000000E+00  0.85031147116E+03  0.85031147116E+03  0.00000000000E+00 0.  1.
          1   -1    0    0  501    0  0.00000000000E+00 -0.00000000000E+00 -0.67858139435E+03  0.67858139435E+03  0.00000000000E+00 0. -1.
         23    2    1    2    0    0 -0.24439488006E+03  0.42686200768E+03  0.28102712305E+02  0.50068841071E+03  0.89213738741E+02 0.  0.
        254    2    1    2    0    0  0.24439488006E+03 -0.42686200768E+03  0.14362736451E+03  0.10282044548E+04  0.89142332817E+03 0.  0.
        -24    2    4    4    0    0 -0.58840275917E+02  0.11935434538E+03  0.33551256605E+03  0.36985280907E+03  0.80714190630E+02 0.  0.
         24    2    4    4    0    0  0.30323515598E+03 -0.54621635307E+03 -0.19188520154E+03  0.65835164572E+03  0.79392031544E+02 0.  0.
         13    1    3    3    0    0 -0.47535272133E+02  0.13539741626E+03 -0.22823343220E+02  0.14530301932E+03  0.00000000000E+00 0. -1.
        -13    1    3    3    0    0 -0.19685960793E+03  0.29146459142E+03  0.50926055525E+02  0.35538539139E+03  0.00000000000E+00 0.  1.
          2    1    6    6  502    0  0.29841347759E+03 -0.52583162613E+03 -0.16998861366E+03  0.62804906768E+03  0.00000000000E+00 0. -1.
          3    1    5    5  503    0 -0.18061239681E+02  0.10159860826E+03  0.17371069932E+03  0.20204923321E+03  0.00000000000E+00 0. -1.
         -4    1    5    5    0  503 -0.40779036236E+02  0.17755737120E+02  0.16180186673E+03  0.16780357586E+03  0.00000000000E+00 0.  1.
         -1    1    6    6    0  502  0.48216783880E+01 -0.20384726940E+02 -0.21896587881E+02  0.30302578037E+02  0.00000000000E+00 0.  1.
<mgrwt>
<rscale>  0 0.15192176E+04</rscale>
<asrwt>0</asrwt>
<pdfrwt beam="1">  1        1 0.10439714E+00 0.15192176E+04</pdfrwt>
<pdfrwt beam="2">  1       -1 0.13081715E+00 0.15192176E+04</pdfrwt>
<totfact> 0.13771214E+01</totfact>
</mgrwt>
</event>
<event>
12    1  0.1532786E-007  0.1584474E+04  0.7818608E-02  0.8830143E-01
          1   -1    0    0  501    0  0.00000000000E+00  0.00000000000E+00  0.81744846375E+03  0.81744846375E+03  0.00000000000E+00 0. -1.
         -1   -1    0    0    0  501 -0.00000000000E+00 -0.00000000000E+00 -0.76780321965E+03  0.76780321965E+03  0.00000000000E+00 0.  1.
         23    2    1    2    0    0 -0.50263251477E+02 -0.47849615111E+03  0.23048292693E+03  0.54464688599E+03  0.10969452920E+03 0.  0.
        254    2    1    2    0    0  0.50263251477E+02  0.47849615111E+03 -0.18083768283E+03  0.10406047974E+04  0.90480446273E+03 0.  0.
        -24    2    4    4    0    0  0.46823108000E+03  0.20854136757E+03 -0.57916418358E+02  0.52187900156E+03  0.79205646780E+02 0.  0.
         24    2    4    4    0    0 -0.41796782853E+03  0.26995478354E+03 -0.12292126447E+03  0.51872579585E+03  0.79963261445E+02 0.  0.
         11    1    3    3    0    0 -0.54993874361E+02 -0.27289914005E+03  0.18433072790E+03  0.33388034400E+03  0.00000000000E+00 0. -1.
        -11    1    3    3    0    0  0.47306228835E+01 -0.20559701105E+03  0.46152199030E+02  0.21076654199E+03  0.00000000000E+00 0.  1.
          2    1    6    6  502    0 -0.12805227774E+03  0.42684197330E+02 -0.21877328283E+02  0.13674042573E+03  0.00000000000E+00 0. -1.
          3    1    5    5  503    0 -0.23360439013E+01 -0.20242186988E+01  0.11367064881E+00  0.30931348929E+01  0.00000000000E+00 0. -1.
         -4    1    5    5    0  503  0.47056712390E+03  0.21056558627E+03 -0.58030089007E+02  0.51878586666E+03  0.00000000000E+00 0.  1.
         -1    1    6    6    0  502 -0.28991555078E+03  0.22727058621E+03 -0.10104393619E+03  0.38198537012E+03  0.00000000000E+00 0.  1.
<mgrwt>
<rscale>  0 0.15844741E+04</rscale>
<asrwt>0</asrwt>
<pdfrwt beam="1">  1        1 0.12576130E+00 0.15844741E+04</pdfrwt>
<pdfrwt beam="2">  1       -1 0.11812357E+00 0.15844741E+04</pdfrwt>
<totfact> 0.13202110E+01</totfact>
</mgrwt>
</event>
<event>
12    1  0.1532786E-007  0.1183188E+04  0.7818608E-02  0.9127701E-01
         -2   -1    0    0    0  501 -0.00000000000E+00  0.00000000000E+00  0.10298949339E+04  0.10298949339E+04  0.00000000000E+00 0.  1.
          2   -1    0    0  501    0  0.00000000000E+00 -0.00000000000E+00 -0.33982416565E+03  0.33982416565E+03  0.00000000000E+00 0. -1.
         23    2    1    2    0    0  0.20835161098E+03  0.28919434516E+02  0.26851892455E+03  0.35421110106E+03  0.95479651139E+02 0.  0.
        254    2    1    2    0    0 -0.20835161098E+03 -0.28919434516E+02  0.42155184374E+03  0.10155079985E+04  0.89961314498E+03 0.  0.
        -24    2    4    4    0    0 -0.89381030490E+02 -0.43853273452E+02 -0.27599382718E+03  0.30329419450E+03  0.76829015150E+02 0.  0.
         24    2    4    4    0    0 -0.11897058049E+03  0.14933838935E+02  0.69754567092E+03  0.71221380404E+03  0.79382120569E+02 0.  0.
         11    1    3    3    0    0  0.32662484091E+02 -0.30349543016E+02  0.65820190493E+02  0.79499874873E+02  0.00000000000E+00 0. -1.
        -11    1    3    3    0    0  0.17568912689E+03  0.59268977532E+02  0.20269873406E+03  0.27471122619E+03  0.00000000000E+00 0.  1.
          2    1    6    6  502    0 -0.92641902911E+01 -0.97431758700E+01  0.13737500485E+02  0.19221696526E+02  0.00000000000E+00 0. -1.
          1    1    5    5  503    0 -0.89266785498E+01  0.19225472024E+02 -0.72915951326E+02  0.75934447533E+02  0.00000000000E+00 0. -1.
         -2    1    5    5    0  503 -0.80454351940E+02 -0.63078745476E+02 -0.20307787586E+03  0.22735974696E+03  0.00000000000E+00 0.  1.
         -1    1    6    6    0  502 -0.10970639020E+03  0.24677014805E+02  0.68380817044E+03  0.69299210751E+03  0.00000000000E+00 0.  1.
<mgrwt>
<rscale>  0 0.11831875E+04</rscale>
<asrwt>0</asrwt>
<pdfrwt beam="1">  1        2 0.52280641E-01 0.11831875E+04</pdfrwt>
<pdfrwt beam="2">  1       -2 0.15844537E+00 0.11831875E+04</pdfrwt>
<totfact> 0.24377456E+01</totfact>
</mgrwt>
</event>
<event>
12    1  0.1532786E-007  0.1461765E+04  0.7818608E-02  0.8910285E-01
         -2   -1    0    0    0  501 -0.00000000000E+00  0.00000000000E+00  0.59022355890E+03  0.59022355890E+03  0.00000000000E+00 0.  1.
          2   -1    0    0  501    0  0.00000000000E+00 -0.00000000000E+00 -0.90506237845E+03  0.90506237845E+03  0.00000000000E+00 0. -1.
         23    2    1    2    0    0  0.30464655920E+03  0.25174740696E+03  0.11350831034E+03  0.42137165216E+03  0.92106730414E+02 0.  0.
        254    2    1    2    0    0 -0.30464655920E+03 -0.25174740696E+03 -0.42834712990E+03  0.10739142852E+04  0.90201127780E+03 0.  0.
        -24    2    4    4    0    0 -0.57064211599E+03 -0.26977185090E+03 -0.47227916678E+03  0.79234544567E+03  0.79714602333E+02 0.  0.
         24    2    4    4    0    0  0.26599555679E+03  0.18024443937E+02  0.43932036887E+02  0.28156883951E+03  0.79198931209E+02 0.  0.
         13    1    3    3    0    0  0.12236840563E+03  0.80470995680E+02  0.85751861263E+02  0.16971443531E+03  0.00000000000E+00 0. -1.
        -13    1    3    3    0    0  0.18227815357E+03  0.17127641128E+03  0.27756449080E+02  0.25165721686E+03  0.00000000000E+00 0.  1.
          2    1    6    6  502    0  0.12614076043E+03  0.38022095723E+02 -0.55854410778E+01  0.13186496258E+03  0.00000000000E+00 0. -1.
          3    1    5    5  503    0 -0.13832050210E+03 -0.85713203138E+02 -0.85857381538E+02  0.18398588113E+03  0.00000000000E+00 0. -1.
         -4    1    5    5    0  503 -0.43232161389E+03 -0.18405864776E+03 -0.38642178525E+03  0.60835956454E+03  0.00000000000E+00 0.  1.
         -1    1    6    6    0  502  0.13985479636E+03 -0.19997651786E+02  0.49517477965E+02  0.14970387693E+03  0.00000000000E+00 0.  1.
<mgrwt>
<rscale>  0 0.14617649E+04</rscale>
<asrwt>0</asrwt>
<pdfrwt beam="1">  1        2 0.13924037E+00 0.14617649E+04</pdfrwt>
<pdfrwt beam="2">  1       -2 0.90803624E-01 0.14617649E+04</pdfrwt>
<totfact> 0.29190955E+01</totfact>
</mgrwt>
</event>
<event>
12    1  0.1532786E-007  0.1281451E+04  0.7818608E-02  0.9044405E-01
         -1   -1    0    0    0  501 -0.00000000000E+00  0.00000000000E+00  0.88536643942E+03  0.88536643942E+03  0.00000000000E+00 0.  1.
          1   -1    0    0  501    0  0.00000000000E+00 -0.00000000000E+00 -0.46368298107E+03  0.46368298107E+03  0.00000000000E+00 0. -1.
         23    2    1    2    0    0  0.15361909608E+03 -0.12829882987E+03  0.35913715225E+03  0.42072850889E+03  0.89294835461E+02 0.  0.
        254    2    1    2    0    0 -0.15361909608E+03  0.12829882987E+03  0.62546306102E+02  0.92832091160E+03  0.90432751704E+03 0.  0.
        -24    2    4    4    0    0 -0.11222891478E+03  0.50316372502E+03  0.12858229974E+03  0.53725001749E+03  0.79593404197E+02 0.  0.
         24    2    4    4    0    0 -0.41390181302E+02 -0.37486489515E+03 -0.66035993641E+02  0.39107089411E+03  0.79616926832E+02 0.  0.
         11    1    3    3    0    0  0.85597447972E+02 -0.15677028170E+02  0.15805170813E+03  0.18042459576E+03  0.00000000000E+00 0. -1.
        -11    1    3    3    0    0  0.68021648108E+02 -0.11262180170E+03  0.20108544413E+03  0.24030391314E+03  0.00000000000E+00 0.  1.
          4    1    6    6  502    0 -0.52548199122E+02 -0.32832705105E+03 -0.35717189074E+02  0.33441842545E+03  0.00000000000E+00 0. -1.
          3    1    5    5  503    0 -0.60492362107E+02  0.33684732838E+03  0.12069172379E+03  0.36289384219E+03  0.00000000000E+00 0. -1.
         -4    1    5    5    0  503 -0.51736552671E+02  0.16631639665E+03  0.78905759547E+01  0.17435617530E+03  0.00000000000E+00 0.  1.
         -3    1    6    6    0  502  0.11158017820E+02 -0.46537844099E+02 -0.30318804567E+02  0.56652468661E+02  0.00000000000E+00 0.  1.
<mgrwt>
<rscale>  0 0.12814513E+04</rscale>
<asrwt>0</asrwt>
<pdfrwt beam="1">  1        1 0.71335843E-01 0.12814513E+04</pdfrwt>
<pdfrwt beam="2">  1       -1 0.13621022E+00 0.12814513E+04</pdfrwt>
<totfact> 0.21778632E+01</totfact>
</mgrwt>
</event>
<event>
12    1  0.1532786E-007  0.1308321E+04  0.7818608E-02  0.9022992E-01
         -3   -1    0    0    0  501 -0.00000000000E+00  0.00000000000E+00  0.18334236225E+03  0.18334236225E+03  0.00000000000E+00 0.  1.
          3   -1    0    0  501    0  0.00000000000E+00 -0.00000000000E+00 -0.23340279240E+04  0.23340279240E+04  0.00000000000E+00 0. -1.
         23    2    1    2    0    0  0.14902771701E+03 -0.10710990973E+03 -0.26942616006E+02  0.20333568990E+03  0.83292887021E+02 0.  0.
        254    2    1    2    0    0 -0.14902771701E+03  0.10710990973E+03 -0.21237429458E+04  0.23140345964E+04  0.90043890427E+03 0.  0.
        -24    2    4    4    0    0  0.36897741771E+03 -0.25133578274E+02 -0.88330245511E+03  0.96081147556E+03  0.78482054146E+02 0.  0.
         24    2    4    4    0    0 -0.51800513473E+03  0.13224348801E+03 -0.12404404907E+04  0.13532231208E+04  0.81869066945E+02 0.  0.
         13    1    3    3    0    0  0.53996879794E+01 -0.36318410981E+02 -0.22670298217E+02  0.43152358310E+02  0.00000000000E+00 0. -1.
        -13    1    3    3    0    0  0.14362802903E+03 -0.70791498753E+02 -0.42723177886E+01  0.16018333159E+03  0.00000000000E+00 0.  1.
          2    1    6    6  502    0 -0.31416256389E+03  0.56165922291E+02 -0.65382099275E+03  0.72755385913E+03  0.00000000000E+00 0. -1.
          1    1    5    5  503    0  0.27612198081E+03 -0.16848040041E+02 -0.73831758568E+03  0.78844154004E+03  0.00000000000E+00 0. -1.
         -2    1    5    5    0  503  0.92855436905E+02 -0.82855382325E+01 -0.14498486943E+03  0.17236993552E+03  0.00000000000E+00 0.  1.
         -1    1    6    6    0  502 -0.20384257084E+03  0.76077565717E+02 -0.58661949793E+03  0.62566926170E+03  0.00000000000E+00 0.  1.
<mgrwt>
<rscale>  0 0.13083214E+04</rscale>
<asrwt>0</asrwt>
<pdfrwt beam="1">  1        3 0.35908120E+00 0.13083214E+04</pdfrwt>
<pdfrwt beam="2">  1       -3 0.28206519E-01 0.13083214E+04</pdfrwt>
<totfact> 0.58372195E-01</totfact>
</mgrwt>
</event>
<event>
12    1  0.1532786E-007  0.3890013E+04  0.7818608E-02  0.8027110E-01
          2   -1    0    0  501    0  0.00000000000E+00  0.00000000000E+00  0.24171666792E+04  0.24171666792E+04  0.00000000000E+00 0. -1.
         -2   -1    0    0    0  501 -0.00000000000E+00 -0.00000000000E+00 -0.15650759545E+04  0.15650759545E+04  0.00000000000E+00 0.  1.
         23    2    1    2    0    0  0.66678899282E+03 -0.61363514765E+03  0.20441218675E+04  0.22379564687E+04  0.94123808638E+02 0.  0.
        254    2    1    2    0    0 -0.66678899282E+03  0.61363514765E+03 -0.11920311427E+04  0.17442861650E+04  0.89467330620E+03 0.  0.
        -24    2    4    4    0    0 -0.67708539983E+03  0.76722366480E+03 -0.75396019808E+03  0.12733120176E+04  0.76096802013E+02 0.  0.
         24    2    4    4    0    0  0.10296407006E+02 -0.15358851715E+03 -0.43807094461E+03  0.47097414742E+03  0.78835565792E+02 0.  0.
         13    1    3    3    0    0  0.13533349035E+03 -0.77459402688E+02  0.36704899905E+03  0.39879829535E+03  0.00000000000E+00 0.  1.
        -13    1    3    3    0    0  0.53145550247E+03 -0.53617574496E+03  0.16770728684E+04  0.18391581734E+04  0.00000000000E+00 0. -1.
          2    1    6    6  502    0  0.18631936168E+02 -0.11008195996E+03 -0.38972764352E+03  0.40540451783E+03  0.00000000000E+00 0. -1.
          3    1    5    5  503    0 -0.55356005107E+03  0.58227000556E+03 -0.60248961529E+03  0.10042215025E+04  0.00000000000E+00 0. -1.
         -4    1    5    5    0  503 -0.12352534875E+03  0.18495365924E+03 -0.15147058279E+03  0.26909051507E+03  0.00000000000E+00 0.  1.
         -1    1    6    6    0  502 -0.83355291618E+01 -0.43506557188E+02 -0.48343301089E+02  0.65569629593E+02  0.00000000000E+00 0.  1.
<mgrwt>
<rscale>  0 0.38900126E+04</rscale>
<asrwt>0</asrwt>
<pdfrwt beam="1">  1        2 0.37187180E+00 0.38900126E+04</pdfrwt>
<pdfrwt beam="2">  1       -2 0.24078092E+00 0.38900126E+04</pdfrwt>
<totfact> 0.22660003E-01</totfact>
</mgrwt>
</event>
<event>
12    1  0.1532786E-007  0.1349366E+04  0.7818608E-02  0.8991308E-01
         -2   -1    0    0    0  501 -0.00000000000E+00  0.00000000000E+00  0.11802024951E+03  0.11802024951E+03  0.00000000000E+00 0.  1.
          2   -1    0    0  501    0  0.00000000000E+00 -0.00000000000E+00 -0.38569408143E+04  0.38569408143E+04  0.00000000000E+00 0. -1.
         23    2    1    2    0    0  0.17504546953E+03 -0.11430623985E+03 -0.13848322977E+03  0.26502864594E+03  0.85765642121E+02 0.  0.
        254    2    1    2    0    0 -0.17504546953E+03  0.11430623985E+03 -0.36004373351E+04  0.37099324179E+04  0.86990959809E+03 0.  0.
        -24    2    4    4    0    0 -0.23966652495E+03 -0.29905101307E+03 -0.24889722656E+04  0.25196330245E+04  0.81829624271E+02 0.  0.
         24    2    4    4    0    0  0.64621055423E+02  0.41335725292E+03 -0.11114650695E+04  0.11902993934E+04  0.80112084364E+02 0.  0.
         13    1    3    3    0    0  0.24661455167E+01 -0.35112870690E+02 -0.30589934422E+02  0.46634103934E+02  0.00000000000E+00 0. -1.
        -13    1    3    3    0    0  0.17257932401E+03 -0.79193369161E+02 -0.10789329535E+03  0.21839454200E+03  0.00000000000E+00 0.  1.
          2    1    6    6  502    0  0.21444745095E+02  0.32262096554E+03 -0.79396120623E+03  0.85727391276E+03  0.00000000000E+00 0. -1.
          3    1    5    5  503    0 -0.24635611438E+03 -0.28856875021E+03 -0.24057478961E+04  0.24354847974E+04  0.00000000000E+00 0. -1.
         -4    1    5    5    0  503  0.66895894215E+01 -0.10482262862E+02 -0.83224369496E+02  0.84148227072E+02  0.00000000000E+00 0.  1.
         -1    1    6    6    0  502  0.43176310329E+02  0.90736287385E+02 -0.31750386322E+03  0.33302548068E+03  0.00000000000E+00 0.  1.
<mgrwt>
<rscale>  0 0.13493660E+04</rscale>
<asrwt>0</asrwt>
<pdfrwt beam="1">  1        2 0.59337545E+00 0.13493660E+04</pdfrwt>
<pdfrwt beam="2">  1       -2 0.18156963E-01 0.13493660E+04</pdfrwt>
<totfact> 0.11280619E+01</totfact>
</mgrwt>
</event>
<event>
12    1  0.1532786E-007  0.1221968E+04  0.7818608E-02  0.9093842E-01
         -1   -1    0    0    0  501 -0.00000000000E+00  0.00000000000E+00  0.39961900596E+03  0.39961900596E+03  0.00000000000E+00 0.  1.
          1   -1    0    0  501    0  0.00000000000E+00 -0.00000000000E+00 -0.93414317556E+03  0.93414317556E+03  0.00000000000E+00 0. -1.
         23    2    1    2    0    0 -0.96853765557E+02  0.18647558123E+03 -0.24679470750E+03  0.33689402038E+03  0.91848565681E+02 0.  0.
        254    2    1    2    0    0  0.96853765557E+02 -0.18647558123E+03 -0.28772946209E+03  0.99686816115E+03  0.93102314314E+03 0.  0.
        -24    2    4    4    0    0  0.43272423962E+03  0.15630612040E+03 -0.11089497636E+03  0.47984819527E+03  0.79213154774E+02 0.  0.
         24    2    4    4    0    0 -0.33587047406E+03 -0.34278170163E+03 -0.17683448573E+03  0.51701996588E+03  0.75702968609E+02 0.  0.
         11    1    3    3    0    0 -0.74552699901E+02  0.16689266963E+03 -0.15253329315E+03  0.23807073268E+03  0.00000000000E+00 0.  1.
        -11    1    3    3    0    0 -0.22301065655E+02  0.19582911599E+02 -0.94261414352E+02  0.98823287699E+02  0.00000000000E+00 0. -1.
          4    1    6    6  502    0 -0.27353307520E+03 -0.23783730225E+03 -0.14849170330E+03  0.39170998394E+03  0.00000000000E+00 0. -1.
          3    1    5    5  503    0  0.30258642284E+03  0.14599906076E+03 -0.88110747555E+02  0.34732948747E+03  0.00000000000E+00 0. -1.
         -4    1    5    5    0  503  0.13013781678E+03  0.10307059644E+02 -0.22784228805E+02  0.13251870780E+03  0.00000000000E+00 0.  1.
         -3    1    6    6    0  502 -0.62337398859E+02 -0.10494439938E+03 -0.28342782437E+02  0.12530998194E+03  0.00000000000E+00 0.  1.
<mgrwt>
<rscale>  0 0.12219679E+04</rscale>
<asrwt>0</asrwt>
<pdfrwt beam="1">  1        1 0.14371433E+00 0.12219679E+04</pdfrwt>
<pdfrwt beam="2">  1       -1 0.61479847E-01 0.12219679E+04</pdfrwt>
<totfact> 0.45261559E+01</totfact>
</mgrwt>
</event>
<event>
12    1  0.1532786E-007  0.1355196E+04  0.7818608E-02  0.8986904E-01
          2   -1    0    0  501    0  0.00000000000E+00  0.00000000000E+00  0.15485845627E+04  0.15485845627E+04  0.00000000000E+00 0.  1.
         -2   -1    0    0    0  501 -0.00000000000E+00 -0.00000000000E+00 -0.29648969663E+03  0.29648969663E+03  0.00000000000E+00 0. -1.
         23    2    1    2    0    0 -0.12455969844E+03  0.32060756309E+03  0.51460734257E+03  0.62600367261E+03  0.93571112554E+02 0.  0.
        254    2    1    2    0    0  0.12455969844E+03 -0.32060756309E+03  0.73748752352E+03  0.12190705867E+04  0.90771191473E+03 0.  0.
        -24    2    4    4    0    0  0.21911519016E+03 -0.56332411272E+03  0.24761355901E+03  0.65858619717E+03  0.84129554631E+02 0.  0.
         24    2    4    4    0    0 -0.94555491718E+02  0.24271654963E+03  0.48987396450E+03  0.56048438958E+03  0.79461848635E+02 0.  0.
         13    1    3    3    0    0 -0.16309581117E+02  0.74721320610E+01  0.58406529033E+01  0.18866595350E+02  0.00000000000E+00 0. -1.
        -13    1    3    3    0    0 -0.10825011733E+03  0.31313543103E+03  0.50876668967E+03  0.60713707726E+03  0.00000000000E+00 0.  1.
          2    1    6    6  502    0 -0.10613730322E+03  0.18427668673E+03  0.37624523952E+03  0.43218457245E+03  0.00000000000E+00 0. -1.
          3    1    5    5  503    0  0.19501947807E+03 -0.54807483608E+03  0.23517879637E+03  0.62747724185E+03  0.00000000000E+00 0. -1.
         -4    1    5    5    0  503  0.24095712091E+02 -0.15249276634E+02  0.12434762641E+02  0.31108955318E+02  0.00000000000E+00 0.  1.
         -1    1    6    6    0  502  0.11581811501E+02  0.58439862904E+02  0.11362872498E+03  0.12829981713E+03  0.00000000000E+00 0.  1.
<mgrwt>
<rscale>  0 0.13551965E+04</rscale>
<asrwt>0</asrwt>
<pdfrwt beam="1">  1        2 0.23824377E+00 0.13551965E+04</pdfrwt>
<pdfrwt beam="2">  1       -2 0.45613800E-01 0.13551965E+04</pdfrwt>
<totfact> 0.53022307E+01</totfact>
</mgrwt>
</event>
<event>
12    1  0.1532786E-007  0.1665418E+04  0.7818608E-02  0.8781337E-01
         -2   -1    0    0    0  501 -0.00000000000E+00  0.00000000000E+00  0.45091671256E+03  0.45091671256E+03  0.00000000000E+00 0.  1.
          2   -1    0    0  501    0  0.00000000000E+00 -0.00000000000E+00 -0.15377664009E+04  0.15377664009E+04  0.00000000000E+00 0. -1.
         23    2    1    2    0    0 -0.26151896827E+03  0.11317112454E+03 -0.98354094310E+03  0.10284596918E+04  0.95794972190E+02 0.  0.
        254    2    1    2    0    0  0.26151896827E+03 -0.11317112454E+03 -0.10330874527E+03  0.96022342170E+03  0.91112921616E+03 0.  0.
        -24    2    4    4    0    0  0.47493075001E+03 -0.11792610263E+02 -0.36110680009E+03  0.60130594555E+03  0.73975915801E+02 0.  0.
         24    2    4    4    0    0 -0.21341178174E+03 -0.10137851428E+03  0.25779805482E+03  0.35891747616E+03  0.80868571648E+02 0.  0.
         11    1    3    3    0    0 -0.66457606724E+02 -0.49649395743E+01 -0.31875860487E+03  0.32565059848E+03  0.00000000000E+00 0.  1.
        -11    1    3    3    0    0 -0.19506136155E+03  0.11813606411E+03 -0.66478233823E+03  0.70280909331E+03  0.00000000000E+00 0. -1.
          2    1    6    6  502    0 -0.78195854582E+02 -0.62011116637E+02  0.15582759958E+03  0.18504651051E+03  0.00000000000E+00 0. -1.
          3    1    5    5  503    0  0.57770668195E+02 -0.21684278823E+02 -0.65117558870E+02  0.89710392514E+02  0.00000000000E+00 0. -1.
         -4    1    5    5    0  503  0.41716008181E+03  0.98916685598E+01 -0.29598924122E+03  0.51159555303E+03  0.00000000000E+00 0.  1.
         -1    1    6    6    0  502 -0.13521592715E+03 -0.39367397639E+02  0.10197045524E+03  0.17387096565E+03  0.00000000000E+00 0.  1.
<mgrwt>
<rscale>  0 0.16654184E+04</rscale>
<asrwt>0</asrwt>
<pdfrwt beam="1">  1        2 0.23657945E+00 0.16654184E+04</pdfrwt>
<pdfrwt beam="2">  1       -2 0.69371802E-01 0.16654184E+04</pdfrwt>
<totfact> 0.21860883E+01</totfact>
</mgrwt>
</event>
<event>
12    1  0.1532786E-007  0.1386175E+04  0.7818608E-02  0.8963887E-01
          2   -1    0    0  501    0  0.00000000000E+00  0.00000000000E+00  0.94174186563E+03  0.94174186563E+03  0.00000000000E+00 0. -1.
         -2   -1    0    0    0  501 -0.00000000000E+00 -0.00000000000E+00 -0.51008723729E+03  0.51008723729E+03  0.00000000000E+00 0.  1.
         23    2    1    2    0    0 -0.19034202244E+03  0.24645194302E+03  0.30827756202E+03  0.44737597563E+03  0.90230607905E+02 0.  0.
        254    2    1    2    0    0  0.19034202244E+03 -0.24645194302E+03  0.12337706632E+03  0.10044531273E+04  0.94696121288E+03 0.  0.
        -24    2    4    4    0    0  0.10461426460E+03 -0.26840383707E+03  0.51425104457E+03  0.59420874716E+03  0.75134108410E+02 0.  0.
         24    2    4    4    0    0  0.85727757839E+02  0.21951894055E+02 -0.39087397825E+03  0.41024438013E+03  0.87674685292E+02 0.  0.
         11    1    3    3    0    0  0.46460508439E+01  0.66590867159E+01 -0.30649606456E+01  0.86788944050E+01  0.00000000000E+00 0.  1.
        -11    1    3    3    0    0 -0.19498807328E+03  0.23979285630E+03  0.31134252267E+03  0.43869708123E+03  0.00000000000E+00 0. -1.
          2    1    6    6  502    0  0.47116276676E+02 -0.11696742039E-01 -0.59450074989E+02  0.75856806424E+02  0.00000000000E+00 0. -1.
          3    1    5    5  503    0  0.83579454643E+02 -0.24563516149E+03  0.49141423713E+03  0.55570685640E+03  0.00000000000E+00 0. -1.
         -4    1    5    5    0  503  0.21034809956E+02 -0.22768675587E+02  0.22836807436E+02  0.38501890755E+02  0.00000000000E+00 0.  1.
         -1    1    6    6    0  502  0.38611481163E+02  0.21963590797E+02 -0.33142390326E+03  0.33438757371E+03  0.00000000000E+00 0.  1.
<mgrwt>
<rscale>  0 0.13861753E+04</rscale>
<asrwt>0</asrwt>
<pdfrwt beam="1">  1        2 0.14488336E+00 0.13861753E+04</pdfrwt>
<pdfrwt beam="2">  1       -2 0.78474960E-01 0.13861753E+04</pdfrwt>
<totfact> 0.38673794E+01</totfact>
</mgrwt>
</event>
<event>
12    1  0.1532786E-007  0.1708839E+04  0.7818608E-02  0.8756339E-01
          2   -1    0    0  501    0  0.00000000000E+00  0.00000000000E+00  0.28950099258E+04  0.28950099258E+04  0.00000000000E+00 0.  1.
         -2   -1    0    0    0  501 -0.00000000000E+00 -0.00000000000E+00 -0.25216945001E+03  0.25216945001E+03  0.00000000000E+00 0. -1.
         23    2    1    2    0    0 -0.51131260181E+03  0.12771763527E+03  0.39004993676E+03  0.66171409457E+03  0.89298480665E+02 0.  0.
        254    2    1    2    0    0  0.51131260181E+03 -0.12771763527E+03  0.22527905390E+04  0.24854652812E+04  0.90814100246E+03 0.  0.
        -24    2    4    4    0    0 -0.11074140382E+03  0.23996779274E+03  0.32759319946E+03  0.42764101177E+03  0.75573345416E+02 0.  0.
         24    2    4    4    0    0  0.62205400564E+03 -0.36768542801E+03  0.19251973396E+04  0.20578242695E+04  0.78180354544E+02 0.  0.
         13    1    3    3    0    0 -0.49918647420E+03  0.13796313639E+03  0.38398022491E+03  0.64471836963E+03  0.00000000000E+00 0. -1.
        -13    1    3    3    0    0 -0.12126127618E+02 -0.10245501112E+02  0.60697118475E+01  0.16995724932E+02  0.00000000000E+00 0.  1.
          4    1    6    6  502    0  0.51498980159E+03 -0.30886068552E+03  0.15099064985E+04  0.16249390921E+04  0.00000000000E+00 0. -1.
          1    1    5    5  503    0 -0.52541451096E+02  0.12096040338E+03  0.22205708610E+03  0.25826608906E+03  0.00000000000E+00 0. -1.
         -2    1    5    5    0  503 -0.58199952729E+02  0.11900738935E+03  0.10553611336E+03  0.16937492270E+03  0.00000000000E+00 0.  1.
         -3    1    6    6    0  502  0.10706420405E+03 -0.58824742490E+02  0.41529084105E+03  0.43288517736E+03  0.00000000000E+00 0.  1.
<mgrwt>
<rscale>  0 0.17088394E+04</rscale>
<asrwt>0</asrwt>
<pdfrwt beam="1">  1        2 0.44538612E+00 0.17088394E+04</pdfrwt>
<pdfrwt beam="2">  1       -2 0.38795302E-01 0.17088394E+04</pdfrwt>
<totfact> 0.12127690E+01</totfact>
</mgrwt>
</event>
<event>
12    1  0.1532786E-007  0.1693305E+04  0.7818608E-02  0.8765192E-01
         -2   -1    0    0    0  501 -0.00000000000E+00  0.00000000000E+00  0.67758489857E+03  0.67758489857E+03  0.00000000000E+00 0.  1.
          2   -1    0    0  501    0  0.00000000000E+00 -0.00000000000E+00 -0.10579052778E+04  0.10579052778E+04  0.00000000000E+00 0. -1.
         23    2    1    2    0    0  0.15151232271E+03 -0.21111767577E+03  0.41231827201E+03  0.49839004151E+03  0.10420949617E+03 0.  0.
        254    2    1    2    0    0 -0.15151232271E+03  0.21111767577E+03 -0.79263865128E+03  0.12371001349E+04  0.91357214019E+03 0.  0.
        -24    2    4    4    0    0  0.39953114909E+02  0.51184655551E+03 -0.23373579488E+03  0.56965679583E+03  0.79330293409E+02 0.  0.
         24    2    4    4    0    0 -0.19146543762E+03 -0.30072887974E+03 -0.55890285640E+03  0.66744333908E+03  0.77532799992E+02 0.  0.
         11    1    3    3    0    0  0.45726858987E+02 -0.61072666035E+02  0.21845151958E+03  0.23139118950E+03  0.00000000000E+00 0.  1.
        -11    1    3    3    0    0  0.10578546372E+03 -0.15004500973E+03  0.19386675243E+03  0.26699885202E+03  0.00000000000E+00 0. -1.
          2    1    6    6  502    0  0.71952716039E+01 -0.86475187872E+01 -0.22858593212E+02  0.25476789402E+02  0.00000000000E+00 0. -1.
          1    1    5    5  503    0  0.28964532501E+02  0.95729102350E+02 -0.21048596486E+02  0.10220591271E+03  0.00000000000E+00 0. -1.
         -2    1    5    5    0  503  0.10988582408E+02  0.41611745316E+03 -0.21268719839E+03  0.46745088312E+03  0.00000000000E+00 0.  1.
         -1    1    6    6    0  502 -0.19866070922E+03 -0.29208136095E+03 -0.53604426319E+03  0.64196654968E+03  0.00000000000E+00 0.  1.
<mgrwt>
<rscale>  0 0.16933052E+04</rscale>
<asrwt>0</asrwt>
<pdfrwt beam="1">  1        2 0.16275466E+00 0.16933052E+04</pdfrwt>
<pdfrwt beam="2">  1       -2 0.10424383E+00 0.16933052E+04</pdfrwt>
<totfact> 0.16481852E+01</totfact>
</mgrwt>
</event>
<event>
12    1  0.1532786E-007  0.1894550E+04  0.7818608E-02  0.8657574E-01
          1   -1    0    0  501    0  0.00000000000E+00  0.00000000000E+00  0.20805578292E+04  0.20805578292E+04  0.00000000000E+00 0. -1.
         -1   -1    0    0    0  501 -0.00000000000E+00 -0.00000000000E+00 -0.43129303472E+03  0.43129303472E+03  0.00000000000E+00 0.  1.
         23    2    1    2    0    0  0.14596594467E+03  0.29963720106E+02 -0.30766517279E+03  0.35387419732E+03  0.91461508043E+02 0.  0.
        254    2    1    2    0    0 -0.14596594467E+03 -0.29963720106E+02  0.19569299673E+04  0.21579766666E+04  0.89726501954E+03 0.  0.
        -24    2    4    4    0    0  0.10811464600E+03  0.35086159476E+03  0.48017992517E+03  0.60989162151E+03  0.81255117324E+02 0.  0.
         24    2    4    4    0    0 -0.25408059067E+03 -0.38082531487E+03  0.14767500421E+04  0.15480850451E+04  0.78687692870E+02 0.  0.
         11    1    3    3    0    0  0.12163912577E+03  0.60095169826E+02 -0.22847823296E+03  0.26572506335E+03  0.00000000000E+00 0. -1.
        -11    1    3    3    0    0  0.24326818898E+02 -0.30131449720E+02 -0.79186939832E+02  0.88149133971E+02  0.00000000000E+00 0.  1.
          2    1    6    6  502    0 -0.15543088782E+03 -0.16212730714E+03  0.71159747816E+03  0.74620037224E+03  0.00000000000E+00 0. -1.
          1    1    5    5  503    0  0.82332880697E+02  0.16789273158E+03  0.28723516831E+03  0.34274001003E+03  0.00000000000E+00 0. -1.
         -2    1    5    5    0  503  0.25781765307E+02  0.18296886318E+03  0.19294475687E+03  0.26715161148E+03  0.00000000000E+00 0.  1.
         -1    1    6    6    0  502 -0.98649702852E+02 -0.21869800772E+03  0.76515256398E+03  0.80188467289E+03  0.00000000000E+00 0.  1.
<mgrwt>
<rscale>  0 0.18945502E+04</rscale>
<asrwt>0</asrwt>
<pdfrwt beam="1">  1        1 0.32008581E+00 0.18945502E+04</pdfrwt>
<pdfrwt beam="2">  1       -1 0.66352776E-01 0.18945502E+04</pdfrwt>
<totfact> 0.56606756E+00</totfact>
</mgrwt>
</event>
<event>
12    1  0.1532786E-007  0.1796921E+04  0.7818608E-02  0.8707938E-01
          1   -1    0    0  501    0  0.00000000000E+00  0.00000000000E+00  0.37141117697E+04  0.37141117697E+04  0.00000000000E+00 0. -1.
         -1   -1    0    0    0  501 -0.00000000000E+00 -0.00000000000E+00 -0.21734174817E+03  0.21734174817E+03  0.00000000000E+00 0.  1.
         23    2    1    2    0    0 -0.34518538531E+03 -0.57011396103E+03  0.11758506470E+04  0.13548447171E+04  0.93790109033E+02 0.  0.
        254    2    1    2    0    0  0.34518538531E+03  0.57011396103E+03  0.23209193745E+04  0.25766088008E+04  0.89892340633E+03 0.  0.
        -24    2    4    4    0    0  0.11153147145E+03  0.58125448970E+03  0.22374832270E+04  0.23159390678E+04  0.83345809168E+02 0.  0.
         24    2    4    4    0    0  0.23365391386E+03 -0.11140528668E+02  0.83436147595E+02  0.26066973301E+03  0.79176108408E+02 0.  0.
         13    1    3    3    0    0 -0.11118484198E+03 -0.10783922757E+03  0.26619786551E+03  0.30798160934E+03  0.00000000000E+00 0. -1.
        -13    1    3    3    0    0 -0.23400054334E+03 -0.46227473347E+03  0.90965278147E+03  0.10468631077E+04  0.00000000000E+00 0.  1.
          4    1    6    6  502    0  0.14416476920E+03 -0.41814864564E+02  0.33909138937E+02  0.15388889915E+03  0.00000000000E+00 0. -1.
          1    1    5    5  503    0  0.90187907057E+02  0.45005835843E+03  0.15886675838E+04  0.16536478091E+04  0.00000000000E+00 0. -1.
         -2    1    5    5    0  503  0.21343564397E+02  0.13119613128E+03  0.64881564312E+03  0.66229125871E+03  0.00000000000E+00 0.  1.
         -3    1    6    6    0  502  0.89489144657E+02  0.30674335896E+02  0.49527008658E+02  0.10678083386E+03  0.00000000000E+00 0.  1.
<mgrwt>
<rscale>  0 0.17969213E+04</rscale>
<asrwt>0</asrwt>
<pdfrwt beam="1">  1        1 0.57140177E+00 0.17969213E+04</pdfrwt>
<pdfrwt beam="2">  1       -1 0.33437195E-01 0.17969213E+04</pdfrwt>
<totfact> 0.13466165E+00</totfact>
</mgrwt>
</event>
<event>
12    1  0.1532786E-007  0.1426639E+04  0.7818608E-02  0.8934758E-01
          2   -1    0    0  501    0  0.00000000000E+00  0.00000000000E+00  0.67527375831E+03  0.67527375831E+03  0.00000000000E+00 0. -1.
         -2   -1    0    0    0  501 -0.00000000000E+00 -0.00000000000E+00 -0.75350888294E+03  0.75350888294E+03  0.00000000000E+00 0.  1.
         23    2    1    2    0    0 -0.23509762214E+03  0.36950308471E+03 -0.11470576374E+03  0.45781672988E+03  0.68083216503E+02 0.  0.
        254    2    1    2    0    0  0.23509762214E+03 -0.36950308471E+03  0.36470639111E+02  0.97096591138E+03  0.86581826730E+03 0.  0.
        -24    2    4    4    0    0 -0.61224290914E+02 -0.41971673788E+03  0.33017631914E+03  0.54338422363E+03  0.79620719120E+02 0.  0.
         24    2    4    4    0    0  0.29632191305E+03  0.50213653170E+02 -0.29370568003E+03  0.42758168775E+03  0.78961928147E+02 0.  0.
         11    1    3    3    0    0 -0.13327223085E+03  0.26133740970E+03 -0.92610756056E+02  0.30762880451E+03  0.00000000000E+00 0.  1.
        -11    1    3    3    0    0 -0.10182539128E+03  0.10816567501E+03 -0.22095007687E+02  0.15018792537E+03  0.00000000000E+00 0. -1.
          4    1    6    6  502    0  0.28696893744E+03  0.62391878569E+02 -0.26767024260E+03  0.39735535273E+03  0.00000000000E+00 0. -1.
          3    1    5    5  503    0 -0.50989865041E+02 -0.40275125320E+03  0.33062449023E+03  0.52356574738E+03  0.00000000000E+00 0. -1.
         -4    1    5    5    0  503 -0.10234425873E+02 -0.16965484687E+02 -0.44817109175E+00  0.19818476251E+02  0.00000000000E+00 0.  1.
         -3    1    6    6    0  502  0.93529756089E+01 -0.12178225400E+02 -0.26035437425E+02  0.30226335017E+02  0.00000000000E+00 0.  1.
<mgrwt>
<rscale>  0 0.14266391E+04</rscale>
<asrwt>0</asrwt>
<pdfrwt beam="1">  1        2 0.10388827E+00 0.14266391E+04</pdfrwt>
<pdfrwt beam="2">  1       -2 0.11592444E+00 0.14266391E+04</pdfrwt>
<totfact> 0.24080683E+01</totfact>
</mgrwt>
</event>
<event>
12    1  0.1532786E-007  0.1254795E+04  0.7818608E-02  0.9066202E-01
         -2   -1    0    0    0  501 -0.00000000000E+00  0.00000000000E+00  0.29190000213E+03  0.29190000213E+03  0.00000000000E+00 0.  1.
          2   -1    0    0  501    0  0.00000000000E+00 -0.00000000000E+00 -0.13485015276E+04  0.13485015276E+04  0.00000000000E+00 0. -1.
         23    2    1    2    0    0  0.83541975709E+02  0.39776327762E+02  0.10623832114E+03  0.16794866042E+03  0.91426219995E+02 0.  0.
        254    2    1    2    0    0 -0.83541975709E+02 -0.39776327762E+02 -0.11628398466E+04  0.14724528693E+04  0.89853187229E+03 0.  0.
        -24    2    4    4    0    0  0.32626770307E+03 -0.20901596577E+03 -0.80549992373E+03  0.89735782168E+03  0.79263137667E+02 0.  0.
         24    2    4    4    0    0 -0.40980967877E+03  0.16923963800E+03 -0.35733992287E+03  0.57509504762E+03  0.80352133977E+02 0.  0.
         11    1    3    3    0    0  0.11175458442E+02  0.23804287189E+02 -0.11601845429E+02  0.28742612569E+02  0.00000000000E+00 0. -1.
        -11    1    3    3    0    0  0.72366517267E+02  0.15972040573E+02  0.11784016656E+03  0.13920604785E+03  0.00000000000E+00 0.  1.
          4    1    6    6  502    0 -0.36440615620E+03  0.12219589730E+03 -0.29225866534E+03  0.48284450029E+03  0.00000000000E+00 0. -1.
          1    1    5    5  503    0  0.15424368928E+03 -0.95325717251E+02 -0.46742499676E+03  0.50136237957E+03  0.00000000000E+00 0. -1.
         -2    1    5    5    0  503  0.17202401378E+03 -0.11369024852E+03 -0.33807492697E+03  0.39599544211E+03  0.00000000000E+00 0.  1.
         -3    1    6    6    0  502 -0.45403522570E+02  0.47043740701E+02 -0.65081257528E+02  0.92250547329E+02  0.00000000000E+00 0.  1.
<mgrwt>
<rscale>  0 0.12547950E+04</rscale>
<asrwt>0</asrwt>
<pdfrwt beam="1">  1        2 0.20746177E+00 0.12547950E+04</pdfrwt>
<pdfrwt beam="2">  1       -2 0.44907693E-01 0.12547950E+04</pdfrwt>
<totfact> 0.71598267E+01</totfact>
</mgrwt>
</event>
<event>
12    1  0.1532786E-007  0.2013015E+04  0.7818608E-02  0.8600560E-01
          1   -1    0    0  501    0  0.00000000000E+00  0.00000000000E+00  0.13420098203E+04  0.13420098203E+04  0.00000000000E+00 0. -1.
         -1   -1    0    0    0  501 -0.00000000000E+00 -0.00000000000E+00 -0.75488049381E+03  0.75488049381E+03  0.00000000000E+00 0.  1.
         23    2    1    2    0    0 -0.64577728840E+03 -0.14527583602E+03  0.71296009185E+03  0.97726710466E+03  0.92765977236E+02 0.  0.
        254    2    1    2    0    0  0.64577728840E+03  0.14527583602E+03 -0.12583076538E+03  0.11196232094E+04  0.89419761510E+03 0.  0.
        -24    2    4    4    0    0  0.42650281672E+03  0.38276222467E+03  0.23906482102E+03  0.62558729530E+03  0.76130822207E+02 0.  0.
         24    2    4    4    0    0  0.21927447169E+03 -0.23748638864E+03 -0.36489558640E+03  0.49403591414E+03  0.80259683306E+02 0.  0.
         13    1    3    3    0    0 -0.19094096717E+03 -0.73038536636E+02  0.26615127093E+03  0.33560330718E+03  0.00000000000E+00 0. -1.
        -13    1    3    3    0    0 -0.45483632124E+03 -0.72237299387E+02  0.44680882092E+03  0.64166379748E+03  0.00000000000E+00 0.  1.
          4    1    6    6  502    0  0.14883064524E+03 -0.19367155541E+03 -0.22896256857E+03  0.33478812724E+03  0.00000000000E+00 0. -1.
          1    1    5    5  503    0  0.41407623882E+03  0.37496515516E+03  0.21742333747E+03  0.59944216303E+03  0.00000000000E+00 0. -1.
         -2    1    5    5    0  503  0.12426577898E+02  0.77970695044E+01  0.21641483551E+02  0.26145132270E+02  0.00000000000E+00 0.  1.
         -3    1    6    6    0  502  0.70443826451E+02 -0.43814833234E+02 -0.13593301783E+03  0.15924778690E+03  0.00000000000E+00 0.  1.
<mgrwt>
<rscale>  0 0.20130147E+04</rscale>
<asrwt>0</asrwt>
<pdfrwt beam="1">  1        1 0.20646305E+00 0.20130147E+04</pdfrwt>
<pdfrwt beam="2">  1       -1 0.11613546E+00 0.20130147E+04</pdfrwt>
<totfact> 0.52446920E+00</totfact>
</mgrwt>
</event>
<event>
12    1  0.1532786E-007  0.1257908E+04  0.7818608E-02  0.9063627E-01
         -1   -1    0    0    0  501 -0.00000000000E+00  0.00000000000E+00  0.23895209663E+03  0.23895209663E+03  0.00000000000E+00 0.  1.
          1   -1    0    0  501    0  0.00000000000E+00 -0.00000000000E+00 -0.16554916486E+04  0.16554916486E+04  0.00000000000E+00 0. -1.
         23    2    1    2    0    0 -0.27268927809E+03  0.53231101312E+01 -0.31749886683E+03  0.42852376618E+03  0.91865716457E+02 0.  0.
        254    2    1    2    0    0  0.27268927809E+03 -0.53231101312E+01 -0.10990406852E+04  0.14659199791E+04  0.93093672155E+03 0.  0.
        -24    2    4    4    0    0  0.86615147325E+02  0.24870896316E+03 -0.11095098337E+04  0.11430459081E+04  0.78635519127E+02 0.  0.
         24    2    4    4    0    0  0.18607413076E+03 -0.25403207329E+03  0.10469148495E+02  0.32287407101E+03  0.70584603565E+02 0.  0.
         11    1    3    3    0    0 -0.21603224876E+03  0.29040327005E+02 -0.19946288538E+03  0.29546356077E+03  0.00000000000E+00 0.  1.
        -11    1    3    3    0    0 -0.56657029327E+02 -0.23717216874E+02 -0.11803598145E+03  0.13306020542E+03  0.00000000000E+00 0. -1.
          2    1    6    6  502    0  0.57047038988E+02 -0.88508170615E+02  0.36383740285E+02  0.11140842643E+03  0.00000000000E+00 0. -1.
          1    1    5    5  503    0 -0.91292471494E+01  0.11060665452E+02 -0.12201144986E+03  0.12285143618E+03  0.00000000000E+00 0. -1.
         -2    1    5    5    0  503  0.95744394474E+02  0.23764829770E+03 -0.98749838381E+03  0.10201944719E+04  0.00000000000E+00 0.  1.
         -1    1    6    6    0  502  0.12902709178E+03 -0.16552390267E+03 -0.25914591790E+02  0.21146564457E+03  0.00000000000E+00 0.  1.
<mgrwt>
<rscale>  0 0.12579081E+04</rscale>
<asrwt>0</asrwt>
<pdfrwt beam="1">  1        1 0.25469103E+00 0.12579081E+04</pdfrwt>
<pdfrwt beam="2">  1       -1 0.36761860E-01 0.12579081E+04</pdfrwt>
<totfact> 0.35788548E+01</totfact>
</mgrwt>
</event>
<event>
12    1  0.1532786E-007  0.1217283E+04  0.7818608E-02  0.9097862E-01
          2   -1    0    0  501    0  0.00000000000E+00  0.00000000000E+00  0.97770310893E+03  0.97770310893E+03  0.00000000000E+00 0. -1.
         -2   -1    0    0    0  501 -0.00000000000E+00 -0.00000000000E+00 -0.37889282303E+03  0.37889282303E+03  0.00000000000E+00 0.  1.
         23    2    1    2    0    0  0.83417866245E+02 -0.16239626536E+03  0.33587617841E+03  0.39262602331E+03  0.89505863215E+02 0.  0.
        254    2    1    2    0    0 -0.83417866245E+02  0.16239626536E+03  0.26293410750E+03  0.96396990865E+03  0.90927034070E+03 0.  0.
        -24    2    4    4    0    0  0.13675946894E+02  0.47988206599E+03  0.36409327667E+03  0.60774314826E+03  0.79460627779E+02 0.  0.
         24    2    4    4    0    0 -0.97093813139E+02 -0.31748580063E+03 -0.10115916917E+03  0.35622676038E+03  0.80248895047E+02 0.  0.
         11    1    3    3    0    0  0.45489527285E+02 -0.11850922516E+02  0.61974883078E+02  0.77785780125E+02  0.00000000000E+00 0.  1.
        -11    1    3    3    0    0  0.37928338960E+02 -0.15054534284E+03  0.27390129533E+03  0.31484024319E+03  0.00000000000E+00 0. -1.
          4    1    6    6  502    0  0.12219849381E+02 -0.65979376240E+02 -0.14787704839E+02  0.68711563963E+02  0.00000000000E+00 0. -1.
          1    1    5    5  503    0 -0.80603892954E+01  0.18233465525E+03  0.18448523851E+03  0.25951049999E+03  0.00000000000E+00 0. -1.
         -2    1    5    5    0  503  0.21736336190E+02  0.29754741074E+03  0.17960803816E+03  0.34823264827E+03  0.00000000000E+00 0.  1.
         -3    1    6    6    0  502 -0.10931366252E+03 -0.25150642439E+03 -0.86371464331E+02  0.28751519642E+03  0.00000000000E+00 0.  1.
<mgrwt>
<rscale>  0 0.12172834E+04</rscale>
<asrwt>0</asrwt>
<pdfrwt beam="1">  1        2 0.15041586E+00 0.12172834E+04</pdfrwt>
<pdfrwt beam="2">  1       -2 0.58291204E-01 0.12172834E+04</pdfrwt>
<totfact> 0.70658808E+01</totfact>
</mgrwt>
</event>
<event>
12    1  0.1532786E-007  0.1330755E+04  0.7818608E-02  0.9005526E-01
         -2   -1    0    0    0  501 -0.00000000000E+00  0.00000000000E+00  0.43959525134E+03  0.43959525134E+03  0.00000000000E+00 0.  1.
          2   -1    0    0  501    0  0.00000000000E+00 -0.00000000000E+00 -0.10071241828E+04  0.10071241828E+04  0.00000000000E+00 0. -1.
         23    2    1    2    0    0  0.98959472705E+02 -0.49279071921E+01  0.21301551184E+03  0.25269033547E+03  0.93056627103E+02 0.  0.
        254    2    1    2    0    0 -0.98959472705E+02  0.49279071921E+01 -0.78054444334E+03  0.11940290987E+04  0.89813061357E+03 0.  0.
        -24    2    4    4    0    0  0.47230625778E+02  0.24980976084E+03 -0.84796718529E+03  0.88892411755E+03  0.80635543132E+02 0.  0.
         24    2    4    4    0    0 -0.14619009848E+03 -0.24488185365E+03  0.67422741944E+02  0.30510498116E+03  0.84879657479E+02 0.  0.
         13    1    3    3    0    0  0.33335655374E+02  0.17116010512E+02  0.10867304120E+02  0.39016945471E+02  0.00000000000E+00 0. -1.
        -13    1    3    3    0    0  0.65623817332E+02 -0.22043917704E+02  0.20214820773E+03  0.21367339000E+03  0.00000000000E+00 0.  1.
          4    1    6    6  502    0 -0.94322866742E+02 -0.20150301603E+03  0.79801203025E+02  0.23636518496E+03  0.00000000000E+00 0. -1.
          3    1    5    5  503    0  0.35375392738E+02  0.20466677722E+03 -0.77464758968E+03  0.80200922458E+03  0.00000000000E+00 0. -1.
         -4    1    5    5    0  503  0.11855233040E+02  0.45142983622E+02 -0.73319595607E+02  0.86914892974E+02  0.00000000000E+00 0.  1.
         -3    1    6    6    0  502 -0.51867231741E+02 -0.43378837625E+02 -0.12378461081E+02  0.68739796195E+02  0.00000000000E+00 0.  1.
<mgrwt>
<rscale>  0 0.13307547E+04</rscale>
<asrwt>0</asrwt>
<pdfrwt beam="1">  1        2 0.15494218E+00 0.13307547E+04</pdfrwt>
<pdfrwt beam="2">  1       -2 0.67630039E-01 0.13307547E+04</pdfrwt>
<totfact> 0.48859160E+01</totfact>
</mgrwt>
</event>
<event>
12    1  0.1532786E-007  0.1969906E+04  0.7818608E-02  0.8620821E-01
          2   -1    0    0  501    0  0.00000000000E+00  0.00000000000E+00  0.13262877830E+04  0.13262877830E+04  0.00000000000E+00 0. -1.
         -2   -1    0    0    0  501 -0.00000000000E+00 -0.00000000000E+00 -0.73146454531E+03  0.73146454531E+03  0.00000000000E+00 0.  1.
         23    2    1    2    0    0  0.74745745475E+03 -0.14031029081E+03  0.58255563457E+02  0.76787814952E+03  0.88676476455E+02 0.  0.
        254    2    1    2    0    0 -0.74745745475E+03  0.14031029081E+03  0.53656767427E+03  0.12898741788E+04  0.89302346203E+03 0.  0.
        -24    2    4    4    0    0 -0.71445876803E+03 -0.11145425425E+03  0.67262915927E+03  0.99065987100E+03  0.78125617486E+02 0.  0.
         24    2    4    4    0    0 -0.32998686717E+02  0.25176454506E+03 -0.13606148499E+03  0.29921430782E+03  0.80883711775E+02 0.  0.
         13    1    3    3    0    0  0.63470287175E+03 -0.14964666132E+03  0.58640640110E+02  0.65473703372E+03  0.00000000000E+00 0.  1.
        -13    1    3    3    0    0  0.11275458300E+03  0.93363705089E+01 -0.38507665297E+00  0.11314111580E+03  0.00000000000E+00 0. -1.
          2    1    6    6  502    0 -0.57202490874E+02  0.13636417576E+03 -0.64877890913E+02  0.16148205511E+03  0.00000000000E+00 0. -1.
          3    1    5    5  503    0 -0.69522216580E+03 -0.98906970572E+02  0.66299868316E+03  0.96575550867E+03  0.00000000000E+00 0. -1.
         -4    1    5    5    0  503 -0.19236602236E+02 -0.12547283680E+02  0.96304761013E+01  0.24904362334E+02  0.00000000000E+00 0.  1.
         -1    1    6    6    0  502  0.24203804158E+02  0.11540036930E+03 -0.71183594080E+02  0.13773225271E+03  0.00000000000E+00 0.  1.
<mgrwt>
<rscale>  0 0.19699061E+04</rscale>
<asrwt>0</asrwt>
<pdfrwt beam="1">  1        2 0.20404427E+00 0.19699061E+04</pdfrwt>
<pdfrwt beam="2">  1       -2 0.11253301E+00 0.19699061E+04</pdfrwt>
<totfact> 0.92414653E+00</totfact>
</mgrwt>
</event>
<event>
12    1  0.1532786E-007  0.1550595E+04  0.7818608E-02  0.8851488E-01
         -2   -1    0    0    0  501 -0.00000000000E+00  0.00000000000E+00  0.56992066524E+03  0.56992066524E+03  0.00000000000E+00 0.  1.
          2   -1    0    0  501    0  0.00000000000E+00 -0.00000000000E+00 -0.10546837685E+04  0.10546837685E+04  0.00000000000E+00 0. -1.
         23    2    1    2    0    0 -0.15410955010E+03 -0.36068476216E+03 -0.50958468561E+03  0.64958937922E+03  0.91905161428E+02 0.  0.
        254    2    1    2    0    0  0.15410955010E+03  0.36068476216E+03  0.24821582308E+02  0.97501505457E+03  0.89229759307E+03 0.  0.
        -24    2    4    4    0    0 -0.34159509756E+03  0.24606900729E+02  0.10202811439E+03  0.36586077448E+03  0.78432518370E+02 0.  0.
         24    2    4    4    0    0  0.49570464766E+03  0.33607786143E+03 -0.77206532084E+02  0.60915428009E+03  0.80228808399E+02 0.  0.
         11    1    3    3    0    0 -0.64431016015E+02 -0.25132738150E+03 -0.35976133858E+03  0.44355949911E+03  0.00000000000E+00 0. -1.
        -11    1    3    3    0    0 -0.89678534086E+02 -0.10935738066E+03 -0.14982334703E+03  0.20602988011E+03  0.00000000000E+00 0.  1.
          4    1    6    6  502    0  0.10348913032E+03  0.96358012411E+02  0.80930530096E+01  0.14163461497E+03  0.00000000000E+00 0. -1.
          1    1    5    5  503    0  0.42279346646E+01 -0.15128538000E+01  0.19990184619E+01  0.49153059884E+01  0.00000000000E+00 0. -1.
         -2    1    5    5    0  503 -0.34582303222E+03  0.26119754529E+02  0.10002909593E+03  0.36094546849E+03  0.00000000000E+00 0.  1.
         -3    1    6    6    0  502  0.39221551734E+03  0.23971984902E+03 -0.85299585094E+02  0.46751966512E+03  0.00000000000E+00 0.  1.
<mgrwt>
<rscale>  0 0.15505948E+04</rscale>
<asrwt>0</asrwt>
<pdfrwt beam="1">  1        2 0.16225904E+00 0.15505948E+04</pdfrwt>
<pdfrwt beam="2">  1       -2 0.87680103E-01 0.15505948E+04</pdfrwt>
<totfact> 0.25121475E+01</totfact>
</mgrwt>
</event>
<event>
12    1  0.1532786E-007  0.1272765E+04  0.7818608E-02  0.9051446E-01
          2   -1    0    0  501    0  0.00000000000E+00  0.00000000000E+00  0.28776475491E+04  0.28776475491E+04  0.00000000000E+00 0.  1.
         -2   -1    0    0    0  501 -0.00000000000E+00 -0.00000000000E+00 -0.14073395642E+03  0.14073395642E+03  0.00000000000E+00 0. -1.
         23    2    1    2    0    0 -0.17585720507E+03  0.27628419351E+03  0.77408377958E+03  0.84565289571E+03  0.93082812854E+02 0.  0.
        254    2    1    2    0    0  0.17585720507E+03 -0.27628419351E+03  0.19628298131E+04  0.21727286098E+04  0.87223278117E+03 0.  0.
        -24    2    4    4    0    0  0.34702211724E+02 -0.57770053273E+03  0.13479816529E+04  0.14690799526E+04  0.78735135356E+02 0.  0.
         24    2    4    4    0    0  0.14115499335E+03  0.30141633922E+03  0.61484816027E+03  0.70364865729E+03  0.79414299859E+02 0.  0.
         13    1    3    3    0    0 -0.77702954534E+02  0.19180284583E+03  0.41090134320E+03  0.46007172773E+03  0.00000000000E+00 0. -1.
        -13    1    3    3    0    0 -0.98154250536E+02  0.84481347683E+02  0.36318243638E+03  0.38558116798E+03  0.00000000000E+00 0.  1.
          2    1    6    6  502    0  0.18867587788E+02  0.12214124856E+02  0.83375576711E+02  0.86351939797E+02  0.00000000000E+00 0. -1.
          1    1    5    5  503    0  0.57801056905E+02 -0.32601812060E+03  0.74393116806E+03  0.81428641150E+03  0.00000000000E+00 0. -1.
         -4    1    5    5    0  503 -0.23098845181E+02 -0.25168241213E+03  0.60405048480E+03  0.65479354106E+03  0.00000000000E+00 0.  1.
         -1    1    6    6    0  502  0.12228740556E+03  0.28920221436E+03  0.53147258356E+03  0.61729671749E+03  0.00000000000E+00 0.  1.
<mgrwt>
<rscale>  0 0.12727651E+04</rscale>
<asrwt>0</asrwt>
<pdfrwt beam="1">  1        2 0.44271496E+00 0.12727651E+04</pdfrwt>
<pdfrwt beam="2">  1       -2 0.21651380E-01 0.12727651E+04</pdfrwt>
<totfact> 0.38214116E+01</totfact>
</mgrwt>
</event>
<event>
12    1  0.1532786E-007  0.1383995E+04  0.7818608E-02  0.8965486E-01
          1   -1    0    0  501    0  0.00000000000E+00  0.00000000000E+00  0.46209997039E+03  0.46209997039E+03  0.00000000000E+00 0. -1.
         -1   -1    0    0    0  501 -0.00000000000E+00 -0.00000000000E+00 -0.10362704135E+04  0.10362704135E+04  0.00000000000E+00 0.  1.
         23    2    1    2    0    0 -0.40658767500E+02  0.38442716698E+03 -0.81792147046E+02  0.40556383894E+03  0.91403993627E+02 0.  0.
        254    2    1    2    0    0  0.40658767500E+02 -0.38442716698E+03 -0.49237829609E+03  0.10928065450E+04  0.89574124399E+03 0.  0.
        -24    2    4    4    0    0 -0.41656988818E+03 -0.17646276645E+03 -0.30203323865E+03  0.54970183836E+03  0.79236697063E+02 0.  0.
         24    2    4    4    0    0  0.45722865568E+03 -0.20796440053E+03 -0.19034505744E+03  0.54310470661E+03  0.80151394135E+02 0.  0.
         13    1    3    3    0    0 -0.24035664212E+02  0.25302218277E+03 -0.87616378069E+01  0.25431221839E+03  0.00000000000E+00 0. -1.
        -13    1    3    3    0    0 -0.16623103289E+02  0.13140498421E+03 -0.73030509239E+02  0.15125162055E+03  0.00000000000E+00 0.  1.
          2    1    6    6  502    0  0.62053278890E+02 -0.43839414600E+02 -0.56751445666E+02  0.94832643528E+02  0.00000000000E+00 0. -1.
          1    1    5    5  503    0 -0.10180491047E+02 -0.14287775152E+02  0.81801610021E+00  0.17562803509E+02  0.00000000000E+00 0. -1.
         -2    1    5    5    0  503 -0.40638939714E+03 -0.16217499130E+03 -0.30285125475E+03  0.53213903485E+03  0.00000000000E+00 0.  1.
         -1    1    6    6    0  502  0.39517537679E+03 -0.16412498593E+03 -0.13359361178E+03  0.44827206308E+03  0.00000000000E+00 0.  1.
<mgrwt>
<rscale>  0 0.13839950E+04</rscale>
<asrwt>0</asrwt>
<pdfrwt beam="1">  1        1 0.71092305E-01 0.13839950E+04</pdfrwt>
<pdfrwt beam="2">  1       -1 0.15942621E+00 0.13839950E+04</pdfrwt>
<totfact> 0.14232842E+01</totfact>
</mgrwt>
</event>
<event>
12    1  0.1532786E-007  0.1607517E+04  0.7818608E-02  0.8815943E-01
         -2   -1    0    0    0  501 -0.00000000000E+00  0.00000000000E+00  0.33135848844E+03  0.33135848844E+03  0.00000000000E+00 0.  1.
          2   -1    0    0  501    0  0.00000000000E+00 -0.00000000000E+00 -0.19496332537E+04  0.19496332537E+04  0.00000000000E+00 0. -1.
         23    2    1    2    0    0  0.47534221298E+03 -0.21917831597E+03 -0.75658078593E+03  0.92461499791E+03  0.92244539547E+02 0.  0.
        254    2    1    2    0    0 -0.47534221298E+03  0.21917831597E+03 -0.86169397929E+03  0.13563767442E+04  0.90733235620E+03 0.  0.
        -24    2    4    4    0    0 -0.63804455554E+03 -0.98142851291E+02 -0.70322623512E+03  0.95794638842E+03  0.80007944714E+02 0.  0.
         24    2    4    4    0    0  0.16270234256E+03  0.31732116726E+03 -0.15846774417E+03  0.39843035577E+03  0.80435980689E+02 0.  0.
         11    1    3    3    0    0  0.14950101792E+03 -0.70965978076E+02 -0.16865379387E+03  0.23628547689E+03  0.00000000000E+00 0.  1.
        -11    1    3    3    0    0  0.32584119506E+03 -0.14821233790E+03 -0.58792699207E+03  0.68832952101E+03  0.00000000000E+00 0. -1.
          2    1    6    6  502    0  0.16345010328E+02  0.10460435289E+03 -0.30050224380E+02  0.11005564952E+03  0.00000000000E+00 0. -1.
          1    1    5    5  503    0 -0.16542252934E+02 -0.15146136850E+02 -0.35316686607E+02  0.41836825244E+02  0.00000000000E+00 0. -1.
         -2    1    5    5    0  503 -0.62150230260E+03 -0.82996714441E+02 -0.66790954852E+03  0.91610956318E+03  0.00000000000E+00 0.  1.
         -1    1    6    6    0  502  0.14635733223E+03  0.21271681437E+03 -0.12841751979E+03  0.28837470624E+03  0.00000000000E+00 0.  1.
<mgrwt>
<rscale>  0 0.16075168E+04</rscale>
<asrwt>0</asrwt>
<pdfrwt beam="1">  1        2 0.29994357E+00 0.16075168E+04</pdfrwt>
<pdfrwt beam="2">  1       -2 0.50978230E-01 0.16075168E+04</pdfrwt>
<totfact> 0.24843635E+01</totfact>
</mgrwt>
</event>
<event>
12    1  0.1532786E-007  0.2407720E+04  0.7818608E-02  0.8436619E-01
          1   -1    0    0  501    0  0.00000000000E+00  0.00000000000E+00  0.19790313835E+04  0.19790313835E+04  0.00000000000E+00 0. -1.
         -1   -1    0    0    0  501 -0.00000000000E+00 -0.00000000000E+00 -0.73231737198E+03  0.73231737198E+03  0.00000000000E+00 0.  1.
         23    2    1    2    0    0  0.19631551121E+03 -0.25937864206E+03  0.16446337191E+04  0.16790673637E+04  0.92898233514E+02 0.  0.
        254    2    1    2    0    0 -0.19631551121E+03  0.25937864206E+03 -0.39791970762E+03  0.10322813918E+04  0.89523612427E+03 0.  0.
        -24    2    4    4    0    0 -0.27471725357E+03  0.55308471308E+03 -0.17308438617E+03  0.64611963785E+03  0.78358869476E+02 0.  0.
         24    2    4    4    0    0  0.78401742361E+02 -0.29370607102E+03 -0.22483532145E+03  0.38616175393E+03  0.78484960770E+02 0.  0.
         13    1    3    3    0    0  0.25871948491E+02 -0.17697087143E+02  0.67207664929E+02  0.74158039600E+02  0.00000000000E+00 0.  1.
        -13    1    3    3    0    0  0.17044356271E+03 -0.24168155492E+03  0.15774260542E+04  0.16049093241E+04  0.00000000000E+00 0. -1.
          2    1    6    6  502    0  0.92948793128E+02 -0.26728172690E+03 -0.21093879928E+03  0.35295067179E+03  0.00000000000E+00 0. -1.
          3    1    5    5  503    0 -0.12774890171E+03  0.34096922695E+03 -0.90848040588E+02  0.37527744682E+03  0.00000000000E+00 0. -1.
         -4    1    5    5    0  503 -0.14696835186E+03  0.21211548613E+03 -0.82236345584E+02  0.27084219102E+03  0.00000000000E+00 0.  1.
         -1    1    6    6    0  502 -0.14547050767E+02 -0.26424344121E+02 -0.13896522174E+02  0.33211082138E+02  0.00000000000E+00 0.  1.
<mgrwt>
<rscale>  0 0.24077201E+04</rscale>
<asrwt>0</asrwt>
<pdfrwt beam="1">  1        1 0.30446636E+00 0.24077201E+04</pdfrwt>
<pdfrwt beam="2">  1       -1 0.11266421E+00 0.24077201E+04</pdfrwt>
<totfact> 0.19877785E+00</totfact>
</mgrwt>
</event>
<event>
12    1  0.1532786E-007  0.2174534E+04  0.7818608E-02  0.8529103E-01
          2   -1    0    0  501    0  0.00000000000E+00  0.00000000000E+00  0.21535246361E+04  0.21535246361E+04  0.00000000000E+00 0. -1.
         -2   -1    0    0    0  501 -0.00000000000E+00 -0.00000000000E+00 -0.54893701255E+03  0.54893701255E+03  0.00000000000E+00 0.  1.
         23    2    1    2    0    0  0.36491013673E+03  0.59005007674E+03 -0.37966208481E+02  0.70089775485E+03  0.92183126503E+02 0.  0.
        254    2    1    2    0    0 -0.36491013673E+03 -0.59005007674E+03  0.16425538321E+04  0.20015638938E+04  0.90937144716E+03 0.  0.
        -24    2    4    4    0    0 -0.18308207526E+03 -0.58263924648E+03  0.38020139955E+03  0.72367027492E+03  0.78473083009E+02 0.  0.
         24    2    4    4    0    0 -0.18182806147E+03 -0.74108302554E+01  0.12623524325E+04  0.12778936189E+04  0.79762604193E+02 0.  0.
         13    1    3    3    0    0  0.34870682081E+03  0.55514045436E+03 -0.14326347838E+02  0.65573059651E+03  0.00000000000E+00 0.  1.
        -13    1    3    3    0    0  0.16203315916E+02  0.34909622377E+02 -0.23639860643E+02  0.45167158339E+02  0.00000000000E+00 0. -1.
          4    1    6    6  502    0 -0.95516389001E+02  0.26024720673E+02  0.48132586826E+03  0.49140132083E+03  0.00000000000E+00 0. -1.
          1    1    5    5  503    0 -0.86864929170E+02 -0.38713576802E+03  0.22464123347E+03  0.45594221407E+03  0.00000000000E+00 0. -1.
         -2    1    5    5    0  503 -0.96217146094E+02 -0.19550347847E+03  0.15556016607E+03  0.26772806085E+03  0.00000000000E+00 0.  1.
         -3    1    6    6    0  502 -0.86311672467E+02 -0.33435550928E+02  0.78102656425E+03  0.78649229808E+03  0.00000000000E+00 0.  1.
<mgrwt>
<rscale>  0 0.21745339E+04</rscale>
<asrwt>0</asrwt>
<pdfrwt beam="1">  1        2 0.33131148E+00 0.21745339E+04</pdfrwt>
<pdfrwt beam="2">  1       -2 0.84451850E-01 0.21745339E+04</pdfrwt>
<totfact> 0.61414445E+00</totfact>
</mgrwt>
</event>
<event>
12    1  0.1532786E-007  0.1133258E+04  0.7818608E-02  0.9173369E-01
          1   -1    0    0  501    0  0.00000000000E+00  0.00000000000E+00  0.20044641140E+04  0.20044641140E+04  0.00000000000E+00 0. -1.
         -1   -1    0    0    0  501 -0.00000000000E+00 -0.00000000000E+00 -0.16017667927E+03  0.16017667927E+03  0.00000000000E+00 0.  1.
         23    2    1    2    0    0  0.60863109737E+02 -0.24473979729E+02  0.71266001684E+03  0.72183137874E+03  0.94090094707E+02 0.  0.
        254    2    1    2    0    0 -0.60863109737E+02  0.24473979729E+02  0.11316274179E+04  0.14428094146E+04  0.89264500219E+03 0.  0.
        -24    2    4    4    0    0  0.11473229984E+03  0.17334591807E+03 -0.56799328670E+02  0.22961542937E+03  0.79276564837E+02 0.  0.
         24    2    4    4    0    0 -0.17559540958E+03 -0.14887193834E+03  0.11884267466E+04  0.12131939852E+04  0.80528949981E+02 0.  0.
         11    1    3    3    0    0  0.69892804823E+02 -0.50872347401E+02  0.51327957570E+03  0.52050833109E+03  0.00000000000E+00 0. -1.
        -11    1    3    3    0    0 -0.90296950863E+01  0.26398367672E+02  0.19938044114E+03  0.20132304766E+03  0.00000000000E+00 0.  1.
          2    1    6    6  502    0 -0.16017014298E+03 -0.14630074397E+03  0.11650175794E+04  0.11850419160E+04  0.00000000000E+00 0. -1.
          1    1    5    5  503    0  0.60121829076E+02  0.10349195863E+03 -0.71969678313E+02  0.13965978100E+03  0.00000000000E+00 0. -1.
         -2    1    5    5    0  503  0.54610470762E+02  0.69853959443E+02  0.15170349643E+02  0.89955648378E+02  0.00000000000E+00 0.  1.
         -1    1    6    6    0  502 -0.15425266597E+02 -0.25711943723E+01  0.23409167170E+02  0.28152069154E+02  0.00000000000E+00 0.  1.
<mgrwt>
<rscale>  0 0.11332580E+04</rscale>
<asrwt>0</asrwt>
<pdfrwt beam="1">  1        1 0.30837908E+00 0.11332580E+04</pdfrwt>
<pdfrwt beam="2">  1       -1 0.24642567E-01 0.11332580E+04</pdfrwt>
<totfact> 0.42354690E+01</totfact>
</mgrwt>
</event>
<event>
12    1  0.1532786E-007  0.1865051E+04  0.7818608E-02  0.8672451E-01
         -1   -1    0    0    0  501 -0.00000000000E+00  0.00000000000E+00  0.37162416128E+03  0.37162416128E+03  0.00000000000E+00 0.  1.
          1   -1    0    0  501    0  0.00000000000E+00 -0.00000000000E+00 -0.23400098854E+04  0.23400098854E+04  0.00000000000E+00 0. -1.
         23    2    1    2    0    0 -0.76961032732E+02 -0.11650062830E+03 -0.15790710281E+04  0.15879522034E+04  0.92905820196E+02 0.  0.
        254    2    1    2    0    0  0.76961032732E+02  0.11650062830E+03 -0.38931469599E+03  0.11236818433E+04  0.10447964182E+04 0.  0.
        -24    2    4    4    0    0 -0.41729391768E+03 -0.92468988870E+02 -0.38611070164E+03  0.58018786678E+03  0.69654570539E+02 0.  0.
         24    2    4    4    0    0  0.49425495042E+03  0.20896961717E+03 -0.32039943454E+01  0.54349397650E+03  0.86134662034E+02 0.  0.
         11    1    3    3    0    0 -0.81099830316E+02 -0.46389589987E+02 -0.10678199472E+04  0.10718995364E+04  0.00000000000E+00 0. -1.
        -11    1    3    3    0    0  0.41387975835E+01 -0.70111038310E+02 -0.51125108089E+03  0.51605266693E+03  0.00000000000E+00 0.  1.
          2    1    6    6  502    0  0.21534392500E+03  0.50450635232E+02 -0.21135663932E+02  0.22218233260E+03  0.00000000000E+00 0. -1.
          1    1    5    5  503    0 -0.17281390349E+03 -0.38807859141E+01 -0.14643254931E+03  0.22654402936E+03  0.00000000000E+00 0. -1.
         -2    1    5    5    0  503 -0.24448001419E+03 -0.88588202956E+02 -0.23967815233E+03  0.35364383742E+03  0.00000000000E+00 0.  1.
         -3    1    6    6    0  502  0.27891102541E+03  0.15851898194E+03  0.17931669586E+02  0.32131164390E+03  0.00000000000E+00 0.  1.
<mgrwt>
<rscale>  0 0.18650514E+04</rscale>
<asrwt>0</asrwt>
<pdfrwt beam="1">  1        1 0.36000153E+00 0.18650514E+04</pdfrwt>
<pdfrwt beam="2">  1       -1 0.57172947E-01 0.18650514E+04</pdfrwt>
<totfact> 0.50813331E+00</totfact>
</mgrwt>
</event>
<event>
12    1  0.1532786E-007  0.1258704E+04  0.7818608E-02  0.9062970E-01
         -1   -1    0    0    0  501 -0.00000000000E+00  0.00000000000E+00  0.25627152752E+03  0.25627152752E+03  0.00000000000E+00 0.  1.
          1   -1    0    0  501    0  0.00000000000E+00 -0.00000000000E+00 -0.15455623740E+04  0.15455623740E+04  0.00000000000E+00 0. -1.
         23    2    1    2    0    0 -0.30252684145E+02 -0.40255274123E+02  0.99190968073E+02  0.14358320705E+03  0.90783132832E+02 0.  0.
        254    2    1    2    0    0  0.30252684145E+02  0.40255274123E+02 -0.13884818145E+04  0.16582506944E+04  0.90519495377E+03 0.  0.
        -24    2    4    4    0    0  0.10446263394E+03  0.41503360515E+03 -0.10667719708E+04  0.11524717211E+04  0.83805100206E+02 0.  0.
         24    2    4    4    0    0 -0.74209949795E+02 -0.37477833103E+03 -0.32170984367E+03  0.50577897334E+03  0.79682070135E+02 0.  0.
         11    1    3    3    0    0 -0.19916382615E+02 -0.60499578504E+02  0.10243497279E+03  0.12062248938E+03  0.00000000000E+00 0.  1.
        -11    1    3    3    0    0 -0.10336301530E+02  0.20244304381E+02 -0.32440047120E+01  0.22960717666E+02  0.00000000000E+00 0. -1.
          2    1    6    6  502    0  0.16925206995E+02 -0.49992930620E+02 -0.48673400201E+02  0.71797323285E+02  0.00000000000E+00 0. -1.
          1    1    5    5  503    0  0.62227691499E+02  0.96852263085E+02 -0.27757222060E+03  0.30049789367E+03  0.00000000000E+00 0. -1.
         -2    1    5    5    0  503  0.42234942441E+02  0.31818134207E+03 -0.78919975025E+03  0.85197382741E+03  0.00000000000E+00 0.  1.
         -1    1    6    6    0  502 -0.91135156789E+02 -0.32478540041E+03 -0.27303644347E+03  0.43398165005E+03  0.00000000000E+00 0.  1.
<mgrwt>
<rscale>  0 0.12587035E+04</rscale>
<asrwt>0</asrwt>
<pdfrwt beam="1">  1        1 0.23777883E+00 0.12587035E+04</pdfrwt>
<pdfrwt beam="2">  1       -1 0.39426388E-01 0.12587035E+04</pdfrwt>
<totfact> 0.37491667E+01</totfact>
</mgrwt>
</event>
<event>
12    1  0.1532786E-007  0.1871110E+04  0.7818608E-02  0.8669372E-01
          2   -1    0    0  501    0  0.00000000000E+00  0.00000000000E+00  0.94002981024E+03  0.94002981024E+03  0.00000000000E+00 0. -1.
         -2   -1    0    0    0  501 -0.00000000000E+00 -0.00000000000E+00 -0.93110137523E+03  0.93110137523E+03  0.00000000000E+00 0.  1.
         23    2    1    2    0    0  0.43995303738E+03 -0.15666777680E+03  0.54570660162E+03  0.72393562782E+03  0.90463422352E+02 0.  0.
        254    2    1    2    0    0 -0.43995303738E+03  0.15666777680E+03 -0.53677816661E+03  0.11471955577E+04  0.89990187241E+03 0.  0.
        -24    2    4    4    0    0 -0.14548046087E+03  0.50274542779E+03 -0.40802317117E+03  0.66833320990E+03  0.79176016440E+02 0.  0.
         24    2    4    4    0    0 -0.29447257651E+03 -0.34607765100E+03 -0.12875499544E+03  0.47886234776E+03  0.79040878104E+02 0.  0.
         13    1    3    3    0    0  0.19963483381E+03 -0.64063998450E+02  0.31362075754E+03  0.37724825027E+03  0.00000000000E+00 0. -1.
        -13    1    3    3    0    0  0.24031820357E+03 -0.92603778347E+02  0.23208584408E+03  0.34668737755E+03  0.00000000000E+00 0.  1.
          2    1    6    6  502    0 -0.58734376594E+02 -0.29831027328E+02 -0.80551067777E+01  0.66366421710E+02  0.00000000000E+00 0. -1.
          1    1    5    5  503    0 -0.11296572894E+03  0.44281063644E+03 -0.38101927368E+03  0.59499428785E+03  0.00000000000E+00 0. -1.
         -2    1    5    5    0  503 -0.32514731935E+02  0.59934791355E+02 -0.27003897485E+02  0.73338922047E+02  0.00000000000E+00 0.  1.
         -1    1    6    6    0  502 -0.23573819992E+03 -0.31624662367E+03 -0.12069988867E+03  0.41249592605E+03  0.00000000000E+00 0.  1.
<mgrwt>
<rscale>  0 0.18711099E+04</rscale>
<asrwt>0</asrwt>
<pdfrwt beam="1">  1        2 0.14461997E+00 0.18711099E+04</pdfrwt>
<pdfrwt beam="2">  1       -2 0.14324637E+00 0.18711099E+04</pdfrwt>
<totfact> 0.87527862E+00</totfact>
</mgrwt>
</event>
<event>
12    1  0.1532786E-007  0.2427354E+04  0.7818608E-02  0.8429333E-01
         -2   -1    0    0    0  501 -0.00000000000E+00  0.00000000000E+00  0.10533740725E+04  0.10533740725E+04  0.00000000000E+00 0.  1.
          2   -1    0    0  501    0  0.00000000000E+00 -0.00000000000E+00 -0.13983744798E+04  0.13983744798E+04  0.00000000000E+00 0. -1.
         23    2    1    2    0    0 -0.22738143670E+03  0.54408626232E+03  0.72296400831E+03  0.93791812890E+03  0.96339403265E+02 0.  0.
        254    2    1    2    0    0  0.22738143670E+03 -0.54408626232E+03 -0.10679644156E+04  0.15138304234E+04  0.89632716078E+03 0.  0.
        -24    2    4    4    0    0  0.48069342878E+03 -0.37094288445E+02 -0.38094743363E+03  0.61965570037E+03  0.80062982098E+02 0.  0.
         24    2    4    4    0    0 -0.25331199209E+03 -0.50699197387E+03 -0.68701698197E+03  0.89417472300E+03  0.79676061904E+02 0.  0.
         11    1    3    3    0    0 -0.11188249225E+03  0.38432660925E+03  0.47679613168E+03  0.62254251729E+03  0.00000000000E+00 0. -1.
        -11    1    3    3    0    0 -0.11549894445E+03  0.15975965306E+03  0.24616787663E+03  0.31537561161E+03  0.00000000000E+00 0.  1.
          4    1    6    6  502    0 -0.48295905369E+02 -0.17257003685E+03 -0.19305344454E+03  0.26340566535E+03  0.00000000000E+00 0. -1.
          1    1    5    5  503    0  0.14256149666E+03  0.22171317420E+01 -0.70995209524E+02  0.15927653869E+03  0.00000000000E+00 0. -1.
         -2    1    5    5    0  503  0.33813193213E+03 -0.39311420187E+02 -0.30995222411E+03  0.46037916168E+03  0.00000000000E+00 0.  1.
         -3    1    6    6    0  502 -0.20501608672E+03 -0.33442193702E+03 -0.49396353743E+03  0.63076905765E+03  0.00000000000E+00 0.  1.
<mgrwt>
<rscale>  0 0.24273536E+04</rscale>
<asrwt>0</asrwt>
<pdfrwt beam="1">  1        2 0.21513454E+00 0.24273536E+04</pdfrwt>
<pdfrwt beam="2">  1       -2 0.16205755E+00 0.24273536E+04</pdfrwt>
<totfact> 0.31654117E+00</totfact>
</mgrwt>
</event>
<event>
12    1  0.1532786E-007  0.1453923E+04  0.7818608E-02  0.8915686E-01
          1   -1    0    0  501    0  0.00000000000E+00  0.00000000000E+00  0.13382874643E+04  0.13382874643E+04  0.00000000000E+00 0.  1.
         -1   -1    0    0    0  501 -0.00000000000E+00 -0.00000000000E+00 -0.39488725281E+03  0.39488725281E+03  0.00000000000E+00 0. -1.
         23    2    1    2    0    0 -0.31202433727E+03 -0.20940863158E+03  0.38173423139E+02  0.38803975121E+03  0.88918368514E+02 0.  0.
        254    2    1    2    0    0  0.31202433727E+03  0.20940863158E+03  0.90522678836E+03  0.13451349659E+04  0.92127160821E+03 0.  0.
        -24    2    4    4    0    0  0.49053221348E+03 -0.19788290238E+03  0.56629882370E+03  0.77909592261E+03  0.80725481663E+02 0.  0.
         24    2    4    4    0    0 -0.17850787621E+03  0.40729153395E+03  0.33892796467E+03  0.56603904329E+03  0.88184906871E+02 0.  0.
         11    1    3    3    0    0 -0.26017999600E+03 -0.15821332445E+03 -0.26534891143E+01  0.30451950242E+03  0.00000000000E+00 0. -1.
        -11    1    3    3    0    0 -0.51844341270E+02 -0.51195307127E+02  0.40826912254E+02  0.83520248789E+02  0.00000000000E+00 0.  1.
          2    1    6    6  502    0 -0.51103015131E+02  0.22639916676E+03  0.17282356775E+03  0.28937188259E+03  0.00000000000E+00 0. -1.
          1    1    5    5  503    0  0.41281843545E+02  0.35045844906E+01  0.59807908887E+02  0.72756159082E+02  0.00000000000E+00 0. -1.
         -2    1    5    5    0  503  0.44925036994E+03 -0.20138748687E+03  0.50649091481E+03  0.70633976353E+03  0.00000000000E+00 0.  1.
         -1    1    6    6    0  502 -0.12740486108E+03  0.18089236720E+03  0.16610439691E+03  0.27666716070E+03  0.00000000000E+00 0.  1.
<mgrwt>
<rscale>  0 0.14539225E+04</rscale>
<asrwt>0</asrwt>
<pdfrwt beam="1">  1        1 0.20589038E+00 0.14539225E+04</pdfrwt>
<pdfrwt beam="2">  1       -1 0.60751886E-01 0.14539225E+04</pdfrwt>
<totfact> 0.22660942E+01</totfact>
</mgrwt>
</event>
<event>
12    1  0.1532786E-007  0.1976618E+04  0.7818608E-02  0.8617631E-01
          2   -1    0    0  501    0  0.00000000000E+00  0.00000000000E+00  0.12026491872E+04  0.12026491872E+04  0.00000000000E+00 0. -1.
         -2   -1    0    0    0  501 -0.00000000000E+00 -0.00000000000E+00 -0.81216913730E+03  0.81216913730E+03  0.00000000000E+00 0.  1.
         23    2    1    2    0    0 -0.12537959423E+03 -0.72704521283E+03 -0.65363823440E+02  0.74648263068E+03  0.93000560973E+02 0.  0.
        254    2    1    2    0    0  0.12537959423E+03  0.72704521283E+03  0.45584387330E+03  0.12683356938E+04  0.92550905514E+03 0.  0.
        -24    2    4    4    0    0  0.15813151293E+03  0.93513235253E+03  0.41227929417E+03  0.10372600836E+04  0.80350311323E+02 0.  0.
         24    2    4    4    0    0 -0.32751918698E+02 -0.20808713970E+03  0.43564579130E+02  0.23107561017E+03  0.84410421003E+02 0.  0.
         13    1    3    3    0    0 -0.50550076418E+02 -0.28680862221E+03  0.19728118095E+02  0.29189671914E+03  0.00000000000E+00 0.  1.
        -13    1    3    3    0    0 -0.74829517815E+02 -0.44023659062E+03 -0.85091941535E+02  0.45458591154E+03  0.00000000000E+00 0. -1.
          4    1    6    6  502    0 -0.85970113346E+01 -0.35635820258E+02  0.43571083322E+02  0.56940842909E+02  0.00000000000E+00 0. -1.
          1    1    5    5  503    0  0.11467495892E+03  0.53207399382E+03  0.20192773572E+03  0.58054103348E+03  0.00000000000E+00 0. -1.
         -2    1    5    5    0  503  0.43456554006E+02  0.40305835871E+03  0.21035155844E+03  0.45671905013E+03  0.00000000000E+00 0.  1.
         -3    1    6    6    0  502 -0.24154907363E+02 -0.17245131944E+03 -0.65041914964E-02  0.17413476726E+03  0.00000000000E+00 0.  1.
<mgrwt>
<rscale>  0 0.19766179E+04</rscale>
<asrwt>0</asrwt>
<pdfrwt beam="1">  1        2 0.18502295E+00 0.19766179E+04</pdfrwt>
<pdfrwt beam="2">  1       -2 0.12494910E+00 0.19766179E+04</pdfrwt>
<totfact> 0.84325657E+00</totfact>
</mgrwt>
</event>
<event>
12    1  0.1532786E-007  0.1674657E+04  0.7818608E-02  0.8775952E-01
          2   -1    0    0  501    0  0.00000000000E+00  0.00000000000E+00  0.18184949261E+04  0.18184949261E+04  0.00000000000E+00 0.  1.
         -2   -1    0    0    0  501 -0.00000000000E+00 -0.00000000000E+00 -0.38554898184E+03  0.38554898184E+03  0.00000000000E+00 0. -1.
         23    2    1    2    0    0  0.85097979626E+01 -0.56755446869E+03  0.27872507953E+03  0.63585835763E+03  0.66615984773E+02 0.  0.
        254    2    1    2    0    0 -0.85097979626E+01  0.56755446869E+03  0.11542208648E+04  0.15681855504E+04  0.89710067666E+03 0.  0.
        -24    2    4    4    0    0  0.42768257331E+02  0.28435649135E+03 -0.70663889143E+02  0.30735493952E+03  0.82376790496E+02 0.  0.
         24    2    4    4    0    0 -0.51278055294E+02  0.28319797734E+03  0.12248847539E+04  0.12608306108E+04  0.80750451953E+02 0.  0.
         11    1    3    3    0    0  0.88441538750E+01 -0.34968876604E+02  0.34620167939E+02  0.49995974006E+02  0.00000000000E+00 0.  1.
        -11    1    3    3    0    0 -0.33435591241E+00 -0.53258559208E+03  0.24410491159E+03  0.58586238363E+03  0.00000000000E+00 0. -1.
          4    1    6    6  502    0 -0.49106143271E+02  0.28828388812E+03  0.12125015735E+04  0.12472686475E+04  0.00000000000E+00 0. -1.
          3    1    5    5  503    0  0.51276405783E+02  0.24285829128E+03 -0.32487902870E+02  0.25032954933E+03  0.00000000000E+00 0. -1.
         -4    1    5    5    0  503 -0.85081484520E+01  0.41498200071E+02 -0.38175986273E+02  0.57025390197E+02  0.00000000000E+00 0.  1.
         -3    1    6    6    0  502 -0.21719120232E+01 -0.50859107788E+01  0.12383180438E+02  0.13561963281E+02  0.00000000000E+00 0.  1.
<mgrwt>
<rscale>  0 0.16746568E+04</rscale>
<asrwt>0</asrwt>
<pdfrwt beam="1">  1        2 0.27976844E+00 0.16746568E+04</pdfrwt>
<pdfrwt beam="2">  1       -2 0.59315229E-01 0.16746568E+04</pdfrwt>
<totfact> 0.21319353E+01</totfact>
</mgrwt>
</event>
<event>
12    1  0.1532786E-007  0.1162260E+04  0.7818608E-02  0.9146547E-01
         -2   -1    0    0    0  501 -0.00000000000E+00  0.00000000000E+00  0.31022706291E+03  0.31022706291E+03  0.00000000000E+00 0.  1.
          2   -1    0    0  501    0  0.00000000000E+00 -0.00000000000E+00 -0.10885970618E+04  0.10885970618E+04  0.00000000000E+00 0. -1.
         23    2    1    2    0    0  0.79212996675E+02 -0.16758340031E+03 -0.98070318162E+01  0.20660135042E+03  0.90714085030E+02 0.  0.
        254    2    1    2    0    0 -0.79212996675E+02  0.16758340031E+03 -0.76856296710E+03  0.11922227743E+04  0.89238288549E+03 0.  0.
        -24    2    4    4    0    0  0.37064763960E+03 -0.23939386552E+02 -0.17479175804E+03  0.41838346448E+03  0.80869015731E+02 0.  0.
         24    2    4    4    0    0 -0.44986063627E+03  0.19152278686E+03 -0.59377120906E+03  0.77383930984E+03  0.84896753668E+02 0.  0.
         13    1    3    3    0    0  0.59049272859E+02 -0.11301685935E+03 -0.48840100969E+02  0.13654663154E+03  0.00000000000E+00 0. -1.
        -13    1    3    3    0    0  0.20163723816E+02 -0.54566540958E+02  0.39033069153E+02  0.70054718883E+02  0.00000000000E+00 0.  1.
          2    1    6    6  502    0 -0.87149734410E+02  0.75670286329E+02 -0.13273603095E+03  0.17589747683E+03  0.00000000000E+00 0. -1.
          1    1    5    5  503    0  0.12865279443E+02 -0.17660836867E+02 -0.14911286552E+02  0.26453110226E+02  0.00000000000E+00 0. -1.
         -2    1    5    5    0  503  0.35778236016E+03 -0.62785496850E+01 -0.15988047149E+03  0.39193035426E+03  0.00000000000E+00 0.  1.
         -1    1    6    6    0  502 -0.36271090186E+03  0.11585250053E+03 -0.46103517811E+03  0.59794183301E+03  0.00000000000E+00 0.  1.
<mgrwt>
<rscale>  0 0.11622603E+04</rscale>
<asrwt>0</asrwt>
<pdfrwt beam="1">  1        2 0.16747647E+00 0.11622603E+04</pdfrwt>
<pdfrwt beam="2">  1       -2 0.47727240E-01 0.11622603E+04</pdfrwt>
<totfact> 0.91079168E+01</totfact>
</mgrwt>
</event>
<event>
12    1  0.1532786E-007  0.1281588E+04  0.7818608E-02  0.9044295E-01
          3   -1    0    0  501    0  0.00000000000E+00  0.00000000000E+00  0.63099496495E+03  0.63099496495E+03  0.00000000000E+00 0. -1.
         -3   -1    0    0    0  501 -0.00000000000E+00 -0.00000000000E+00 -0.65074540992E+03  0.65074540992E+03  0.00000000000E+00 0.  1.
         23    2    1    2    0    0 -0.16569649589E+03  0.25560736032E+03  0.12973517444E+03  0.34403208683E+03  0.93468764218E+02 0.  0.
        254    2    1    2    0    0  0.16569649589E+03 -0.25560736032E+03 -0.14948561941E+03  0.93770828804E+03  0.87416270319E+03 0.  0.
        -24    2    4    4    0    0  0.65885527349E+00 -0.47599393051E+02 -0.48912771697E+03  0.49951813211E+03  0.89477955346E+02 0.  0.
         24    2    4    4    0    0  0.16503764062E+03 -0.20800796727E+03  0.33964209755E+03  0.43819015593E+03  0.78416331552E+02 0.  0.
         11    1    3    3    0    0 -0.29654810422E+02  0.25245568420E+02  0.52889344963E+02  0.65681270669E+02  0.00000000000E+00 0.  1.
        -11    1    3    3    0    0 -0.13604168547E+03  0.23036179190E+03  0.76845829478E+02  0.27835081617E+03  0.00000000000E+00 0. -1.
          4    1    6    6  502    0  0.56877216862E+02 -0.10553072363E+03  0.20442581459E+03  0.23698452502E+03  0.00000000000E+00 0. -1.
          3    1    5    5  503    0  0.12402913854E+02 -0.62925295262E+01 -0.40336319347E+03  0.40360289152E+03  0.00000000000E+00 0. -1.
         -4    1    5    5    0  503 -0.11744058580E+02 -0.41306863525E+02 -0.85764523496E+02  0.95915240586E+02  0.00000000000E+00 0.  1.
         -3    1    6    6    0  502  0.10816042376E+03 -0.10247724364E+03  0.13521628296E+03  0.20120563091E+03  0.00000000000E+00 0.  1.
<mgrwt>
<rscale>  0 0.12815882E+04</rscale>
<asrwt>0</asrwt>
<pdfrwt beam="1">  1        3 0.97076148E-01 0.12815882E+04</pdfrwt>
<pdfrwt beam="2">  1       -3 0.10011468E+00 0.12815882E+04</pdfrwt>
<totfact> 0.21017513E+00</totfact>
</mgrwt>
</event>
<event>
12    1  0.1532786E-007  0.1652920E+04  0.7818608E-02  0.8788681E-01
         -1   -1    0    0    0  501 -0.00000000000E+00  0.00000000000E+00  0.17308974597E+04  0.17308974597E+04  0.00000000000E+00 0.  1.
          1   -1    0    0  501    0  0.00000000000E+00 -0.00000000000E+00 -0.39461384971E+03  0.39461384971E+03  0.00000000000E+00 0. -1.
         23    2    1    2    0    0  0.10784973611E+03 -0.55962828146E+03  0.59391284855E+03  0.82699123073E+03  0.79791259194E+02 0.  0.
        254    2    1    2    0    0 -0.10784973611E+03  0.55962828146E+03  0.74237076148E+03  0.12985200787E+04  0.90012480709E+03 0.  0.
        -24    2    4    4    0    0 -0.10974438555E+03  0.73554065037E+03  0.28198534987E+03  0.79939216633E+03  0.80300806621E+02 0.  0.
         24    2    4    4    0    0  0.18946494468E+01 -0.17591236891E+03  0.46038541161E+03  0.49912791239E+03  0.78899901600E+02 0.  0.
         13    1    3    3    0    0  0.58196824114E+02 -0.14900585647E+03  0.19666498379E+03  0.25350883899E+03  0.00000000000E+00 0.  1.
        -13    1    3    3    0    0  0.49652911991E+02 -0.41062242500E+03  0.39724786476E+03  0.57348239174E+03  0.00000000000E+00 0. -1.
          4    1    6    6  502    0 -0.34255306178E+02 -0.49604805562E+02  0.17103996265E+03  0.18135250635E+03  0.00000000000E+00 0. -1.
          3    1    5    5  503    0 -0.30715472447E+02  0.40844043698E+03  0.12639898592E+03  0.42865339664E+03  0.00000000000E+00 0. -1.
         -4    1    5    5    0  503 -0.79028913105E+02  0.32710021339E+03  0.15558636395E+03  0.37073876969E+03  0.00000000000E+00 0.  1.
         -3    1    6    6    0  502  0.36149955625E+02 -0.12630756334E+03  0.28934544896E+03  0.31777540604E+03  0.00000000000E+00 0.  1.
<mgrwt>
<rscale>  0 0.16529200E+04</rscale>
<asrwt>0</asrwt>
<pdfrwt beam="1">  1        1 0.60709824E-01 0.16529200E+04</pdfrwt>
<pdfrwt beam="2">  1       -1 0.26629191E+00 0.16529200E+04</pdfrwt>
<totfact> 0.31896000E+00</totfact>
</mgrwt>
</event>
<event>
12    1  0.1532786E-007  0.1433715E+04  0.7818608E-02  0.8929769E-01
          1   -1    0    0  501    0  0.00000000000E+00  0.00000000000E+00  0.82630730016E+03  0.82630730016E+03  0.00000000000E+00 0. -1.
         -1   -1    0    0    0  501 -0.00000000000E+00 -0.00000000000E+00 -0.62190483114E+03  0.62190483114E+03  0.00000000000E+00 0.  1.
         23    2    1    2    0    0 -0.40965466683E+03  0.11551261662E+03  0.10257794132E+03  0.44707845318E+03  0.90536172859E+02 0.  0.
        254    2    1    2    0    0  0.40965466683E+03 -0.11551261662E+03  0.10182452769E+03  0.10011336781E+04  0.90041118183E+03 0.  0.
        -24    2    4    4    0    0  0.41443074304E+02  0.30987821441E+03  0.25569403767E+03  0.41178447952E+03  0.80280635930E+02 0.  0.
         24    2    4    4    0    0  0.36821159253E+03 -0.42539083102E+03 -0.15386950998E+03  0.58934919860E+03  0.84377223189E+02 0.  0.
         13    1    3    3    0    0 -0.40678520018E+02 -0.13775378212E+02  0.29358287664E+00  0.42948681315E+02  0.00000000000E+00 0.  1.
        -13    1    3    3    0    0 -0.36897614682E+03  0.12928799483E+03  0.10228435845E+03  0.40412977187E+03  0.00000000000E+00 0. -1.
          4    1    6    6  502    0  0.35144962383E+03 -0.36723254077E+03 -0.13452759632E+03  0.52580818866E+03  0.00000000000E+00 0. -1.
          1    1    5    5  503    0 -0.12992488071E+02  0.16654739688E+03  0.15832050976E+03  0.23015695506E+03  0.00000000000E+00 0. -1.
         -2    1    5    5    0  503  0.54435562375E+02  0.14333081752E+03  0.97373527914E+02  0.18162752446E+03  0.00000000000E+00 0.  1.
         -3    1    6    6    0  502  0.16761968702E+02 -0.58158290251E+02 -0.19341913659E+02  0.63541009936E+02  0.00000000000E+00 0.  1.
<mgrwt>
<rscale>  0 0.14337148E+04</rscale>
<asrwt>0</asrwt>
<pdfrwt beam="1">  1        1 0.12712420E+00 0.14337148E+04</pdfrwt>
<pdfrwt beam="2">  1       -1 0.95677666E-01 0.14337148E+04</pdfrwt>
<totfact> 0.21507873E+01</totfact>
</mgrwt>
</event>
<event>
12    1  0.1532786E-007  0.1163100E+04  0.7818608E-02  0.9145783E-01
         -2   -1    0    0    0  501 -0.00000000000E+00  0.00000000000E+00  0.27709856390E+03  0.27709856390E+03  0.00000000000E+00 0. -1.
          2   -1    0    0  501    0  0.00000000000E+00 -0.00000000000E+00 -0.12205054191E+04  0.12205054191E+04  0.00000000000E+00 0.  1.
         23    2    1    2    0    0 -0.19264315733E+03 -0.27341897286E+02 -0.60855925893E+02  0.22414331616E+03  0.93154801540E+02 0.  0.
        254    2    1    2    0    0  0.19264315733E+03  0.27341897286E+02 -0.88255092935E+03  0.12734606669E+04  0.89718836472E+03 0.  0.
        -24    2    4    4    0    0 -0.20926520197E+03  0.33245949401E+03 -0.31580100010E+03  0.51028778798E+03  0.79637396902E+02 0.  0.
         24    2    4    4    0    0  0.40190835930E+03 -0.30511759672E+03 -0.56674992925E+03  0.76317287890E+03  0.81242129972E+02 0.  0.
         11    1    3    3    0    0 -0.20179379323E+03 -0.22132021369E+02 -0.50107307001E+02  0.20909639779E+03  0.00000000000E+00 0. -1.
        -11    1    3    3    0    0  0.91506358953E+01 -0.52098759171E+01 -0.10748618891E+02  0.15046918370E+02  0.00000000000E+00 0.  1.
          2    1    6    6  502    0  0.60617396571E+02 -0.19013448583E+02 -0.96253819550E+02  0.11532899797E+03  0.00000000000E+00 0. -1.
          1    1    5    5  503    0 -0.10377201029E+03  0.18919197810E+03 -0.12486067770E+03  0.24930387789E+03  0.00000000000E+00 0. -1.
         -2    1    5    5    0  503 -0.10549319168E+03  0.14326751591E+03 -0.19094032240E+03  0.26098391009E+03  0.00000000000E+00 0.  1.
         -1    1    6    6    0  502  0.34129096273E+03 -0.28610414814E+03 -0.47049610970E+03  0.64784388094E+03  0.00000000000E+00 0.  1.
<mgrwt>
<rscale>  0 0.11630998E+04</rscale>
<asrwt>0</asrwt>
<pdfrwt beam="1">  1        2 0.18777006E+00 0.11630998E+04</pdfrwt>
<pdfrwt beam="2">  1       -2 0.42630549E-01 0.11630998E+04</pdfrwt>
<totfact> 0.94947711E+01</totfact>
</mgrwt>
</event>
<event>
12    1  0.1532786E-007  0.1425698E+04  0.7818608E-02  0.8935424E-01
          2   -1    0    0  501    0  0.00000000000E+00  0.00000000000E+00  0.22501891636E+04  0.22501891636E+04  0.00000000000E+00 0. -1.
         -2   -1    0    0    0  501 -0.00000000000E+00 -0.00000000000E+00 -0.22582712562E+03  0.22582712562E+03  0.00000000000E+00 0.  1.
         23    2    1    2    0    0  0.31633416859E+03 -0.50217323798E+02  0.10917992911E+04  0.11414335499E+04  0.90861273219E+02 0.  0.
        254    2    1    2    0    0 -0.31633416859E+03  0.50217323798E+02  0.93256274685E+03  0.13345827393E+04  0.89936017555E+03 0.  0.
        -24    2    4    4    0    0 -0.27665861462E+03 -0.67314414165E+02  0.10835736015E+04  0.11232515992E+04  0.80567895305E+02 0.  0.
         24    2    4    4    0    0 -0.39675553964E+02  0.11753173796E+03 -0.15101085467E+03  0.21133114011E+03  0.80428313064E+02 0.  0.
         11    1    3    3    0    0  0.12393585138E+02 -0.21164536268E+02  0.13136555046E+03  0.13363549826E+03  0.00000000000E+00 0.  1.
        -11    1    3    3    0    0  0.30394058345E+03 -0.29052787531E+02  0.96043374063E+03  0.10077980516E+04  0.00000000000E+00 0. -1.
          4    1    6    6  502    0 -0.51489935971E+02  0.94148440251E+02 -0.15086024734E+03  0.18513226768E+03  0.00000000000E+00 0. -1.
          1    1    5    5  503    0 -0.10274193431E+03 -0.43919424904E+02  0.56043922913E+03  0.57146911596E+03  0.00000000000E+00 0. -1.
         -2    1    5    5    0  503 -0.17391668031E+03 -0.23394989262E+02  0.52313437239E+03  0.55178248322E+03  0.00000000000E+00 0.  1.
         -3    1    6    6    0  502  0.11814382007E+02  0.23383297712E+02 -0.15060732475E+00  0.26198872431E+02  0.00000000000E+00 0.  1.
<mgrwt>
<rscale>  0 0.14256981E+04</rscale>
<asrwt>0</asrwt>
<pdfrwt beam="1">  1        2 0.34618293E+00 0.14256981E+04</pdfrwt>
<pdfrwt beam="2">  1       -2 0.34742636E-01 0.14256981E+04</pdfrwt>
<totfact> 0.36580605E+01</totfact>
</mgrwt>
</event>
<event>
12    1  0.1532786E-007  0.1202377E+04  0.7818608E-02  0.9110779E-01
          2   -1    0    0  501    0  0.00000000000E+00  0.00000000000E+00  0.45253483560E+04  0.45253483560E+04  0.00000000000E+00 0. -1.
         -2   -1    0    0    0  501 -0.00000000000E+00 -0.00000000000E+00 -0.79867304172E+02  0.79867304172E+02  0.00000000000E+00 0.  1.
         23    2    1    2    0    0 -0.22056692339E+02 -0.18950616123E+03  0.45997210092E+03  0.50524307128E+03  0.85423325992E+02 0.  0.
        254    2    1    2    0    0  0.22056692339E+02  0.18950616123E+03  0.39855089509E+04  0.40999725889E+04  0.94291810308E+03 0.  0.
        -24    2    4    4    0    0 -0.34287758252E+03 -0.19019829891E+03  0.12323423692E+04  0.12957021525E+04  0.80224207933E+02 0.  0.
         24    2    4    4    0    0  0.36493427486E+03  0.37970446015E+03  0.27531665817E+04  0.28042704364E+04  0.81571758872E+02 0.  0.
         13    1    3    3    0    0 -0.15663281287E+02 -0.15332865745E+01  0.13363327672E+02  0.20646255711E+02  0.00000000000E+00 0. -1.
        -13    1    3    3    0    0 -0.63934110516E+01 -0.18797287466E+03  0.44660877325E+03  0.48459681557E+03  0.00000000000E+00 0.  1.
          4    1    6    6  502    0  0.19067439296E+03  0.20781440720E+03  0.12604171789E+04  0.12915862406E+04  0.00000000000E+00 0. -1.
          1    1    5    5  503    0 -0.33692611157E+02 -0.19089508167E+02  0.22181635259E+03  0.22517125848E+03  0.00000000000E+00 0. -1.
         -2    1    5    5    0  503 -0.30918497137E+03 -0.17110879075E+03  0.10105260166E+04  0.10705308940E+04  0.00000000000E+00 0.  1.
         -3    1    6    6    0  502  0.17425988190E+03  0.17189005295E+03  0.14927494028E+04  0.15126841958E+04  0.00000000000E+00 0.  1.
<mgrwt>
<rscale>  0 0.12023766E+04</rscale>
<asrwt>0</asrwt>
<pdfrwt beam="1">  1        2 0.69620724E+00 0.12023766E+04</pdfrwt>
<pdfrwt beam="2">  1       -2 0.12287281E-01 0.12023766E+04</pdfrwt>
<totfact> 0.59619477E+00</totfact>
</mgrwt>
</event>
<event>
12    1  0.1532786E-007  0.1477690E+04  0.7818608E-02  0.8899426E-01
          2   -1    0    0  501    0  0.00000000000E+00  0.00000000000E+00  0.42707126585E+04  0.42707126585E+04  0.00000000000E+00 0. -1.
         -2   -1    0    0    0  501 -0.00000000000E+00 -0.00000000000E+00 -0.12782225620E+03  0.12782225620E+03  0.00000000000E+00 0.  1.
         23    2    1    2    0    0 -0.15400106398E+03 -0.36962093659E+03  0.61475887485E+03  0.73935531889E+03  0.91552437942E+02 0.  0.
        254    2    1    2    0    0  0.15400106398E+03  0.36962093659E+03  0.35281315275E+04  0.36591795958E+04  0.88405162458E+03 0.  0.
        -24    2    4    4    0    0 -0.19307807145E+03  0.36716223240E+03  0.77049366568E+03  0.87881534533E+03  0.81047367311E+02 0.  0.
         24    2    4    4    0    0  0.34707913543E+03  0.24587041870E+01  0.27576378618E+04  0.27803642505E+04  0.73408563733E+02 0.  0.
         13    1    3    3    0    0 -0.63163455970E+02 -0.11761451416E+03  0.28331613519E+03  0.31319455387E+03  0.00000000000E+00 0.  1.
        -13    1    3    3    0    0 -0.90837608009E+02 -0.25200642243E+03  0.33144273965E+03  0.42616076502E+03  0.00000000000E+00 0. -1.
          2    1    6    6  502    0  0.43453504110E+02 -0.24605013616E+02  0.38945341103E+03  0.39264178723E+03  0.00000000000E+00 0. -1.
          1    1    5    5  503    0  0.56212218187E+01  0.14509590359E+02  0.14459912121E+02  0.21241831505E+02  0.00000000000E+00 0. -1.
         -2    1    5    5    0  503 -0.19869929327E+03  0.35265264204E+03  0.75603375356E+03  0.85757351382E+03  0.00000000000E+00 0.  1.
         -1    1    6    6    0  502  0.30362563132E+03  0.27063717803E+02  0.23681844508E+04  0.23877224633E+04  0.00000000000E+00 0.  1.
<mgrwt>
<rscale>  0 0.14776903E+04</rscale>
<asrwt>0</asrwt>
<pdfrwt beam="1">  1        2 0.65703261E+00 0.14776903E+04</pdfrwt>
<pdfrwt beam="2">  1       -2 0.19664966E-01 0.14776903E+04</pdfrwt>
<totfact> 0.44291356E+00</totfact>
</mgrwt>
</event>
<event>
12    1  0.1532786E-007  0.2196652E+04  0.7818608E-02  0.8519823E-01
          2   -1    0    0  501    0  0.00000000000E+00  0.00000000000E+00  0.17909005334E+04  0.17909005334E+04  0.00000000000E+00 0. -1.
         -2   -1    0    0    0  501 -0.00000000000E+00 -0.00000000000E+00 -0.67358284745E+03  0.67358284745E+03  0.00000000000E+00 0.  1.
         23    2    1    2    0    0  0.12604896592E+03  0.84853809134E+03  0.80692878974E+03  0.11812498165E+04  0.91169199726E+02 0.  0.
        254    2    1    2    0    0 -0.12604896592E+03 -0.84853809134E+03  0.31038889621E+03  0.12832335644E+04  0.90246433700E+03 0.  0.
        -24    2    4    4    0    0 -0.26070144327E+03 -0.36051058380E+03 -0.25564116271E+03  0.51957615276E+03  0.81693640456E+02 0.  0.
         24    2    4    4    0    0  0.13465247736E+03 -0.48802750754E+03  0.56603005892E+03  0.76365741160E+03  0.80501409433E+02 0.  0.
         11    1    3    3    0    0  0.93208545721E+02  0.74126231628E+03  0.66381898402E+03  0.99940647290E+03  0.00000000000E+00 0.  1.
        -11    1    3    3    0    0  0.32840420197E+02  0.10727577506E+03  0.14310980572E+03  0.18184334359E+03  0.00000000000E+00 0. -1.
          4    1    6    6  502    0  0.12154564073E+03 -0.40528725365E+03  0.42559941957E+03  0.60013828964E+03  0.00000000000E+00 0. -1.
          3    1    5    5  503    0 -0.15952267520E+03 -0.24653122111E+03 -0.12617649014E+03  0.31960230530E+03  0.00000000000E+00 0. -1.
         -4    1    5    5    0  503 -0.10117876807E+03 -0.11397936269E+03 -0.12946467256E+03  0.19997384746E+03  0.00000000000E+00 0.  1.
         -3    1    6    6    0  502  0.13106836628E+02 -0.82740253893E+02  0.14043063935E+03  0.16351912197E+03  0.00000000000E+00 0.  1.
<mgrwt>
<rscale>  0 0.21966519E+04</rscale>
<asrwt>0</asrwt>
<pdfrwt beam="1">  1        2 0.27552316E+00 0.21966519E+04</pdfrwt>
<pdfrwt beam="2">  1       -2 0.10362813E+00 0.21966519E+04</pdfrwt>
<totfact> 0.60553475E+00</totfact>
</mgrwt>
</event>
<event>
12    1  0.1532786E-007  0.1344701E+04  0.7818608E-02  0.8994849E-01
          1   -1    0    0  501    0  0.00000000000E+00  0.00000000000E+00  0.68337770577E+03  0.68337770577E+03  0.00000000000E+00 0. -1.
         -1   -1    0    0    0  501 -0.00000000000E+00 -0.00000000000E+00 -0.66150075052E+03  0.66150075052E+03  0.00000000000E+00 0.  1.
         23    2    1    2    0    0  0.23591665712E+03 -0.10503312319E+03 -0.24936846300E+03  0.37049652798E+03  0.91621071997E+02 0.  0.
        254    2    1    2    0    0 -0.23591665712E+03  0.10503312319E+03  0.27124541824E+03  0.97438192831E+03  0.89953178889E+03 0.  0.
        -24    2    4    4    0    0 -0.26168673199E+03  0.16695718007E+03  0.57236856194E+03  0.65592331730E+03  0.79214782727E+02 0.  0.
         24    2    4    4    0    0  0.25770074867E+02 -0.61924056882E+02 -0.30112314369E+03  0.31845861101E+03  0.79006668600E+02 0.  0.
         11    1    3    3    0    0  0.49127652127E+02 -0.62571472379E+02 -0.98814252770E+02  0.12685807783E+03  0.00000000000E+00 0. -1.
        -11    1    3    3    0    0  0.18678900500E+03 -0.42461650807E+02 -0.15055421022E+03  0.24363845015E+03  0.00000000000E+00 0.  1.
          2    1    6    6  502    0  0.77050107472E+01  0.10043359759E+02 -0.14552007506E+03  0.14606960160E+03  0.00000000000E+00 0. -1.
          3    1    5    5  503    0 -0.68002724108E+02  0.87955516484E+02  0.19703612270E+03  0.22623831907E+03  0.00000000000E+00 0. -1.
         -4    1    5    5    0  503 -0.19368400788E+03  0.79001663584E+02  0.37533243924E+03  0.42968499823E+03  0.00000000000E+00 0.  1.
         -1    1    6    6    0  502  0.18065064120E+02 -0.71967416641E+02 -0.15560306863E+03  0.17238900941E+03  0.00000000000E+00 0.  1.
<mgrwt>
<rscale>  0 0.13447005E+04</rscale>
<asrwt>0</asrwt>
<pdfrwt beam="1">  1        1 0.10513503E+00 0.13447005E+04</pdfrwt>
<pdfrwt beam="2">  1       -1 0.10176935E+00 0.13447005E+04</pdfrwt>
<totfact> 0.25340199E+01</totfact>
</mgrwt>
</event>
<event>
12    1  0.1532786E-007  0.1120554E+04  0.7818608E-02  0.9185387E-01
          2   -1    0    0  501    0  0.00000000000E+00  0.00000000000E+00  0.10829490109E+04  0.10829490109E+04  0.00000000000E+00 0. -1.
         -2   -1    0    0    0  501 -0.00000000000E+00 -0.00000000000E+00 -0.28986615541E+03  0.28986615541E+03  0.00000000000E+00 0.  1.
         23    2    1    2    0    0  0.39467890438E+02  0.75268469774E+02 -0.58181914873E+02  0.12876231072E+03  0.77275743454E+02 0.  0.
        254    2    1    2    0    0 -0.39467890438E+02 -0.75268469774E+02  0.85126477038E+03  0.12440528556E+04  0.90321245637E+03 0.  0.
        -24    2    4    4    0    0  0.27128496487E+03  0.78823414238E+02 -0.28521218370E+02  0.29506939540E+03  0.80273441515E+02 0.  0.
         24    2    4    4    0    0 -0.31075285530E+03 -0.15409188401E+03  0.87978598875E+03  0.94898346020E+03  0.78959330917E+02 0.  0.
         13    1    3    3    0    0  0.36434968477E+02 -0.23112613096E+01 -0.12017228988E+02  0.38435174636E+02  0.00000000000E+00 0. -1.
        -13    1    3    3    0    0  0.30329219614E+01  0.77579731084E+02 -0.46164685886E+02  0.90327136086E+02  0.00000000000E+00 0.  1.
          4    1    6    6  502    0 -0.30917285891E+03 -0.13764194339E+03  0.85044620536E+03  0.91530973418E+03  0.00000000000E+00 0. -1.
          1    1    5    5  503    0  0.10471945225E+03  0.64803085048E+02 -0.34229889230E+02  0.12781740424E+03  0.00000000000E+00 0. -1.
         -2    1    5    5    0  503  0.16656551262E+03  0.14020329190E+02  0.57086708594E+01  0.16725199116E+03  0.00000000000E+00 0.  1.
         -1    1    6    6    0  502 -0.15799963898E+01 -0.16449940619E+02  0.29339783388E+02  0.33673726023E+02  0.00000000000E+00 0.  1.
<mgrwt>
<rscale>  0 0.11205539E+04</rscale>
<asrwt>0</asrwt>
<pdfrwt beam="1">  1        2 0.16660754E+00 0.11205539E+04</pdfrwt>
<pdfrwt beam="2">  1       -2 0.44594794E-01 0.11205539E+04</pdfrwt>
<totfact> 0.10550952E+02</totfact>
</mgrwt>
</event>
<event>
12    1  0.1532786E-007  0.1241113E+04  0.7818608E-02  0.9077612E-01
          2   -1    0    0  501    0  0.00000000000E+00  0.00000000000E+00  0.66552005702E+03  0.66552005702E+03  0.00000000000E+00 0. -1.
         -2   -1    0    0    0  501 -0.00000000000E+00 -0.00000000000E+00 -0.57863083648E+03  0.57863083648E+03  0.00000000000E+00 0.  1.
         23    2    1    2    0    0  0.64302283724E+02  0.86224008287E+02 -0.24101032678E+03  0.27874126669E+03  0.89673590574E+02 0.  0.
        254    2    1    2    0    0 -0.64302283724E+02 -0.86224008287E+02  0.32789954731E+03  0.96540962681E+03  0.90162534964E+03 0.  0.
        -24    2    4    4    0    0  0.35589154893E+03 -0.11673165934E+03  0.37154558559E+03  0.53442439384E+03  0.85312576296E+02 0.  0.
         24    2    4    4    0    0 -0.42019383266E+03  0.30507651056E+02 -0.43646038274E+02  0.43098523296E+03  0.79685134122E+02 0.  0.
         13    1    3    3    0    0 -0.46688007058E+01  0.68709432623E+02 -0.12021603327E+03  0.13854486092E+03  0.00000000000E+00 0. -1.
        -13    1    3    3    0    0  0.68971084430E+02  0.17514575663E+02 -0.12079429350E+03  0.14019640577E+03  0.00000000000E+00 0.  1.
          2    1    6    6  502    0 -0.21276105715E+03  0.13591042632E+02  0.17925649151E+02  0.21394698590E+03  0.00000000000E+00 0. -1.
          3    1    5    5  503    0  0.73680213565E+02 -0.41197020143E+02  0.42865828625E+02  0.94675485757E+02  0.00000000000E+00 0. -1.
         -4    1    5    5    0  503  0.28221133537E+03 -0.75534639200E+02  0.32867975696E+03  0.43974890809E+03  0.00000000000E+00 0.  1.
         -1    1    6    6    0  502 -0.20743277551E+03  0.16916608423E+02 -0.61571687425E+02  0.21703824706E+03  0.00000000000E+00 0.  1.
<mgrwt>
<rscale>  0 0.12411131E+04</rscale>
<asrwt>0</asrwt>
<pdfrwt beam="1">  1        2 0.10238770E+00 0.12411131E+04</pdfrwt>
<pdfrwt beam="2">  1       -2 0.89020129E-01 0.12411131E+04</pdfrwt>
<totfact> 0.46589034E+01</totfact>
</mgrwt>
</event>
<event>
12    1  0.1532786E-007  0.3251900E+04  0.7818608E-02  0.8175243E-01
          2   -1    0    0  501    0  0.00000000000E+00  0.00000000000E+00  0.16401941773E+04  0.16401941773E+04  0.00000000000E+00 0. -1.
         -2   -1    0    0    0  501 -0.00000000000E+00 -0.00000000000E+00 -0.16118293109E+04  0.16118293109E+04  0.00000000000E+00 0.  1.
         23    2    1    2    0    0  0.15978846910E+03  0.82580661677E+03  0.12419343388E+04  0.15027895598E+04  0.92122938283E+02 0.  0.
        254    2    1    2    0    0 -0.15978846910E+03 -0.82580661677E+03 -0.12135694724E+04  0.17492339285E+04  0.93785902410E+03 0.  0.
        -24    2    4    4    0    0 -0.86470006789E+02 -0.20028107990E+03  0.12779411666E+03  0.26517328574E+03  0.79974759631E+02 0.  0.
         24    2    4    4    0    0 -0.73318462314E+02 -0.62552553688E+03 -0.13413635891E+04  0.14840606428E+04  0.80758399623E+02 0.  0.
         13    1    3    3    0    0  0.23194616102E+02  0.35205069031E+03  0.53731868751E+03  0.64279783036E+03  0.00000000000E+00 0. -1.
        -13    1    3    3    0    0  0.13659385300E+03  0.47375592646E+03  0.70461565134E+03  0.85999172941E+03  0.00000000000E+00 0.  1.
          2    1    6    6  502    0  0.92454154255E+00 -0.58626189414E+02 -0.18509591499E+03  0.19416071335E+03  0.00000000000E+00 0. -1.
          3    1    5    5  503    0  0.10017729972E+02 -0.29818583231E+02  0.29666720851E+00  0.31457762653E+02  0.00000000000E+00 0. -1.
         -2    1    5    5    0  503 -0.96487736761E+02 -0.17046249667E+03  0.12749744945E+03  0.23371552309E+03  0.00000000000E+00 0.  1.
         -1    1    6    6    0  502 -0.74243003856E+02 -0.56689934746E+03 -0.11562676741E+04  0.12898999294E+04  0.00000000000E+00 0.  1.
<mgrwt>
<rscale>  0 0.32518998E+04</rscale>
<asrwt>0</asrwt>
<pdfrwt beam="1">  1        2 0.25233757E+00 0.32518998E+04</pdfrwt>
<pdfrwt beam="2">  1       -2 0.24797374E+00 0.32518998E+04</pdfrwt>
<totfact> 0.58724601E-01</totfact>
</mgrwt>
</event>
<event>
12    1  0.1532786E-007  0.2061035E+04  0.7818608E-02  0.8578605E-01
          3   -1    0    0  501    0  0.00000000000E+00  0.00000000000E+00  0.83922466294E+03  0.83922466294E+03  0.00000000000E+00 0. -1.
         -3   -1    0    0    0  501 -0.00000000000E+00 -0.00000000000E+00 -0.12654131047E+04  0.12654131047E+04  0.00000000000E+00 0.  1.
         23    2    1    2    0    0  0.68302007762E+03 -0.64149635556E+02 -0.66172146343E+03  0.95752888074E+03  0.91403829915E+02 0.  0.
        254    2    1    2    0    0 -0.68302007762E+03  0.64149635556E+02  0.23553302167E+03  0.11471088869E+04  0.88867957775E+03 0.  0.
        -24    2    4    4    0    0 -0.79892264461E+03 -0.11810755772E+03  0.35728559851E+03  0.88675215266E+03  0.80309364947E+02 0.  0.
         24    2    4    4    0    0  0.11590256699E+03  0.18225719327E+03 -0.12175257684E+03  0.26035673423E+03  0.79440855725E+02 0.  0.
         11    1    3    3    0    0  0.17514353494E+03 -0.56380125753E+02 -0.16699613640E+03  0.24847874353E+03  0.00000000000E+00 0. -1.
        -11    1    3    3    0    0  0.50787654268E+03 -0.77695098033E+01 -0.49472532702E+03  0.70905013722E+03  0.00000000000E+00 0.  1.
          4    1    6    6  502    0  0.41112720667E+02  0.45883614335E+02 -0.76796809888E+02  0.98454618348E+02  0.00000000000E+00 0. -1.
          3    1    5    5  503    0 -0.44480214708E+03 -0.33063148528E+02  0.22224805631E+03  0.49833354329E+03  0.00000000000E+00 0. -1.
         -4    1    5    5    0  503 -0.35412049753E+03 -0.85044409190E+02  0.13503754220E+03  0.38841860937E+03  0.00000000000E+00 0.  1.
         -3    1    6    6    0  502  0.74789846318E+02  0.13637357894E+03 -0.44955766949E+02  0.16190211588E+03  0.00000000000E+00 0.  1.
<mgrwt>
<rscale>  0 0.20610346E+04</rscale>
<asrwt>0</asrwt>
<pdfrwt beam="1">  1        3 0.12911149E+00 0.20610346E+04</pdfrwt>
<pdfrwt beam="2">  1       -3 0.19467894E+00 0.20610346E+04</pdfrwt>
<totfact> 0.18088367E-01</totfact>
</mgrwt>
</event>
<event>
12    1  0.1532786E-007  0.2870631E+04  0.7818608E-02  0.8281670E-01
         -2   -1    0    0    0  501 -0.00000000000E+00  0.00000000000E+00  0.11117257036E+04  0.11117257036E+04  0.00000000000E+00 0.  1.
          2   -1    0    0  501    0  0.00000000000E+00 -0.00000000000E+00 -0.18530927308E+04  0.18530927308E+04  0.00000000000E+00 0. -1.
         23    2    1    2    0    0 -0.77640265705E+03  0.26423417810E+03  0.69569735374E+03  0.10788563443E+04  0.85530210271E+02 0.  0.
        254    2    1    2    0    0  0.77640265705E+03 -0.26423417810E+03 -0.14370643810E+04  0.18859620901E+04  0.90502938268E+03 0.  0.
        -24    2    4    4    0    0  0.33800597856E+03  0.32880308336E+03 -0.51897447696E+03  0.70564758587E+03  0.79022139568E+02 0.  0.
         24    2    4    4    0    0  0.43839667848E+03 -0.59303726147E+03 -0.91808990400E+03  0.11803145042E+04  0.79802354931E+02 0.  0.
         13    1    3    3    0    0 -0.63045950568E+03  0.19427827893E+03  0.52030742703E+03  0.84020417554E+03  0.00000000000E+00 0. -1.
        -13    1    3    3    0    0 -0.14594315137E+03  0.69955899176E+02  0.17538992671E+03  0.23865216876E+03  0.00000000000E+00 0.  1.
          4    1    6    6  502    0  0.40294602951E+03 -0.55489247486E+03 -0.81747511349E+03  0.10670223627E+04  0.00000000000E+00 0. -1.
          3    1    5    5  503    0  0.13698406521E+03  0.18743546322E+03 -0.24151744612E+03  0.33500352800E+03  0.00000000000E+00 0. -1.
         -4    1    5    5    0  503  0.20102191336E+03  0.14136762014E+03 -0.27745703084E+03  0.37064405787E+03  0.00000000000E+00 0.  1.
         -3    1    6    6    0  502  0.35450648979E+02 -0.38144786603E+02 -0.10061479051E+03  0.11329214151E+03  0.00000000000E+00 0.  1.
<mgrwt>
<rscale>  0 0.28706312E+04</rscale>
<asrwt>0</asrwt>
<pdfrwt beam="1">  1        2 0.28509119E+00 0.28706312E+04</pdfrwt>
<pdfrwt beam="2">  1       -2 0.17103473E+00 0.28706312E+04</pdfrwt>
<totfact> 0.14619011E+00</totfact>
</mgrwt>
</event>
<event>
12    1  0.1532786E-007  0.3130822E+04  0.7818608E-02  0.8207330E-01
         -2   -1    0    0    0  501 -0.00000000000E+00  0.00000000000E+00  0.67594346397E+03  0.67594346397E+03  0.00000000000E+00 0.  1.
          2   -1    0    0  501    0  0.00000000000E+00 -0.00000000000E+00 -0.36253194387E+04  0.36253194387E+04  0.00000000000E+00 0. -1.
         23    2    1    2    0    0 -0.11898981145E+04  0.83133961511E+02 -0.25954124661E+03  0.12238440607E+04  0.87543404984E+02 0.  0.
        254    2    1    2    0    0  0.11898981145E+04 -0.83133961511E+02 -0.26898347281E+04  0.30774188420E+04  0.90140284338E+03 0.  0.
        -24    2    4    4    0    0  0.25795246643E+03 -0.34240278062E+03 -0.13785362101E+04  0.14459234618E+04  0.80953294078E+02 0.  0.
         24    2    4    4    0    0  0.93194564805E+03  0.25926881911E+03 -0.13112985180E+04  0.16314953802E+04  0.80810646754E+02 0.  0.
         13    1    3    3    0    0 -0.52396596575E+02  0.73127637253E+01  0.61687055811E+01  0.53262864873E+02  0.00000000000E+00 0. -1.
        -13    1    3    3    0    0 -0.11375015179E+04  0.75821197786E+02 -0.26570995219E+03  0.11705811958E+04  0.00000000000E+00 0.  1.
          4    1    6    6  502    0  0.12862666293E+03  0.58152461535E+02 -0.22366694925E+03  0.26448711006E+03  0.00000000000E+00 0. -1.
          3    1    5    5  503    0  0.42911177799E+02 -0.10579572313E+03 -0.29979885772E+03  0.32080127696E+03  0.00000000000E+00 0. -1.
         -4    1    5    5    0  503  0.21504128863E+03 -0.23660705749E+03 -0.10787373524E+04  0.11251221849E+04  0.00000000000E+00 0.  1.
         -3    1    6    6    0  502  0.80331898512E+03  0.20111635758E+03 -0.10876315688E+04  0.13670082701E+04  0.00000000000E+00 0.  1.
<mgrwt>
<rscale>  0 0.31308216E+04</rscale>
<asrwt>0</asrwt>
<pdfrwt beam="1">  1        2 0.55774146E+00 0.31308216E+04</pdfrwt>
<pdfrwt beam="2">  1       -2 0.10399130E+00 0.31308216E+04</pdfrwt>
<totfact> 0.42122953E-01</totfact>
</mgrwt>
</event>
<event>
12    1  0.1532786E-007  0.1395009E+04  0.7818608E-02  0.8957439E-01
          2   -1    0    0  501    0  0.00000000000E+00  0.00000000000E+00  0.14962897358E+04  0.14962897358E+04  0.00000000000E+00 0. -1.
         -2   -1    0    0    0  501 -0.00000000000E+00 -0.00000000000E+00 -0.32514599816E+03  0.32514599816E+03  0.00000000000E+00 0.  1.
         23    2    1    2    0    0  0.22228295340E+03  0.20628072213E+03  0.93786359012E+01  0.31702122494E+03  0.91940472880E+02 0.  0.
        254    2    1    2    0    0 -0.22228295340E+03 -0.20628072213E+03  0.11617651017E+04  0.15044145090E+04  0.90642341961E+03 0.  0.
        -24    2    4    4    0    0  0.23180687090E+03 -0.34177982899E+03  0.29580084265E+03  0.51403014119E+03  0.78619149305E+02 0.  0.
         24    2    4    4    0    0 -0.45408982430E+03  0.13549910685E+03  0.86596425905E+03  0.99038436780E+03  0.80059487478E+02 0.  0.
         11    1    3    3    0    0  0.22084847009E+03  0.17324998844E+03 -0.55394650587E+01  0.28074951631E+03  0.00000000000E+00 0.  1.
        -11    1    3    3    0    0  0.14344833159E+01  0.33030733697E+02  0.14918100960E+02  0.36271708634E+02  0.00000000000E+00 0. -1.
          2    1    6    6  502    0 -0.31862848796E+03  0.12794261900E+03  0.65546298338E+03  0.73994942373E+03  0.00000000000E+00 0. -1.
          1    1    5    5  503    0  0.13266989774E+03 -0.22852099852E+03  0.14700598653E+03  0.30238040381E+03  0.00000000000E+00 0. -1.
         -2    1    5    5    0  503  0.99136973152E+02 -0.11325883047E+03  0.14879485612E+03  0.21164973738E+03  0.00000000000E+00 0.  1.
         -1    1    6    6    0  502 -0.13546133634E+03  0.75564878512E+01  0.21050127568E+03  0.25043494407E+03  0.00000000000E+00 0.  1.
<mgrwt>
<rscale>  0 0.13950091E+04</rscale>
<asrwt>0</asrwt>
<pdfrwt beam="1">  1        2 0.23019842E+00 0.13950091E+04</pdfrwt>
<pdfrwt beam="2">  1       -2 0.50022462E-01 0.13950091E+04</pdfrwt>
<totfact> 0.46943611E+01</totfact>
</mgrwt>
</event>
<event>
12    1  0.1532786E-007  0.1359147E+04  0.7818608E-02  0.8983932E-01
          2   -1    0    0  501    0  0.00000000000E+00  0.00000000000E+00  0.15609515440E+04  0.15609515440E+04  0.00000000000E+00 0. -1.
         -2   -1    0    0    0  501 -0.00000000000E+00 -0.00000000000E+00 -0.29585830012E+03  0.29585830012E+03  0.00000000000E+00 0.  1.
         23    2    1    2    0    0 -0.25593034184E+03 -0.26443939514E+03  0.48016095500E+03  0.61194836560E+03  0.92183110578E+02 0.  0.
        254    2    1    2    0    0  0.25593034184E+03  0.26443939514E+03  0.78493228884E+03  0.12448614785E+04  0.89338282329E+03 0.  0.
        -24    2    4    4    0    0 -0.18702252934E+03 -0.88999502827E+02  0.60585345021E+03  0.64527062859E+03  0.80108944661E+02 0.  0.
         24    2    4    4    0    0  0.44295287118E+03  0.35343889797E+03  0.17907883863E+03  0.59959084988E+03  0.79458518299E+02 0.  0.
         11    1    3    3    0    0 -0.36182945404E+02 -0.10097410213E+01  0.41287094129E+02  0.54907642971E+02  0.00000000000E+00 0.  1.
        -11    1    3    3    0    0 -0.21974739644E+03 -0.26342965412E+03  0.43887386087E+03  0.55704072263E+03  0.00000000000E+00 0. -1.
          2    1    6    6  502    0  0.37058884487E+03  0.25987506922E+03  0.15821655230E+03  0.47948265971E+03  0.00000000000E+00 0. -1.
          3    1    5    5  503    0 -0.88104181698E+02  0.12335457182E+01  0.23271105308E+03  0.24883388574E+03  0.00000000000E+00 0. -1.
         -4    1    5    5    0  503 -0.98918347642E+02 -0.90233048545E+02  0.37314239712E+03  0.39643674285E+03  0.00000000000E+00 0.  1.
         -1    1    6    6    0  502  0.72364026305E+02  0.93563828749E+02  0.20862286333E+02  0.12010819016E+03  0.00000000000E+00 0.  1.
<mgrwt>
<rscale>  0 0.13591475E+04</rscale>
<asrwt>0</asrwt>
<pdfrwt beam="1">  1        2 0.24014639E+00 0.13591475E+04</pdfrwt>
<pdfrwt beam="2">  1       -2 0.45516662E-01 0.13591475E+04</pdfrwt>
<totfact> 0.52390050E+01</totfact>
</mgrwt>
</event>
<event>
12    1  0.1532786E-007  0.2506323E+04  0.7818608E-02  0.8400736E-01
          2   -1    0    0  501    0  0.00000000000E+00  0.00000000000E+00  0.41221626075E+04  0.41221626075E+04  0.00000000000E+00 0. -1.
         -2   -1    0    0    0  501 -0.00000000000E+00 -0.00000000000E+00 -0.38096836214E+03  0.38096836214E+03  0.00000000000E+00 0.  1.
         23    2    1    2    0    0  0.29198005238E+03 -0.81549140504E+03  0.45007864171E+03  0.98013888687E+03  0.88446996205E+02 0.  0.
        254    2    1    2    0    0 -0.29198005238E+03  0.81549140504E+03  0.32911156037E+04  0.35229920828E+04  0.91090763310E+03 0.  0.
        -24    2    4    4    0    0  0.21359870270E+03  0.68213786918E+03  0.20998471784E+04  0.22195239526E+04  0.77407526195E+02 0.  0.
         24    2    4    4    0    0 -0.50557875508E+03  0.13335353587E+03  0.11912684253E+04  0.13034681302E+04  0.80719652580E+02 0.  0.
         11    1    3    3    0    0  0.66619405125E+02 -0.10467336532E+03  0.80383784407E+02  0.14783846368E+03  0.00000000000E+00 0. -1.
        -11    1    3    3    0    0  0.22536064725E+03 -0.71081803972E+03  0.36969485730E+03  0.83230042319E+03  0.00000000000E+00 0.  1.
          2    1    6    6  502    0 -0.24242967014E+03  0.44752641343E+02  0.47279388170E+03  0.53320633759E+03  0.00000000000E+00 0. -1.
          3    1    5    5  503    0  0.20202917446E+03  0.56492342441E+03  0.18010015202E+04  0.18983047012E+04  0.00000000000E+00 0. -1.
         -4    1    5    5    0  503  0.11569528243E+02  0.11721444476E+03  0.29884565816E+03  0.32121925136E+03  0.00000000000E+00 0.  1.
         -1    1    6    6    0  502 -0.26314908494E+03  0.88600894526E+02  0.71847454359E+03  0.77026179264E+03  0.00000000000E+00 0.  1.
<mgrwt>
<rscale>  0 0.25063228E+04</rscale>
<asrwt>0</asrwt>
<pdfrwt beam="1">  1        2 0.63417883E+00 0.25063228E+04</pdfrwt>
<pdfrwt beam="2">  1       -2 0.58610520E-01 0.25063228E+04</pdfrwt>
<totfact> 0.66027400E-01</totfact>
</mgrwt>
</event>
<event>
12    1  0.1532786E-007  0.1918725E+04  0.7818608E-02  0.8645592E-01
          2   -1    0    0  501    0  0.00000000000E+00  0.00000000000E+00  0.75475007943E+03  0.75475007943E+03  0.00000000000E+00 0.  1.
         -2   -1    0    0    0  501 -0.00000000000E+00 -0.00000000000E+00 -0.12194449241E+04  0.12194449241E+04  0.00000000000E+00 0. -1.
         23    2    1    2    0    0 -0.85498311014E+02 -0.72407461615E+03  0.18054270448E+02  0.73522035966E+03  0.92892462756E+02 0.  0.
        254    2    1    2    0    0  0.85498311014E+02  0.72407461615E+03 -0.48274911508E+03  0.12389746438E+04  0.87773427015E+03 0.  0.
        -24    2    4    4    0    0  0.46786251731E+03  0.46062265468E+03 -0.20653891705E+03  0.69285621953E+03  0.79516360369E+02 0.  0.
         24    2    4    4    0    0 -0.38236420630E+03  0.26345196147E+03 -0.27621019803E+03  0.54611842430E+03  0.79648839342E+02 0.  0.
         11    1    3    3    0    0 -0.47276559562E+02 -0.35362683514E+03  0.54961393715E+02  0.36098167047E+03  0.00000000000E+00 0.  1.
        -11    1    3    3    0    0 -0.38221751451E+02 -0.37044778101E+03 -0.36907123267E+02  0.37423868919E+03  0.00000000000E+00 0. -1.
          2    1    6    6  502    0 -0.16498891292E+02  0.48745776201E+01  0.40348243466E+01  0.17670730838E+02  0.00000000000E+00 0. -1.
          3    1    5    5  503    0  0.38555047106E+03  0.37271950974E+03 -0.13576465449E+03  0.55317360755E+03  0.00000000000E+00 0. -1.
         -4    1    5    5    0  503  0.82312046253E+02  0.87903144938E+02 -0.70774262556E+02  0.13968261198E+03  0.00000000000E+00 0.  1.
         -3    1    6    6    0  502 -0.36586531501E+03  0.25857738385E+03 -0.28024502237E+03  0.52844769347E+03  0.00000000000E+00 0.  1.
<mgrwt>
<rscale>  0 0.19187247E+04</rscale>
<asrwt>0</asrwt>
<pdfrwt beam="1">  1        2 0.11611540E+00 0.19187247E+04</pdfrwt>
<pdfrwt beam="2">  1       -2 0.18760691E+00 0.19187247E+04</pdfrwt>
<totfact> 0.55916990E+00</totfact>
</mgrwt>
</event>
<event>
12    1  0.1532786E-007  0.1837662E+04  0.7818608E-02  0.8686524E-01
          2   -1    0    0  501    0  0.00000000000E+00  0.00000000000E+00  0.28294586031E+04  0.28294586031E+04  0.00000000000E+00 0. -1.
         -2   -1    0    0    0  501 -0.00000000000E+00 -0.00000000000E+00 -0.29837875419E+03  0.29837875419E+03  0.00000000000E+00 0.  1.
         23    2    1    2    0    0 -0.42688185169E+03  0.39377868423E+03  0.16898483329E+04  0.17891494028E+04  0.90434671963E+02 0.  0.
        254    2    1    2    0    0  0.42688185169E+03 -0.39377868423E+03  0.84123151595E+03  0.13386879544E+04  0.86436404856E+03 0.  0.
        -24    2    4    4    0    0  0.45126611396E+03  0.39547094720E+02  0.91635429890E+02  0.46889169208E+03  0.79103025124E+02 0.  0.
         24    2    4    4    0    0 -0.24384262270E+02 -0.43332577895E+03  0.74959608606E+03  0.86979626234E+03  0.79280658408E+02 0.  0.
         11    1    3    3    0    0 -0.11599727619E+03  0.57959058410E+02  0.34431213255E+03  0.36792046037E+03  0.00000000000E+00 0.  1.
        -11    1    3    3    0    0 -0.31088457550E+03  0.33581962582E+03  0.13455362004E+04  0.14212289425E+04  0.00000000000E+00 0. -1.
          2    1    6    6  502    0 -0.34317245801E+02 -0.14008219138E+03  0.30094818822E+03  0.33372219838E+03  0.00000000000E+00 0. -1.
          3    1    5    5  503    0  0.31597823515E+03  0.29451268875E+01  0.90646194480E+02  0.32873644677E+03  0.00000000000E+00 0. -1.
         -4    1    5    5    0  503  0.13528787881E+03  0.36601967833E+02  0.98923540975E+00  0.14015524531E+03  0.00000000000E+00 0.  1.
         -1    1    6    6    0  502  0.99329835308E+01 -0.29324358756E+03  0.44864789784E+03  0.53607406396E+03  0.00000000000E+00 0.  1.
<mgrwt>
<rscale>  0 0.18376619E+04</rscale>
<asrwt>0</asrwt>
<pdfrwt beam="1">  1        2 0.43530131E+00 0.18376619E+04</pdfrwt>
<pdfrwt beam="2">  1       -2 0.45904426E-01 0.18376619E+04</pdfrwt>
<totfact> 0.94224321E+00</totfact>
</mgrwt>
</event>
<event>
12    1  0.1532786E-007  0.2464276E+04  0.7818608E-02  0.8415824E-01
         -2   -1    0    0    0  501 -0.00000000000E+00  0.00000000000E+00  0.19680072008E+04  0.19680072008E+04  0.00000000000E+00 0.  1.
          2   -1    0    0  501    0  0.00000000000E+00 -0.00000000000E+00 -0.77142228627E+03  0.77142228627E+03  0.00000000000E+00 0. -1.
         23    2    1    2    0    0 -0.49210574195E+03  0.34056943826E+03  0.14997471785E+04  0.16172797630E+04  0.90535236576E+02 0.  0.
        254    2    1    2    0    0  0.49210574195E+03 -0.34056943826E+03 -0.30316226394E+03  0.11221497240E+04  0.89953156772E+03 0.  0.
        -24    2    4    4    0    0 -0.19497456156E+03 -0.28930080711E+03 -0.22652298517E+03  0.42541594478E+03  0.89196561662E+02 0.  0.
         24    2    4    4    0    0  0.68708030351E+03 -0.51268631156E+02 -0.76639278777E+02  0.69673377925E+03  0.69689052842E+02 0.  0.
         13    1    3    3    0    0 -0.47035211209E+02  0.21871455694E+02  0.76860815587E+02  0.92726784913E+02  0.00000000000E+00 0. -1.
        -13    1    3    3    0    0 -0.44507053074E+03  0.31869798257E+03  0.14228863629E+04  0.15245529781E+04  0.00000000000E+00 0.  1.
          2    1    6    6  502    0  0.10310368990E+03  0.14523993122E+02 -0.27599026077E+00  0.10412201217E+03  0.00000000000E+00 0. -1.
          1    1    5    5  503    0 -0.10189804532E+03 -0.11416500302E+03 -0.14554918233E+03  0.21119049229E+03  0.00000000000E+00 0. -1.
         -2    1    5    5    0  503 -0.93076516243E+02 -0.17513580409E+03 -0.80973802833E+02  0.21422545249E+03  0.00000000000E+00 0.  1.
         -1    1    6    6    0  502  0.58397661361E+03 -0.65792624278E+02 -0.76363288516E+02  0.59261176708E+03  0.00000000000E+00 0.  1.
<mgrwt>
<rscale>  0 0.24642765E+04</rscale>
<asrwt>0</asrwt>
<pdfrwt beam="1">  1        2 0.11868035E+00 0.24642765E+04</pdfrwt>
<pdfrwt beam="2">  1       -2 0.30277034E+00 0.24642765E+04</pdfrwt>
<totfact> 0.98847433E-01</totfact>
</mgrwt>
</event>
<event>
12    1  0.1532786E-007  0.4044908E+04  0.7818608E-02  0.7995548E-01
          2   -1    0    0  501    0  0.00000000000E+00  0.00000000000E+00  0.30439776529E+04  0.30439776529E+04  0.00000000000E+00 0. -1.
         -2   -1    0    0    0  501 -0.00000000000E+00 -0.00000000000E+00 -0.13437416807E+04  0.13437416807E+04  0.00000000000E+00 0.  1.
         23    2    1    2    0    0 -0.65798161584E+03  0.14661996714E+04  0.19537746429E+04  0.25314764827E+04  0.91959470487E+02 0.  0.
        254    2    1    2    0    0  0.65798161584E+03 -0.14661996714E+04 -0.25353867070E+03  0.18562428508E+04  0.89368583985E+03 0.  0.
        -24    2    4    4    0    0  0.65366586303E+03 -0.15717672094E+04 -0.20041575125E+03  0.17160600958E+04  0.83453927740E+02 0.  0.
         24    2    4    4    0    0  0.43157528100E+01  0.10556753802E+03 -0.53122919450E+02  0.14018275495E+03  0.75273032417E+02 0.  0.
         13    1    3    3    0    0 -0.56082259085E+03  0.12913262509E+04  0.17485928110E+04  0.22449103063E+04  0.00000000000E+00 0. -1.
        -13    1    3    3    0    0 -0.97159024996E+02  0.17487342049E+03  0.20518183194E+03  0.28656617646E+03  0.00000000000E+00 0.  1.
          2    1    6    6  502    0  0.19641273710E+02  0.46872179426E+00  0.32898502292E+01  0.19920402798E+02  0.00000000000E+00 0. -1.
          3    1    5    5  503    0  0.17822849165E+03 -0.52753930286E+03 -0.74879767353E+02  0.56184525526E+03  0.00000000000E+00 0. -1.
         -4    1    5    5    0  503  0.47543737139E+03 -0.10442279066E+04 -0.12553598390E+03  0.11542148406E+04  0.00000000000E+00 0.  1.
         -1    1    6    6    0  502 -0.15325520900E+02  0.10509881623E+03 -0.56412769679E+02  0.12026235216E+03  0.00000000000E+00 0.  1.
<mgrwt>
<rscale>  0 0.40449077E+04</rscale>
<asrwt>0</asrwt>
<pdfrwt beam="1">  1        2 0.46830425E+00 0.40449077E+04</pdfrwt>
<pdfrwt beam="2">  1       -2 0.20672949E+00 0.40449077E+04</pdfrwt>
<totfact> 0.15425261E-01</totfact>
</mgrwt>
</event>
<event>
12    1  0.1532786E-007  0.2400345E+04  0.7818608E-02  0.8439374E-01
         -1   -1    0    0    0  501 -0.00000000000E+00  0.00000000000E+00  0.17940969409E+04  0.17940969409E+04  0.00000000000E+00 0.  1.
          1   -1    0    0  501    0  0.00000000000E+00 -0.00000000000E+00 -0.80286313810E+03  0.80286313810E+03  0.00000000000E+00 0. -1.
         23    2    1    2    0    0  0.10044580587E+04 -0.22861355664E+03  0.44795719445E+03  0.11269142306E+04  0.89832539575E+02 0.  0.
        254    2    1    2    0    0 -0.10044580587E+04  0.22861355664E+03  0.54327660837E+03  0.14700458484E+04  0.89704245893E+03 0.  0.
        -24    2    4    4    0    0 -0.38086022556E+03 -0.19675710859E+03  0.56129394409E+03  0.71076206918E+03  0.79774407660E+02 0.  0.
         24    2    4    4    0    0 -0.62359783316E+03  0.42537066523E+03 -0.18017335723E+02  0.75928377919E+03  0.79829647373E+02 0.  0.
         13    1    3    3    0    0  0.16811213941E+03 -0.70991373557E+01  0.58825147823E+02  0.17824838621E+03  0.00000000000E+00 0.  1.
        -13    1    3    3    0    0  0.83634591930E+03 -0.22151441929E+03  0.38913204663E+03  0.94866584444E+03  0.00000000000E+00 0. -1.
          2    1    6    6  502    0 -0.22009595070E+03  0.13295629932E+03  0.28932106957E+02  0.25875987296E+03  0.00000000000E+00 0. -1.
          3    1    5    5  503    0 -0.58101204348E+02 -0.24121983119E+02  0.13465665231E+03  0.14862716450E+03  0.00000000000E+00 0. -1.
         -4    1    5    5    0  503 -0.32275902121E+03 -0.17263512547E+03  0.42663729178E+03  0.56213490468E+03  0.00000000000E+00 0.  1.
         -1    1    6    6    0  502 -0.40350188246E+03  0.29241436591E+03 -0.46949442680E+02  0.50052390623E+03  0.00000000000E+00 0.  1.
<mgrwt>
<rscale>  0 0.24003452E+04</rscale>
<asrwt>0</asrwt>
<pdfrwt beam="1">  1        1 0.12351741E+00 0.24003452E+04</pdfrwt>
<pdfrwt beam="2">  1       -1 0.27601491E+00 0.24003452E+04</pdfrwt>
<totfact> 0.93043194E-01</totfact>
</mgrwt>
</event>
<event>
12    1  0.1532786E-007  0.1864286E+04  0.7818608E-02  0.8672841E-01
          1   -1    0    0  501    0  0.00000000000E+00  0.00000000000E+00  0.94739831825E+03  0.94739831825E+03  0.00000000000E+00 0. -1.
         -1   -1    0    0    0  501 -0.00000000000E+00 -0.00000000000E+00 -0.91713287267E+03  0.91713287267E+03  0.00000000000E+00 0.  1.
         23    2    1    2    0    0 -0.64746101714E+03  0.82700896214E+02  0.27611915368E+03  0.71485484711E+03  0.93436922302E+02 0.  0.
        254    2    1    2    0    0  0.64746101714E+03 -0.82700896214E+02 -0.24585370810E+03  0.11496763438E+04  0.91392912351E+03 0.  0.
        -24    2    4    4    0    0 -0.12655165215E+03 -0.23809662469E+03  0.79336047560E+02  0.29219816373E+03  0.79876373833E+02 0.  0.
         24    2    4    4    0    0  0.77401266929E+03  0.15539572847E+03 -0.32518975566E+03  0.85747818009E+03  0.79227567708E+02 0.  0.
         11    1    3    3    0    0 -0.30236159383E+03  0.41265717543E+02  0.17973275098E+03  0.35415992806E+03  0.00000000000E+00 0.  1.
        -11    1    3    3    0    0 -0.34509942331E+03  0.41435178672E+02  0.96386402700E+02  0.36069491905E+03  0.00000000000E+00 0. -1.
          4    1    6    6  502    0  0.54397315110E+03  0.93786099894E+02 -0.26240130827E+03  0.61119315133E+03  0.00000000000E+00 0. -1.
          3    1    5    5  503    0 -0.93882369193E+02 -0.22059460127E+03  0.49925581419E+02  0.24488454633E+03  0.00000000000E+00 0. -1.
         -4    1    5    5    0  503 -0.32669282958E+02 -0.17502023422E+02  0.29410466141E+02  0.47313617400E+02  0.00000000000E+00 0.  1.
         -3    1    6    6    0  502  0.23003951820E+03  0.61609628580E+02 -0.62788447391E+02  0.24628502876E+03  0.00000000000E+00 0.  1.
<mgrwt>
<rscale>  0 0.18642855E+04</rscale>
<asrwt>0</asrwt>
<pdfrwt beam="1">  1        1 0.14575359E+00 0.18642855E+04</pdfrwt>
<pdfrwt beam="2">  1       -1 0.14109737E+00 0.18642855E+04</pdfrwt>
<totfact> 0.64191984E+00</totfact>
</mgrwt>
</event>
<event>
12    1  0.2641134E-007  0.1942220E+04  0.7818608E-02  0.8634122E-01
         -1   -1    0    0    0  501 -0.00000000000E+00  0.00000000000E+00  0.38765979083E+03  0.38765979083E+03  0.00000000000E+00 0.  1.
          1   -1    0    0  501    0  0.00000000000E+00 -0.00000000000E+00 -0.24326856960E+04  0.24326856960E+04  0.00000000000E+00 0. -1.
         23    2    1    2    0    0  0.21548462212E+03  0.12001994239E+03 -0.18096830586E+04  0.18287399018E+04  0.92187021091E+02 0.  0.
        254    2    1    2    0    0 -0.21548462212E+03 -0.12001994239E+03 -0.23534284653E+03  0.99160558500E+03  0.93115894016E+03 0.  0.
        -24    2    4    4    0    0 -0.45300510283E+03  0.24484808396E+03 -0.13021443661E+03  0.53717254672E+03  0.80214325654E+02 0.  0.
         24    2    4    4    0    0  0.23752048071E+03 -0.36486802635E+03 -0.10512840992E+03  0.45443303828E+03  0.76894397090E+02 0.  0.
         13    1    3    3    0    0  0.20157917346E+03  0.12385366473E+03 -0.17808844880E+04  0.17965309497E+04  0.00000000000E+00 0. -1.
        -13    1    3    3    0    0  0.13905448657E+02 -0.38337223460E+01 -0.28798570624E+02  0.32208952162E+02  0.00000000000E+00 0.  1.
          2    1    6    6  502    0  0.54143406909E+01 -0.18404804472E+02  0.10236491468E+02  0.21744830888E+02  0.00000000000E+00 0. -1.
          3    1    5    5  503    0 -0.82642291586E+01  0.56034177393E+01  0.88774259683E+01  0.13360556342E+02  0.00000000000E+00 0. -1.
         -4    1    5    5    0  503 -0.44474087367E+03  0.23924466622E+03 -0.13909186258E+03  0.52381199038E+03  0.00000000000E+00 0.  1.
         -1    1    6    6    0  502  0.23210614002E+03 -0.34646322187E+03 -0.11536490138E+03  0.43268820739E+03  0.00000000000E+00 0.  1.
<mgrwt>
<rscale>  0 0.19422198E+04</rscale>
<asrwt>0</asrwt>
<pdfrwt beam="1">  1        1 0.37425934E+00 0.19422198E+04</pdfrwt>
<pdfrwt beam="2">  1       -1 0.59639967E-01 0.19422198E+04</pdfrwt>
<totfact> 0.40098142E+00</totfact>
</mgrwt>
</event>
<event>
12    1  0.1532786E-007  0.2357927E+04  0.7818608E-02  0.8455425E-01
         -1   -1    0    0    0  501 -0.00000000000E+00  0.00000000000E+00  0.44823516551E+03  0.44823516551E+03  0.00000000000E+00 0.  1.
          1   -1    0    0  501    0  0.00000000000E+00 -0.00000000000E+00 -0.31009493266E+04  0.31009493266E+04  0.00000000000E+00 0. -1.
         23    2    1    2    0    0  0.98741006744E+03 -0.15033111883E+03 -0.13018005018E+04  0.16433959277E+04  0.92127857059E+02 0.  0.
        254    2    1    2    0    0 -0.98741006744E+03  0.15033111883E+03 -0.13509136593E+04  0.19057885644E+04  0.89971342712E+03 0.  0.
        -24    2    4    4    0    0 -0.29568308469E+03 -0.36480374595E+03 -0.52440243416E+03  0.70845668243E+03  0.80016862490E+02 0.  0.
         24    2    4    4    0    0 -0.69172698274E+03  0.51513486478E+03 -0.82651122513E+03  0.11973318820E+04  0.81441284787E+02 0.  0.
         11    1    3    3    0    0  0.14232291875E+03 -0.33179996184E+00 -0.14753728223E+03  0.20499554371E+03  0.00000000000E+00 0. -1.
        -11    1    3    3    0    0  0.84508714868E+03 -0.14999931886E+03 -0.11542632196E+04  0.14384003840E+04  0.00000000000E+00 0.  1.
          2    1    6    6  502    0 -0.60545071955E+02  0.74691994281E+02 -0.10484672699E+03  0.14225834214E+03  0.00000000000E+00 0. -1.
          1    1    5    5  503    0 -0.77913334666E+02 -0.51048233655E+02 -0.12433284881E+03  0.15535464966E+03  0.00000000000E+00 0. -1.
         -2    1    5    5    0  503 -0.21776975003E+03 -0.31375551230E+03 -0.40006958535E+03  0.55310203277E+03  0.00000000000E+00 0.  1.
         -1    1    6    6    0  502 -0.63118191079E+03  0.44044287050E+03 -0.72166449814E+03  0.10550735399E+04  0.00000000000E+00 0.  1.
<mgrwt>
<rscale>  0 0.23579267E+04</rscale>
<asrwt>0</asrwt>
<pdfrwt beam="1">  1        1 0.47706913E+00 0.23579267E+04</pdfrwt>
<pdfrwt beam="2">  1       -1 0.68959256E-01 0.23579267E+04</pdfrwt>
<totfact> 0.96471355E-01</totfact>
</mgrwt>
</event>
<event>
12    1  0.1532786E-007  0.2470407E+04  0.7818608E-02  0.8413605E-01
         -2   -1    0    0    0  501 -0.00000000000E+00  0.00000000000E+00  0.10750143458E+04  0.10750143458E+04  0.00000000000E+00 0.  1.
          2   -1    0    0  501    0  0.00000000000E+00 -0.00000000000E+00 -0.14192623550E+04  0.14192623550E+04  0.00000000000E+00 0. -1.
         23    2    1    2    0    0 -0.71091459751E+03  0.83438699423E+02 -0.95234093470E+03  0.11948794615E+04  0.91771946074E+02 0.  0.
        254    2    1    2    0    0  0.71091459751E+03 -0.83438699423E+02  0.60809292551E+03  0.12993972393E+04  0.89793908365E+03 0.  0.
        -24    2    4    4    0    0  0.19282064784E+03 -0.45435006320E+03  0.33225217944E+03  0.60048527881E+03  0.81100414080E+02 0.  0.
         24    2    4    4    0    0  0.51809394967E+03  0.37091136378E+03  0.27584074608E+03  0.69891196049E+03  0.79957681678E+02 0.  0.
         13    1    3    3    0    0 -0.48700380051E+03  0.66174593258E+02 -0.58190625443E+03  0.76168672527E+03  0.00000000000E+00 0. -1.
        -13    1    3    3    0    0 -0.22391079700E+03  0.17264106165E+02 -0.37043468027E+03  0.43319273623E+03  0.00000000000E+00 0.  1.
          4    1    6    6  502    0  0.27979561786E+03  0.21958419597E+03  0.19329551281E+03  0.40480360938E+03  0.00000000000E+00 0. -1.
          3    1    5    5  503    0  0.35189416913E+02 -0.46003607715E+02  0.14822586692E+02  0.59785751327E+02  0.00000000000E+00 0. -1.
         -4    1    5    5    0  503  0.15763123093E+03 -0.40834645549E+03  0.31742959275E+03  0.54069952749E+03  0.00000000000E+00 0.  1.
         -3    1    6    6    0  502  0.23829833180E+03  0.15132716781E+03  0.82545233264E+02  0.29410835111E+03  0.00000000000E+00 0.  1.
<mgrwt>
<rscale>  0 0.24704068E+04</rscale>
<asrwt>0</asrwt>
<pdfrwt beam="1">  1        2 0.21834805E+00 0.24704068E+04</pdfrwt>
<pdfrwt beam="2">  1       -2 0.16538682E+00 0.24704068E+04</pdfrwt>
<totfact> 0.29018105E+00</totfact>
</mgrwt>
</event>
<event>
12    1  0.1532786E-007  0.1172276E+04  0.7818608E-02  0.9137476E-01
         -2   -1    0    0    0  501 -0.00000000000E+00  0.00000000000E+00  0.11117785666E+04  0.11117785666E+04  0.00000000000E+00 0.  1.
          2   -1    0    0  501    0  0.00000000000E+00 -0.00000000000E+00 -0.30901611461E+03  0.30901611461E+03  0.00000000000E+00 0. -1.
         23    2    1    2    0    0  0.16462641613E+03 -0.39185369599E+02 -0.11706002903E+02  0.19152675843E+03  0.88927603194E+02 0.  0.
        254    2    1    2    0    0 -0.16462641613E+03  0.39185369599E+02  0.81446845492E+03  0.12292679228E+04  0.90504332046E+03 0.  0.
        -24    2    4    4    0    0  0.10251420491E+03  0.51692999721E+02 -0.16183745172E+03  0.21395662687E+03  0.80029675584E+02 0.  0.
         24    2    4    4    0    0 -0.26714062104E+03 -0.12507630122E+02  0.97630590664E+03  0.10153112959E+04  0.78506382519E+02 0.  0.
         13    1    3    3    0    0  0.14536151782E+03 -0.28606305824E+02  0.23521644034E+02  0.15000519769E+03  0.00000000000E+00 0.  1.
        -13    1    3    3    0    0  0.19264898314E+02 -0.10579063775E+02 -0.35227646936E+02  0.41521560738E+02  0.00000000000E+00 0. -1.
          2    1    6    6  502    0 -0.12394718710E+03 -0.42008469030E+02  0.51645328765E+03  0.53277726583E+03  0.00000000000E+00 0. -1.
          1    1    5    5  503    0  0.12895405230E+02  0.47590653100E+02 -0.69504804744E+02  0.85217836284E+02  0.00000000000E+00 0. -1.
         -2    1    5    5    0  503  0.89618799682E+02  0.41023466215E+01 -0.92332646977E+02  0.12873879059E+03  0.00000000000E+00 0.  1.
         -1    1    6    6    0  502 -0.14319343394E+03  0.29500838908E+02  0.45985261899E+03  0.48253403011E+03  0.00000000000E+00 0.  1.
<mgrwt>
<rscale>  0 0.11722756E+04</rscale>
<asrwt>0</asrwt>
<pdfrwt beam="1">  1        2 0.47540941E-01 0.11722756E+04</pdfrwt>
<pdfrwt beam="2">  1       -2 0.17104285E+00 0.11722756E+04</pdfrwt>
<totfact> 0.21974435E+01</totfact>
</mgrwt>
</event>
<event>
12    1  0.1532786E-007  0.1120452E+04  0.7818608E-02  0.9185484E-01
          2   -1    0    0  501    0  0.00000000000E+00  0.00000000000E+00  0.12634717703E+04  0.12634717703E+04  0.00000000000E+00 0. -1.
         -2   -1    0    0    0  501 -0.00000000000E+00 -0.00000000000E+00 -0.24840532074E+03  0.24840532074E+03  0.00000000000E+00 0.  1.
         23    2    1    2    0    0 -0.28418592747E+02 -0.18769266077E+02 -0.60616814062E+02  0.11462917427E+03  0.91134777573E+02 0.  0.
        254    2    1    2    0    0  0.28418592747E+02  0.18769266077E+02  0.10756832636E+04  0.13972479167E+04  0.89109334837E+03 0.  0.
        -24    2    4    4    0    0  0.34489883340E+03  0.27555436698E+03  0.38498479672E+03  0.59114913294E+03  0.79740762642E+02 0.  0.
         24    2    4    4    0    0 -0.31648024066E+03 -0.25678510090E+03  0.69069846686E+03  0.80609878379E+03  0.81440446569E+02 0.  0.
         13    1    3    3    0    0  0.36812432728E+01 -0.33709328139E+02 -0.70189624270E+02  0.77951611341E+02  0.00000000000E+00 0.  1.
        -13    1    3    3    0    0 -0.32099836020E+02  0.14940062062E+02  0.95728102077E+01  0.36677562926E+02  0.00000000000E+00 0. -1.
          4    1    6    6  502    0 -0.26107581099E+03 -0.23472027026E+03  0.62864635473E+03  0.72003501559E+03  0.00000000000E+00 0. -1.
          1    1    5    5  503    0  0.70856331806E+02  0.10186740360E+03  0.11111371414E+03  0.16656483765E+03  0.00000000000E+00 0. -1.
         -2    1    5    5    0  503  0.27404250160E+03  0.17368696338E+03  0.27387108258E+03  0.42458429529E+03  0.00000000000E+00 0.  1.
         -3    1    6    6    0  502 -0.55404429667E+02 -0.22064830645E+02  0.62052112127E+02  0.86063768204E+02  0.00000000000E+00 0.  1.
<mgrwt>
<rscale>  0 0.11204519E+04</rscale>
<asrwt>0</asrwt>
<pdfrwt beam="1">  1        2 0.19438027E+00 0.11204519E+04</pdfrwt>
<pdfrwt beam="2">  1       -2 0.38216204E-01 0.11204519E+04</pdfrwt>
<totfact> 0.11125306E+02</totfact>
</mgrwt>
</event>
<event>
12    1  0.1532786E-007  0.1403825E+04  0.7818608E-02  0.8951054E-01
          2   -1    0    0  501    0  0.00000000000E+00  0.00000000000E+00  0.29387608959E+04  0.29387608959E+04  0.00000000000E+00 0. -1.
         -2   -1    0    0    0  501 -0.00000000000E+00 -0.00000000000E+00 -0.16764930092E+03  0.16764930092E+03  0.00000000000E+00 0.  1.
         23    2    1    2    0    0 -0.26276575820E+03 -0.10732166856E+03  0.14780287838E+04  0.15079143937E+04  0.93128668114E+02 0.  0.
        254    2    1    2    0    0  0.26276575820E+03  0.10732166856E+03  0.12930828112E+04  0.15984958031E+04  0.89585818727E+03 0.  0.
        -24    2    4    4    0    0  0.40876357864E+03  0.37517418162E+02  0.13470399582E+04  0.14104351529E+04  0.79469815364E+02 0.  0.
         24    2    4    4    0    0 -0.14599782044E+03  0.69804250399E+02 -0.53957147076E+02  0.18806065018E+03  0.79167148971E+02 0.  0.
         11    1    3    3    0    0 -0.23295028412E+03 -0.10287271095E+03  0.11184469551E+04  0.11470711490E+04  0.00000000000E+00 0. -1.
        -11    1    3    3    0    0 -0.29815474076E+02 -0.44489576083E+01  0.35958182870E+03  0.36084324471E+03  0.00000000000E+00 0.  1.
          4    1    6    6  502    0 -0.14667574688E+03  0.54134487609E+02 -0.64535442465E+02  0.16914236845E+03  0.00000000000E+00 0. -1.
          3    1    5    5  503    0  0.33574226042E+03  0.28803693713E+02  0.11940481447E+04  0.12406867010E+04  0.00000000000E+00 0. -1.
         -4    1    5    5    0  503  0.73021318216E+02  0.87137244494E+01  0.15299181351E+03  0.16974845186E+03  0.00000000000E+00 0.  1.
         -3    1    6    6    0  502  0.67792643370E+00  0.15669762790E+02  0.10578295389E+02  0.18918281726E+02  0.00000000000E+00 0.  1.
<mgrwt>
<rscale>  0 0.14038251E+04</rscale>
<asrwt>0</asrwt>
<pdfrwt beam="1">  1        2 0.45211702E+00 0.14038251E+04</pdfrwt>
<pdfrwt beam="2">  1       -2 0.25792202E-01 0.14038251E+04</pdfrwt>
<totfact> 0.25283545E+01</totfact>
</mgrwt>
</event>
<event>
12    1  0.1532786E-007  0.1219041E+04  0.7818608E-02  0.9096351E-01
          1   -1    0    0  501    0  0.00000000000E+00  0.00000000000E+00  0.18203599647E+04  0.18203599647E+04  0.00000000000E+00 0. -1.
         -1   -1    0    0    0  501 -0.00000000000E+00 -0.00000000000E+00 -0.20408898612E+03  0.20408898612E+03  0.00000000000E+00 0.  1.
         23    2    1    2    0    0 -0.18624758527E+03  0.19495235718E+02  0.33841702921E+02  0.20878789219E+03  0.85900499620E+02 0.  0.
        254    2    1    2    0    0  0.18624758527E+03 -0.19495235718E+02  0.15824292756E+04  0.18156610586E+04  0.87033007536E+03 0.  0.
        -24    2    4    4    0    0  0.39149559056E+03 -0.18334356860E+03  0.14397139624E+04  0.15053355324E+04  0.79844285912E+02 0.  0.
         24    2    4    4    0    0 -0.20524800529E+03  0.16384833288E+03  0.14271531322E+03  0.31032552618E+03  0.83434115987E+02 0.  0.
         11    1    3    3    0    0 -0.14511775962E+03  0.36111562477E+02 -0.52874314841E+01  0.14963678035E+03  0.00000000000E+00 0.  1.
        -11    1    3    3    0    0 -0.41129825650E+02 -0.16616326759E+02  0.39129134405E+02  0.59151111843E+02  0.00000000000E+00 0. -1.
          2    1    6    6  502    0 -0.18950626486E+03  0.13393737947E+03  0.92547823226E+02  0.24983383602E+03  0.00000000000E+00 0. -1.
          3    1    5    5  503    0  0.34462908911E+03 -0.13071021802E+03  0.11796617237E+04  0.12359029706E+04  0.00000000000E+00 0. -1.
         -4    1    5    5    0  503  0.46866501444E+02 -0.52633350579E+02  0.26005223867E+03  0.26943256185E+03  0.00000000000E+00 0.  1.
         -1    1    6    6    0  502 -0.15741740427E+02  0.29910953415E+02  0.50167489991E+02  0.60491690156E+02  0.00000000000E+00 0.  1.
<mgrwt>
<rscale>  0 0.12190413E+04</rscale>
<asrwt>0</asrwt>
<pdfrwt beam="1">  1        1 0.28005537E+00 0.12190413E+04</pdfrwt>
<pdfrwt beam="2">  1       -1 0.31398307E-01 0.12190413E+04</pdfrwt>
<totfact> 0.36755697E+01</totfact>
</mgrwt>
</event>
<event>
12    1  0.1532786E-007  0.2471363E+04  0.7818608E-02  0.8413259E-01
          1   -1    0    0  501    0  0.00000000000E+00  0.00000000000E+00  0.23106053743E+04  0.23106053743E+04  0.00000000000E+00 0. -1.
         -1   -1    0    0    0  501 -0.00000000000E+00 -0.00000000000E+00 -0.66082625881E+03  0.66082625881E+03  0.00000000000E+00 0.  1.
         23    2    1    2    0    0 -0.46228124051E+03 -0.35286143972E+03  0.17987770704E+04  0.18926288349E+04  0.90718336985E+02 0.  0.
        254    2    1    2    0    0  0.46228124051E+03  0.35286143972E+03 -0.14899795491E+03  0.10788027982E+04  0.89632580345E+03 0.  0.
        -24    2    4    4    0    0  0.24817929675E+03 -0.12798929419E+03  0.27313316747E+03  0.39860877767E+03  0.79454437863E+02 0.  0.
         24    2    4    4    0    0  0.21410194376E+03  0.48085073391E+03 -0.42213112238E+03  0.68019402056E+03  0.86093847028E+02 0.  0.
         13    1    3    3    0    0 -0.46092973499E+03 -0.33870200768E+03  0.17753764741E+04  0.18652444600E+04  0.00000000000E+00 0. -1.
        -13    1    3    3    0    0 -0.13515055198E+01 -0.14159432045E+02  0.23400596290E+02  0.27384374920E+02  0.00000000000E+00 0.  1.
          2    1    6    6  502    0  0.34771402475E+02  0.15635700693E+03 -0.15790714364E+03  0.22492494316E+03  0.00000000000E+00 0. -1.
          1    1    5    5  503    0  0.25034288001E+03 -0.12634376229E+03  0.27681546546E+03  0.39403185881E+03  0.00000000000E+00 0. -1.
         -2    1    5    5    0  503 -0.21635832606E+01 -0.16455318965E+01 -0.36822979846E+01  0.45769188539E+01  0.00000000000E+00 0.  1.
         -1    1    6    6    0  502  0.17933054128E+03  0.32449372698E+03 -0.26422397875E+03  0.45526907740E+03  0.00000000000E+00 0.  1.
<mgrwt>
<rscale>  0 0.24713629E+04</rscale>
<asrwt>0</asrwt>
<pdfrwt beam="1">  1        1 0.35547775E+00 0.24713629E+04</pdfrwt>
<pdfrwt beam="2">  1       -1 0.10166558E+00 0.24713629E+04</pdfrwt>
<totfact> 0.14952372E+00</totfact>
</mgrwt>
</event>
<event>
12    1  0.1532786E-007  0.2465842E+04  0.7818608E-02  0.8415256E-01
         -1   -1    0    0    0  501 -0.00000000000E+00  0.00000000000E+00  0.39998792851E+03  0.39998792851E+03  0.00000000000E+00 0.  1.
          1   -1    0    0  501    0  0.00000000000E+00 -0.00000000000E+00 -0.38003504852E+04  0.38003504852E+04  0.00000000000E+00 0. -1.
         23    2    1    2    0    0  0.47000826551E+03 -0.27147621762E+02  0.15397436588E+03  0.50372827551E+03  0.91593161274E+02 0.  0.
        254    2    1    2    0    0 -0.47000826551E+03  0.27147621762E+02 -0.35543369226E+04  0.36966101382E+04  0.89998377300E+03 0.  0.
        -24    2    4    4    0    0 -0.48733079691E+03  0.38874891403E+03 -0.19007384865E+04  0.20019858569E+04  0.80768516101E+02 0.  0.
         24    2    4    4    0    0  0.17322531406E+02 -0.36160129227E+03 -0.16535984360E+04  0.16946242813E+04  0.79423563783E+02 0.  0.
         13    1    3    3    0    0  0.36367897720E+03 -0.59401201952E+02  0.11944927121E+03  0.38737453407E+03  0.00000000000E+00 0.  1.
        -13    1    3    3    0    0  0.10632928830E+03  0.32253580190E+02  0.34525094666E+02  0.11635374144E+03  0.00000000000E+00 0. -1.
          4    1    6    6  502    0  0.14068497244E+02 -0.18540296929E+03 -0.10279213034E+04  0.10446025032E+04  0.00000000000E+00 0. -1.
          1    1    5    5  503    0 -0.48647401486E+03  0.38133024441E+03 -0.18924067650E+04  0.19907970984E+04  0.00000000000E+00 0. -1.
         -2    1    5    5    0  503 -0.85678205108E+00  0.74186696275E+01 -0.83317215064E+01  0.11188758545E+02  0.00000000000E+00 0.  1.
         -3    1    6    6    0  502  0.32540341621E+01 -0.17619832298E+03 -0.62567713257E+03  0.65002177808E+03  0.00000000000E+00 0.  1.
<mgrwt>
<rscale>  0 0.24658421E+04</rscale>
<asrwt>0</asrwt>
<pdfrwt beam="1">  1        1 0.58466928E+00 0.24658421E+04</pdfrwt>
<pdfrwt beam="2">  1       -1 0.61536607E-01 0.24658421E+04</pdfrwt>
<totfact> 0.34062500E-01</totfact>
</mgrwt>
</event>
<event>
12    1  0.1532786E-007  0.2541657E+04  0.7818608E-02  0.8388293E-01
         -2   -1    0    0    0  501 -0.00000000000E+00  0.00000000000E+00  0.51980209296E+03  0.51980209296E+03  0.00000000000E+00 0. -1.
          2   -1    0    0  501    0  0.00000000000E+00 -0.00000000000E+00 -0.31069620104E+04  0.31069620104E+04  0.00000000000E+00 0.  1.
         23    2    1    2    0    0 -0.46510687171E+03  0.70599911454E+03 -0.10499887962E+03  0.85676352542E+03  0.90883562443E+02 0.  0.
        254    2    1    2    0    0  0.46510687171E+03 -0.70599911454E+03 -0.24821610379E+04  0.27700005780E+04  0.89276012025E+03 0.  0.
        -24    2    4    4    0    0  0.46300813367E+02  0.11493839040E+03 -0.10822669835E+04  0.10920606199E+04  0.77071234088E+02 0.  0.
         24    2    4    4    0    0  0.41880605835E+03 -0.82093750493E+03 -0.13998940544E+04  0.16779399581E+04  0.80263552646E+02 0.  0.
         13    1    3    3    0    0 -0.29684357317E+03  0.39256998751E+03 -0.92646140474E+02  0.50080995335E+03  0.00000000000E+00 0. -1.
        -13    1    3    3    0    0 -0.16826329854E+03  0.31342912703E+03 -0.12352739142E+02  0.35595357207E+03  0.00000000000E+00 0.  1.
          2    1    6    6  502    0 -0.33476985774E+01 -0.79062059341E+01 -0.18381751174E+02  0.20288024898E+02  0.00000000000E+00 0. -1.
          1    1    5    5  503    0 -0.19733889573E+02  0.10653653370E+02 -0.17866830177E+03  0.18007023293E+03  0.00000000000E+00 0. -1.
         -2    1    5    5    0  503  0.66034702940E+02  0.10428473703E+03 -0.90359868171E+03  0.91199038699E+03  0.00000000000E+00 0.  1.
         -1    1    6    6    0  502  0.42215375692E+03 -0.81303129900E+03 -0.13815123032E+04  0.16576519332E+04  0.00000000000E+00 0.  1.
<mgrwt>
<rscale>  0 0.25416572E+04</rscale>
<asrwt>0</asrwt>
<pdfrwt beam="1">  1        2 0.47799416E+00 0.25416572E+04</pdfrwt>
<pdfrwt beam="2">  1       -2 0.79969552E-01 0.25416572E+04</pdfrwt>
<totfact> 0.18319539E+00</totfact>
</mgrwt>
</event>
<event>
12    1  0.1532786E-007  0.1427484E+04  0.7818608E-02  0.8934161E-01
          1   -1    0    0  501    0  0.00000000000E+00  0.00000000000E+00  0.59224624351E+03  0.59224624351E+03  0.00000000000E+00 0. -1.
         -1   -1    0    0    0  501 -0.00000000000E+00 -0.00000000000E+00 -0.86016178445E+03  0.86016178445E+03  0.00000000000E+00 0.  1.
         23    2    1    2    0    0 -0.21300315923E+03  0.24579160421E+03 -0.35154241122E+03  0.48789912797E+03  0.93164551459E+02 0.  0.
        254    2    1    2    0    0  0.21300315923E+03 -0.24579160421E+03  0.83626870281E+02  0.96450889999E+03  0.90415712472E+03 0.  0.
        -24    2    4    4    0    0  0.27557798405E+03  0.37991905563E+02 -0.33845071783E+03  0.44549804413E+03  0.80827029757E+02 0.  0.
         24    2    4    4    0    0 -0.62574824827E+02 -0.28378350977E+03  0.42207758811E+03  0.51901085586E+03  0.82304854032E+02 0.  0.
         11    1    3    3    0    0 -0.70481557438E+02  0.12721274707E+03 -0.20615989292E+03  0.25229473717E+03  0.00000000000E+00 0.  1.
        -11    1    3    3    0    0 -0.14252160179E+03  0.11857885714E+03 -0.14538251830E+03  0.23560439080E+03  0.00000000000E+00 0. -1.
          2    1    6    6  502    0 -0.32150213628E+02 -0.26351933104E+03  0.37166915193E+03  0.45674285168E+03  0.00000000000E+00 0. -1.
          1    1    5    5  503    0  0.19264180386E+03  0.59497907464E+02 -0.26255769575E+03  0.33103989062E+03  0.00000000000E+00 0. -1.
         -2    1    5    5    0  503  0.82936180198E+02 -0.21506001902E+02 -0.75893022078E+02  0.11445815351E+03  0.00000000000E+00 0.  1.
         -1    1    6    6    0  502 -0.30424611199E+02 -0.20264178735E+02  0.50408436182E+02  0.62268004181E+02  0.00000000000E+00 0.  1.
<mgrwt>
<rscale>  0 0.14274839E+04</rscale>
<asrwt>0</asrwt>
<pdfrwt beam="1">  1        1 0.91114806E-01 0.14274839E+04</pdfrwt>
<pdfrwt beam="2">  1       -1 0.13233258E+00 0.14274839E+04</pdfrwt>
<totfact> 0.16464065E+01</totfact>
</mgrwt>
</event>
<event>
12    1  0.1532786E-007  0.2196714E+04  0.7818608E-02  0.8519797E-01
         -2   -1    0    0    0  501 -0.00000000000E+00  0.00000000000E+00  0.11786161599E+04  0.11786161599E+04  0.00000000000E+00 0.  1.
          2   -1    0    0  501    0  0.00000000000E+00 -0.00000000000E+00 -0.10235629336E+04  0.10235629336E+04  0.00000000000E+00 0. -1.
         23    2    1    2    0    0 -0.58189389015E+03  0.18699792710E+02  0.75799279008E+03  0.96001665616E+03  0.90159462321E+02 0.  0.
        254    2    1    2    0    0  0.58189389015E+03 -0.18699792710E+02 -0.60293956373E+03  0.12421624373E+04  0.91677762930E+03 0.  0.
        -24    2    4    4    0    0  0.47769725487E+02 -0.84365411265E+02  0.22061679877E+03  0.25442497258E+03  0.81613880445E+02 0.  0.
         24    2    4    4    0    0  0.53412416466E+03  0.65665618554E+02 -0.82355636250E+03  0.98773746476E+03  0.88202156024E+02 0.  0.
         11    1    3    3    0    0 -0.39080214306E+02 -0.59534912046E+00  0.20620173646E+02  0.44190600267E+02  0.00000000000E+00 0. -1.
        -11    1    3    3    0    0 -0.54281367584E+03  0.19295141831E+02  0.73737261643E+03  0.91582605589E+03  0.00000000000E+00 0.  1.
          4    1    6    6  502    0  0.26011255554E+03  0.36840860377E+02 -0.32284995228E+03  0.41623056379E+03  0.00000000000E+00 0. -1.
          3    1    5    5  503    0 -0.12122313540E+02 -0.61318912329E+02  0.11244316509E+03  0.12864845460E+03  0.00000000000E+00 0. -1.
         -4    1    5    5    0  503  0.59892039027E+02 -0.23046498935E+02  0.10817363368E+03  0.12577651798E+03  0.00000000000E+00 0.  1.
         -3    1    6    6    0  502  0.27401160912E+03  0.28824758178E+02 -0.50070641022E+03  0.57150690097E+03  0.00000000000E+00 0.  1.
<mgrwt>
<rscale>  0 0.21967137E+04</rscale>
<asrwt>0</asrwt>
<pdfrwt beam="1">  1        2 0.15747122E+00 0.21967137E+04</pdfrwt>
<pdfrwt beam="2">  1       -2 0.18132556E+00 0.21967137E+04</pdfrwt>
<totfact> 0.39485419E+00</totfact>
</mgrwt>
</event>
<event>
12    1  0.1532786E-007  0.1890178E+04  0.7818608E-02  0.8659761E-01
         -1   -1    0    0    0  501 -0.00000000000E+00  0.00000000000E+00  0.58289854295E+03  0.58289854295E+03  0.00000000000E+00 0.  1.
          1   -1    0    0  501    0  0.00000000000E+00 -0.00000000000E+00 -0.15323301799E+04  0.15323301799E+04  0.00000000000E+00 0. -1.
         23    2    1    2    0    0 -0.82926157607E+02  0.43808543329E+03 -0.10565331061E+04  0.11503890144E+04  0.91307642753E+02 0.  0.
        254    2    1    2    0    0  0.82926157607E+02 -0.43808543329E+03  0.10710146914E+03  0.96483970850E+03  0.84891068077E+03 0.  0.
        -24    2    4    4    0    0 -0.63065894349E+02 -0.11232237172E+03 -0.34899690225E+03  0.38013553252E+03  0.78170090744E+02 0.  0.
         24    2    4    4    0    0  0.14599205196E+03 -0.32576306157E+03  0.45609837139E+03  0.58470417598E+03  0.80112405427E+02 0.  0.
         13    1    3    3    0    0 -0.54905000107E+02  0.10411771561E+03 -0.32754584098E+03  0.34805363909E+03  0.00000000000E+00 0.  1.
        -13    1    3    3    0    0 -0.28021157500E+02  0.33396771769E+03 -0.72898726513E+03  0.80233537529E+03  0.00000000000E+00 0. -1.
          4    1    6    6  502    0  0.46900465568E+02 -0.52694439948E+02  0.54943766930E+02  0.89415743560E+02  0.00000000000E+00 0. -1.
          3    1    5    5  503    0 -0.13310802031E+02 -0.18245207192E+02 -0.97715922950E+01  0.24607906294E+02  0.00000000000E+00 0. -1.
         -4    1    5    5    0  503 -0.49755092318E+02 -0.94077164526E+02 -0.33922530995E+03  0.35552762623E+03  0.00000000000E+00 0.  1.
         -3    1    6    6    0  502  0.99091586388E+02 -0.27306862163E+03  0.40115460446E+03  0.49528843242E+03  0.00000000000E+00 0.  1.
<mgrwt>
<rscale>  0 0.18901778E+04</rscale>
<asrwt>0</asrwt>
<pdfrwt beam="1">  1        1 0.23574310E+00 0.18901778E+04</pdfrwt>
<pdfrwt beam="2">  1       -1 0.89676700E-01 0.18901778E+04</pdfrwt>
<totfact> 0.70831731E+00</totfact>
</mgrwt>
</event>
<event>
12    1  0.1532786E-007  0.1575331E+04  0.7818608E-02  0.8835848E-01
         -1   -1    0    0    0  501 -0.00000000000E+00  0.00000000000E+00  0.21388325703E+03  0.21388325703E+03  0.00000000000E+00 0.  1.
          1   -1    0    0  501    0  0.00000000000E+00 -0.00000000000E+00 -0.29007287302E+04  0.29007287302E+04  0.00000000000E+00 0. -1.
         23    2    1    2    0    0 -0.24169470971E+03 -0.28745140751E+03 -0.16273632901E+04  0.16727127507E+04  0.92800992177E+02 0.  0.
        254    2    1    2    0    0  0.24169470971E+03  0.28745140751E+03 -0.10594821831E+04  0.14418992365E+04  0.90306492986E+03 0.  0.
        -24    2    4    4    0    0 -0.30408482429E+02  0.12186896167E+03  0.13487760711E+03  0.20315343238E+03  0.85455418591E+02 0.  0.
         24    2    4    4    0    0  0.27210319214E+03  0.16558244585E+03 -0.11943597902E+04  0.12387458041E+04  0.80858921698E+02 0.  0.
         11    1    3    3    0    0 -0.18936251703E+03 -0.22844173467E+03 -0.10930089690E+04  0.11325689362E+04  0.00000000000E+00 0. -1.
        -11    1    3    3    0    0 -0.52332192681E+02 -0.59009672842E+02 -0.53435432109E+03  0.54014381450E+03  0.00000000000E+00 0.  1.
          2    1    6    6  502    0  0.18704413769E+03  0.68472537702E+02 -0.75230856008E+03  0.77823015068E+03  0.00000000000E+00 0. -1.
          3    1    5    5  503    0  0.61606743851E+01  0.62419434439E+02  0.11431342617E+03  0.13039056372E+03  0.00000000000E+00 0. -1.
         -4    1    5    5    0  503 -0.36569156814E+02  0.59449527228E+02  0.20564180939E+02  0.72762868659E+02  0.00000000000E+00 0.  1.
         -1    1    6    6    0  502  0.85059054450E+02  0.97109908145E+02 -0.44205123014E+03  0.46051565345E+03  0.00000000000E+00 0.  1.
<mgrwt>
<rscale>  0 0.15753315E+04</rscale>
<asrwt>0</asrwt>
<pdfrwt beam="1">  1        1 0.44626593E+00 0.15753315E+04</pdfrwt>
<pdfrwt beam="2">  1       -1 0.32905119E-01 0.15753315E+04</pdfrwt>
<totfact> 0.59052738E+00</totfact>
</mgrwt>
</event>
<event>
12    1  0.1532786E-007  0.2052789E+04  0.7818608E-02  0.8582330E-01
          1   -1    0    0  501    0  0.00000000000E+00  0.00000000000E+00  0.16179022795E+04  0.16179022795E+04  0.00000000000E+00 0. -1.
         -1   -1    0    0    0  501 -0.00000000000E+00 -0.00000000000E+00 -0.65114269439E+03  0.65114269439E+03  0.00000000000E+00 0.  1.
         23    2    1    2    0    0  0.36282858059E+03 -0.49599456590E+03  0.94651927903E+03  0.11322789230E+04  0.92204260362E+02 0.  0.
        254    2    1    2    0    0 -0.36282858059E+03  0.49599456590E+03  0.20240306101E+02  0.11367660509E+04  0.95612352558E+03 0.  0.
        -24    2    4    4    0    0 -0.17087271610E+03  0.35564022432E+03  0.47174545680E+03  0.62077316563E+03  0.84487235102E+02 0.  0.
         24    2    4    4    0    0 -0.19195586449E+03  0.14035434159E+03 -0.45150515070E+03  0.51599288526E+03  0.76454963304E+02 0.  0.
         11    1    3    3    0    0  0.11654920561E+02 -0.54537581201E+02  0.11005570139E+03  0.12337926222E+03  0.00000000000E+00 0.  1.
        -11    1    3    3    0    0  0.35117366003E+03 -0.44145698470E+03  0.83646357763E+03  0.10088996608E+04  0.00000000000E+00 0. -1.
          4    1    6    6  502    0 -0.26050452824E+01 -0.85211053845E+01 -0.16689378054E+02  0.18919060170E+02  0.00000000000E+00 0. -1.
          1    1    5    5  503    0 -0.22038408382E+02  0.33854843635E+02  0.16203728119E+02  0.43524736490E+02  0.00000000000E+00 0. -1.
         -2    1    5    5    0  503 -0.14883430772E+03  0.32178538068E+03  0.45554172868E+03  0.57724842914E+03  0.00000000000E+00 0.  1.
         -3    1    6    6    0  502 -0.18935081920E+03  0.14887544697E+03 -0.43481577265E+03  0.49707382509E+03  0.00000000000E+00 0.  1.
<mgrwt>
<rscale>  0 0.20527886E+04</rscale>
<asrwt>0</asrwt>
<pdfrwt beam="1">  1        1 0.24890804E+00 0.20527886E+04</pdfrwt>
<pdfrwt beam="2">  1       -1 0.10017580E+00 0.20527886E+04</pdfrwt>
<totfact> 0.47547166E+00</totfact>
</mgrwt>
</event>
<event>
12    1  0.1532786E-007  0.1705224E+04  0.7818608E-02  0.8758390E-01
         -1   -1    0    0    0  501 -0.00000000000E+00  0.00000000000E+00  0.45842044271E+03  0.45842044271E+03  0.00000000000E+00 0.  1.
          1   -1    0    0  501    0  0.00000000000E+00 -0.00000000000E+00 -0.15857661697E+04  0.15857661697E+04  0.00000000000E+00 0. -1.
         23    2    1    2    0    0 -0.13211788000E+03  0.12066816849E+03  0.29322157653E+03  0.35546097143E+03  0.91420283131E+02 0.  0.
        254    2    1    2    0    0  0.13211788000E+03 -0.12066816849E+03 -0.14205673035E+04  0.16887256410E+04  0.89541436531E+03 0.  0.
        -24    2    4    4    0    0  0.10820535959E+02  0.22161789091E+03 -0.16903384829E+02  0.23641976546E+03  0.79856167661E+02 0.  0.
         24    2    4    4    0    0  0.12129734404E+03 -0.34228605940E+03 -0.14036639187E+04  0.14523058755E+04  0.83947408060E+02 0.  0.
         11    1    3    3    0    0  0.95518200905E+01  0.14817826457E+02  0.69085570318E+01  0.18934978432E+02  0.00000000000E+00 0. -1.
        -11    1    3    3    0    0 -0.14166970009E+03  0.10585034203E+03  0.28631301949E+03  0.33652599300E+03  0.00000000000E+00 0.  1.
          2    1    6    6  502    0  0.21870400347E+02 -0.27505997659E+02 -0.24595888139E+03  0.24845656693E+03  0.00000000000E+00 0. -1.
          1    1    5    5  503    0  0.50735297494E+01  0.37483934944E+02  0.27687665075E+02  0.46876357371E+02  0.00000000000E+00 0. -1.
         -2    1    5    5    0  503  0.57470062098E+01  0.18413395597E+03 -0.44591049904E+02  0.18954340809E+03  0.00000000000E+00 0.  1.
         -1    1    6    6    0  502  0.99426943693E+02 -0.31478006174E+03 -0.11577050373E+04  0.12038493086E+04  0.00000000000E+00 0.  1.
<mgrwt>
<rscale>  0 0.17052245E+04</rscale>
<asrwt>0</asrwt>
<pdfrwt beam="1">  1        1 0.24396403E+00 0.17052245E+04</pdfrwt>
<pdfrwt beam="2">  1       -1 0.70526222E-01 0.17052245E+04</pdfrwt>
<totfact> 0.11028859E+01</totfact>
</mgrwt>
</event>
<event>
12    1  0.1532786E-007  0.1605536E+04  0.7818608E-02  0.8817154E-01
          1   -1    0    0  501    0  0.00000000000E+00  0.00000000000E+00  0.44720609325E+03  0.44720609325E+03  0.00000000000E+00 0. -1.
         -1   -1    0    0    0  501 -0.00000000000E+00 -0.00000000000E+00 -0.14410271410E+04  0.14410271410E+04  0.00000000000E+00 0.  1.
         23    2    1    2    0    0  0.12903830104E+03  0.36040731667E+03  0.11220950556E+03  0.40901503718E+03  0.90321705332E+02 0.  0.
        254    2    1    2    0    0 -0.12903830104E+03 -0.36040731667E+03 -0.11060305533E+04  0.14792181971E+04  0.90456540542E+03 0.  0.
        -24    2    4    4    0    0  0.37886367528E+03 -0.19738921747E+03 -0.59228195130E+03  0.73429085877E+03  0.76713543889E+02 0.  0.
         24    2    4    4    0    0 -0.50790197631E+03 -0.16301809920E+03 -0.51374860204E+03  0.74492733834E+03  0.80248333917E+02 0.  0.
         13    1    3    3    0    0  0.13111789089E+03  0.36353672151E+03  0.10434381928E+03  0.40029799128E+03  0.00000000000E+00 0. -1.
        -13    1    3    3    0    0 -0.20795898549E+01 -0.31294048370E+01  0.78656862800E+01  0.87170459018E+01  0.00000000000E+00 0.  1.
          4    1    6    6  502    0 -0.25502862821E+03 -0.60655131406E+02 -0.20396332235E+03  0.33214406970E+03  0.00000000000E+00 0. -1.
          3    1    5    5  503    0  0.32005637835E+03 -0.19552466656E+03 -0.51826049084E+03  0.63973425493E+03  0.00000000000E+00 0. -1.
         -4    1    5    5    0  503  0.58807296928E+02 -0.18645509091E+01 -0.74021460460E+02  0.94556603845E+02  0.00000000000E+00 0.  1.
         -3    1    6    6    0  502 -0.25287334811E+03 -0.10236296780E+03 -0.30978527969E+03  0.41278326864E+03  0.00000000000E+00 0.  1.
<mgrwt>
<rscale>  0 0.16055356E+04</rscale>
<asrwt>0</asrwt>
<pdfrwt beam="1">  1        1 0.68800937E-01 0.16055356E+04</pdfrwt>
<pdfrwt beam="2">  1       -1 0.22169649E+00 0.16055356E+04</pdfrwt>
<totfact> 0.53092665E+00</totfact>
</mgrwt>
</event>
<event>
12    1  0.1532786E-007  0.1744444E+04  0.7818608E-02  0.8736414E-01
          2   -1    0    0  501    0  0.00000000000E+00  0.00000000000E+00  0.24622746116E+04  0.24622746116E+04  0.00000000000E+00 0. -1.
         -2   -1    0    0    0  501 -0.00000000000E+00 -0.00000000000E+00 -0.30897099941E+03  0.30897099941E+03  0.00000000000E+00 0.  1.
         23    2    1    2    0    0 -0.13028834323E+02  0.54793400332E+03  0.28015219990E+03  0.62212419120E+03  0.90287494380E+02 0.  0.
        254    2    1    2    0    0  0.13028834323E+02 -0.54793400332E+03  0.18731514123E+04  0.21491214198E+04  0.89979177657E+03 0.  0.
        -24    2    4    4    0    0 -0.78826069162E+02  0.17144340991E+03  0.94993689832E+03  0.97166260495E+03  0.78369095201E+02 0.  0.
         24    2    4    4    0    0  0.91854903486E+02 -0.71937741323E+03  0.92321451396E+03  0.11774588148E+04  0.90238771709E+02 0.  0.
         11    1    3    3    0    0 -0.23819205573E+02  0.50661117932E+03  0.28017923068E+03  0.57941577720E+03  0.00000000000E+00 0.  1.
        -11    1    3    3    0    0  0.10790371249E+02  0.41322824006E+02 -0.27030778581E-01  0.42708413998E+02  0.00000000000E+00 0. -1.
          4    1    6    6  502    0  0.90586677918E+02 -0.67938838891E+03  0.83273207314E+03  0.10785254910E+04  0.00000000000E+00 0. -1.
          3    1    5    5  503    0 -0.78604241735E+02  0.10818310257E+03  0.51176523409E+03  0.52894788527E+03  0.00000000000E+00 0. -1.
         -4    1    5    5    0  503 -0.22182742713E+00  0.63260307345E+02  0.43817166422E+03  0.44271471968E+03  0.00000000000E+00 0.  1.
         -3    1    6    6    0  502  0.12682255672E+01 -0.39989024327E+02  0.90482440817E+02  0.98933323804E+02  0.00000000000E+00 0.  1.
<mgrwt>
<rscale>  0 0.17444443E+04</rscale>
<asrwt>0</asrwt>
<pdfrwt beam="1">  1        2 0.37881147E+00 0.17444443E+04</pdfrwt>
<pdfrwt beam="2">  1       -2 0.47534002E-01 0.17444443E+04</pdfrwt>
<totfact> 0.14576869E+01</totfact>
</mgrwt>
</event>
<event>
12    1  0.1532786E-007  0.1569688E+04  0.7818608E-02  0.8839389E-01
          2   -1    0    0  501    0  0.00000000000E+00  0.00000000000E+00  0.20851700213E+04  0.20851700213E+04  0.00000000000E+00 0. -1.
         -2   -1    0    0    0  501 -0.00000000000E+00 -0.00000000000E+00 -0.29541017081E+03  0.29541017081E+03  0.00000000000E+00 0.  1.
         23    2    1    2    0    0 -0.40465594324E+03 -0.26818049834E+03  0.63472179094E+03  0.80539315910E+03  0.10059411882E+03 0.  0.
        254    2    1    2    0    0  0.40465594324E+03  0.26818049834E+03  0.11550380595E+04  0.15751870330E+04  0.95469055605E+03 0.  0.
        -24    2    4    4    0    0  0.55925742733E+03  0.51752860249E+03  0.79655553074E+03  0.11051931558E+04  0.79664757574E+02 0.  0.
         24    2    4    4    0    0 -0.15460148409E+03 -0.24934810415E+03  0.35848252878E+03  0.46999387720E+03  0.79425595590E+02 0.  0.
         11    1    3    3    0    0 -0.16771768461E+03 -0.15264056525E+03  0.35305382609E+03  0.41961335537E+03  0.00000000000E+00 0.  1.
        -11    1    3    3    0    0 -0.23693825863E+03 -0.11553993309E+03  0.28166796485E+03  0.38577980373E+03  0.00000000000E+00 0. -1.
          2    1    6    6  502    0 -0.87272894323E+01  0.49206289111E+01  0.18865599662E+02  0.21360922740E+02  0.00000000000E+00 0. -1.
          1    1    5    5  503    0  0.95453647544E+02  0.12342551333E+03  0.13586011218E+03  0.20688940585E+03  0.00000000000E+00 0. -1.
         -2    1    5    5    0  503  0.46380377978E+03  0.39410308917E+03  0.66069541855E+03  0.89830374992E+03  0.00000000000E+00 0.  1.
         -1    1    6    6    0  502 -0.14587419465E+03 -0.25426873307E+03  0.33961692912E+03  0.44863295446E+03  0.00000000000E+00 0.  1.
<mgrwt>
<rscale>  0 0.15696884E+04</rscale>
<asrwt>0</asrwt>
<pdfrwt beam="1">  1        2 0.32079538E+00 0.15696884E+04</pdfrwt>
<pdfrwt beam="2">  1       -2 0.45447720E-01 0.15696884E+04</pdfrwt>
<totfact> 0.26441138E+01</totfact>
</mgrwt>
</event>
<event>
12    1  0.1532786E-007  0.1828183E+04  0.7818608E-02  0.8691454E-01
          2   -1    0    0  501    0  0.00000000000E+00  0.00000000000E+00  0.14466729443E+04  0.14466729443E+04  0.00000000000E+00 0. -1.
         -2   -1    0    0    0  501 -0.00000000000E+00 -0.00000000000E+00 -0.57757562051E+03  0.57757562051E+03  0.00000000000E+00 0.  1.
         23    2    1    2    0    0  0.67722486692E+03  0.91129953240E+02  0.18984021423E+03  0.71358944092E+03  0.78945516073E+02 0.  0.
        254    2    1    2    0    0 -0.67722486692E+03 -0.91129953240E+02  0.67925710959E+03  0.13106591239E+04  0.88853752280E+03 0.  0.
        -24    2    4    4    0    0  0.11805082912E+03  0.21027729661E+03  0.24403661939E+03  0.35202448897E+03  0.78834189929E+02 0.  0.
         24    2    4    4    0    0 -0.79527569603E+03 -0.30140724985E+03  0.43522049020E+03  0.95863463495E+03  0.79080498691E+02 0.  0.
         11    1    3    3    0    0  0.54423390595E+03  0.81837804645E+02  0.18344588699E+03  0.58012099092E+03  0.00000000000E+00 0.  1.
        -11    1    3    3    0    0  0.13299096097E+03  0.92921485958E+01  0.63943272397E+01  0.13346845000E+03  0.00000000000E+00 0. -1.
          2    1    6    6  502    0 -0.53750667371E+03 -0.19320865632E+03  0.33183520014E+03  0.66057369704E+03  0.00000000000E+00 0. -1.
          1    1    5    5  503    0  0.12990448272E+03  0.19454405291E+03  0.22738369916E+03  0.32622984198E+03  0.00000000000E+00 0. -1.
         -2    1    5    5    0  503 -0.11853653599E+02  0.15733243707E+02  0.16652920228E+02  0.25794646989E+02  0.00000000000E+00 0.  1.
         -1    1    6    6    0  502 -0.25776902232E+03 -0.10819859354E+03  0.10338529006E+03  0.29806093792E+03  0.00000000000E+00 0.  1.
<mgrwt>
<rscale>  0 0.18281827E+04</rscale>
<asrwt>0</asrwt>
<pdfrwt beam="1">  1        2 0.22256507E+00 0.18281827E+04</pdfrwt>
<pdfrwt beam="2">  1       -2 0.88857788E-01 0.18281827E+04</pdfrwt>
<totfact> 0.13953345E+01</totfact>
</mgrwt>
</event>
<event>
12    1  0.2731701E-007  0.1927648E+04  0.7818608E-02  0.8641215E-01
         -2   -1    0    0    0  501 -0.00000000000E+00  0.00000000000E+00  0.62329488830E+03  0.62329488830E+03  0.00000000000E+00 0. -1.
          2   -1    0    0  501    0  0.00000000000E+00 -0.00000000000E+00 -0.14903963146E+04  0.14903963146E+04  0.00000000000E+00 0.  1.
         23    2    1    2    0    0 -0.61137640584E+02  0.63144455458E+03  0.10214684892E+03  0.64875459921E+03  0.89378490916E+02 0.  0.
        254    2    1    2    0    0  0.61137640584E+02 -0.63144455458E+03 -0.96924827525E+03  0.14649366037E+04  0.89673686066E+03 0.  0.
        -24    2    4    4    0    0 -0.22990556172E+02  0.22069209605E+03 -0.25120106161E+03  0.34432452928E+03  0.78891325115E+02 0.  0.
         24    2    4    4    0    0  0.84128196756E+02 -0.85213665064E+03 -0.71804721364E+03  0.11206120745E+04  0.83457747068E+02 0.  0.
         13    1    3    3    0    0 -0.53170165710E+02  0.62587914817E+03  0.10808544167E+03  0.63736507382E+03  0.00000000000E+00 0. -1.
        -13    1    3    3    0    0 -0.79674748739E+01  0.55654064187E+01 -0.59385927587E+01  0.11389525382E+02  0.00000000000E+00 0.  1.
          2    1    6    6  502    0  0.57040726936E+02 -0.79360466097E+03 -0.65788189795E+03  0.10324100901E+04  0.00000000000E+00 0. -1.
          3    1    5    5  503    0 -0.84743050386E+01  0.19399830027E+03 -0.17167041794E+03  0.25918697257E+03  0.00000000000E+00 0. -1.
         -4    1    5    5    0  503 -0.14516251134E+02  0.26693795778E+02 -0.79530643671E+02  0.85137556712E+02  0.00000000000E+00 0.  1.
         -1    1    6    6    0  502  0.27087469820E+02 -0.58531989661E+02 -0.60165315696E+02  0.88201984375E+02  0.00000000000E+00 0.  1.
<mgrwt>
<rscale>  0 0.19276477E+04</rscale>
<asrwt>0</asrwt>
<pdfrwt beam="1">  1        2 0.22929174E+00 0.19276477E+04</pdfrwt>
<pdfrwt beam="2">  1       -2 0.95891522E-01 0.19276477E+04</pdfrwt>
<totfact> 0.10953626E+01</totfact>
</mgrwt>
</event>
<event>
12    1  0.1532786E-007  0.1644842E+04  0.7818608E-02  0.8793464E-01
         -1   -1    0    0    0  501 -0.00000000000E+00  0.00000000000E+00  0.28992399029E+03  0.28992399029E+03  0.00000000000E+00 0.  1.
          1   -1    0    0  501    0  0.00000000000E+00 -0.00000000000E+00 -0.23329435667E+04  0.23329435667E+04  0.00000000000E+00 0. -1.
         23    2    1    2    0    0  0.54076870532E+03  0.20196585371E+03 -0.74629908077E+03  0.94959963030E+03  0.10749949390E+03 0.  0.
        254    2    1    2    0    0 -0.54076870532E+03 -0.20196585371E+03 -0.12967204956E+04  0.16732679267E+04  0.88607026354E+03 0.  0.
        -24    2    4    4    0    0  0.66593762317E+02 -0.38779348472E+03 -0.36100716095E+03  0.53965545304E+03  0.77995652301E+02 0.  0.
         24    2    4    4    0    0 -0.60736246764E+03  0.18582763101E+03 -0.93571333465E+03  0.11336124736E+04  0.78081496714E+02 0.  0.
         13    1    3    3    0    0  0.67368128962E+02 -0.10537666531E+02 -0.81682943375E+02  0.10640305660E+03  0.00000000000E+00 0.  1.
        -13    1    3    3    0    0  0.47340057636E+03  0.21250352024E+03 -0.66461613740E+03  0.84319657370E+03  0.00000000000E+00 0. -1.
          2    1    6    6  502    0 -0.55557796381E+03  0.19034416269E+03 -0.87305983691E+03  0.10522030474E+04  0.00000000000E+00 0. -1.
          3    1    5    5  503    0  0.72109660589E+02 -0.19038717857E+03 -0.17870906681E+03  0.27089483472E+03  0.00000000000E+00 0. -1.
         -4    1    5    5    0  503 -0.55158982719E+01 -0.19740630614E+03 -0.18229809413E+03  0.26876061833E+03  0.00000000000E+00 0.  1.
         -1    1    6    6    0  502 -0.51784503826E+02 -0.45165316866E+01 -0.62653497744E+02  0.81409426202E+02  0.00000000000E+00 0.  1.
<mgrwt>
<rscale>  0 0.16448420E+04</rscale>
<asrwt>0</asrwt>
<pdfrwt beam="1">  1        1 0.35891440E+00 0.16448420E+04</pdfrwt>
<pdfrwt beam="2">  1       -1 0.44603690E-01 0.16448420E+04</pdfrwt>
<totfact> 0.84197309E+00</totfact>
</mgrwt>
</event>
<event>
12    1  0.1532786E-007  0.2262404E+04  0.7818608E-02  0.8492894E-01
          2   -1    0    0  501    0  0.00000000000E+00  0.00000000000E+00  0.23558989802E+04  0.23558989802E+04  0.00000000000E+00 0. -1.
         -2   -1    0    0    0  501 -0.00000000000E+00 -0.00000000000E+00 -0.54315470700E+03  0.54315470700E+03  0.00000000000E+00 0.  1.
         23    2    1    2    0    0 -0.66029297209E+03  0.30533649133E+02 -0.10693784458E+03  0.67546052562E+03  0.88837527816E+02 0.  0.
        254    2    1    2    0    0  0.66029297209E+03 -0.30533649133E+02  0.19196821177E+04  0.22235931615E+04  0.90678994376E+03 0.  0.
        -24    2    4    4    0    0  0.83665353359E+03 -0.14064255928E+03  0.17387273935E+04  0.19363087799E+04  0.79682352655E+02 0.  0.
         24    2    4    4    0    0 -0.17636056149E+03  0.11010891014E+03  0.18095472423E+03  0.28728438166E+03  0.80998049242E+02 0.  0.
         13    1    3    3    0    0 -0.50360479907E+03  0.14267271165E+02 -0.43655556583E+02  0.50569472638E+03  0.00000000000E+00 0.  1.
        -13    1    3    3    0    0 -0.15668817302E+03  0.16266377969E+02 -0.63282287995E+02  0.16976579924E+03  0.00000000000E+00 0. -1.
          2    1    6    6  502    0 -0.11427561863E+03  0.35835613149E+02  0.13391554112E+03  0.17965656219E+03  0.00000000000E+00 0. -1.
          1    1    5    5  503    0  0.74836871787E+03 -0.13208705600E+03  0.14974377165E+04  0.16792326948E+04  0.00000000000E+00 0. -1.
         -2    1    5    5    0  503  0.88284815721E+02 -0.85555032818E+01  0.24128967697E+03  0.25707608511E+03  0.00000000000E+00 0.  1.
         -1    1    6    6    0  502 -0.62084942862E+02  0.74273296996E+02  0.47039183110E+02  0.10762781947E+03  0.00000000000E+00 0.  1.
<mgrwt>
<rscale>  0 0.22624037E+04</rscale>
<asrwt>0</asrwt>
<pdfrwt beam="1">  1        2 0.36244599E+00 0.22624037E+04</pdfrwt>
<pdfrwt beam="2">  1       -2 0.83562264E-01 0.22624037E+04</pdfrwt>
<totfact> 0.47989507E+00</totfact>
</mgrwt>
</event>
<event>
12    1  0.1532786E-007  0.2367460E+04  0.7818608E-02  0.8451788E-01
         -2   -1    0    0    0  501 -0.00000000000E+00  0.00000000000E+00  0.51359821337E+03  0.51359821337E+03  0.00000000000E+00 0.  1.
          2   -1    0    0  501    0  0.00000000000E+00 -0.00000000000E+00 -0.27282343614E+04  0.27282343614E+04  0.00000000000E+00 0. -1.
         23    2    1    2    0    0 -0.90967282131E+01  0.26605977160E+03 -0.21840222719E+04  0.22021402856E+04  0.92725406651E+02 0.  0.
        254    2    1    2    0    0  0.90967282131E+01 -0.26605977160E+03 -0.30613876112E+02  0.10396922891E+04  0.10045657241E+04 0.  0.
        -24    2    4    4    0    0  0.48629682326E+03 -0.78778378827E+02  0.91053709367E+02  0.50726185697E+03  0.79581280841E+02 0.  0.
         24    2    4    4    0    0 -0.47720009505E+03 -0.18728139278E+03 -0.12166758548E+03  0.53243043212E+03  0.76713185901E+02 0.  0.
         11    1    3    3    0    0  0.28507088518E+02  0.19791475973E+03 -0.17270843917E+04  0.17386211210E+04  0.00000000000E+00 0. -1.
        -11    1    3    3    0    0 -0.37603816731E+02  0.68145011877E+02 -0.45693788014E+03  0.46351916463E+03  0.00000000000E+00 0.  1.
          2    1    6    6  502    0 -0.17385474052E+03 -0.37929663233E+02 -0.65837628570E+02  0.18973329568E+03  0.00000000000E+00 0. -1.
          3    1    5    5  503    0  0.34812759714E+03 -0.83321338355E+02  0.89630246170E+02  0.36901063717E+03  0.00000000000E+00 0. -1.
         -4    1    5    5    0  503  0.13816922612E+03  0.45429595282E+01  0.14234631974E+01  0.13825121980E+03  0.00000000000E+00 0.  1.
         -1    1    6    6    0  502 -0.30334535453E+03 -0.14935172954E+03 -0.55829956910E+02  0.34269713644E+03  0.00000000000E+00 0.  1.
<mgrwt>
<rscale>  0 0.23674596E+04</rscale>
<asrwt>0</asrwt>
<pdfrwt beam="1">  1        2 0.41972837E+00 0.23674596E+04</pdfrwt>
<pdfrwt beam="2">  1       -2 0.79015108E-01 0.23674596E+04</pdfrwt>
<totfact> 0.32737975E+00</totfact>
</mgrwt>
</event>
<event>
12    1  0.1532786E-007  0.2520361E+04  0.7818608E-02  0.8395768E-01
         -1   -1    0    0    0  501 -0.00000000000E+00  0.00000000000E+00  0.18200542570E+04  0.18200542570E+04  0.00000000000E+00 0.  1.
          1   -1    0    0  501    0  0.00000000000E+00 -0.00000000000E+00 -0.87253168006E+03  0.87253168006E+03  0.00000000000E+00 0. -1.
         23    2    1    2    0    0  0.10328087930E+04  0.22011503777E+03  0.94990216122E+02  0.10642720236E+04  0.92234300941E+02 0.  0.
        254    2    1    2    0    0 -0.10328087930E+04 -0.22011503777E+03  0.85253236079E+03  0.16283139135E+04  0.89969447143E+03 0.  0.
        -24    2    4    4    0    0 -0.35110246392E+03  0.82786355345E+02 -0.13047847640E+03  0.39166904515E+03  0.79078994215E+02 0.  0.
         24    2    4    4    0    0 -0.68170632906E+03 -0.30290139312E+03  0.98301083718E+03  0.12366448683E+04  0.80668775268E+02 0.  0.
         13    1    3    3    0    0  0.88832872223E+03  0.15615155019E+03  0.76466117672E+02  0.90518412078E+03  0.00000000000E+00 0. -1.
        -13    1    3    3    0    0  0.14448007075E+03  0.63963487583E+02  0.18524098450E+02  0.15908790278E+03  0.00000000000E+00 0.  1.
          2    1    6    6  502    0 -0.32080950932E+03 -0.18218415253E+03  0.45468460822E+03  0.58553215083E+03  0.00000000000E+00 0. -1.
          1    1    5    5  503    0 -0.74390263315E+02  0.36059978398E+02 -0.11621070540E+01  0.82677589533E+02  0.00000000000E+00 0. -1.
         -2    1    5    5    0  503 -0.27671220060E+03  0.46726376947E+02 -0.12931636934E+03  0.30899145562E+03  0.00000000000E+00 0.  1.
         -1    1    6    6    0  502 -0.36089681974E+03 -0.12071724058E+03  0.52832622896E+03  0.65111271749E+03  0.00000000000E+00 0.  1.
<mgrwt>
<rscale>  0 0.25203611E+04</rscale>
<asrwt>0</asrwt>
<pdfrwt beam="1">  1        1 0.13423564E+00 0.25203611E+04</pdfrwt>
<pdfrwt beam="2">  1       -1 0.28000835E+00 0.25203611E+04</pdfrwt>
<totfact> 0.75673051E-01</totfact>
</mgrwt>
</event>
<event>
12    1  0.1532786E-007  0.1174590E+04  0.7818608E-02  0.9135393E-01
          2   -1    0    0  501    0  0.00000000000E+00  0.00000000000E+00  0.15286315835E+04  0.15286315835E+04  0.00000000000E+00 0.  1.
         -2   -1    0    0    0  501 -0.00000000000E+00 -0.00000000000E+00 -0.22563683487E+03  0.22563683487E+03  0.00000000000E+00 0. -1.
         23    2    1    2    0    0 -0.12762480293E+03 -0.25352156978E+03  0.10743005430E+03  0.31747691944E+03  0.93215348192E+02 0.  0.
        254    2    1    2    0    0  0.12762480293E+03  0.25352156978E+03  0.11955646944E+04  0.14367914990E+04  0.74460297907E+03 0.  0.
        -24    2    4    4    0    0 -0.16352019268E+03 -0.11048444306E+03  0.77628884610E+03  0.80496095319E+03  0.79950597317E+02 0.  0.
         24    2    4    4    0    0  0.29114499561E+03  0.36400601284E+03  0.41927584826E+03  0.63183054578E+03  0.78433511921E+02 0.  0.
         13    1    3    3    0    0 -0.48587666559E+02 -0.86950296552E+02 -0.80437990045E+01  0.99929065414E+02  0.00000000000E+00 0. -1.
        -13    1    3    3    0    0 -0.79037136373E+02 -0.16657127323E+03  0.11547385331E+03  0.21754785402E+03  0.00000000000E+00 0.  1.
          2    1    6    6  502    0  0.48579130552E+02  0.21963530489E+02  0.49745379750E+02  0.72917291524E+02  0.00000000000E+00 0. -1.
          1    1    5    5  503    0 -0.10072909740E+03 -0.10830201484E+03  0.59445234734E+03  0.61257593059E+03  0.00000000000E+00 0. -1.
         -2    1    5    5    0  503 -0.62791095283E+02 -0.21824282176E+01  0.18183649876E+03  0.19238502260E+03  0.00000000000E+00 0.  1.
         -3    1    6    6    0  502  0.24256586506E+03  0.34204248235E+03  0.36953046851E+03  0.55891325426E+03  0.00000000000E+00 0.  1.
<mgrwt>
<rscale>  0 0.11745903E+04</rscale>
<asrwt>0</asrwt>
<pdfrwt beam="1">  1        2 0.23517408E+00 0.11745903E+04</pdfrwt>
<pdfrwt beam="2">  1       -2 0.34713360E-01 0.11745903E+04</pdfrwt>
<totfact> 0.94016352E+01</totfact>
</mgrwt>
</event>
<event>
12    1  0.1532786E-007  0.1263534E+04  0.7818608E-02  0.9058993E-01
         -2   -1    0    0    0  501 -0.00000000000E+00  0.00000000000E+00  0.12703351589E+03  0.12703351589E+03  0.00000000000E+00 0.  1.
          2   -1    0    0  501    0  0.00000000000E+00 -0.00000000000E+00 -0.31419242677E+04  0.31419242677E+04  0.00000000000E+00 0. -1.
         23    2    1    2    0    0  0.10844383044E+03  0.25604256463E+03 -0.11303187131E+04  0.11673813750E+04  0.88549546606E+02 0.  0.
        254    2    1    2    0    0 -0.10844383044E+03 -0.25604256463E+03 -0.18845720387E+04  0.21015764086E+04  0.88752113939E+03 0.  0.
        -24    2    4    4    0    0 -0.26212724164E+03 -0.36858131975E+03 -0.41930655006E+03  0.62184365688E+03  0.79427140170E+02 0.  0.
         24    2    4    4    0    0  0.15368341120E+03  0.11253875512E+03 -0.14652654887E+04  0.14797327517E+04  0.79514162444E+02 0.  0.
         11    1    3    3    0    0  0.54337292064E+02  0.12293022472E+03 -0.37119669527E+03  0.39478015153E+03  0.00000000000E+00 0.  1.
        -11    1    3    3    0    0  0.54106538379E+02  0.13311233991E+03 -0.75912201780E+03  0.77260122343E+03  0.00000000000E+00 0. -1.
          4    1    6    6  502    0  0.31627239709E+02  0.19784433068E+01 -0.10923620974E+03  0.11373981733E+03  0.00000000000E+00 0. -1.
          1    1    5    5  503    0 -0.47779604939E+02 -0.12940736269E+03 -0.13175674734E+03  0.19075900146E+03  0.00000000000E+00 0. -1.
         -2    1    5    5    0  503 -0.21434763670E+03 -0.23917395706E+03 -0.28754980271E+03  0.43108465542E+03  0.00000000000E+00 0.  1.
         -3    1    6    6    0  502  0.12205617149E+03  0.11056031181E+03 -0.13560292789E+04  0.13659929344E+04  0.00000000000E+00 0.  1.
<mgrwt>
<rscale>  0 0.12635342E+04</rscale>
<asrwt>0</asrwt>
<pdfrwt beam="1">  1        2 0.48337295E+00 0.12635342E+04</pdfrwt>
<pdfrwt beam="2">  1       -2 0.19543618E-01 0.12635342E+04</pdfrwt>
<totfact> 0.31401444E+01</totfact>
</mgrwt>
</event>
<event>
12    1  0.1532786E-007  0.2756783E+04  0.7818608E-02  0.8316813E-01
          1   -1    0    0  501    0  0.00000000000E+00  0.00000000000E+00  0.15014871934E+04  0.15014871934E+04  0.00000000000E+00 0. -1.
         -1   -1    0    0    0  501 -0.00000000000E+00 -0.00000000000E+00 -0.12653870571E+04  0.12653870571E+04  0.00000000000E+00 0.  1.
         23    2    1    2    0    0  0.75105314199E+03 -0.76485752081E+03 -0.49279295507E+03  0.11828665940E+04  0.85091912168E+02 0.  0.
        254    2    1    2    0    0 -0.75105314199E+03  0.76485752081E+03  0.72889309138E+03  0.15840076565E+04  0.91033360255E+03 0.  0.
        -24    2    4    4    0    0 -0.47585799640E+01 -0.29516901296E+02 -0.15638804514E+03  0.17757878861E+03  0.78632779134E+02 0.  0.
         24    2    4    4    0    0 -0.74629456203E+03  0.79437442210E+03  0.88528113653E+03  0.14064288679E+04  0.79581240981E+02 0.  0.
         11    1    3    3    0    0  0.59403260184E+01 -0.13286229740E+02 -0.17366549115E+02  0.22658517208E+02  0.00000000000E+00 0. -1.
        -11    1    3    3    0    0  0.74511281598E+03 -0.75157129107E+03 -0.47542640595E+03  0.11602080768E+04  0.00000000000E+00 0.  1.
          2    1    6    6  502    0 -0.39891686878E+03  0.40307790434E+03  0.50788092141E+03  0.76128148243E+03  0.00000000000E+00 0. -1.
          1    1    5    5  503    0  0.14581063610E+02  0.23308699283E+02 -0.59468849812E+02  0.65516768665E+02  0.00000000000E+00 0. -1.
         -2    1    5    5    0  503 -0.19339643574E+02 -0.52825600579E+02 -0.96919195333E+02  0.11206201994E+03  0.00000000000E+00 0.  1.
         -1    1    6    6    0  502 -0.34737769325E+03  0.39129651777E+03  0.37740021512E+03  0.64514738545E+03  0.00000000000E+00 0.  1.
<mgrwt>
<rscale>  0 0.27567825E+04</rscale>
<asrwt>0</asrwt>
<pdfrwt beam="1">  1        1 0.23099803E+00 0.27567825E+04</pdfrwt>
<pdfrwt beam="2">  1       -1 0.19467493E+00 0.27567825E+04</pdfrwt>
<totfact> 0.92931996E-01</totfact>
</mgrwt>
</event>
<event>
12    1  0.1532786E-007  0.1251894E+04  0.7818608E-02  0.9068609E-01
         -1   -1    0    0    0  501 -0.00000000000E+00  0.00000000000E+00  0.43303692729E+03  0.43303692729E+03  0.00000000000E+00 0.  1.
          1   -1    0    0  501    0  0.00000000000E+00 -0.00000000000E+00 -0.90479451001E+03  0.90479451001E+03  0.00000000000E+00 0. -1.
         23    2    1    2    0    0  0.21352813472E+03  0.18024143977E+03 -0.23970042357E+03  0.38033803365E+03  0.95495999133E+02 0.  0.
        254    2    1    2    0    0 -0.21352813472E+03 -0.18024143977E+03 -0.23205715915E+03  0.95749340365E+03  0.88592429247E+03 0.  0.
        -24    2    4    4    0    0 -0.19243306706E+03  0.31464253038E+03 -0.25583235846E+03  0.45542714549E+03  0.77027800137E+02 0.  0.
         24    2    4    4    0    0 -0.21095067668E+02 -0.49488397015E+03  0.23775199308E+02  0.50206625816E+03  0.78422711533E+02 0.  0.
         11    1    3    3    0    0  0.35876428168E+02  0.70482810354E+01 -0.18028243719E+01  0.36606646109E+02  0.00000000000E+00 0.  1.
        -11    1    3    3    0    0  0.17765170656E+03  0.17319315873E+03 -0.23789759920E+03  0.34373138754E+03  0.00000000000E+00 0. -1.
          2    1    6    6  502    0 -0.19204505643E+02 -0.47523979347E+02 -0.13928279139E+02  0.53116274434E+02  0.00000000000E+00 0. -1.
          3    1    5    5  503    0  0.33933529811E+01 -0.10405370371E+01 -0.82907734426E+01  0.90185634142E+01  0.00000000000E+00 0. -1.
         -4    1    5    5    0  503 -0.19582642004E+03  0.31568306742E+03 -0.24754158501E+03  0.44640858208E+03  0.00000000000E+00 0.  1.
         -1    1    6    6    0  502 -0.18905620246E+01 -0.44735999080E+03  0.37703478447E+02  0.44894998372E+03  0.00000000000E+00 0.  1.
<mgrwt>
<rscale>  0 0.12518937E+04</rscale>
<asrwt>0</asrwt>
<pdfrwt beam="1">  1        1 0.13919915E+00 0.12518937E+04</pdfrwt>
<pdfrwt beam="2">  1       -1 0.66621066E-01 0.12518937E+04</pdfrwt>
<totfact> 0.40597828E+01</totfact>
</mgrwt>
</event>
<event>
12    1  0.1532786E-007  0.2841965E+04  0.7818608E-02  0.8290357E-01
          1   -1    0    0  501    0  0.00000000000E+00  0.00000000000E+00  0.15125237137E+04  0.15125237137E+04  0.00000000000E+00 0. -1.
         -1   -1    0    0    0  501 -0.00000000000E+00 -0.00000000000E+00 -0.13349816701E+04  0.13349816701E+04  0.00000000000E+00 0.  1.
         23    2    1    2    0    0 -0.15771306117E+03 -0.27298070332E+03  0.13236589613E+04  0.13649299258E+04  0.10755827444E+03 0.  0.
        254    2    1    2    0    0  0.15771306117E+03  0.27298070332E+03 -0.11461169177E+04  0.14825754580E+04  0.88603280157E+03 0.  0.
        -24    2    4    4    0    0  0.21707675588E+03  0.42581287730E+03 -0.11988241332E+04  0.12931065386E+04  0.80661598176E+02 0.  0.
         24    2    4    4    0    0 -0.59363694713E+02 -0.15283217398E+03  0.52707215422E+02  0.18946891942E+03  0.78985436737E+02 0.  0.
         11    1    3    3    0    0 -0.14364115233E+03 -0.18820252811E+03  0.11030775464E+04  0.11281990274E+04  0.00000000000E+00 0. -1.
        -11    1    3    3    0    0 -0.14071908837E+02 -0.84778175211E+02  0.22058141494E+03  0.23673089833E+03  0.00000000000E+00 0.  1.
          4    1    6    6  502    0  0.14045138810E+02 -0.42817663470E+02 -0.46659175185E+01  0.45303300272E+02  0.00000000000E+00 0. -1.
          3    1    5    5  503    0  0.82343346381E+02  0.21288760907E+03 -0.48274854230E+03  0.53399224328E+03  0.00000000000E+00 0. -1.
         -4    1    5    5    0  503  0.13473340950E+03  0.21292526823E+03 -0.71607559087E+03  0.75911429529E+03  0.00000000000E+00 0.  1.
         -3    1    6    6    0  502 -0.73408833523E+02 -0.11001451051E+03  0.57373132940E+02  0.14416561915E+03  0.00000000000E+00 0.  1.
<mgrwt>
<rscale>  0 0.28419651E+04</rscale>
<asrwt>0</asrwt>
<pdfrwt beam="1">  1        1 0.23269596E+00 0.28419651E+04</pdfrwt>
<pdfrwt beam="2">  1       -1 0.20538180E+00 0.28419651E+04</pdfrwt>
<totfact> 0.76456732E-01</totfact>
</mgrwt>
</event>
<event>
12    1  0.1532786E-007  0.1577226E+04  0.7818608E-02  0.8834663E-01
          2   -1    0    0  501    0  0.00000000000E+00  0.00000000000E+00  0.19141723191E+04  0.19141723191E+04  0.00000000000E+00 0. -1.
         -2   -1    0    0    0  501 -0.00000000000E+00 -0.00000000000E+00 -0.32489774070E+03  0.32489774070E+03  0.00000000000E+00 0.  1.
         23    2    1    2    0    0 -0.33368962938E+02 -0.35511508190E+03 -0.11874008263E+02  0.36763011503E+03  0.88264943932E+02 0.  0.
        254    2    1    2    0    0  0.33368962938E+02  0.35511508190E+03  0.16011485867E+04  0.18714399448E+04  0.90077214726E+03 0.  0.
        -24    2    4    4    0    0  0.17538803854E+03 -0.85803439410E+02  0.12914723045E+04  0.13086289254E+04  0.80534196300E+02 0.  0.
         24    2    4    4    0    0 -0.14201907560E+03  0.44091852131E+03  0.30967628223E+03  0.56281101946E+03  0.79235620674E+02 0.  0.
         13    1    3    3    0    0 -0.35394247245E+02 -0.22630718582E+03 -0.47583815757E+02  0.23394852984E+03  0.00000000000E+00 0.  1.
        -13    1    3    3    0    0  0.20252843065E+01 -0.12880789608E+03  0.35709807493E+02  0.13368158520E+03  0.00000000000E+00 0. -1.
          4    1    6    6  502    0 -0.98501256570E+01  0.11858529243E+02  0.30385709969E+02  0.34072585191E+02  0.00000000000E+00 0. -1.
          1    1    5    5  503    0  0.96207720259E+02 -0.36045888043E+02  0.43034922370E+03  0.44244286165E+03  0.00000000000E+00 0. -1.
         -2    1    5    5    0  503  0.79180318279E+02 -0.49757551367E+02  0.86112308078E+03  0.86618606371E+03  0.00000000000E+00 0.  1.
         -3    1    6    6    0  502 -0.13216894994E+03  0.42905999207E+03  0.27929057226E+03  0.52873843427E+03  0.00000000000E+00 0.  1.
<mgrwt>
<rscale>  0 0.15772257E+04</rscale>
<asrwt>0</asrwt>
<pdfrwt beam="1">  1        2 0.29448804E+00 0.15772257E+04</pdfrwt>
<pdfrwt beam="2">  1       -2 0.49984269E-01 0.15772257E+04</pdfrwt>
<totfact> 0.27127446E+01</totfact>
</mgrwt>
</event>
<event>
12    1  0.1532786E-007  0.3571830E+04  0.7818608E-02  0.8096975E-01
          2   -1    0    0  501    0  0.00000000000E+00  0.00000000000E+00  0.20824694574E+04  0.20824694574E+04  0.00000000000E+00 0.  1.
         -2   -1    0    0    0  501 -0.00000000000E+00 -0.00000000000E+00 -0.15315912853E+04  0.15315912853E+04  0.00000000000E+00 0. -1.
         23    2    1    2    0    0 -0.16262855738E+04  0.10124674275E+03 -0.12510997978E+03  0.16367965633E+04  0.91623207245E+02 0.  0.
        254    2    1    2    0    0  0.16262855738E+04 -0.10124674275E+03  0.67598815183E+03  0.19772641794E+04  0.89306101883E+03 0.  0.
        -24    2    4    4    0    0  0.17143427275E+04 -0.68255636603E+02  0.55664197679E+03  0.18054759737E+04  0.79141531390E+02 0.  0.
         24    2    4    4    0    0 -0.88057153765E+02 -0.32991106144E+02  0.11934617504E+03  0.17178820567E+03  0.80157362096E+02 0.  0.
         13    1    3    3    0    0 -0.77970501716E+03  0.66219603520E+02 -0.17712383845E+02  0.78271238537E+03  0.00000000000E+00 0.  1.
        -13    1    3    3    0    0 -0.84658055660E+03  0.35027139227E+02 -0.10739759594E+03  0.85408417789E+03  0.00000000000E+00 0. -1.
          4    1    6    6  502    0 -0.55868738112E+02 -0.11136952194E+02  0.12838191412E+02  0.58396633131E+02  0.00000000000E+00 0. -1.
          3    1    5    5  503    0  0.15192581679E+04 -0.36659429367E+02  0.48378028912E+03  0.15948456548E+04  0.00000000000E+00 0. -1.
         -4    1    5    5    0  503  0.19508455959E+03 -0.31596207236E+02  0.72861687668E+02  0.21063031888E+03  0.00000000000E+00 0.  1.
         -3    1    6    6    0  502 -0.32188415653E+02 -0.21854153950E+02  0.10650798363E+03  0.11339157254E+03  0.00000000000E+00 0.  1.
<mgrwt>
<rscale>  0 0.35718298E+04</rscale>
<asrwt>0</asrwt>
<pdfrwt beam="1">  1        2 0.32037992E+00 0.35718298E+04</pdfrwt>
<pdfrwt beam="2">  1       -2 0.23562943E+00 0.35718298E+04</pdfrwt>
<totfact> 0.38715538E-01</totfact>
</mgrwt>
</event>
<event>
12    1  0.1532786E-007  0.1279240E+04  0.7818608E-02  0.9046192E-01
          1   -1    0    0  501    0  0.00000000000E+00  0.00000000000E+00  0.29100000483E+03  0.29100000483E+03  0.00000000000E+00 0. -1.
         -1   -1    0    0    0  501 -0.00000000000E+00 -0.00000000000E+00 -0.14058900775E+04  0.14058900775E+04  0.00000000000E+00 0.  1.
         23    2    1    2    0    0 -0.11816869208E+03 -0.12107306371E+03 -0.63985792795E+03  0.66769788145E+03  0.88202983975E+02 0.  0.
        254    2    1    2    0    0  0.11816869208E+03  0.12107306371E+03 -0.47503214471E+03  0.10291922009E+04  0.89719480676E+03 0.  0.
        -24    2    4    4    0    0  0.47011532230E+03  0.23655150876E+03 -0.31605579035E+03  0.61859845150E+03  0.76208588919E+02 0.  0.
         24    2    4    4    0    0 -0.35194663023E+03 -0.11547844504E+03 -0.15897635436E+03  0.41059374937E+03  0.78179562418E+02 0.  0.
         13    1    3    3    0    0 -0.65105121037E+02 -0.66492208230E+02 -0.19138273818E+03  0.21280799565E+03  0.00000000000E+00 0. -1.
        -13    1    3    3    0    0 -0.53063571040E+02 -0.54580855482E+02 -0.44847518977E+03  0.45488988580E+03  0.00000000000E+00 0.  1.
          4    1    6    6  502    0 -0.33226691127E+03 -0.10885718147E+03 -0.12605873832E+03  0.37167457781E+03  0.00000000000E+00 0. -1.
          1    1    5    5  503    0  0.33692742655E+03  0.19857112346E+03 -0.25739088436E+03  0.46818868972E+03  0.00000000000E+00 0. -1.
         -2    1    5    5    0  503  0.13318789576E+03  0.37980385297E+02 -0.58664905987E+02  0.15040976178E+03  0.00000000000E+00 0.  1.
         -3    1    6    6    0  502 -0.19679718959E+02 -0.66212635747E+01 -0.32917616038E+02  0.38919171564E+02  0.00000000000E+00 0.  1.
<mgrwt>
<rscale>  0 0.12792404E+04</rscale>
<asrwt>0</asrwt>
<pdfrwt beam="1">  1        1 0.44769231E-01 0.12792404E+04</pdfrwt>
<pdfrwt beam="2">  1       -1 0.21629078E+00 0.12792404E+04</pdfrwt>
<totfact> 0.10468303E+01</totfact>
</mgrwt>
</event>
<event>
12    1  0.1532786E-007  0.1357066E+04  0.7818608E-02  0.8985497E-01
         -1   -1    0    0    0  501 -0.00000000000E+00  0.00000000000E+00  0.34341429508E+03  0.34341429508E+03  0.00000000000E+00 0.  1.
          1   -1    0    0  501    0  0.00000000000E+00 -0.00000000000E+00 -0.13406744648E+04  0.13406744648E+04  0.00000000000E+00 0. -1.
         23    2    1    2    0    0  0.12723290266E+03 -0.81510643457E+01  0.15622097430E+03  0.22134002895E+03  0.91278498205E+02 0.  0.
        254    2    1    2    0    0 -0.12723290266E+03  0.81510643457E+01 -0.11534811440E+04  0.14627487309E+04  0.89042711598E+03 0.  0.
        -24    2    4    4    0    0 -0.45205879012E+03 -0.19175557267E+03 -0.76715943557E+03  0.91432961044E+03  0.79609594660E+02 0.  0.
         24    2    4    4    0    0  0.32482588745E+03  0.19990663702E+03 -0.38632170845E+03  0.54841912050E+03  0.77746695288E+02 0.  0.
         13    1    3    3    0    0  0.12617524643E+03  0.11905706193E+02  0.99376394274E+02  0.16105156439E+03  0.00000000000E+00 0.  1.
        -13    1    3    3    0    0  0.10576562296E+01 -0.20056770539E+02  0.56844580025E+02  0.60288464563E+02  0.00000000000E+00 0. -1.
          2    1    6    6  502    0  0.29464998742E+03  0.14927365876E+03 -0.32666510812E+03  0.46455498399E+03  0.00000000000E+00 0. -1.
          1    1    5    5  503    0 -0.39884984196E+03 -0.14006873424E+03 -0.63672924359E+03  0.76428043046E+03  0.00000000000E+00 0. -1.
         -2    1    5    5    0  503 -0.53208948159E+02 -0.51686838433E+02 -0.13043019198E+03  0.15004917998E+03  0.00000000000E+00 0.  1.
         -1    1    6    6    0  502  0.30175900035E+02  0.50632978258E+02 -0.59656600328E+02  0.83864136512E+02  0.00000000000E+00 0.  1.
<mgrwt>
<rscale>  0 0.13570656E+04</rscale>
<asrwt>0</asrwt>
<pdfrwt beam="1">  1        1 0.20625761E+00 0.13570656E+04</pdfrwt>
<pdfrwt beam="2">  1       -1 0.52832969E-01 0.13570656E+04</pdfrwt>
<totfact> 0.29890402E+01</totfact>
</mgrwt>
</event>
<event>
12    1  0.1532786E-007  0.1348556E+04  0.7818608E-02  0.8991922E-01
         -2   -1    0    0    0  501 -0.00000000000E+00  0.00000000000E+00  0.52421252750E+03  0.52421252750E+03  0.00000000000E+00 0. -1.
          2   -1    0    0  501    0  0.00000000000E+00 -0.00000000000E+00 -0.86730261173E+03  0.86730261173E+03  0.00000000000E+00 0.  1.
         23    2    1    2    0    0 -0.95209728196E+02  0.35311498269E+03 -0.85228596010E+01  0.37727317761E+03  0.92235178002E+02 0.  0.
        254    2    1    2    0    0  0.95209728196E+02 -0.35311498269E+03 -0.33456722463E+03  0.10142419616E+04  0.88487086379E+03 0.  0.
        -24    2    4    4    0    0  0.16927717118E+02  0.12815491127E+03 -0.47647885575E+03  0.50032832893E+03  0.81154838790E+02 0.  0.
         24    2    4    4    0    0  0.78282011078E+02 -0.48126989397E+03  0.14191163112E+03  0.51391363270E+03  0.78863976168E+02 0.  0.
         11    1    3    3    0    0 -0.98510627824E+02  0.29046762101E+03  0.22003687819E+02  0.30750600796E+03  0.00000000000E+00 0.  1.
        -11    1    3    3    0    0  0.33008996290E+01  0.62647361679E+02 -0.30526547420E+02  0.69767169651E+02  0.00000000000E+00 0. -1.
          4    1    6    6  502    0  0.63635395243E+02 -0.42395031288E+03  0.15003808175E+03  0.45419682660E+03  0.00000000000E+00 0. -1.
          3    1    5    5  503    0  0.28739753489E+02  0.10605166352E+03 -0.45247832371E+03  0.46562813724E+03  0.00000000000E+00 0. -1.
         -4    1    5    5    0  503 -0.11812036371E+02  0.22103247757E+02 -0.24000532039E+02  0.34700191682E+02  0.00000000000E+00 0.  1.
         -1    1    6    6    0  502  0.14646615835E+02 -0.57319581086E+02 -0.81264506346E+01  0.59716806104E+02  0.00000000000E+00 0.  1.
<mgrwt>
<rscale>  0 0.13485561E+04</rscale>
<asrwt>0</asrwt>
<pdfrwt beam="1">  1        2 0.13343117E+00 0.13485561E+04</pdfrwt>
<pdfrwt beam="2">  1       -2 0.80648083E-01 0.13485561E+04</pdfrwt>
<totfact> 0.40951023E+01</totfact>
</mgrwt>
</event>
<event>
12    1  0.1532786E-007  0.1197639E+04  0.7818608E-02  0.9114926E-01
          2   -1    0    0  501    0  0.00000000000E+00  0.00000000000E+00  0.12599689905E+04  0.12599689905E+04  0.00000000000E+00 0. -1.
         -2   -1    0    0    0  501 -0.00000000000E+00 -0.00000000000E+00 -0.28459812645E+03  0.28459812645E+03  0.00000000000E+00 0.  1.
         23    2    1    2    0    0 -0.13790704217E+03  0.40477747934E+02  0.47720676258E+03  0.50694196287E+03  0.92774237304E+02 0.  0.
        254    2    1    2    0    0  0.13790704217E+03 -0.40477747934E+02  0.49816410148E+03  0.10376251541E+04  0.89880013798E+03 0.  0.
        -24    2    4    4    0    0 -0.20242279057E+03  0.32992842755E+03  0.27288338270E+03  0.48079661153E+03  0.82899262097E+02 0.  0.
         24    2    4    4    0    0  0.34032983275E+03 -0.37040617549E+03  0.22528071878E+03  0.55682854255E+03  0.79255874558E+02 0.  0.
         11    1    3    3    0    0 -0.99862600293E+02  0.65569109497E+02  0.27788148444E+03  0.30247308385E+03  0.00000000000E+00 0. -1.
        -11    1    3    3    0    0 -0.38044441881E+02 -0.25091361564E+02  0.19932527814E+03  0.20446887902E+03  0.00000000000E+00 0.  1.
          2    1    6    6  502    0  0.31342481050E+03 -0.36273723063E+03  0.22312072296E+03  0.52876863309E+03  0.00000000000E+00 0. -1.
          3    1    5    5  503    0 -0.18786496581E+03  0.33164453607E+03  0.26151112069E+03  0.46224388577E+03  0.00000000000E+00 0. -1.
         -4    1    5    5    0  503 -0.14557824759E+02 -0.17161085138E+01  0.11372262008E+02  0.18552725766E+02  0.00000000000E+00 0.  1.
         -1    1    6    6    0  502  0.26905022246E+02 -0.76689448535E+01  0.21599958220E+01  0.28059909465E+02  0.00000000000E+00 0.  1.
<mgrwt>
<rscale>  0 0.11976390E+04</rscale>
<asrwt>0</asrwt>
<pdfrwt beam="1">  1        2 0.19384138E+00 0.11976390E+04</pdfrwt>
<pdfrwt beam="2">  1       -2 0.43784328E-01 0.11976390E+04</pdfrwt>
<totfact> 0.85140852E+01</totfact>
</mgrwt>
</event>
<event>
12    1  0.1532786E-007  0.1535624E+04  0.7818608E-02  0.8861103E-01
          2   -1    0    0  501    0  0.00000000000E+00  0.00000000000E+00  0.10537728443E+04  0.10537728443E+04  0.00000000000E+00 0. -1.
         -2   -1    0    0    0  501 -0.00000000000E+00 -0.00000000000E+00 -0.55945208315E+03  0.55945208315E+03  0.00000000000E+00 0.  1.
         23    2    1    2    0    0  0.42442110404E+03 -0.21960452842E+03  0.11304077401E+03  0.49966403433E+03  0.92339093365E+02 0.  0.
        254    2    1    2    0    0 -0.42442110404E+03  0.21960452842E+03  0.38127998715E+03  0.11135608931E+04  0.93074379486E+03 0.  0.
        -24    2    4    4    0    0 -0.18841314933E+03  0.18868680840E+03 -0.28662892352E+03  0.39988755151E+03  0.81557878524E+02 0.  0.
         24    2    4    4    0    0 -0.23600795470E+03  0.30917720022E+02  0.66790891067E+03  0.71367334163E+03  0.81065809747E+02 0.  0.
         13    1    3    3    0    0  0.13866396348E+02 -0.32453447546E+02  0.43565315438E+01  0.35559563726E+02  0.00000000000E+00 0. -1.
        -13    1    3    3    0    0  0.41055470769E+03 -0.18715108087E+03  0.10868424247E+03  0.46410447061E+03  0.00000000000E+00 0.  1.
          4    1    6    6  502    0 -0.46959175458E+02  0.30845681743E+02  0.94903169426E+02  0.11028704280E+03  0.00000000000E+00 0. -1.
          1    1    5    5  503    0 -0.86639532807E+02  0.72111964927E+02 -0.17846424153E+03  0.21108299229E+03  0.00000000000E+00 0. -1.
         -2    1    5    5    0  503 -0.10177361652E+03  0.11657484347E+03 -0.10816468199E+03  0.18880455921E+03  0.00000000000E+00 0.  1.
         -3    1    6    6    0  502 -0.18904877925E+03  0.72038279339E-01  0.57300574124E+03  0.60338629883E+03  0.00000000000E+00 0.  1.
<mgrwt>
<rscale>  0 0.15356242E+04</rscale>
<asrwt>0</asrwt>
<pdfrwt beam="1">  1        2 0.16211890E+00 0.15356242E+04</pdfrwt>
<pdfrwt beam="2">  1       -2 0.86069552E-01 0.15356242E+04</pdfrwt>
<totfact> 0.26275591E+01</totfact>
</mgrwt>
</event>
<event>
12    1  0.1532786E-007  0.1533223E+04  0.7818608E-02  0.8862656E-01
          2   -1    0    0  501    0  0.00000000000E+00  0.00000000000E+00  0.39191920780E+04  0.39191920780E+04  0.00000000000E+00 0. -1.
         -2   -1    0    0    0  501 -0.00000000000E+00 -0.00000000000E+00 -0.14995257349E+03  0.14995257349E+03  0.00000000000E+00 0.  1.
         23    2    1    2    0    0 -0.18065731655E+03  0.41983731249E+03  0.16757048644E+04  0.17395958489E+04  0.96470150751E+02 0.  0.
        254    2    1    2    0    0  0.18065731655E+03 -0.41983731249E+03  0.20935346401E+04  0.23295488026E+04  0.91378876077E+03 0.  0.
        -24    2    4    4    0    0  0.37605325620E+03 -0.39401418726E+03  0.57436046079E+03  0.79555227337E+03  0.79688452613E+02 0.  0.
         24    2    4    4    0    0 -0.19539593966E+03 -0.25823125230E+02  0.15191741793E+04  0.15339965292E+04  0.80054715747E+02 0.  0.
         11    1    3    3    0    0 -0.23708899414E+02  0.82494593453E+02  0.47054225836E+03  0.47830689600E+03  0.00000000000E+00 0. -1.
        -11    1    3    3    0    0 -0.15694841713E+03  0.33734271903E+03  0.12051626060E+04  0.12612889529E+04  0.00000000000E+00 0.  1.
          4    1    6    6  502    0 -0.10699980667E+03  0.24694401099E+02  0.86609518215E+03  0.87302900102E+03  0.00000000000E+00 0. -1.
          3    1    5    5  503    0  0.23337896920E+03 -0.29661619045E+03  0.38179499530E+03  0.53685596406E+03  0.00000000000E+00 0. -1.
         -4    1    5    5    0  503  0.14267428700E+03 -0.97397996804E+02  0.19256546549E+03  0.25869630931E+03  0.00000000000E+00 0.  1.
         -3    1    6    6    0  502 -0.88396132984E+02 -0.50517526330E+02  0.65307899716E+03  0.66096752819E+03  0.00000000000E+00 0.  1.
<mgrwt>
<rscale>  0 0.15332227E+04</rscale>
<asrwt>0</asrwt>
<pdfrwt beam="1">  1        2 0.60295255E+00 0.15332227E+04</pdfrwt>
<pdfrwt beam="2">  1       -2 0.23069630E-01 0.15332227E+04</pdfrwt>
<totfact> 0.64797980E+00</totfact>
</mgrwt>
</event>
<event>
12    1  0.1532786E-007  0.1382866E+04  0.7818608E-02  0.8966315E-01
         -2   -1    0    0    0  501 -0.00000000000E+00  0.00000000000E+00  0.77952266562E+03  0.77952266562E+03  0.00000000000E+00 0.  1.
          2   -1    0    0  501    0  0.00000000000E+00 -0.00000000000E+00 -0.61329761266E+03  0.61329761266E+03  0.00000000000E+00 0. -1.
         23    2    1    2    0    0 -0.26149537725E+03 -0.23752640858E+03  0.21276950379E+03  0.42262363964E+03  0.92418893864E+02 0.  0.
        254    2    1    2    0    0  0.26149537725E+03  0.23752640858E+03 -0.46544450829E+02  0.97019663864E+03  0.90239487179E+03 0.  0.
        -24    2    4    4    0    0  0.14140798985E+03 -0.61025455026E+02  0.38734308371E+03  0.42445144846E+03  0.80025257593E+02 0.  0.
         24    2    4    4    0    0  0.12008738740E+03  0.29855186361E+03 -0.43388753454E+03  0.54574519018E+03  0.77622317043E+02 0.  0.
         11    1    3    3    0    0 -0.54130561528E+02 -0.56351179896E+02  0.95334647700E+02  0.12326503243E+03  0.00000000000E+00 0.  1.
        -11    1    3    3    0    0 -0.20736481572E+03 -0.18117522868E+03  0.11743485609E+03  0.29935860721E+03  0.00000000000E+00 0. -1.
          2    1    6    6  502    0  0.13057008560E+03  0.28194729498E+03 -0.41562607304E+03  0.51892952989E+03  0.00000000000E+00 0. -1.
          1    1    5    5  503    0  0.11237674924E+03 -0.60431648168E+02  0.36817514012E+03  0.38965812153E+03  0.00000000000E+00 0. -1.
         -2    1    5    5    0  503  0.29031240607E+02 -0.59380685761E+00  0.19167943583E+02  0.34793326931E+02  0.00000000000E+00 0.  1.
         -1    1    6    6    0  502 -0.10482698201E+02  0.16604568623E+02 -0.18261461493E+02  0.26815660287E+02  0.00000000000E+00 0.  1.
<mgrwt>
<rscale>  0 0.13828657E+04</rscale>
<asrwt>0</asrwt>
<pdfrwt beam="1">  1        2 0.94353479E-01 0.13828657E+04</pdfrwt>
<pdfrwt beam="2">  1       -2 0.11992656E+00 0.13828657E+04</pdfrwt>
<totfact> 0.25022492E+01</totfact>
</mgrwt>
</event>
<event>
12    1  0.1532786E-007  0.1908680E+04  0.7818608E-02  0.8650548E-01
         -2   -1    0    0    0  501 -0.00000000000E+00  0.00000000000E+00  0.82262789384E+03  0.82262789384E+03  0.00000000000E+00 0.  1.
          2   -1    0    0  501    0  0.00000000000E+00 -0.00000000000E+00 -0.11071409306E+04  0.11071409306E+04  0.00000000000E+00 0. -1.
         23    2    1    2    0    0 -0.42560391367E+03 -0.58053419857E+03 -0.27248823549E+03  0.77502880356E+03  0.90890928185E+02 0.  0.
        254    2    1    2    0    0  0.42560391367E+03  0.58053419857E+03 -0.12024801264E+02  0.11547400209E+04  0.90284066862E+03 0.  0.
        -24    2    4    4    0    0  0.67533613738E+03  0.25188171618E+03 -0.77716363741E+02  0.72926656374E+03  0.79161798803E+02 0.  0.
         24    2    4    4    0    0 -0.24973222371E+03  0.32865248239E+03  0.65691562477E+02  0.42547345714E+03  0.79584191927E+02 0.  0.
         11    1    3    3    0    0 -0.25266621433E+03 -0.28943591633E+03 -0.11113934203E+03  0.39995664624E+03  0.00000000000E+00 0. -1.
        -11    1    3    3    0    0 -0.17293769935E+03 -0.29109828224E+03 -0.16134889345E+03  0.37507215732E+03  0.00000000000E+00 0.  1.
          4    1    6    6  502    0 -0.24542875534E+03  0.33169276081E+03  0.70187350055E+02  0.41854704112E+03  0.00000000000E+00 0. -1.
          1    1    5    5  503    0  0.27949717612E+03  0.12916682529E+03 -0.15682465524E+01  0.30790453002E+03  0.00000000000E+00 0. -1.
         -2    1    5    5    0  503  0.39583896127E+03  0.12271489090E+03 -0.76148117189E+02  0.42136203372E+03  0.00000000000E+00 0.  1.
         -3    1    6    6    0  502 -0.43034683711E+01 -0.30402784193E+01 -0.44957875778E+01  0.69264160164E+01  0.00000000000E+00 0.  1.
<mgrwt>
<rscale>  0 0.19086802E+04</rscale>
<asrwt>0</asrwt>
<pdfrwt beam="1">  1        2 0.17032937E+00 0.19086802E+04</pdfrwt>
<pdfrwt beam="2">  1       -2 0.12655814E+00 0.19086802E+04</pdfrwt>
<totfact> 0.93818944E+00</totfact>
</mgrwt>
</event>
<event>
12    1  0.1532786E-007  0.1877479E+04  0.7818608E-02  0.8666148E-01
          2   -1    0    0  501    0  0.00000000000E+00  0.00000000000E+00  0.14498885415E+04  0.14498885415E+04  0.00000000000E+00 0. -1.
         -2   -1    0    0    0  501 -0.00000000000E+00 -0.00000000000E+00 -0.60779300299E+03  0.60779300299E+03  0.00000000000E+00 0.  1.
         23    2    1    2    0    0  0.66258539250E+03 -0.27732511302E+03  0.38170897626E+03  0.81854800264E+03  0.91599505452E+02 0.  0.
        254    2    1    2    0    0 -0.66258539250E+03  0.27732511302E+03  0.46038656223E+03  0.12391335418E+04  0.89864761011E+03 0.  0.
        -24    2    4    4    0    0 -0.66158696728E+03 -0.17783650907E+03  0.27692579074E+03  0.74330467704E+03  0.80565563914E+02 0.  0.
         24    2    4    4    0    0 -0.99842521877E+00  0.45516162209E+03  0.18346077148E+03  0.49582886480E+03  0.70818849327E+02 0.  0.
         13    1    3    3    0    0  0.50747962822E+03 -0.24931751238E+03  0.27981150376E+03  0.63086390979E+03  0.00000000000E+00 0.  1.
        -13    1    3    3    0    0  0.15510576428E+03 -0.28007600641E+02  0.10189747251E+03  0.18768409286E+03  0.00000000000E+00 0. -1.
          2    1    6    6  502    0  0.10096651088E+02  0.29815927280E+02 -0.22856117842E+01  0.31561937583E+02  0.00000000000E+00 0. -1.
          1    1    5    5  503    0 -0.15225286612E+02  0.37703172009E+00  0.20329055516E+02  0.25401220512E+02  0.00000000000E+00 0. -1.
         -2    1    5    5    0  503 -0.64636168067E+03 -0.17821354079E+03  0.25659673523E+03  0.71790345653E+03  0.00000000000E+00 0.  1.
         -1    1    6    6    0  502 -0.11095076306E+02  0.42534569481E+03  0.18574638327E+03  0.46426692722E+03  0.00000000000E+00 0.  1.
<mgrwt>
<rscale>  0 0.18774793E+04</rscale>
<asrwt>0</asrwt>
<pdfrwt beam="1">  1        2 0.22305977E+00 0.18774793E+04</pdfrwt>
<pdfrwt beam="2">  1       -2 0.93506616E-01 0.18774793E+04</pdfrwt>
<totfact> 0.12298418E+01</totfact>
</mgrwt>
</event>
<event>
12    1  0.1532786E-007  0.1279348E+04  0.7818608E-02  0.9046105E-01
          1   -1    0    0  501    0  0.00000000000E+00  0.00000000000E+00  0.66647753491E+03  0.66647753491E+03  0.00000000000E+00 0. -1.
         -1   -1    0    0    0  501 -0.00000000000E+00 -0.00000000000E+00 -0.61394812132E+03  0.61394812132E+03  0.00000000000E+00 0.  1.
         23    2    1    2    0    0 -0.22905776809E+03  0.29986031507E+02  0.23426793559E+03  0.33962211599E+03  0.84232373920E+02 0.  0.
        254    2    1    2    0    0  0.22905776809E+03 -0.29986031507E+02 -0.18173852200E+03  0.94080354025E+03  0.89370900620E+03 0.  0.
        -24    2    4    4    0    0 -0.31310041396E+01 -0.31728378385E+03 -0.39006857531E+03  0.50947363403E+03  0.82043206026E+02 0.  0.
         24    2    4    4    0    0  0.23218877222E+03  0.28729775234E+03  0.20833005330E+03  0.43132990621E+03  0.78692137082E+02 0.  0.
         13    1    3    3    0    0 -0.20460772046E+03  0.48541817639E+02  0.22403845518E+03  0.30726837899E+03  0.00000000000E+00 0. -1.
        -13    1    3    3    0    0 -0.24450047630E+02 -0.18555786132E+02  0.10229480412E+02  0.32353736996E+02  0.00000000000E+00 0.  1.
          2    1    6    6  502    0  0.19003784384E+03  0.27290969863E+03  0.19125008884E+03  0.38362831253E+03  0.00000000000E+00 0. -1.
          1    1    5    5  503    0  0.23686209378E+02 -0.27049457924E+03 -0.34603567864E+03  0.43985116210E+03  0.00000000000E+00 0. -1.
         -2    1    5    5    0  503 -0.26817213518E+02 -0.46789204610E+02 -0.44032896663E+02  0.69622471928E+02  0.00000000000E+00 0.  1.
         -1    1    6    6    0  502  0.42150928388E+02  0.14388053708E+02  0.17079964466E+02  0.47701593680E+02  0.00000000000E+00 0.  1.
<mgrwt>
<rscale>  0 0.12793477E+04</rscale>
<asrwt>0</asrwt>
<pdfrwt beam="1">  1        1 0.10253501E+00 0.12793477E+04</pdfrwt>
<pdfrwt beam="2">  1       -1 0.94453557E-01 0.12793477E+04</pdfrwt>
<totfact> 0.31334493E+01</totfact>
</mgrwt>
</event>
<event>
12    1  0.1532786E-007  0.1684526E+04  0.7818608E-02  0.8770239E-01
         -2   -1    0    0    0  501 -0.00000000000E+00  0.00000000000E+00  0.29460045311E+03  0.29460045311E+03  0.00000000000E+00 0. -1.
          2   -1    0    0  501    0  0.00000000000E+00 -0.00000000000E+00 -0.24080312783E+04  0.24080312783E+04  0.00000000000E+00 0.  1.
         23    2    1    2    0    0  0.44157455374E+03 -0.10174643754E+03 -0.13816822709E+04  0.14566408763E+04  0.86118063032E+02 0.  0.
        254    2    1    2    0    0 -0.44157455374E+03  0.10174643754E+03 -0.73174855428E+03  0.12459908551E+04  0.90094219581E+03 0.  0.
        -24    2    4    4    0    0  0.20763734962E+03 -0.15519231592E+03 -0.35899453427E+03  0.45047411404E+03  0.82776372882E+02 0.  0.
         24    2    4    4    0    0 -0.64921190336E+03  0.25693875346E+03 -0.37275402001E+03  0.79551674104E+03  0.80048156441E+02 0.  0.
         13    1    3    3    0    0  0.13643213382E+03 -0.52331865608E+02 -0.34024215741E+03  0.37029323107E+03  0.00000000000E+00 0. -1.
        -13    1    3    3    0    0  0.30514241992E+03 -0.49414571930E+02 -0.10414401135E+04  0.10863476452E+04  0.00000000000E+00 0.  1.
          2    1    6    6  502    0 -0.48891364708E+03  0.16205196338E+03 -0.29584141404E+03  0.59398614075E+03  0.00000000000E+00 0. -1.
          1    1    5    5  503    0  0.18422844973E+03 -0.15699624844E+03 -0.29082247296E+03  0.37837237543E+03  0.00000000000E+00 0. -1.
         -4    1    5    5    0  503  0.23408899890E+02  0.18039325204E+01 -0.68172061313E+02  0.72101738607E+02  0.00000000000E+00 0.  1.
         -1    1    6    6    0  502 -0.16029825628E+03  0.94886790082E+02 -0.76912605962E+02  0.20153060029E+03  0.00000000000E+00 0.  1.
<mgrwt>
<rscale>  0 0.16845262E+04</rscale>
<asrwt>0</asrwt>
<pdfrwt beam="1">  1        2 0.37046634E+00 0.16845262E+04</pdfrwt>
<pdfrwt beam="2">  1       -2 0.45323148E-01 0.16845262E+04</pdfrwt>
<totfact> 0.17322572E+01</totfact>
</mgrwt>
</event>
<event>
12    1  0.1532786E-007  0.1870561E+04  0.7818608E-02  0.8669651E-01
         -2   -1    0    0    0  501 -0.00000000000E+00  0.00000000000E+00  0.12605289485E+04  0.12605289485E+04  0.00000000000E+00 0. -1.
          2   -1    0    0  501    0  0.00000000000E+00 -0.00000000000E+00 -0.69395419877E+03  0.69395419877E+03  0.00000000000E+00 0.  1.
         23    2    1    2    0    0 -0.90470081667E+02 -0.60465277344E+03 -0.16480973700E+03  0.64033922749E+03  0.95300916874E+02 0.  0.
        254    2    1    2    0    0  0.90470081667E+02  0.60465277344E+03  0.73138448674E+03  0.13141439198E+04  0.90457789184E+03 0.  0.
        -24    2    4    4    0    0  0.87151017841E+02 -0.20769674835E+03  0.38187310451E+02  0.24377983250E+03  0.85071128284E+02 0.  0.
         24    2    4    4    0    0  0.33190638264E+01  0.81234952179E+03  0.69319717629E+03  0.10703640873E+04  0.72347718853E+02 0.  0.
         13    1    3    3    0    0 -0.14506537595E+02 -0.24983514797E+02 -0.27325359840E+02  0.39765449010E+02  0.00000000000E+00 0. -1.
        -13    1    3    3    0    0 -0.75963544072E+02 -0.57966925864E+03 -0.13748437716E+03  0.60057377848E+03  0.00000000000E+00 0.  1.
          4    1    6    6  502    0  0.70871105844E+01  0.86423899771E+01  0.49166549218E+01  0.12210304524E+02  0.00000000000E+00 0. -1.
          1    1    5    5  503    0 -0.20283740610E+01 -0.21012762674E+02 -0.19771966466E+02  0.28923712668E+02  0.00000000000E+00 0. -1.
         -2    1    5    5    0  503  0.89179391902E+02 -0.18668398568E+03  0.57959276917E+02  0.21485611983E+03  0.00000000000E+00 0.  1.
         -3    1    6    6    0  502 -0.37680467580E+01  0.80370713181E+03  0.68828052137E+03  0.10581537828E+04  0.00000000000E+00 0.  1.
<mgrwt>
<rscale>  0 0.18705607E+04</rscale>
<asrwt>0</asrwt>
<pdfrwt beam="1">  1        2 0.10676218E+00 0.18705607E+04</pdfrwt>
<pdfrwt beam="2">  1       -2 0.19392753E+00 0.18705607E+04</pdfrwt>
<totfact> 0.56697973E+00</totfact>
</mgrwt>
</event>
<event>
12    1  0.1532786E-007  0.2277173E+04  0.7818608E-02  0.8486976E-01
         -2   -1    0    0    0  501 -0.00000000000E+00  0.00000000000E+00  0.16110609156E+04  0.16110609156E+04  0.00000000000E+00 0.  1.
          2   -1    0    0  501    0  0.00000000000E+00 -0.00000000000E+00 -0.80467401844E+03  0.80467401844E+03  0.00000000000E+00 0. -1.
         23    2    1    2    0    0 -0.31102855972E+03 -0.67959224329E+03 -0.27727601593E+03  0.80239654608E+03  0.91508721141E+02 0.  0.
        254    2    1    2    0    0  0.31102855972E+03  0.67959224329E+03  0.10836629131E+04  0.16133383880E+04  0.93271167185E+03 0.  0.
        -24    2    4    4    0    0  0.42567141426E+03  0.60065035194E+03  0.27644258663E+03  0.79033508557E+03  0.78943306086E+02 0.  0.
         24    2    4    4    0    0 -0.11464285454E+03  0.78941891352E+02  0.80722032649E+03  0.82300330243E+03  0.79718090808E+02 0.  0.
         13    1    3    3    0    0 -0.29267090243E+03 -0.55901703392E+03 -0.23124986816E+03  0.67203631067E+03  0.00000000000E+00 0. -1.
        -13    1    3    3    0    0 -0.18357657295E+02 -0.12057520937E+03 -0.46026147768E+02  0.13036023541E+03  0.00000000000E+00 0.  1.
          2    1    6    6  502    0 -0.84517994670E+02  0.39909514743E+02  0.32219372139E+03  0.33547705569E+03  0.00000000000E+00 0. -1.
          1    1    5    5  503    0  0.78502244597E+02  0.80141818882E+02  0.66363923379E+02  0.13034371433E+03  0.00000000000E+00 0. -1.
         -2    1    5    5    0  503  0.34716916967E+03  0.52050853306E+03  0.21007866326E+03  0.65999137124E+03  0.00000000000E+00 0.  1.
         -1    1    6    6    0  502 -0.30124859872E+02  0.39032376609E+02  0.48502660510E+03  0.48752624674E+03  0.00000000000E+00 0.  1.
<mgrwt>
<rscale>  0 0.22771727E+04</rscale>
<asrwt>0</asrwt>
<pdfrwt beam="1">  1        2 0.12379600E+00 0.22771727E+04</pdfrwt>
<pdfrwt beam="2">  1       -2 0.24785552E+00 0.22771727E+04</pdfrwt>
<totfact> 0.20562185E+00</totfact>
</mgrwt>
</event>
<event>
12    1  0.1532786E-007  0.1557257E+04  0.7818608E-02  0.8847246E-01
         -1   -1    0    0    0  501 -0.00000000000E+00  0.00000000000E+00  0.39590991799E+03  0.39590991799E+03  0.00000000000E+00 0.  1.
          1   -1    0    0  501    0  0.00000000000E+00 -0.00000000000E+00 -0.15313132405E+04  0.15313132405E+04  0.00000000000E+00 0. -1.
         23    2    1    2    0    0 -0.46340710279E+03 -0.86860269359E+02 -0.64112055461E+03  0.80117171893E+03  0.92464633040E+02 0.  0.
        254    2    1    2    0    0  0.46340710279E+03  0.86860269359E+02 -0.49428276791E+03  0.11260514396E+04  0.89520139667E+03 0.  0.
        -24    2    4    4    0    0  0.44295335588E+03 -0.46938466002E+02 -0.72019815850E+03  0.85014244712E+03  0.75139189535E+02 0.  0.
         24    2    4    4    0    0  0.20453746910E+02  0.13379873536E+03  0.22591539060E+03  0.27590899245E+03  0.82265126635E+02 0.  0.
         13    1    3    3    0    0 -0.39269535699E+03 -0.70485729568E+02 -0.59062334517E+03  0.71275088028E+03  0.00000000000E+00 0. -1.
        -13    1    3    3    0    0 -0.70711745798E+02 -0.16374539791E+02 -0.50497209440E+02  0.88420838655E+02  0.00000000000E+00 0.  1.
          4    1    6    6  502    0  0.10950180031E+02 -0.28719664159E+01 -0.43273811424E+00  0.11328808238E+02  0.00000000000E+00 0. -1.
          1    1    5    5  503    0  0.42813636055E+02  0.88703108133E+01 -0.41419936700E+02  0.60227078647E+02  0.00000000000E+00 0. -1.
         -2    1    5    5    0  503  0.40013971982E+03 -0.55808776815E+02 -0.67877822180E+03  0.78991536847E+03  0.00000000000E+00 0.  1.
         -3    1    6    6    0  502  0.95035668783E+01  0.13667070178E+03  0.22634812871E+03  0.26458018421E+03  0.00000000000E+00 0.  1.
<mgrwt>
<rscale>  0 0.15572567E+04</rscale>
<asrwt>0</asrwt>
<pdfrwt beam="1">  1        1 0.23558665E+00 0.15572567E+04</pdfrwt>
<pdfrwt beam="2">  1       -1 0.60909218E-01 0.15572567E+04</pdfrwt>
<totfact> 0.16379036E+01</totfact>
</mgrwt>
</event>
<event>
12    1  0.1532786E-007  0.2044612E+04  0.7818608E-02  0.8586043E-01
          2   -1    0    0  501    0  0.00000000000E+00  0.00000000000E+00  0.24357436307E+04  0.24357436307E+04  0.00000000000E+00 0. -1.
         -2   -1    0    0    0  501 -0.00000000000E+00 -0.00000000000E+00 -0.42907192946E+03  0.42907192946E+03  0.00000000000E+00 0.  1.
         23    2    1    2    0    0 -0.63401610379E+02  0.50276698008E+03 -0.94855001623E+02  0.52304217324E+03  0.88211355284E+02 0.  0.
        254    2    1    2    0    0  0.63401610379E+02 -0.50276698008E+03  0.21015267029E+04  0.23417733869E+04  0.90038531329E+03 0.  0.
        -24    2    4    4    0    0  0.39628855904E+03 -0.27155166498E+03  0.16889453706E+04  0.17577521794E+04  0.79820613209E+02 0.  0.
         24    2    4    4    0    0 -0.33288694866E+03 -0.23121531510E+03  0.41258133225E+03  0.58402120758E+03  0.81136752767E+02 0.  0.
         11    1    3    3    0    0  0.92716498420E+01  0.26976056048E+03 -0.39867395323E+02  0.27284818616E+03  0.00000000000E+00 0.  1.
        -11    1    3    3    0    0 -0.72673260221E+02  0.23300641960E+03 -0.54987606300E+02  0.25019398708E+03  0.00000000000E+00 0. -1.
          4    1    6    6  502    0 -0.13275194878E+01  0.27195825178E-01  0.21601753293E+02  0.21642522795E+02  0.00000000000E+00 0. -1.
          1    1    5    5  503    0  0.55967545238E-01 -0.11184158933E+02  0.67117791317E+02  0.68043268988E+02  0.00000000000E+00 0. -1.
         -2    1    5    5    0  503  0.39623259150E+03 -0.26036750605E+03  0.16218275793E+04  0.16897089104E+04  0.00000000000E+00 0.  1.
         -3    1    6    6    0  502 -0.33155942918E+03 -0.23124251092E+03  0.39097957896E+03  0.56237868478E+03  0.00000000000E+00 0.  1.
<mgrwt>
<rscale>  0 0.20446117E+04</rscale>
<asrwt>0</asrwt>
<pdfrwt beam="1">  1        2 0.37472978E+00 0.20446117E+04</pdfrwt>
<pdfrwt beam="2">  1       -2 0.66011068E-01 0.20446117E+04</pdfrwt>
<totfact> 0.74146594E+00</totfact>
</mgrwt>
</event>
<event>
12    1  0.1532786E-007  0.1330366E+04  0.7818608E-02  0.9005825E-01
         -2   -1    0    0    0  501 -0.00000000000E+00  0.00000000000E+00  0.32221973382E+03  0.32221973382E+03  0.00000000000E+00 0.  1.
          2   -1    0    0  501    0  0.00000000000E+00 -0.00000000000E+00 -0.13731886593E+04  0.13731886593E+04  0.00000000000E+00 0. -1.
         23    2    1    2    0    0  0.17974655399E+03 -0.10428817234E+03  0.74285857308E+02  0.23727254157E+03  0.87149433889E+02 0.  0.
        254    2    1    2    0    0 -0.17974655399E+03  0.10428817234E+03 -0.11252547827E+04  0.14581358515E+04  0.90375715145E+03 0.  0.
        -24    2    4    4    0    0  0.44438274183E+01 -0.36195705388E+03 -0.25175545521E+03  0.44813711881E+03  0.80083778472E+02 0.  0.
         24    2    4    4    0    0 -0.18419038141E+03  0.46624522622E+03 -0.87349932754E+03  0.10099987327E+04  0.76063508041E+02 0.  0.
         11    1    3    3    0    0  0.97666468073E+02 -0.56060742475E+02 -0.59511640448E+01  0.11276950912E+03  0.00000000000E+00 0. -1.
        -11    1    3    3    0    0  0.82080085917E+02 -0.48227429863E+02  0.80237021352E+02  0.12450303246E+03  0.00000000000E+00 0.  1.
          4    1    6    6  502    0 -0.76464996537E+02  0.27332933508E+03 -0.53799925373E+03  0.60827544594E+03  0.00000000000E+00 0. -1.
          3    1    5    5  503    0 -0.33639981620E+02 -0.14642833911E+03 -0.82073976911E+02  0.17119884505E+03  0.00000000000E+00 0. -1.
         -4    1    5    5    0  503  0.38083809038E+02 -0.21552871477E+03 -0.16968147830E+03  0.27693827377E+03  0.00000000000E+00 0.  1.
         -1    1    6    6    0  502 -0.10772538487E+03  0.19291589114E+03 -0.33550007380E+03  0.40172328676E+03  0.00000000000E+00 0.  1.
<mgrwt>
<rscale>  0 0.13303661E+04</rscale>
<asrwt>0</asrwt>
<pdfrwt beam="1">  1        2 0.21125979E+00 0.13303661E+04</pdfrwt>
<pdfrwt beam="2">  1       -2 0.49572267E-01 0.13303661E+04</pdfrwt>
<totfact> 0.56462033E+01</totfact>
</mgrwt>
</event>
<event>
12    1  0.1532786E-007  0.4969709E+04  0.7818608E-02  0.7833197E-01
          2   -1    0    0  501    0  0.00000000000E+00  0.00000000000E+00  0.20667373243E+04  0.20667373243E+04  0.00000000000E+00 0. -1.
         -2   -1    0    0    0  501 -0.00000000000E+00 -0.00000000000E+00 -0.29875606157E+04  0.29875606157E+04  0.00000000000E+00 0.  1.
         23    2    1    2    0    0 -0.22331323893E+04  0.86635546142E+02  0.45505974393E+03  0.22826409739E+04  0.94786386459E+02 0.  0.
        254    2    1    2    0    0  0.22331323893E+04 -0.86635546142E+02 -0.13758830353E+04  0.27716569662E+04  0.89142707227E+03 0.  0.
        -24    2    4    4    0    0  0.42195634347E+03 -0.36395160361E+03 -0.42826298712E+03  0.70729748834E+03  0.79703358215E+02 0.  0.
         24    2    4    4    0    0  0.18111760459E+04  0.27731605747E+03 -0.94762004820E+03  0.20643594778E+04  0.79582869919E+02 0.  0.
         13    1    3    3    0    0 -0.42802226674E+03  0.14749508201E+02  0.12550317523E+03  0.44628651762E+03  0.00000000000E+00 0.  1.
        -13    1    3    3    0    0 -0.18051101226E+04  0.71886037941E+02  0.32955656870E+03  0.18363544563E+04  0.00000000000E+00 0. -1.
          2    1    6    6  502    0  0.33500424805E+03  0.20188448982E+02 -0.17403919242E+03  0.37805430851E+03  0.00000000000E+00 0. -1.
          1    1    5    5  503    0  0.58807516881E+02 -0.89327155403E+02 -0.68330930456E+02  0.12691249265E+03  0.00000000000E+00 0. -1.
         -2    1    5    5    0  503  0.36314882659E+03 -0.27462444821E+03 -0.35993205667E+03  0.58038499569E+03  0.00000000000E+00 0.  1.
         -1    1    6    6    0  502  0.14761717978E+04  0.25712760849E+03 -0.77358085577E+03  0.16863051693E+04  0.00000000000E+00 0.  1.
<mgrwt>
<rscale>  0 0.49697095E+04</rscale>
<asrwt>0</asrwt>
<pdfrwt beam="1">  1        2 0.31795959E+00 0.49697095E+04</pdfrwt>
<pdfrwt beam="2">  1       -2 0.45962471E+00 0.49697095E+04</pdfrwt>
<totfact> 0.13464725E-02</totfact>
</mgrwt>
</event>
<event>
12    1  0.1532786E-007  0.1434324E+04  0.7818608E-02  0.8929341E-01
          1   -1    0    0  501    0  0.00000000000E+00  0.00000000000E+00  0.13628182382E+04  0.13628182382E+04  0.00000000000E+00 0. -1.
         -1   -1    0    0    0  501 -0.00000000000E+00 -0.00000000000E+00 -0.37739523553E+03  0.37739523553E+03  0.00000000000E+00 0.  1.
         23    2    1    2    0    0  0.14731662190E+03  0.86039342521E+02  0.77790329096E+03  0.80166986778E+03  0.91848196882E+02 0.  0.
        254    2    1    2    0    0 -0.14731662190E+03 -0.86039342521E+02  0.20751971167E+03  0.93854360591E+03  0.89927454868E+03 0.  0.
        -24    2    4    4    0    0  0.62946292245E+02 -0.34490660599E+03 -0.19430085294E+03  0.41038749568E+03  0.87990184631E+02 0.  0.
         24    2    4    4    0    0 -0.21026291414E+03  0.25886726347E+03  0.40182056460E+03  0.52815611023E+03  0.79160327648E+02 0.  0.
         11    1    3    3    0    0  0.20419574650E+02  0.17507985113E+02  0.33058054707E+03  0.33167301167E+03  0.00000000000E+00 0. -1.
        -11    1    3    3    0    0  0.12689704725E+03  0.68531357408E+02  0.44732274389E+03  0.46999685610E+03  0.00000000000E+00 0.  1.
          2    1    6    6  502    0 -0.17227994912E+03  0.24624095497E+03  0.33312835705E+03  0.44865297396E+03  0.00000000000E+00 0. -1.
          1    1    5    5  503    0  0.72418430526E+02 -0.20789481172E+03 -0.89563562626E+02  0.23766849512E+03  0.00000000000E+00 0. -1.
         -2    1    5    5    0  503 -0.94721382810E+01 -0.13701179427E+03 -0.10473729031E+03  0.17271900056E+03  0.00000000000E+00 0.  1.
         -1    1    6    6    0  502 -0.37982965018E+02  0.12626308505E+02  0.68692207551E+02  0.79503136267E+02  0.00000000000E+00 0.  1.
<mgrwt>
<rscale>  0 0.14343237E+04</rscale>
<asrwt>0</asrwt>
<pdfrwt beam="1">  1        1 0.20966434E+00 0.14343237E+04</pdfrwt>
<pdfrwt beam="2">  1       -1 0.58060806E-01 0.14343237E+04</pdfrwt>
<totfact> 0.23849243E+01</totfact>
</mgrwt>
</event>
<event>
12    1  0.1532786E-007  0.1985842E+04  0.7818608E-02  0.8613269E-01
          2   -1    0    0  501    0  0.00000000000E+00  0.00000000000E+00  0.12556112122E+04  0.12556112122E+04  0.00000000000E+00 0. -1.
         -2   -1    0    0    0  501 -0.00000000000E+00 -0.00000000000E+00 -0.78518898290E+03  0.78518898290E+03  0.00000000000E+00 0.  1.
         23    2    1    2    0    0 -0.61615349338E+03 -0.27052116828E+03  0.50864532163E+03  0.84774112818E+03  0.84368994811E+02 0.  0.
        254    2    1    2    0    0  0.61615349338E+03  0.27052116828E+03 -0.38223092334E+02  0.11930590669E+04  0.98442983624E+03 0.  0.
        -24    2    4    4    0    0  0.56742608765E+03  0.46293445563E+02 -0.44024330162E+03  0.72381714385E+03  0.77341095568E+02 0.  0.
         24    2    4    4    0    0  0.48727405735E+02  0.22422772272E+03  0.40202020929E+03  0.46924192307E+03  0.76911000447E+02 0.  0.
         13    1    3    3    0    0 -0.60886456102E+03 -0.25653733860E+03  0.50489305480E+03  0.83153139239E+03  0.00000000000E+00 0.  1.
        -13    1    3    3    0    0 -0.72889323689E+01 -0.13983829685E+02  0.37522668356E+01  0.16209735783E+02  0.00000000000E+00 0. -1.
          2    1    6    6  502    0  0.73102395108E+01  0.62043240905E+02  0.18437926065E+03  0.19467540960E+03  0.00000000000E+00 0. -1.
          1    1    5    5  503    0  0.13427882716E+03  0.41232417204E+02 -0.90755236013E+02  0.16723465106E+03  0.00000000000E+00 0. -1.
         -2    1    5    5    0  503  0.43314726049E+03  0.50610283595E+01 -0.34948806561E+03  0.55658249279E+03  0.00000000000E+00 0.  1.
         -1    1    6    6    0  502  0.41417166224E+02  0.16218448181E+03  0.21764094863E+03  0.27456651347E+03  0.00000000000E+00 0.  1.
<mgrwt>
<rscale>  0 0.19858420E+04</rscale>
<asrwt>0</asrwt>
<pdfrwt beam="1">  1        2 0.19317095E+00 0.19858420E+04</pdfrwt>
<pdfrwt beam="2">  1       -2 0.12079831E+00 0.19858420E+04</pdfrwt>
<totfact> 0.85290423E+00</totfact>
</mgrwt>
</event>
<event>
12    1  0.1532786E-007  0.2181461E+04  0.7818608E-02  0.8526184E-01
          1   -1    0    0  501    0  0.00000000000E+00  0.00000000000E+00  0.20155622983E+04  0.20155622983E+04  0.00000000000E+00 0. -1.
         -1   -1    0    0    0  501 -0.00000000000E+00 -0.00000000000E+00 -0.59025343626E+03  0.59025343626E+03  0.00000000000E+00 0.  1.
         23    2    1    2    0    0  0.29965940377E+03 -0.66984328526E+03  0.12218540790E+04  0.14275421500E+04  0.80395364995E+02 0.  0.
        254    2    1    2    0    0 -0.29965940377E+03  0.66984328526E+03  0.20345478305E+03  0.11782735845E+04  0.89913792388E+03 0.  0.
        -24    2    4    4    0    0 -0.58918500447E+03  0.42838486880E+03 -0.18882183279E+02  0.73341603723E+03  0.83005912530E+02 0.  0.
         24    2    4    4    0    0  0.28952560070E+03  0.24145841646E+03  0.22233696633E+03  0.44485754728E+03  0.79606974826E+02 0.  0.
         11    1    3    3    0    0  0.19375581346E+03 -0.49549223225E+03  0.83244950588E+03  0.98794030554E+03  0.00000000000E+00 0.  1.
        -11    1    3    3    0    0  0.10590359031E+03 -0.17435105301E+03  0.38940457311E+03  0.43960184450E+03  0.00000000000E+00 0. -1.
          4    1    6    6  502    0  0.21782832688E+03  0.15968482875E+03  0.12008201263E+03  0.29558097754E+03  0.00000000000E+00 0. -1.
          1    1    5    5  503    0 -0.49358252045E+03  0.38694916405E+03  0.18304062430E+01  0.62718156099E+03  0.00000000000E+00 0. -1.
         -2    1    5    5    0  503 -0.95602484015E+02  0.41435704751E+02 -0.20712589522E+02  0.10623447624E+03  0.00000000000E+00 0.  1.
         -3    1    6    6    0  502  0.71697273823E+02  0.81773587703E+02  0.10225495370E+03  0.14927656975E+03  0.00000000000E+00 0.  1.
<mgrwt>
<rscale>  0 0.21814606E+04</rscale>
<asrwt>0</asrwt>
<pdfrwt beam="1">  1        1 0.31008650E+00 0.21814606E+04</pdfrwt>
<pdfrwt beam="2">  1       -1 0.90808222E-01 0.21814606E+04</pdfrwt>
<totfact> 0.31448077E+00</totfact>
</mgrwt>
</event>
<event>
12    1  0.1532786E-007  0.2224901E+04  0.7818608E-02  0.8508135E-01
          2   -1    0    0  501    0  0.00000000000E+00  0.00000000000E+00  0.13971773542E+04  0.13971773542E+04  0.00000000000E+00 0. -1.
         -2   -1    0    0    0  501 -0.00000000000E+00 -0.00000000000E+00 -0.88574719640E+03  0.88574719640E+03  0.00000000000E+00 0.  1.
         23    2    1    2    0    0  0.26622374185E+03  0.76947612461E+03  0.67398696245E+03  0.10612342120E+04  0.94821094847E+02 0.  0.
        254    2    1    2    0    0 -0.26622374185E+03 -0.76947612461E+03 -0.16255680466E+03  0.12216903386E+04  0.89617742756E+03 0.  0.
        -24    2    4    4    0    0  0.24103707562E+03 -0.56026907027E+03 -0.24220206332E+03  0.66151997384E+03  0.83345866060E+02 0.  0.
         24    2    4    4    0    0 -0.50726081747E+03 -0.20920705434E+03  0.79645258662E+02  0.56017036478E+03  0.79789359114E+02 0.  0.
         13    1    3    3    0    0  0.12577586207E+03  0.40786464694E+03  0.41125049207E+03  0.59270574903E+03  0.00000000000E+00 0.  1.
        -13    1    3    3    0    0  0.14044787977E+03  0.36161147767E+03  0.26273647038E+03  0.46852846294E+03  0.00000000000E+00 0. -1.
          4    1    6    6  502    0 -0.64101880255E+02 -0.38780385237E+02  0.36718039152E+02  0.83433708599E+02  0.00000000000E+00 0. -1.
          3    1    5    5  503    0  0.13588153417E+03 -0.41176843232E+03 -0.16847087711E+03  0.46518756391E+03  0.00000000000E+00 0. -1.
         -4    1    5    5    0  503  0.10515554145E+03 -0.14850063795E+03 -0.73731186209E+02  0.19633240993E+03  0.00000000000E+00 0.  1.
         -3    1    6    6    0  502 -0.44315893721E+03 -0.17042666910E+03  0.42927219510E+02  0.47673665618E+03  0.00000000000E+00 0.  1.
<mgrwt>
<rscale>  0 0.22249008E+04</rscale>
<asrwt>0</asrwt>
<pdfrwt beam="1">  1        2 0.21495036E+00 0.22249008E+04</pdfrwt>
<pdfrwt beam="2">  1       -2 0.13626880E+00 0.22249008E+04</pdfrwt>
<totfact> 0.51041098E+00</totfact>
</mgrwt>
</event>
<event>
12    1  0.1532786E-007  0.1479171E+04  0.7818608E-02  0.8898424E-01
         -2   -1    0    0    0  501 -0.00000000000E+00  0.00000000000E+00  0.41859572957E+03  0.41859572957E+03  0.00000000000E+00 0.  1.
          2   -1    0    0  501    0  0.00000000000E+00 -0.00000000000E+00 -0.13067177989E+04  0.13067177989E+04  0.00000000000E+00 0. -1.
         23    2    1    2    0    0 -0.37059681126E+03 -0.27034425902E+03 -0.30754806155E+03  0.55985909799E+03  0.91806233682E+02 0.  0.
        254    2    1    2    0    0  0.37059681126E+03  0.27034425902E+03 -0.58057400777E+03  0.11654544305E+04  0.90043869092E+03 0.  0.
        -24    2    4    4    0    0  0.34010387439E+03  0.17910355677E+03 -0.81218079958E+03  0.90210197753E+03  0.80009982100E+02 0.  0.
         24    2    4    4    0    0  0.30492936864E+02  0.91240702251E+02  0.23160679180E+03  0.26335245294E+03  0.80362450890E+02 0.  0.
         13    1    3    3    0    0 -0.29413668483E+03 -0.22565217632E+03 -0.28728360857E+03  0.46900657330E+03  0.00000000000E+00 0. -1.
        -13    1    3    3    0    0 -0.76460126431E+02 -0.44692082693E+02 -0.20264452981E+02  0.90852524697E+02  0.00000000000E+00 0.  1.
          2    1    6    6  502    0  0.16688754662E+02  0.10218136931E+03  0.16790517035E+03  0.19726046993E+03  0.00000000000E+00 0. -1.
          1    1    5    5  503    0  0.28579342583E+03  0.11378332454E+03 -0.64283375071E+03  0.71264279849E+03  0.00000000000E+00 0. -1.
         -2    1    5    5    0  503  0.54310448566E+02  0.65320232227E+02 -0.16934704887E+03  0.18945917904E+03  0.00000000000E+00 0.  1.
         -1    1    6    6    0  502  0.13804182203E+02 -0.10940667061E+02  0.63701621458E+02  0.66091983012E+02  0.00000000000E+00 0.  1.
<mgrwt>
<rscale>  0 0.14791707E+04</rscale>
<asrwt>0</asrwt>
<pdfrwt beam="1">  1        2 0.20103350E+00 0.14791707E+04</pdfrwt>
<pdfrwt beam="2">  1       -2 0.64399345E-01 0.14791707E+04</pdfrwt>
<totfact> 0.35307865E+01</totfact>
</mgrwt>
</event>
<event>
12    1  0.1532786E-007  0.1578764E+04  0.7818608E-02  0.8833701E-01
         -2   -1    0    0    0  501 -0.00000000000E+00  0.00000000000E+00  0.61040953086E+03  0.61040953086E+03  0.00000000000E+00 0. -1.
          2   -1    0    0  501    0  0.00000000000E+00 -0.00000000000E+00 -0.10208292306E+04  0.10208292306E+04  0.00000000000E+00 0.  1.
         23    2    1    2    0    0 -0.12006869310E+03  0.86135155399E+02  0.34897283911E+03  0.38965551068E+03  0.90629015809E+02 0.  0.
        254    2    1    2    0    0  0.12006869310E+03 -0.86135155399E+02 -0.75939253888E+03  0.12415832508E+04  0.97109020413E+03 0.  0.
        -24    2    4    4    0    0  0.20518562099E+03  0.18320668600E+02 -0.96120808987E+03  0.98629432035E+03  0.80116841873E+02 0.  0.
         24    2    4    4    0    0 -0.85116927885E+02 -0.10445582400E+03  0.20181555099E+03  0.25528893048E+03  0.79290672993E+02 0.  0.
         11    1    3    3    0    0 -0.27756619012E+02  0.75382508265E+01  0.17653237557E+03  0.17886009826E+03  0.00000000000E+00 0. -1.
        -11    1    3    3    0    0 -0.92312074092E+02  0.78596904572E+02  0.17244046354E+03  0.21079541242E+03  0.00000000000E+00 0.  1.
          2    1    6    6  502    0 -0.52127479745E+01 -0.17814782924E+02  0.93139311928E+02  0.94970893744E+02  0.00000000000E+00 0. -1.
          1    1    5    5  503    0  0.39678313104E+02 -0.28688286153E+02 -0.20807095972E+03  0.21375432293E+03  0.00000000000E+00 0. -1.
         -2    1    5    5    0  503  0.16550730789E+03  0.47008954754E+02 -0.75313713015E+03  0.77253999741E+03  0.00000000000E+00 0.  1.
         -1    1    6    6    0  502 -0.79904179910E+02 -0.86641041076E+02  0.10867623906E+03  0.16031803673E+03  0.00000000000E+00 0.  1.
<mgrwt>
<rscale>  0 0.15787639E+04</rscale>
<asrwt>0</asrwt>
<pdfrwt beam="1">  1        2 0.15705065E+00 0.15787639E+04</pdfrwt>
<pdfrwt beam="2">  1       -2 0.93909159E-01 0.15787639E+04</pdfrwt>
<totfact> 0.22468640E+01</totfact>
</mgrwt>
</event>
<event>
12    1  0.2630772E-007  0.2016039E+04  0.7818608E-02  0.8599158E-01
          1   -1    0    0  501    0  0.00000000000E+00  0.00000000000E+00  0.85200658806E+03  0.85200658806E+03  0.00000000000E+00 0. -1.
         -1   -1    0    0    0  501 -0.00000000000E+00 -0.00000000000E+00 -0.11926007405E+04  0.11926007405E+04  0.00000000000E+00 0.  1.
         23    2    1    2    0    0 -0.20372951463E+03 -0.23330550795E+03 -0.88844832926E+03  0.94449032428E+03  0.82367249072E+02 0.  0.
        254    2    1    2    0    0  0.20372951463E+03  0.23330550795E+03  0.54785417684E+03  0.11001170043E+04  0.90231704450E+03 0.  0.
        -24    2    4    4    0    0 -0.19365517644E+03 -0.24688522333E+03  0.21615059370E+03  0.38925715836E+03  0.79658115161E+02 0.  0.
         24    2    4    4    0    0  0.39738469107E+03  0.48019073128E+03  0.33170358314E+03  0.71085984590E+03  0.82442236405E+02 0.  0.
         13    1    3    3    0    0 -0.14037173690E+02 -0.18689954304E+02 -0.22674146105E+02  0.32564912692E+02  0.00000000000E+00 0. -1.
        -13    1    3    3    0    0 -0.18969234094E+03 -0.21461555365E+03 -0.86577418316E+03  0.91192541159E+03  0.00000000000E+00 0.  1.
          4    1    6    6  502    0  0.23889737867E+02  0.28368265876E+02 -0.44640804070E+00  0.37090124890E+02  0.00000000000E+00 0. -1.
          1    1    5    5  503    0 -0.30721390719E+01 -0.43942642394E+02  0.18233672501E+02  0.47674528544E+02  0.00000000000E+00 0. -1.
         -2    1    5    5    0  503 -0.19058303737E+03 -0.20294258094E+03  0.19791692120E+03  0.34158262981E+03  0.00000000000E+00 0.  1.
         -3    1    6    6    0  502  0.37349495320E+03  0.45182246541E+03  0.33214999118E+03  0.67376972101E+03  0.00000000000E+00 0.  1.
<mgrwt>
<rscale>  0 0.20160394E+04</rscale>
<asrwt>0</asrwt>
<pdfrwt beam="1">  1        1 0.13107794E+00 0.20160394E+04</pdfrwt>
<pdfrwt beam="2">  1       -1 0.18347704E+00 0.20160394E+04</pdfrwt>
<totfact> 0.36316124E+00</totfact>
</mgrwt>
</event>
<event>
12    1  0.1532786E-007  0.2361261E+04  0.7818608E-02  0.8454151E-01
         -1   -1    0    0    0  501 -0.00000000000E+00  0.00000000000E+00  0.10296757690E+04  0.10296757690E+04  0.00000000000E+00 0.  1.
          1   -1    0    0  501    0  0.00000000000E+00 -0.00000000000E+00 -0.13537156867E+04  0.13537156867E+04  0.00000000000E+00 0. -1.
         23    2    1    2    0    0 -0.74831828443E+03 -0.35377134857E+03  0.43961191080E+03  0.94447425754E+03  0.11678428476E+03 0.  0.
        254    2    1    2    0    0  0.74831828443E+03  0.35377134857E+03 -0.76365182848E+03  0.14389171982E+04  0.89564734481E+03 0.  0.
        -24    2    4    4    0    0  0.80664117465E+03  0.77384024130E+02 -0.25832245415E+03  0.85440950726E+03  0.81405429547E+02 0.  0.
         24    2    4    4    0    0 -0.58322890220E+02  0.27638732444E+03 -0.50532937434E+03  0.58450769094E+03  0.80622277102E+02 0.  0.
         13    1    3    3    0    0 -0.13223161572E+03 -0.95866668361E+02  0.47969823089E+02  0.17022550404E+03  0.00000000000E+00 0. -1.
        -13    1    3    3    0    0 -0.61608666871E+03 -0.25790468020E+03  0.39164208771E+03  0.77424875350E+03  0.00000000000E+00 0.  1.
          4    1    6    6  502    0 -0.65933492772E+02  0.22215815403E+03 -0.45265513290E+03  0.50852545680E+03  0.00000000000E+00 0. -1.
          1    1    5    5  503    0  0.72823185737E+03  0.83620709390E+02 -0.21170737542E+03  0.76297711233E+03  0.00000000000E+00 0. -1.
         -2    1    5    5    0  503  0.78409317271E+02 -0.62366852601E+01 -0.46615078731E+02  0.91432394933E+02  0.00000000000E+00 0.  1.
         -3    1    6    6    0  502  0.76106025518E+01  0.54229170403E+02 -0.52674241441E+02  0.75982234142E+02  0.00000000000E+00 0.  1.
<mgrwt>
<rscale>  0 0.23612609E+04</rscale>
<asrwt>0</asrwt>
<pdfrwt beam="1">  1        1 0.20826395E+00 0.23612609E+04</pdfrwt>
<pdfrwt beam="2">  1       -1 0.15841166E+00 0.23612609E+04</pdfrwt>
<totfact> 0.22379789E+00</totfact>
</mgrwt>
</event>
<event>
12    1  0.1532786E-007  0.1770724E+04  0.7818608E-02  0.8722025E-01
         -1   -1    0    0    0  501 -0.00000000000E+00  0.00000000000E+00  0.10984369190E+04  0.10984369190E+04  0.00000000000E+00 0.  1.
          1   -1    0    0  501    0  0.00000000000E+00 -0.00000000000E+00 -0.71361921742E+03  0.71361921742E+03  0.00000000000E+00 0. -1.
         23    2    1    2    0    0  0.49729766420E+03 -0.29706395057E+03 -0.98531164214E+02  0.59452639346E+03  0.90560944410E+02 0.  0.
        254    2    1    2    0    0 -0.49729766420E+03  0.29706395057E+03  0.48334886583E+03  0.12175297430E+04  0.95561529469E+03 0.  0.
        -24    2    4    4    0    0 -0.69370950243E+03  0.47058172511E+03  0.33899974065E+03  0.90769048560E+03  0.79379844581E+02 0.  0.
         24    2    4    4    0    0  0.19641183823E+03 -0.17351777454E+03  0.14434912518E+03  0.30983925740E+03  0.80483956193E+02 0.  0.
         11    1    3    3    0    0  0.49144347922E+03 -0.28356367507E+03 -0.83507276511E+02  0.57349674482E+03  0.00000000000E+00 0. -1.
        -11    1    3    3    0    0  0.58541849813E+01 -0.13500275496E+02 -0.15023887703E+02  0.21029648641E+02  0.00000000000E+00 0.  1.
          4    1    6    6  502    0  0.18676789275E+03 -0.13024517206E+03  0.13439485757E+03  0.26440126389E+03  0.00000000000E+00 0. -1.
          1    1    5    5  503    0 -0.43118977952E+03  0.33706793871E+03  0.22950748358E+03  0.59347544708E+03  0.00000000000E+00 0. -1.
         -2    1    5    5    0  503 -0.26251972291E+03  0.13351378640E+03  0.10949225707E+03  0.31421503853E+03  0.00000000000E+00 0.  1.
         -3    1    6    6    0  502  0.96439454827E+01 -0.43272602484E+02  0.99542676127E+01  0.45437993507E+02  0.00000000000E+00 0.  1.
<mgrwt>
<rscale>  0 0.17707238E+04</rscale>
<asrwt>0</asrwt>
<pdfrwt beam="1">  1        1 0.10978757E+00 0.17707238E+04</pdfrwt>
<pdfrwt beam="2">  1       -1 0.16899030E+00 0.17707238E+04</pdfrwt>
<totfact> 0.62635746E+00</totfact>
</mgrwt>
</event>
<event>
12    1  0.1532786E-007  0.1220810E+04  0.7818608E-02  0.9094834E-01
         -1   -1    0    0    0  501 -0.00000000000E+00  0.00000000000E+00  0.49228497490E+03  0.49228497490E+03  0.00000000000E+00 0.  1.
          1   -1    0    0  501    0  0.00000000000E+00 -0.00000000000E+00 -0.75686680256E+03  0.75686680256E+03  0.00000000000E+00 0. -1.
         23    2    1    2    0    0 -0.92670133135E+02  0.21545195242E+03 -0.19314147099E+03  0.31713002329E+03  0.90887438507E+02 0.  0.
        254    2    1    2    0    0  0.92670133135E+02 -0.21545195242E+03 -0.71440356666E+02  0.93202175417E+03  0.89919604553E+03 0.  0.
        -24    2    4    4    0    0 -0.33097894474E+03  0.11919905392E+03  0.71014873874E+02  0.36757826724E+03  0.79468194409E+02 0.  0.
         24    2    4    4    0    0  0.42364907787E+03 -0.33465100635E+03 -0.14245523054E+03  0.56444348692E+03  0.82662688002E+02 0.  0.
         11    1    3    3    0    0 -0.88898958920E+02  0.22436020830E+03 -0.18132977829E+03  0.30186257877E+03  0.00000000000E+00 0. -1.
        -11    1    3    3    0    0 -0.37711742154E+01 -0.89082558799E+01 -0.11811692700E+02  0.15267444522E+02  0.00000000000E+00 0.  1.
          2    1    6    6  502    0  0.17219687804E+03 -0.14468534213E+03 -0.18055276898E+02  0.22563600346E+03  0.00000000000E+00 0. -1.
          3    1    5    5  503    0 -0.18258539992E+03  0.10178091762E+03  0.21337701428E+02  0.21012396569E+03  0.00000000000E+00 0. -1.
         -4    1    5    5    0  503 -0.14839354482E+03  0.17418136309E+02  0.49677172446E+02  0.15745430156E+03  0.00000000000E+00 0.  1.
         -1    1    6    6    0  502  0.25145219983E+03 -0.18996566422E+03 -0.12439995364E+03  0.33880748346E+03  0.00000000000E+00 0.  1.
<mgrwt>
<rscale>  0 0.12208098E+04</rscale>
<asrwt>0</asrwt>
<pdfrwt beam="1">  1        1 0.11644105E+00 0.12208098E+04</pdfrwt>
<pdfrwt beam="2">  1       -1 0.75736150E-01 0.12208098E+04</pdfrwt>
<totfact> 0.41814123E+01</totfact>
</mgrwt>
</event>
<event>
12    1  0.1532786E-007  0.2105778E+04  0.7818608E-02  0.8558702E-01
          1   -1    0    0  501    0  0.00000000000E+00  0.00000000000E+00  0.62905283234E+03  0.62905283234E+03  0.00000000000E+00 0. -1.
         -1   -1    0    0    0  501 -0.00000000000E+00 -0.00000000000E+00 -0.17622927489E+04  0.17622927489E+04  0.00000000000E+00 0.  1.
         23    2    1    2    0    0 -0.80116692221E+03  0.15569785158E+02 -0.81672414803E+03  0.11481130213E+04  0.94943774237E+02 0.  0.
        254    2    1    2    0    0  0.80116692221E+03 -0.15569785158E+02 -0.31651576855E+03  0.12432325600E+04  0.89628907777E+03 0.  0.
        -24    2    4    4    0    0  0.29245059642E+02  0.27861396171E+01  0.26183293479E+03  0.27533635836E+03  0.79941155880E+02 0.  0.
         24    2    4    4    0    0  0.77192186257E+03 -0.18355924775E+02 -0.57834870334E+03  0.96789620160E+03  0.78329640187E+02 0.  0.
         13    1    3    3    0    0 -0.73253633394E+03  0.39613131093E+02 -0.72991074829E+03  0.10348663591E+04  0.00000000000E+00 0.  1.
        -13    1    3    3    0    0 -0.68630588270E+02 -0.24043345934E+02 -0.86813399739E+02  0.11324666222E+03  0.00000000000E+00 0. -1.
          4    1    6    6  502    0  0.57817511073E+02 -0.15574561805E+02 -0.65279362021E+02  0.88582315774E+02  0.00000000000E+00 0. -1.
          1    1    5    5  503    0  0.15903317713E+02 -0.68690568774E+01  0.50759252105E+01  0.18051716634E+02  0.00000000000E+00 0. -1.
         -2    1    5    5    0  503  0.13341741929E+02  0.96551964945E+01  0.25675700958E+03  0.25728464172E+03  0.00000000000E+00 0.  1.
         -3    1    6    6    0  502  0.71410435149E+03 -0.27813629708E+01 -0.51306934132E+03  0.87931388583E+03  0.00000000000E+00 0.  1.
<mgrwt>
<rscale>  0 0.21057780E+04</rscale>
<asrwt>0</asrwt>
<pdfrwt beam="1">  1        1 0.96777361E-01 0.21057780E+04</pdfrwt>
<pdfrwt beam="2">  1       -1 0.27112196E+00 0.21057780E+04</pdfrwt>
<totfact> 0.14932050E+00</totfact>
</mgrwt>
</event>
<event>
12    1  0.1532786E-007  0.1598885E+04  0.7818608E-02  0.8821233E-01
          2   -1    0    0  501    0  0.00000000000E+00  0.00000000000E+00  0.16124744748E+04  0.16124744748E+04  0.00000000000E+00 0. -1.
         -2   -1    0    0    0  501 -0.00000000000E+00 -0.00000000000E+00 -0.39635260031E+03  0.39635260031E+03  0.00000000000E+00 0.  1.
         23    2    1    2    0    0 -0.46281042924E+03  0.23746869093E+03  0.71484222056E+03  0.88876435137E+03  0.91201970245E+02 0.  0.
        254    2    1    2    0    0  0.46281042924E+03 -0.23746869093E+03  0.50127965389E+03  0.11200627237E+04  0.85596398349E+03 0.  0.
        -24    2    4    4    0    0  0.44198921005E+03 -0.14095379897E+03  0.72386480187E+03  0.86343273335E+03  0.79456896429E+02 0.  0.
         24    2    4    4    0    0  0.20821219198E+02 -0.96514891958E+02 -0.22258514797E+03  0.25662999035E+03  0.81031822831E+02 0.  0.
         13    1    3    3    0    0 -0.31063332860E+03  0.16105023098E+03  0.40503315633E+03  0.53524022593E+03  0.00000000000E+00 0. -1.
        -13    1    3    3    0    0 -0.15217710065E+03  0.76418459953E+02  0.30980906423E+03  0.35352412543E+03  0.00000000000E+00 0.  1.
          4    1    6    6  502    0 -0.12676814385E+02  0.79238171226E+01 -0.11907050384E+02  0.19111942591E+02  0.00000000000E+00 0. -1.
          3    1    5    5  503    0  0.52525683192E+02 -0.44795537636E+02  0.92932851742E+02  0.11576745017E+03  0.00000000000E+00 0. -1.
         -4    1    5    5    0  503  0.38946352685E+03 -0.96158261336E+02  0.63093195012E+03  0.74766528317E+03  0.00000000000E+00 0.  1.
         -3    1    6    6    0  502  0.33498033583E+02 -0.10443870908E+03 -0.21067809759E+03  0.23751804776E+03  0.00000000000E+00 0.  1.
<mgrwt>
<rscale>  0 0.15988852E+04</rscale>
<asrwt>0</asrwt>
<pdfrwt beam="1">  1        2 0.24807299E+00 0.15988852E+04</pdfrwt>
<pdfrwt beam="2">  1       -2 0.60977324E-01 0.15988852E+04</pdfrwt>
<totfact> 0.26335758E+01</totfact>
</mgrwt>
</event>
<event>
12    1  0.1532786E-007  0.1515339E+04  0.7818608E-02  0.8874316E-01
          3   -1    0    0  501    0  0.00000000000E+00  0.00000000000E+00  0.11224772702E+04  0.11224772702E+04  0.00000000000E+00 0. -1.
         -3   -1    0    0    0  501 -0.00000000000E+00 -0.00000000000E+00 -0.51142540337E+03  0.51142540337E+03  0.00000000000E+00 0.  1.
         23    2    1    2    0    0  0.39539389573E+03 -0.28303955954E+02  0.48682040898E+03  0.63444986653E+03  0.91624646467E+02 0.  0.
        254    2    1    2    0    0 -0.39539389573E+03  0.28303955954E+02  0.12423145783E+03  0.99945280703E+03  0.90902970890E+03 0.  0.
        -24    2    4    4    0    0 -0.50844812460E+02  0.40551130044E+03  0.22436061619E+03  0.47253608837E+03  0.76993889203E+02 0.  0.
         24    2    4    4    0    0 -0.34454908326E+03 -0.37720734448E+03 -0.10012915836E+03  0.52691671866E+03  0.81338358366E+02 0.  0.
         13    1    3    3    0    0  0.37458836554E+03 -0.48672790505E+02  0.45132424058E+03  0.58853976439E+03  0.00000000000E+00 0. -1.
        -13    1    3    3    0    0  0.20805530180E+02  0.20368834551E+02  0.35496168402E+02  0.45910102138E+02  0.00000000000E+00 0.  1.
          2    1    6    6  502    0 -0.67837148707E+01  0.40956269846E+01 -0.17189830406E+01  0.81085048275E+01  0.00000000000E+00 0. -1.
          1    1    5    5  503    0  0.15789214087E+02  0.49640224802E+02  0.43266508544E+02  0.67715891499E+02  0.00000000000E+00 0. -1.
         -2    1    5    5    0  503 -0.66634026547E+02  0.35587107563E+03  0.18109410765E+03  0.40482019687E+03  0.00000000000E+00 0.  1.
         -3    1    6    6    0  502 -0.33776536839E+03 -0.38130297147E+03 -0.98410175316E+02  0.51880821383E+03  0.00000000000E+00 0.  1.
<mgrwt>
<rscale>  0 0.15153394E+04</rscale>
<asrwt>0</asrwt>
<pdfrwt beam="1">  1        3 0.17268881E+00 0.15153394E+04</pdfrwt>
<pdfrwt beam="2">  1       -3 0.78680832E-01 0.15153394E+04</pdfrwt>
<totfact> 0.84908011E-01</totfact>
</mgrwt>
</event>
<event>
12    1  0.1532786E-007  0.1370331E+04  0.7818608E-02  0.8975579E-01
          1   -1    0    0  501    0  0.00000000000E+00  0.00000000000E+00  0.11525060097E+04  0.11525060097E+04  0.00000000000E+00 0. -1.
         -1   -1    0    0    0  501 -0.00000000000E+00 -0.00000000000E+00 -0.40733148297E+03  0.40733148297E+03  0.00000000000E+00 0.  1.
         23    2    1    2    0    0 -0.15971483250E+03  0.13254540790E+03 -0.15246021409E+03  0.27333309787E+03  0.91595592874E+02 0.  0.
        254    2    1    2    0    0  0.15971483250E+03 -0.13254540790E+03  0.89763474080E+03  0.12865043948E+04  0.89792444950E+03 0.  0.
        -24    2    4    4    0    0  0.42950456143E+03 -0.74840382776E+02  0.89560271851E+03  0.99930426896E+03  0.80184420916E+02 0.  0.
         24    2    4    4    0    0 -0.26978972893E+03 -0.57705025126E+02  0.20320222808E+01  0.28720012582E+03  0.79771018527E+02 0.  0.
         11    1    3    3    0    0 -0.39008101067E+02  0.16863510020E+01 -0.62933135711E+02  0.74061159179E+02  0.00000000000E+00 0. -1.
        -11    1    3    3    0    0 -0.12070673144E+03  0.13085905690E+03 -0.89527078376E+02  0.19927193869E+03  0.00000000000E+00 0.  1.
          4    1    6    6  502    0 -0.67428771249E+01 -0.15429526645E+02 -0.11570616790E+02  0.20430757629E+02  0.00000000000E+00 0. -1.
          3    1    5    5  503    0  0.19608350691E+03 -0.25176936840E+02  0.31933056861E+03  0.37557240564E+03  0.00000000000E+00 0. -1.
         -4    1    5    5    0  503  0.23342105452E+03 -0.49663445935E+02  0.57627214991E+03  0.62373186332E+03  0.00000000000E+00 0.  1.
         -3    1    6    6    0  502 -0.26304685180E+03 -0.42275498480E+02  0.13602639071E+02  0.26676936819E+03  0.00000000000E+00 0.  1.
<mgrwt>
<rscale>  0 0.13703313E+04</rscale>
<asrwt>0</asrwt>
<pdfrwt beam="1">  1        1 0.17730862E+00 0.13703313E+04</pdfrwt>
<pdfrwt beam="2">  1       -1 0.62666382E-01 0.13703313E+04</pdfrwt>
<totfact> 0.29236637E+01</totfact>
</mgrwt>
</event>
<event>
12    1  0.1532786E-007  0.1402418E+04  0.7818608E-02  0.8952070E-01
         -1   -1    0    0    0  501 -0.00000000000E+00  0.00000000000E+00  0.43075011373E+03  0.43075011373E+03  0.00000000000E+00 0.  1.
          1   -1    0    0  501    0  0.00000000000E+00 -0.00000000000E+00 -0.11414827067E+04  0.11414827067E+04  0.00000000000E+00 0. -1.
         23    2    1    2    0    0  0.95954967828E+02  0.38687047060E+03 -0.13100420072E+03  0.42952406342E+03  0.91938585880E+02 0.  0.
        254    2    1    2    0    0 -0.95954967828E+02 -0.38687047060E+03 -0.57972839224E+03  0.11427087570E+04  0.90045664954E+03 0.  0.
        -24    2    4    4    0    0  0.39848791972E+02 -0.15114933128E+03 -0.77756096696E+03  0.79723731053E+03  0.80945817616E+02 0.  0.
         24    2    4    4    0    0 -0.13580375980E+03 -0.23572113932E+03  0.19783257472E+03  0.34547144648E+03  0.78776113222E+02 0.  0.
         13    1    3    3    0    0  0.34705076019E+02  0.25529331899E+03 -0.47192885652E+02  0.26192802347E+03  0.00000000000E+00 0.  1.
        -13    1    3    3    0    0  0.61249891809E+02  0.13157715161E+03 -0.83811315064E+02  0.16759603994E+03  0.00000000000E+00 0. -1.
          2    1    6    6  502    0 -0.57594609112E+02 -0.15157336827E+03  0.79647135339E+02  0.18065240418E+03  0.00000000000E+00 0. -1.
          1    1    5    5  503    0 -0.64352909756E+01 -0.32551346263E+02 -0.60866485637E+02  0.69323388457E+02  0.00000000000E+00 0. -1.
         -2    1    5    5    0  503  0.46284082947E+02 -0.11859798502E+03 -0.71669448132E+03  0.72791392207E+03  0.00000000000E+00 0.  1.
         -1    1    6    6    0  502 -0.78209150687E+02 -0.84147771052E+02  0.11818543938E+03  0.16481904230E+03  0.00000000000E+00 0.  1.
<mgrwt>
<rscale>  0 0.14024176E+04</rscale>
<asrwt>0</asrwt>
<pdfrwt beam="1">  1        1 0.17561272E+00 0.14024176E+04</pdfrwt>
<pdfrwt beam="2">  1       -1 0.66269248E-01 0.14024176E+04</pdfrwt>
<totfact> 0.26553388E+01</totfact>
</mgrwt>
</event>
<event>
12    1  0.1532786E-007  0.2016675E+04  0.7818608E-02  0.8598864E-01
          1   -1    0    0  501    0  0.00000000000E+00  0.00000000000E+00  0.41070399717E+03  0.41070399717E+03  0.00000000000E+00 0. -1.
         -1   -1    0    0    0  501 -0.00000000000E+00 -0.00000000000E+00 -0.24756138890E+04  0.24756138890E+04  0.00000000000E+00 0.  1.
         23    2    1    2    0    0 -0.73422624339E+03 -0.23843784015E+03 -0.50268543787E+03  0.92570798751E+03  0.91114480703E+02 0.  0.
        254    2    1    2    0    0  0.73422624339E+03  0.23843784015E+03 -0.15622244539E+04  0.19606098986E+04  0.89861290332E+03 0.  0.
        -24    2    4    4    0    0  0.17171619125E+02  0.16492299392E+03  0.51160073593E+02  0.19178849209E+03  0.81676276489E+02 0.  0.
         24    2    4    4    0    0  0.71705462427E+03  0.73514846236E+02 -0.16133845275E+04  0.17688214065E+04  0.78407702133E+02 0.  0.
         11    1    3    3    0    0 -0.68942798212E+03 -0.22221286614E+03 -0.49527572495E+03  0.87748934132E+03  0.00000000000E+00 0. -1.
        -11    1    3    3    0    0 -0.44798261269E+02 -0.16224974016E+02 -0.74097129165E+01  0.48218646186E+02  0.00000000000E+00 0.  1.
          2    1    6    6  502    0  0.23594702615E+03  0.12277503888E+02 -0.44637281455E+03  0.50504497406E+03  0.00000000000E+00 0. -1.
          3    1    5    5  503    0 -0.20052913411E+02  0.54838533077E+01  0.22411206113E+01  0.20909677304E+02  0.00000000000E+00 0. -1.
         -4    1    5    5    0  503  0.37224532536E+02  0.15943914061E+03  0.48918952982E+02  0.17087881478E+03  0.00000000000E+00 0.  1.
         -1    1    6    6    0  502  0.48110759812E+03  0.61237342349E+02 -0.11670117130E+04  0.12637764325E+04  0.00000000000E+00 0.  1.
<mgrwt>
<rscale>  0 0.20166750E+04</rscale>
<asrwt>0</asrwt>
<pdfrwt beam="1">  1        1 0.63185230E-01 0.20166750E+04</pdfrwt>
<pdfrwt beam="2">  1       -1 0.38086368E+00 0.20166750E+04</pdfrwt>
<totfact> 0.51880442E-01</totfact>
</mgrwt>
</event>
<event>
12    1  0.1532786E-007  0.2147193E+04  0.7818608E-02  0.8540735E-01
          1   -1    0    0  501    0  0.00000000000E+00  0.00000000000E+00  0.26624521378E+04  0.26624521378E+04  0.00000000000E+00 0. -1.
         -1   -1    0    0    0  501 -0.00000000000E+00 -0.00000000000E+00 -0.43291254853E+03  0.43291254853E+03  0.00000000000E+00 0.  1.
         23    2    1    2    0    0  0.29027696943E+03 -0.81273989117E+02  0.20990036603E+04  0.21224932601E+04  0.91077402029E+02 0.  0.
        254    2    1    2    0    0 -0.29027696943E+03  0.81273989117E+02  0.13053592906E+03  0.97287142626E+03  0.91573631738E+03 0.  0.
        -24    2    4    4    0    0  0.65124746266E+02 -0.23147125726E+03  0.36052205922E+03  0.44060870265E+03  0.79622221485E+02 0.  0.
         24    2    4    4    0    0 -0.35540171569E+03  0.31274524638E+03 -0.22998613016E+03  0.53226272361E+03  0.79309635128E+02 0.  0.
         11    1    3    3    0    0  0.21122955822E+03 -0.44014054970E+02  0.11992315078E+04  0.12184873297E+04  0.00000000000E+00 0.  1.
        -11    1    3    3    0    0  0.79047411207E+02 -0.37259934147E+02  0.89977215244E+03  0.90400593041E+03  0.00000000000E+00 0. -1.
          4    1    6    6  502    0 -0.32834236685E+03  0.31200440720E+03 -0.21698751172E+03  0.50223404924E+03  0.00000000000E+00 0. -1.
          1    1    5    5  503    0  0.28837558037E+02 -0.18168632901E+03  0.21738296837E+03  0.28477514260E+03  0.00000000000E+00 0. -1.
         -2    1    5    5    0  503  0.36287188230E+02 -0.49784928249E+02  0.14313909085E+03  0.15583356005E+03  0.00000000000E+00 0.  1.
         -3    1    6    6    0  502 -0.27059348844E+02  0.74083918273E+00 -0.12998618445E+02  0.30028674364E+02  0.00000000000E+00 0.  1.
<mgrwt>
<rscale>  0 0.21471925E+04</rscale>
<asrwt>0</asrwt>
<pdfrwt beam="1">  1        1 0.40960801E+00 0.21471925E+04</pdfrwt>
<pdfrwt beam="2">  1       -1 0.66601932E-01 0.21471925E+04</pdfrwt>
<totfact> 0.21830806E+00</totfact>
</mgrwt>
</event>
<event>
12    1  0.1532786E-007  0.1240022E+04  0.7818608E-02  0.9078529E-01
          1   -1    0    0  501    0  0.00000000000E+00  0.00000000000E+00  0.22720419079E+04  0.22720419079E+04  0.00000000000E+00 0. -1.
         -1   -1    0    0    0  501 -0.00000000000E+00 -0.00000000000E+00 -0.16919300003E+03  0.16919300003E+03  0.00000000000E+00 0.  1.
         23    2    1    2    0    0  0.12116254110E+03  0.69798106251E+02  0.25451953339E+02  0.17102059607E+03  0.95121529361E+02 0.  0.
        254    2    1    2    0    0 -0.12116254110E+03 -0.69798106251E+02  0.20773969545E+04  0.22702143119E+04  0.90484406284E+03 0.  0.
        -24    2    4    4    0    0  0.27366126605E+03  0.48029697740E+01  0.16645636348E+04  0.16888915995E+04  0.81665068203E+02 0.  0.
         24    2    4    4    0    0 -0.39482380715E+03 -0.74601076024E+02  0.41283331970E+03  0.58132271237E+03  0.77804799527E+02 0.  0.
         13    1    3    3    0    0  0.47485286613E+02  0.43606397814E+02 -0.33912119734E+02  0.72845056386E+02  0.00000000000E+00 0.  1.
        -13    1    3    3    0    0  0.73677254487E+02  0.26191708437E+02  0.59364073074E+02  0.98175539680E+02  0.00000000000E+00 0. -1.
          2    1    6    6  502    0 -0.39328966325E+03 -0.63902531663E+02  0.40103648692E+03  0.56532340887E+03  0.00000000000E+00 0. -1.
          1    1    5    5  503    0  0.27046132359E+03  0.51425158849E+01  0.14936698315E+04  0.15179675024E+04  0.00000000000E+00 0. -1.
         -2    1    5    5    0  503  0.31999424539E+01 -0.33954611090E+00  0.17089380337E+03  0.17092409705E+03  0.00000000000E+00 0.  1.
         -1    1    6    6    0  502 -0.15341438966E+01 -0.10698544361E+02  0.11796832781E+02  0.15999303504E+02  0.00000000000E+00 0.  1.
<mgrwt>
<rscale>  0 0.12400219E+04</rscale>
<asrwt>0</asrwt>
<pdfrwt beam="1">  1        1 0.34954489E+00 0.12400219E+04</pdfrwt>
<pdfrwt beam="2">  1       -1 0.26029694E-01 0.12400219E+04</pdfrwt>
<totfact> 0.25169801E+01</totfact>
</mgrwt>
</event>
<event>
12    1  0.1532786E-007  0.1499789E+04  0.7818608E-02  0.8884593E-01
         -1   -1    0    0    0  501 -0.00000000000E+00  0.00000000000E+00  0.22412452581E+04  0.22412452581E+04  0.00000000000E+00 0.  1.
          1   -1    0    0  501    0  0.00000000000E+00 -0.00000000000E+00 -0.25090591963E+03  0.25090591963E+03  0.00000000000E+00 0. -1.
         23    2    1    2    0    0  0.14986262887E+03  0.34442875081E+03  0.15800475959E+03  0.41753088306E+03  0.90975614021E+02 0.  0.
        254    2    1    2    0    0 -0.14986262887E+03 -0.34442875081E+03  0.18323345789E+04  0.20746202947E+04  0.89750174716E+03 0.  0.
        -24    2    4    4    0    0 -0.24135377396E+03  0.23430213390E+03  0.96406040795E+03  0.10241067732E+04  0.78949848285E+02 0.  0.
         24    2    4    4    0    0  0.91491145090E+02 -0.57873088471E+03  0.86827417098E+03  0.10505135215E+04  0.79865864888E+02 0.  0.
         11    1    3    3    0    0  0.46181192003E+02  0.32407962955E+02  0.35483439328E+02  0.66648728602E+02  0.00000000000E+00 0.  1.
        -11    1    3    3    0    0  0.10368143687E+03  0.31202078785E+03  0.12252132026E+03  0.35088215446E+03  0.00000000000E+00 0. -1.
          2    1    6    6  502    0  0.40706066592E+02 -0.32222405221E+03  0.54841956673E+03  0.63737692526E+03  0.00000000000E+00 0. -1.
          3    1    5    5  503    0 -0.22894034627E+02 -0.27839324524E+01  0.69518369888E+02  0.73244049951E+02  0.00000000000E+00 0. -1.
         -4    1    5    5    0  503 -0.21845973933E+03  0.23708606635E+03  0.89454203806E+03  0.95086272323E+03  0.00000000000E+00 0.  1.
         -1    1    6    6    0  502  0.50785078497E+02 -0.25650683249E+03  0.31985460425E+03  0.41313659627E+03  0.00000000000E+00 0.  1.
<mgrwt>
<rscale>  0 0.14997889E+04</rscale>
<asrwt>0</asrwt>
<pdfrwt beam="1">  1        1 0.38600912E-01 0.14997889E+04</pdfrwt>
<pdfrwt beam="2">  1       -1 0.34480695E+00 0.14997889E+04</pdfrwt>
<totfact> 0.18095584E+00</totfact>
</mgrwt>
</event>
<event>
12    1  0.1532786E-007  0.1949111E+04  0.7818608E-02  0.8630790E-01
          2   -1    0    0  501    0  0.00000000000E+00  0.00000000000E+00  0.10209753016E+04  0.10209753016E+04  0.00000000000E+00 0. -1.
         -2   -1    0    0    0  501 -0.00000000000E+00 -0.00000000000E+00 -0.93024585929E+03  0.93024585929E+03  0.00000000000E+00 0.  1.
         23    2    1    2    0    0  0.39337854660E+02 -0.54144442202E+03 -0.48702427192E+03  0.73481856159E+03  0.89756047556E+02 0.  0.
        254    2    1    2    0    0 -0.39337854660E+02  0.54144442202E+03  0.57775371418E+03  0.12164025993E+04  0.92256511980E+03 0.  0.
        -24    2    4    4    0    0 -0.35241641830E+03  0.26549541724E+03 -0.57960373530E+02  0.45222345758E+03  0.80383469828E+02 0.  0.
         24    2    4    4    0    0  0.31307856364E+03  0.27594900478E+03  0.63571408771E+03  0.76417914167E+03  0.75308160301E+02 0.  0.
         13    1    3    3    0    0  0.54484989230E+02 -0.35002913882E+03 -0.35695676917E+03  0.50289874441E+03  0.00000000000E+00 0.  1.
        -13    1    3    3    0    0 -0.15147134570E+02 -0.19141528320E+03 -0.13006750275E+03  0.23191981718E+03  0.00000000000E+00 0. -1.
          4    1    6    6  502    0  0.25655290422E+02  0.57019114200E+02  0.10317336509E+03  0.12064044337E+03  0.00000000000E+00 0. -1.
          3    1    5    5  503    0 -0.18987493721E+03  0.16835962811E+03  0.14402317658E+01  0.25377062561E+03  0.00000000000E+00 0. -1.
         -4    1    5    5    0  503 -0.16254148109E+03  0.97135789135E+02 -0.59400605296E+02  0.19845283196E+03  0.00000000000E+00 0.  1.
         -3    1    6    6    0  502  0.28742327321E+03  0.21892989058E+03  0.53254072262E+03  0.64353869831E+03  0.00000000000E+00 0.  1.
<mgrwt>
<rscale>  0 0.19491106E+04</rscale>
<asrwt>0</asrwt>
<pdfrwt beam="1">  1        2 0.15707312E+00 0.19491106E+04</pdfrwt>
<pdfrwt beam="2">  1       -2 0.14311475E+00 0.19491106E+04</pdfrwt>
<totfact> 0.77254202E+00</totfact>
</mgrwt>
</event>
<event>
12    1  0.1532786E-007  0.1971103E+04  0.7818608E-02  0.8620251E-01
          1   -1    0    0  501    0  0.00000000000E+00  0.00000000000E+00  0.43265104450E+03  0.43265104450E+03  0.00000000000E+00 0. -1.
         -1   -1    0    0    0  501 -0.00000000000E+00 -0.00000000000E+00 -0.22450236745E+04  0.22450236745E+04  0.00000000000E+00 0.  1.
         23    2    1    2    0    0 -0.69651254232E+02  0.15840316729E+03  0.31094196565E+03  0.36746105520E+03  0.91650752663E+02 0.  0.
        254    2    1    2    0    0  0.69651254232E+02 -0.15840316729E+03 -0.21233145957E+04  0.23102136638E+04  0.89368867046E+03 0.  0.
        -24    2    4    4    0    0  0.35477119018E+03  0.20501894303E+03 -0.74124589757E+03  0.85077882465E+03  0.80521819564E+02 0.  0.
         24    2    4    4    0    0 -0.28511993595E+03 -0.36342211032E+03 -0.13820686981E+04  0.14594348392E+04  0.80418625838E+02 0.  0.
         11    1    3    3    0    0  0.15382021943E+02  0.71336077382E+02  0.97871439408E+02  0.12208300941E+03  0.00000000000E+00 0.  1.
        -11    1    3    3    0    0 -0.85033276176E+02  0.87067089908E+02  0.21307052624E+03  0.24537804579E+03  0.00000000000E+00 0. -1.
          4    1    6    6  502    0 -0.22027862353E+03 -0.32684860710E+03 -0.11801997708E+04  0.12442765701E+04  0.00000000000E+00 0. -1.
          1    1    5    5  503    0  0.23275958186E+03  0.16391110489E+03 -0.45211308930E+03  0.53427532114E+03  0.00000000000E+00 0. -1.
         -2    1    5    5    0  503  0.12201160832E+03  0.41107838138E+02 -0.28913280826E+03  0.31650350351E+03  0.00000000000E+00 0.  1.
         -3    1    6    6    0  502 -0.64841312417E+02 -0.36573503218E+02 -0.20186892731E+03  0.21515826906E+03  0.00000000000E+00 0.  1.
<mgrwt>
<rscale>  0 0.19711031E+04</rscale>
<asrwt>0</asrwt>
<pdfrwt beam="1">  1        1 0.66561698E-01 0.19711031E+04</pdfrwt>
<pdfrwt beam="2">  1       -1 0.34538827E+00 0.19711031E+04</pdfrwt>
<totfact> 0.83848639E-01</totfact>
</mgrwt>
</event>
<event>
12    1  0.1532786E-007  0.2041578E+04  0.7818608E-02  0.8587425E-01
          2   -1    0    0  501    0  0.00000000000E+00  0.00000000000E+00  0.18005873543E+04  0.18005873543E+04  0.00000000000E+00 0. -1.
         -2   -1    0    0    0  501 -0.00000000000E+00 -0.00000000000E+00 -0.57870547323E+03  0.57870547323E+03  0.00000000000E+00 0.  1.
         23    2    1    2    0    0 -0.64412394205E+02 -0.56523882389E+03 -0.19854190585E+03  0.60936262071E+03  0.90884710343E+02 0.  0.
        254    2    1    2    0    0  0.64412394205E+02  0.56523882389E+03  0.14204237869E+04  0.17699302068E+04  0.88960964361E+03 0.  0.
        -24    2    4    4    0    0  0.36867642196E+03  0.46107639797E+03  0.45606943376E+03  0.75058047560E+03  0.82812879889E+02 0.  0.
         24    2    4    4    0    0 -0.30426402775E+03  0.10416242592E+03  0.96435435315E+03  0.10193497312E+04  0.75287093908E+02 0.  0.
         13    1    3    3    0    0 -0.22880619204E+02 -0.53650722065E+02 -0.44846239889E+02  0.73573826497E+02  0.00000000000E+00 0. -1.
        -13    1    3    3    0    0 -0.41531775001E+02 -0.51158810183E+03 -0.15369566597E+03  0.53578879421E+03  0.00000000000E+00 0.  1.
          4    1    6    6  502    0 -0.80887943448E+02  0.89089977858E+01  0.33572841793E+03  0.34545014147E+03  0.00000000000E+00 0. -1.
          3    1    5    5  503    0  0.15856058975E+03  0.26356957418E+03  0.24439386221E+03  0.39285969625E+03  0.00000000000E+00 0. -1.
         -4    1    5    5    0  503  0.21011583221E+03  0.19750682379E+03  0.21167557155E+03  0.35772077935E+03  0.00000000000E+00 0.  1.
         -3    1    6    6    0  502 -0.22337608431E+03  0.95253428139E+02  0.62862593522E+03  0.67389958973E+03  0.00000000000E+00 0.  1.
<mgrwt>
<rscale>  0 0.20415776E+04</rscale>
<asrwt>0</asrwt>
<pdfrwt beam="1">  1        2 0.27701344E+00 0.20415776E+04</pdfrwt>
<pdfrwt beam="2">  1       -2 0.89031612E-01 0.20415776E+04</pdfrwt>
<totfact> 0.86501442E+00</totfact>
</mgrwt>
</event>
<event>
12    1  0.1532786E-007  0.1695047E+04  0.7818608E-02  0.8764194E-01
          1   -1    0    0  501    0  0.00000000000E+00  0.00000000000E+00  0.50731707045E+03  0.50731707045E+03  0.00000000000E+00 0. -1.
         -1   -1    0    0    0  501 -0.00000000000E+00 -0.00000000000E+00 -0.14158727297E+04  0.14158727297E+04  0.00000000000E+00 0.  1.
         23    2    1    2    0    0 -0.20959909073E+02  0.56992893581E+03 -0.56399487171E+03  0.80723931239E+03  0.91031766436E+02 0.  0.
        254    2    1    2    0    0  0.20959909073E+02 -0.56992893581E+03 -0.34456078759E+03  0.11159504878E+04  0.89518994925E+03 0.  0.
        -24    2    4    4    0    0 -0.32284517388E+02 -0.47381726813E+02  0.27947750487E+03  0.29640631712E+03  0.80384768481E+02 0.  0.
         24    2    4    4    0    0  0.53244426462E+02 -0.52254720899E+03 -0.62403829246E+03  0.81954417068E+03  0.79613457819E+02 0.  0.
         11    1    3    3    0    0  0.85493465809E+01  0.38570407630E+03 -0.42894196298E+03  0.57691588070E+03  0.00000000000E+00 0.  1.
        -11    1    3    3    0    0 -0.29509255654E+02  0.18422485951E+03 -0.13505290873E+03  0.23032343169E+03  0.00000000000E+00 0. -1.
          2    1    6    6  502    0  0.12896008772E+01 -0.47476443773E+02 -0.97577037312E+02  0.10852167523E+03  0.00000000000E+00 0. -1.
          1    1    5    5  503    0  0.17775200442E+02  0.39997804598E+01  0.19388654162E+02  0.26605937395E+02  0.00000000000E+00 0. -1.
         -2    1    5    5    0  503 -0.50059717830E+02 -0.51381507273E+02  0.26008885071E+03  0.26980037973E+03  0.00000000000E+00 0.  1.
         -1    1    6    6    0  502  0.51954825584E+02 -0.47507076522E+03 -0.52646125514E+03  0.71102249545E+03  0.00000000000E+00 0.  1.
<mgrwt>
<rscale>  0 0.16950474E+04</rscale>
<asrwt>0</asrwt>
<pdfrwt beam="1">  1        1 0.78048780E-01 0.16950474E+04</pdfrwt>
<pdfrwt beam="2">  1       -1 0.21782657E+00 0.16950474E+04</pdfrwt>
<totfact> 0.47059238E+00</totfact>
</mgrwt>
</event>
<event>
12    1  0.1532786E-007  0.2051518E+04  0.7818608E-02  0.8582906E-01
          1   -1    0    0  501    0  0.00000000000E+00  0.00000000000E+00  0.32621150554E+04  0.32621150554E+04  0.00000000000E+00 0. -1.
         -1   -1    0    0    0  501 -0.00000000000E+00 -0.00000000000E+00 -0.32254584681E+03  0.32254584681E+03  0.00000000000E+00 0.  1.
         23    2    1    2    0    0 -0.53042523400E+03 -0.45170088383E+03  0.42057002677E+03  0.81864584966E+03  0.88978999901E+02 0.  0.
        254    2    1    2    0    0  0.53042523400E+03  0.45170088383E+03  0.25189991818E+04  0.27660150525E+04  0.90559249973E+03 0.  0.
        -24    2    4    4    0    0 -0.23800817898E+03  0.10093965445E+03  0.87043993038E+03  0.91194777222E+03  0.84536144653E+02 0.  0.
         24    2    4    4    0    0  0.76843341298E+03  0.35076122938E+03  0.16485592514E+04  0.18540672803E+04  0.79338037862E+02 0.  0.
         13    1    3    3    0    0 -0.11354721923E+03 -0.73475303295E+02  0.47473628341E+02  0.14333644539E+03  0.00000000000E+00 0. -1.
        -13    1    3    3    0    0 -0.41687801478E+03 -0.37822558053E+03  0.37309639843E+03  0.67530940427E+03  0.00000000000E+00 0.  1.
          2    1    6    6  502    0  0.77340932908E+02  0.10805030581E+02  0.16200175514E+03  0.17984142253E+03  0.00000000000E+00 0. -1.
          3    1    5    5  503    0 -0.48954809750E+02 -0.30894316429E+01  0.25757831258E+03  0.26220737041E+03  0.00000000000E+00 0. -1.
         -4    1    5    5    0  503 -0.18905336923E+03  0.10402908610E+03  0.61286161780E+03  0.64974040181E+03  0.00000000000E+00 0.  1.
         -1    1    6    6    0  502  0.69109248007E+03  0.33995619879E+03  0.14865574963E+04  0.16742258578E+04  0.00000000000E+00 0.  1.
<mgrwt>
<rscale>  0 0.20515181E+04</rscale>
<asrwt>0</asrwt>
<pdfrwt beam="1">  1        1 0.50186383E+00 0.20515181E+04</pdfrwt>
<pdfrwt beam="2">  1       -1 0.49622440E-01 0.20515181E+04</pdfrwt>
<totfact> 0.14390852E+00</totfact>
</mgrwt>
</event>
<event>
12    1  0.1532786E-007  0.1458212E+04  0.7818608E-02  0.8912727E-01
         -1   -1    0    0    0  501 -0.00000000000E+00  0.00000000000E+00  0.66170021438E+03  0.66170021438E+03  0.00000000000E+00 0.  1.
          1   -1    0    0  501    0  0.00000000000E+00 -0.00000000000E+00 -0.80337852620E+03  0.80337852620E+03  0.00000000000E+00 0. -1.
         23    2    1    2    0    0 -0.78588404153E+02 -0.39129931444E+03  0.14739264583E+03  0.43593997667E+03  0.95014632903E+02 0.  0.
        254    2    1    2    0    0  0.78588404153E+02  0.39129931444E+03 -0.28907095765E+03  0.10291387639E+04  0.90347843697E+03 0.  0.
        -24    2    4    4    0    0 -0.18879456844E+03 -0.15946208875E+03 -0.31937976832E+03  0.41108375602E+03  0.76908200041E+02 0.  0.
         24    2    4    4    0    0  0.26738297259E+03  0.55076140319E+03  0.30308810669E+02  0.61805500788E+03  0.79003743536E+02 0.  0.
         13    1    3    3    0    0 -0.18581553931E+02 -0.32428065787E+02  0.43899005922E+02  0.57653935842E+02  0.00000000000E+00 0. -1.
        -13    1    3    3    0    0 -0.60006850222E+02 -0.35887124865E+03  0.10349363991E+03  0.37828604083E+03  0.00000000000E+00 0.  1.
          2    1    6    6  502    0  0.28637832922E+02  0.78295405334E+02  0.30270147030E+02  0.88693730174E+02  0.00000000000E+00 0. -1.
          1    1    5    5  503    0 -0.11828985102E+03 -0.63813667786E+02 -0.12669572762E+03  0.18470647105E+03  0.00000000000E+00 0. -1.
         -2    1    5    5    0  503 -0.70504717419E+02 -0.95648420962E+02 -0.19268404070E+03  0.22637728497E+03  0.00000000000E+00 0.  1.
         -1    1    6    6    0  502  0.23874513967E+03  0.47246599785E+03  0.38663638546E-01  0.52936127771E+03  0.00000000000E+00 0.  1.
<mgrwt>
<rscale>  0 0.14582123E+04</rscale>
<asrwt>0</asrwt>
<pdfrwt beam="1">  1        1 0.12359670E+00 0.14582123E+04</pdfrwt>
<pdfrwt beam="2">  1       -1 0.10180003E+00 0.14582123E+04</pdfrwt>
<totfact> 0.19505129E+01</totfact>
</mgrwt>
</event>
<event>
12    1  0.1532786E-007  0.1466804E+04  0.7818608E-02  0.8906833E-01
          2   -1    0    0  501    0  0.00000000000E+00  0.00000000000E+00  0.13647643674E+04  0.13647643674E+04  0.00000000000E+00 0. -1.
         -2   -1    0    0    0  501 -0.00000000000E+00 -0.00000000000E+00 -0.39411814945E+03  0.39411814945E+03  0.00000000000E+00 0.  1.
         23    2    1    2    0    0 -0.17009141130E+03 -0.51179170887E+02  0.81335419114E+03  0.83701770376E+03  0.86621016191E+02 0.  0.
        254    2    1    2    0    0  0.17009141130E+03  0.51179170887E+02  0.15729202678E+03  0.92186481306E+03  0.89081061743E+03 0.  0.
        -24    2    4    4    0    0  0.52155070221E+03  0.77740709539E+02  0.17082645599E+03  0.56014399786E+03  0.80751887774E+02 0.  0.
         24    2    4    4    0    0 -0.35145929091E+03 -0.26561538652E+02 -0.13534429212E+02  0.36172081519E+03  0.80184904236E+02 0.  0.
         13    1    3    3    0    0 -0.17516917261E+03 -0.54821871620E+02  0.70559584998E+03  0.72907830865E+03  0.00000000000E+00 0. -1.
        -13    1    3    3    0    0  0.50777613027E+01  0.36427007332E+01  0.10775834115E+03  0.10793939511E+03  0.00000000000E+00 0.  1.
          4    1    6    6  502    0 -0.45575604736E+02 -0.29136266959E+02  0.96574944352E+01  0.54948384854E+02  0.00000000000E+00 0. -1.
          1    1    5    5  503    0  0.18455580768E+03  0.95663154810E+01  0.96094733900E+02  0.20829440324E+03  0.00000000000E+00 0. -1.
         -2    1    5    5    0  503  0.33699489453E+03  0.68174394058E+02  0.74731722088E+02  0.35184959462E+03  0.00000000000E+00 0.  1.
         -3    1    6    6    0  502 -0.30588368617E+03  0.25747283071E+01 -0.23191923647E+02  0.30677243034E+03  0.00000000000E+00 0.  1.
<mgrwt>
<rscale>  0 0.14668039E+04</rscale>
<asrwt>0</asrwt>
<pdfrwt beam="1">  1        2 0.20996375E+00 0.14668039E+04</pdfrwt>
<pdfrwt beam="2">  1       -2 0.60633562E-01 0.14668039E+04</pdfrwt>
<totfact> 0.37192750E+01</totfact>
</mgrwt>
</event>
<event>
12    1  0.1532786E-007  0.1137925E+04  0.7818608E-02  0.9168996E-01
         -1   -1    0    0    0  501 -0.00000000000E+00  0.00000000000E+00  0.35413871134E+03  0.35413871134E+03  0.00000000000E+00 0.  1.
          1   -1    0    0  501    0  0.00000000000E+00 -0.00000000000E+00 -0.91410041899E+03  0.91410041899E+03  0.00000000000E+00 0. -1.
         23    2    1    2    0    0  0.13305498749E+03 -0.13830678659E+03 -0.13206807518E+03  0.25204534868E+03  0.96189835206E+02 0.  0.
        254    2    1    2    0    0 -0.13305498749E+03  0.13830678659E+03 -0.42789363247E+03  0.10161937817E+04  0.90151230954E+03 0.  0.
        -24    2    4    4    0    0 -0.23339825122E+03  0.28170326504E+03 -0.63286920920E+03  0.73481980918E+03  0.74868169476E+02 0.  0.
         24    2    4    4    0    0  0.10034326373E+03 -0.14339647845E+03  0.20497557673E+03  0.28137397248E+03  0.80777501332E+02 0.  0.
         13    1    3    3    0    0  0.63207140237E-01 -0.38822139673E+01 -0.42734953454E+02  0.42910975603E+02  0.00000000000E+00 0. -1.
        -13    1    3    3    0    0  0.13299178035E+03 -0.13442457262E+03 -0.89333121724E+02  0.20913437308E+03  0.00000000000E+00 0.  1.
          4    1    6    6  502    0  0.51323175635E+02 -0.12507875803E+03  0.17474053751E+03  0.22093668667E+03  0.00000000000E+00 0. -1.
          3    1    5    5  503    0 -0.19734915588E+03  0.27051124518E+03 -0.58237443441E+03  0.67177600802E+03  0.00000000000E+00 0. -1.
         -2    1    5    5    0  503 -0.36049095342E+02  0.11192019857E+02 -0.50494774787E+02  0.63043801156E+02  0.00000000000E+00 0.  1.
         -3    1    6    6    0  502  0.49020088098E+02 -0.18317720423E+02  0.30235039215E+02  0.60437285801E+02  0.00000000000E+00 0.  1.
<mgrwt>
<rscale>  0 0.11379250E+04</rscale>
<asrwt>0</asrwt>
<pdfrwt beam="1">  1        1 0.14063083E+00 0.11379250E+04</pdfrwt>
<pdfrwt beam="2">  1       -1 0.54482880E-01 0.11379250E+04</pdfrwt>
<totfact> 0.59926456E+01</totfact>
</mgrwt>
</event>
<event>
12    1  0.1532786E-007  0.1306419E+04  0.7818608E-02  0.9024490E-01
         -1   -1    0    0    0  501 -0.00000000000E+00  0.00000000000E+00  0.20878659045E+03  0.20878659045E+03  0.00000000000E+00 0.  1.
          1   -1    0    0  501    0  0.00000000000E+00 -0.00000000000E+00 -0.20436304467E+04  0.20436304467E+04  0.00000000000E+00 0. -1.
         23    2    1    2    0    0  0.17740921689E+03 -0.12807670030E+03 -0.83722229357E+02  0.25767380222E+03  0.10727863379E+03 0.  0.
        254    2    1    2    0    0 -0.17740921689E+03  0.12807670030E+03 -0.17511216269E+04  0.19947432349E+04  0.92989028908E+03 0.  0.
        -24    2    4    4    0    0  0.27719466675E+03  0.20423082808E+03 -0.27987459638E+03  0.45100750316E+03  0.80813759886E+02 0.  0.
         24    2    4    4    0    0 -0.45460388364E+03 -0.76154127785E+02 -0.14712470305E+04  0.15437357318E+04  0.78025909637E+02 0.  0.
         11    1    3    3    0    0  0.14995010456E+03 -0.14717790519E+03 -0.69254075973E+02  0.22122951130E+03  0.00000000000E+00 0.  1.
        -11    1    3    3    0    0  0.27459112326E+02  0.19101204891E+02 -0.14468153384E+02  0.36444290916E+02  0.00000000000E+00 0. -1.
          4    1    6    6  502    0 -0.67422435791E+02  0.15338938819E+02 -0.24448115454E+03  0.25407105860E+03  0.00000000000E+00 0. -1.
          1    1    5    5  503    0  0.13477174884E+03  0.14702235970E+03 -0.14369140002E+03  0.24581744645E+03  0.00000000000E+00 0. -1.
         -2    1    5    5    0  503  0.14242291791E+03  0.57208468382E+02 -0.13618319636E+03  0.20519005671E+03  0.00000000000E+00 0.  1.
         -3    1    6    6    0  502 -0.38718144785E+03 -0.91493066604E+02 -0.12267658760E+04  0.12896646732E+04  0.00000000000E+00 0.  1.
<mgrwt>
<rscale>  0 0.13064190E+04</rscale>
<asrwt>0</asrwt>
<pdfrwt beam="1">  1        1 0.31440469E+00 0.13064190E+04</pdfrwt>
<pdfrwt beam="2">  1       -1 0.32121013E-01 0.13064190E+04</pdfrwt>
<totfact> 0.24759349E+01</totfact>
</mgrwt>
</event>
<event>
12    1  0.1532786E-007  0.1796150E+04  0.7818608E-02  0.8708349E-01
          2   -1    0    0  501    0  0.00000000000E+00  0.00000000000E+00  0.18389702516E+04  0.18389702516E+04  0.00000000000E+00 0. -1.
         -2   -1    0    0    0  501 -0.00000000000E+00 -0.00000000000E+00 -0.43858182647E+03  0.43858182647E+03  0.00000000000E+00 0.  1.
         23    2    1    2    0    0 -0.53387174820E+02 -0.29939414882E+03 -0.22694214895E+03  0.39112471229E+03  0.94809043933E+02 0.  0.
        254    2    1    2    0    0  0.53387174820E+02  0.29939414882E+03  0.16273305741E+04  0.18864273658E+04  0.90438728552E+03 0.  0.
        -24    2    4    4    0    0 -0.11275496571E+03 -0.26241744524E+03  0.90823308826E+03  0.95557111624E+03  0.81561128734E+02 0.  0.
         24    2    4    4    0    0  0.16614214053E+03  0.56181159406E+03  0.71909748583E+03  0.93085624954E+03  0.78464546789E+02 0.  0.
         13    1    3    3    0    0 -0.66868918514E+02 -0.29619555163E+03 -0.20978133144E+03  0.36906837319E+03  0.00000000000E+00 0.  1.
        -13    1    3    3    0    0  0.13481743693E+02 -0.31985971935E+01 -0.17160817511E+02  0.22056339104E+02  0.00000000000E+00 0. -1.
          2    1    6    6  502    0  0.14744065408E+03  0.54750546349E+03  0.68202056153E+03  0.88693462294E+03  0.00000000000E+00 0. -1.
          3    1    5    5  503    0 -0.86546912270E+02 -0.25456052586E+03  0.84277916205E+03  0.88462881783E+03  0.00000000000E+00 0. -1.
         -4    1    5    5    0  503 -0.26208053440E+02 -0.78569193827E+01  0.65453926211E+02  0.70942298411E+02  0.00000000000E+00 0.  1.
         -3    1    6    6    0  502  0.18701486452E+02  0.14306130570E+02  0.37076924305E+02  0.43921626601E+02  0.00000000000E+00 0.  1.
<mgrwt>
<rscale>  0 0.17961503E+04</rscale>
<asrwt>0</asrwt>
<pdfrwt beam="1">  1        2 0.28291850E+00 0.17961503E+04</pdfrwt>
<pdfrwt beam="2">  1       -2 0.67474128E-01 0.17961503E+04</pdfrwt>
<totfact> 0.15611135E+01</totfact>
</mgrwt>
</event>
<event>
12    1  0.1532786E-007  0.1613798E+04  0.7818608E-02  0.8812116E-01
          1   -1    0    0  501    0  0.00000000000E+00  0.00000000000E+00  0.53886460975E+03  0.53886460975E+03  0.00000000000E+00 0. -1.
         -1   -1    0    0    0  501 -0.00000000000E+00 -0.00000000000E+00 -0.12082556593E+04  0.12082556593E+04  0.00000000000E+00 0.  1.
         23    2    1    2    0    0 -0.58150005419E+02  0.39804512326E+03  0.16790961571E+03  0.44545161172E+03  0.91717806646E+02 0.  0.
        254    2    1    2    0    0  0.58150005419E+02 -0.39804512326E+03 -0.83730066526E+03  0.13016686573E+04  0.91183745598E+03 0.  0.
        -24    2    4    4    0    0 -0.27172032840E+03 -0.41072443754E+03 -0.82187534997E+03  0.96160847497E+03  0.81763486910E+02 0.  0.
         24    2    4    4    0    0  0.32987033381E+03  0.12679314279E+02 -0.15425315289E+02  0.34006018235E+03  0.80173468981E+02 0.  0.
         11    1    3    3    0    0 -0.70852425052E+02  0.33377626679E+03  0.16710352953E+03  0.37993453645E+03  0.00000000000E+00 0. -1.
        -11    1    3    3    0    0  0.12702419633E+02  0.64268856474E+02  0.80608617437E+00  0.65517075270E+02  0.00000000000E+00 0.  1.
          4    1    6    6  502    0  0.36282100825E+02  0.10239109954E+02  0.22685814342E+02  0.43998595265E+02  0.00000000000E+00 0. -1.
          1    1    5    5  503    0 -0.14380246397E+03 -0.15328420704E+03 -0.38507415228E+03  0.43869955496E+03  0.00000000000E+00 0. -1.
         -2    1    5    5    0  503 -0.12791786443E+03 -0.25744023050E+03 -0.43680119769E+03  0.52290892001E+03  0.00000000000E+00 0.  1.
         -1    1    6    6    0  502  0.29358823299E+03  0.24402043244E+01 -0.38111129631E+02  0.29606158709E+03  0.00000000000E+00 0.  1.
<mgrwt>
<rscale>  0 0.16137983E+04</rscale>
<asrwt>0</asrwt>
<pdfrwt beam="1">  1        1 0.82902249E-01 0.16137983E+04</pdfrwt>
<pdfrwt beam="2">  1       -1 0.18588548E+00 0.16137983E+04</pdfrwt>
<totfact> 0.72283562E+00</totfact>
</mgrwt>
</event>
<event>
12    1  0.1532786E-007  0.1814879E+04  0.7818608E-02  0.8698427E-01
          2   -1    0    0  501    0  0.00000000000E+00  0.00000000000E+00  0.19290980111E+04  0.19290980111E+04  0.00000000000E+00 0. -1.
         -2   -1    0    0    0  501 -0.00000000000E+00 -0.00000000000E+00 -0.42685567293E+03  0.42685567293E+03  0.00000000000E+00 0.  1.
         23    2    1    2    0    0 -0.14694219337E+03  0.54690651233E+03  0.10554768350E+04  0.12015006444E+04  0.94200360078E+02 0.  0.
        254    2    1    2    0    0  0.14694219337E+03 -0.54690651233E+03  0.44676550314E+03  0.11544530396E+04  0.90136766331E+03 0.  0.
        -24    2    4    4    0    0  0.21146125586E+03 -0.47086976624E+03  0.69828896791E+03  0.87204273078E+03  0.80105194050E+02 0.  0.
         24    2    4    4    0    0 -0.64519062485E+02 -0.76036746096E+02 -0.25152346477E+03  0.28241030883E+03  0.80914974039E+02 0.  0.
         11    1    3    3    0    0 -0.39195280955E+01 -0.35387512386E+01  0.11785819088E+02  0.12914758704E+02  0.00000000000E+00 0.  1.
        -11    1    3    3    0    0 -0.14302266528E+03  0.55044526357E+03  0.10436910159E+04  0.11885858857E+04  0.00000000000E+00 0. -1.
          4    1    6    6  502    0  0.75721244830E+01 -0.13327667039E+02 -0.23020403691E+01  0.15500424760E+02  0.00000000000E+00 0. -1.
          3    1    5    5  503    0  0.20568408749E+03 -0.38737062599E+03  0.58140699951E+03  0.72828294282E+03  0.00000000000E+00 0. -1.
         -4    1    5    5    0  503  0.57771683696E+01 -0.83499140247E+02  0.11688196840E+03  0.14375978795E+03  0.00000000000E+00 0.  1.
         -3    1    6    6    0  502 -0.72091186968E+02 -0.62709079058E+02 -0.24922142440E+03  0.26690988407E+03  0.00000000000E+00 0.  1.
<mgrwt>
<rscale>  0 0.18148790E+04</rscale>
<asrwt>0</asrwt>
<pdfrwt beam="1">  1        2 0.29678430E+00 0.18148790E+04</pdfrwt>
<pdfrwt beam="2">  1       -2 0.65670105E-01 0.18148790E+04</pdfrwt>
<totfact> 0.14730663E+01</totfact>
</mgrwt>
</event>
<event>
12    1  0.1532786E-007  0.1833584E+04  0.7818608E-02  0.8688641E-01
          1   -1    0    0  501    0  0.00000000000E+00  0.00000000000E+00  0.20714531763E+04  0.20714531763E+04  0.00000000000E+00 0. -1.
         -1   -1    0    0    0  501 -0.00000000000E+00 -0.00000000000E+00 -0.40575729451E+03  0.40575729451E+03  0.00000000000E+00 0.  1.
         23    2    1    2    0    0 -0.32407070711E+03  0.31630752966E+03  0.13359593976E+04  0.14133931647E+04  0.88433305223E+02 0.  0.
        254    2    1    2    0    0  0.32407070711E+03 -0.31630752966E+03  0.32973648421E+03  0.10638173061E+04  0.90438312417E+03 0.  0.
        -24    2    4    4    0    0 -0.28629532653E+03 -0.24594174498E+03  0.68977089471E+02  0.39200282212E+03  0.80349348236E+02 0.  0.
         24    2    4    4    0    0  0.61036603364E+03 -0.70365784682E+02  0.26075939474E+03  0.67181448401E+03  0.76427745624E+02 0.  0.
         11    1    3    3    0    0 -0.24545890718E+03  0.18244041096E+03  0.91095739890E+03  0.96092557530E+03  0.00000000000E+00 0. -1.
        -11    1    3    3    0    0 -0.78611799925E+02  0.13386711870E+03  0.42500199866E+03  0.45246758936E+03  0.00000000000E+00 0.  1.
          4    1    6    6  502    0  0.41832742657E+03 -0.24361224059E+02  0.14792715323E+03  0.44438018376E+03  0.00000000000E+00 0. -1.
          1    1    5    5  503    0 -0.24643078457E+03 -0.21909309998E+03  0.86409840652E+02  0.34087619248E+03  0.00000000000E+00 0. -1.
         -2    1    5    5    0  503 -0.39864541966E+02 -0.26848645001E+02 -0.17432751181E+02  0.51126629640E+02  0.00000000000E+00 0.  1.
         -3    1    6    6    0  502  0.19203860707E+03 -0.46004560623E+02  0.11283224151E+03  0.22743430025E+03  0.00000000000E+00 0.  1.
<mgrwt>
<rscale>  0 0.18335836E+04</rscale>
<asrwt>0</asrwt>
<pdfrwt beam="1">  1        1 0.31868510E+00 0.18335836E+04</pdfrwt>
<pdfrwt beam="2">  1       -1 0.62424201E-01 0.18335836E+04</pdfrwt>
<totfact> 0.65275146E+00</totfact>
</mgrwt>
</event>
<event>
12    1  0.1532786E-007  0.1362433E+04  0.7818608E-02  0.8981469E-01
         -2   -1    0    0    0  501 -0.00000000000E+00  0.00000000000E+00  0.34016749418E+03  0.34016749418E+03  0.00000000000E+00 0.  1.
          2   -1    0    0  501    0  0.00000000000E+00 -0.00000000000E+00 -0.13641986577E+04  0.13641986577E+04  0.00000000000E+00 0. -1.
         23    2    1    2    0    0  0.12969579790E+02  0.15098416150E+02 -0.76571739462E+03  0.77104948174E+03  0.88306300424E+02 0.  0.
        254    2    1    2    0    0 -0.12969579790E+02 -0.15098416150E+02 -0.25831376888E+03  0.93331667013E+03  0.89663695629E+03 0.  0.
        -24    2    4    4    0    0  0.13249983829E+03 -0.98603023492E+02  0.29627657896E+03  0.34844070740E+03  0.79701643299E+02 0.  0.
         24    2    4    4    0    0 -0.14546941808E+03  0.83504607342E+02 -0.55459034784E+03  0.58487596273E+03  0.79844015534E+02 0.  0.
         13    1    3    3    0    0 -0.36927195333E+02  0.13118319850E+02 -0.40510700888E+03  0.40699803036E+03  0.00000000000E+00 0. -1.
        -13    1    3    3    0    0  0.49896775123E+02  0.19800963001E+01 -0.36061038574E+03  0.36405145138E+03  0.00000000000E+00 0.  1.
          2    1    6    6  502    0 -0.11648929930E+03  0.70039929359E+02 -0.52130621446E+03  0.53873510911E+03  0.00000000000E+00 0. -1.
          3    1    5    5  503    0  0.14255297974E+03 -0.96959292079E+02  0.28618134968E+03  0.33409911891E+03  0.00000000000E+00 0. -1.
         -4    1    5    5    0  503 -0.10053141456E+02 -0.16437314134E+01  0.10095229285E+02  0.14341588490E+02  0.00000000000E+00 0.  1.
         -1    1    6    6    0  502 -0.28980118776E+02  0.13464677983E+02 -0.33284133380E+02  0.46140853615E+02  0.00000000000E+00 0.  1.
<mgrwt>
<rscale>  0 0.13624332E+04</rscale>
<asrwt>0</asrwt>
<pdfrwt beam="1">  1        2 0.20987672E+00 0.13624332E+04</pdfrwt>
<pdfrwt beam="2">  1       -2 0.52333461E-01 0.13624332E+04</pdfrwt>
<totfact> 0.51016999E+01</totfact>
</mgrwt>
</event>
<event>
12    1  0.1532786E-007  0.1247074E+04  0.7818608E-02  0.9072622E-01
         -2   -1    0    0    0  501 -0.00000000000E+00  0.00000000000E+00  0.32295413028E+03  0.32295413028E+03  0.00000000000E+00 0. -1.
          2   -1    0    0  501    0  0.00000000000E+00 -0.00000000000E+00 -0.12038807188E+04  0.12038807188E+04  0.00000000000E+00 0.  1.
         23    2    1    2    0    0  0.13427694764E+03  0.14498004938E+03 -0.49345130851E+03  0.53846384492E+03  0.86020956915E+02 0.  0.
        254    2    1    2    0    0 -0.13427694764E+03 -0.14498004938E+03 -0.38747527997E+03  0.98837100413E+03  0.88751937209E+03 0.  0.
        -24    2    4    4    0    0 -0.34591650021E+03 -0.40087329704E+03 -0.35970785321E+03  0.64537114960E+03  0.82198270526E+02 0.  0.
         24    2    4    4    0    0  0.21163955257E+03  0.25589324765E+03 -0.27767426759E+02  0.34299985453E+03  0.81272478788E+02 0.  0.
         11    1    3    3    0    0 -0.10591675642E+02  0.25385169018E+02 -0.70190722606E+02  0.75387850075E+02  0.00000000000E+00 0. -1.
        -11    1    3    3    0    0  0.14486862328E+03  0.11959488037E+03 -0.42326058591E+03  0.46307599485E+03  0.00000000000E+00 0.  1.
          2    1    6    6  502    0  0.28614643923E+02  0.47673710532E+02  0.24721233932E+02  0.60849978882E+02  0.00000000000E+00 0. -1.
          1    1    5    5  503    0 -0.22360526824E+03 -0.24389326090E+03 -0.17717452680E+03  0.37533192197E+03  0.00000000000E+00 0. -1.
         -2    1    5    5    0  503 -0.12231123197E+03 -0.15698003614E+03 -0.18253332641E+03  0.27003922764E+03  0.00000000000E+00 0.  1.
         -1    1    6    6    0  502  0.18302490865E+03  0.20821953712E+03 -0.52488660691E+02  0.28214987565E+03  0.00000000000E+00 0.  1.
<mgrwt>
<rscale>  0 0.12470738E+04</rscale>
<asrwt>0</asrwt>
<pdfrwt beam="1">  1        2 0.18521242E+00 0.12470738E+04</pdfrwt>
<pdfrwt beam="2">  1       -2 0.49685252E-01 0.12470738E+04</pdfrwt>
<totfact> 0.71022824E+01</totfact>
</mgrwt>
</event>
<event>
12    1  0.1532786E-007  0.1357911E+04  0.7818608E-02  0.8984861E-01
         -1   -1    0    0    0  501 -0.00000000000E+00  0.00000000000E+00  0.15798102316E+03  0.15798102316E+03  0.00000000000E+00 0.  1.
          1   -1    0    0  501    0  0.00000000000E+00 -0.00000000000E+00 -0.29179508843E+04  0.29179508843E+04  0.00000000000E+00 0. -1.
         23    2    1    2    0    0 -0.13879590434E+03  0.16650847310E+03 -0.14334412757E+04  0.14526904951E+04  0.92554897386E+02 0.  0.
        254    2    1    2    0    0  0.13879590434E+03 -0.16650847310E+03 -0.13265285854E+04  0.16232414123E+04  0.91007978774E+03 0.  0.
        -24    2    4    4    0    0  0.95757878189E+02  0.24919838941E+02  0.11172565046E+03  0.16945723734E+03  0.80265588558E+02 0.  0.
         24    2    4    4    0    0  0.43038026147E+02 -0.19142831204E+03 -0.14382542359E+04  0.14537841750E+04  0.80100624519E+02 0.  0.
         13    1    3    3    0    0 -0.53947375634E+01  0.26663065827E+02 -0.42667174621E+03  0.42753806999E+03  0.00000000000E+00 0.  1.
        -13    1    3    3    0    0 -0.13340116677E+03  0.13984540727E+03 -0.10067695295E+04  0.10251524251E+04  0.00000000000E+00 0. -1.
          4    1    6    6  502    0  0.66575888330E+02 -0.15281950954E+03 -0.11389367630E+04  0.11510704155E+04  0.00000000000E+00 0. -1.
          3    1    5    5  503    0  0.87176928128E+02  0.10752034719E+02  0.12172593983E+03  0.15010871885E+03  0.00000000000E+00 0. -1.
         -4    1    5    5    0  503  0.85809500603E+01  0.14167804221E+02 -0.10000289361E+02  0.19348518488E+02  0.00000000000E+00 0.  1.
         -3    1    6    6    0  502 -0.23537862184E+02 -0.38608802505E+02 -0.29931747290E+03  0.30271375946E+03  0.00000000000E+00 0.  1.
<mgrwt>
<rscale>  0 0.13579114E+04</rscale>
<asrwt>0</asrwt>
<pdfrwt beam="1">  1        1 0.44891547E+00 0.13579114E+04</pdfrwt>
<pdfrwt beam="2">  1       -1 0.24304776E-01 0.13579114E+04</pdfrwt>
<totfact> 0.99391076E+00</totfact>
</mgrwt>
</event>
<event>
12    1  0.1532786E-007  0.1358592E+04  0.7818608E-02  0.8984349E-01
         -1   -1    0    0    0  501 -0.00000000000E+00  0.00000000000E+00  0.11063108597E+04  0.11063108597E+04  0.00000000000E+00 0.  1.
          1   -1    0    0  501    0  0.00000000000E+00 -0.00000000000E+00 -0.41710082646E+03  0.41710082646E+03  0.00000000000E+00 0. -1.
         23    2    1    2    0    0 -0.32663648168E+03 -0.14301792774E+03  0.41916050570E+02  0.37053824074E+03  0.91630310172E+02 0.  0.
        254    2    1    2    0    0  0.32663648168E+03  0.14301792774E+03  0.64729398268E+03  0.11528734454E+04  0.88486279294E+03 0.  0.
        -24    2    4    4    0    0 -0.24743345375E+03  0.51378565102E+02 -0.19169694283E+02  0.26547442658E+03  0.79032417425E+02 0.  0.
         24    2    4    4    0    0  0.57406993542E+03  0.91639362636E+02  0.66646367696E+03  0.88739901885E+03  0.73137694798E+02 0.  0.
         11    1    3    3    0    0 -0.31968889206E+02 -0.40775446944E+02  0.26644873563E+02  0.58263163644E+02  0.00000000000E+00 0.  1.
        -11    1    3    3    0    0 -0.29466759247E+03 -0.10224248079E+03  0.15271177007E+02  0.31227507710E+03  0.00000000000E+00 0. -1.
          2    1    6    6  502    0  0.22868910023E+03  0.69246863978E+02  0.29616101723E+03  0.38053275925E+03  0.00000000000E+00 0. -1.
          3    1    5    5  503    0 -0.24815772533E+03  0.50063992251E+02 -0.70431333265E+01  0.25325533693E+03  0.00000000000E+00 0. -1.
         -4    1    5    5    0  503  0.72427158010E+00  0.13145728510E+01 -0.12126560956E+02  0.12219089644E+02  0.00000000000E+00 0.  1.
         -1    1    6    6    0  502  0.34538083519E+03  0.22392498658E+02  0.37030265973E+03  0.50686625960E+03  0.00000000000E+00 0.  1.
<mgrwt>
<rscale>  0 0.13585922E+04</rscale>
<asrwt>0</asrwt>
<pdfrwt beam="1">  1        1 0.64169359E-01 0.13585922E+04</pdfrwt>
<pdfrwt beam="2">  1       -1 0.17020167E+00 0.13585922E+04</pdfrwt>
<totfact> 0.13606368E+01</totfact>
</mgrwt>
</event>
<event>
12    1  0.1532786E-007  0.1629134E+04  0.7818608E-02  0.8802847E-01
          2   -1    0    0  501    0  0.00000000000E+00  0.00000000000E+00  0.37407802459E+04  0.37407802459E+04  0.00000000000E+00 0. -1.
         -2   -1    0    0    0  501 -0.00000000000E+00 -0.00000000000E+00 -0.17737452940E+03  0.17737452940E+03  0.00000000000E+00 0.  1.
         23    2    1    2    0    0  0.18406691428E+03 -0.35048850592E+03  0.29953367585E+03  0.50860272856E+03  0.11060511208E+03 0.  0.
        254    2    1    2    0    0 -0.18406691428E+03  0.35048850592E+03  0.32638720407E+04  0.34095520468E+04  0.90302914680E+03 0.  0.
        -24    2    4    4    0    0 -0.15675673637E+03 -0.19281506914E+02  0.28217848908E+04  0.28273369603E+04  0.80124067947E+02 0.  0.
         24    2    4    4    0    0 -0.27310177909E+02  0.36977001283E+03  0.44208714991E+03  0.58221508649E+03  0.77830910404E+02 0.  0.
         11    1    3    3    0    0  0.68335296334E+02 -0.40727352351E+02  0.71135343254E+02  0.10671769776E+03  0.00000000000E+00 0. -1.
        -11    1    3    3    0    0  0.11573161795E+03 -0.30976115357E+03  0.22839833259E+03  0.40188503080E+03  0.00000000000E+00 0.  1.
          2    1    6    6  502    0  0.16486737350E+02  0.10359090181E+03  0.16486454545E+03  0.19540523481E+03  0.00000000000E+00 0. -1.
          3    1    5    5  503    0 -0.21253679776E+02 -0.32843916972E+02  0.47740560632E+03  0.47900579822E+03  0.00000000000E+00 0. -1.
         -4    1    5    5    0  503 -0.13550305660E+03  0.13562410058E+02  0.23443792845E+04  0.23483311621E+04  0.00000000000E+00 0.  1.
         -3    1    6    6    0  502 -0.43796915259E+02  0.26617911102E+03  0.27722260446E+03  0.38680985168E+03  0.00000000000E+00 0.  1.
<mgrwt>
<rscale>  0 0.16291337E+04</rscale>
<asrwt>0</asrwt>
<pdfrwt beam="1">  1        2 0.57550459E+00 0.16291337E+04</pdfrwt>
<pdfrwt beam="2">  1       -2 0.27288392E-01 0.16291337E+04</pdfrwt>
<totfact> 0.64616557E+00</totfact>
</mgrwt>
</event>
<event>
12    1  0.1532786E-007  0.1925407E+04  0.7818608E-02  0.8642312E-01
         -1   -1    0    0    0  501 -0.00000000000E+00  0.00000000000E+00  0.13433175119E+04  0.13433175119E+04  0.00000000000E+00 0.  1.
          1   -1    0    0  501    0  0.00000000000E+00 -0.00000000000E+00 -0.68993222353E+03  0.68993222353E+03  0.00000000000E+00 0. -1.
         23    2    1    2    0    0  0.38394345934E+03  0.36634675372E+03 -0.30303314060E+03  0.61777240869E+03  0.90504920901E+02 0.  0.
        254    2    1    2    0    0 -0.38394345934E+03 -0.36634675372E+03  0.95641842896E+03  0.14154773267E+04  0.89845274073E+03 0.  0.
        -24    2    4    4    0    0 -0.34207971680E+03  0.12735169915E+03  0.81026008959E+03  0.89284155577E+03  0.86067665281E+02 0.  0.
         24    2    4    4    0    0 -0.41863742538E+02 -0.49369845287E+03  0.14615833937E+03  0.52263577097E+03  0.79342004126E+02 0.  0.
         11    1    3    3    0    0  0.34635513444E+03  0.28863415892E+03 -0.26881367277E+03  0.52491175213E+03  0.00000000000E+00 0. -1.
        -11    1    3    3    0    0  0.37588324898E+02  0.77712594804E+02 -0.34219467821E+02  0.92860656565E+02  0.00000000000E+00 0.  1.
          4    1    6    6  502    0 -0.16407414454E+02 -0.25496148393E+03  0.11623844475E+03  0.28068832818E+03  0.00000000000E+00 0. -1.
          3    1    5    5  503    0 -0.11748932219E+03  0.26853792011E+01  0.27896656515E+03  0.30270992148E+03  0.00000000000E+00 0. -1.
         -4    1    5    5    0  503 -0.22459039461E+03  0.12466631995E+03  0.53129352444E+03  0.59013163430E+03  0.00000000000E+00 0.  1.
         -3    1    6    6    0  502 -0.25456328084E+02 -0.23873696894E+03  0.29919894626E+02  0.24194744279E+03  0.00000000000E+00 0.  1.
<mgrwt>
<rscale>  0 0.19254070E+04</rscale>
<asrwt>0</asrwt>
<pdfrwt beam="1">  1        1 0.10614342E+00 0.19254070E+04</pdfrwt>
<pdfrwt beam="2">  1       -1 0.20666423E+00 0.19254070E+04</pdfrwt>
<totfact> 0.35215229E+00</totfact>
</mgrwt>
</event>
<event>
12    1  0.1532786E-007  0.2448109E+04  0.7818608E-02  0.8421709E-01
          2   -1    0    0  501    0  0.00000000000E+00  0.00000000000E+00  0.25572558704E+04  0.25572558704E+04  0.00000000000E+00 0. -1.
         -2   -1    0    0    0  501 -0.00000000000E+00 -0.00000000000E+00 -0.58590499593E+03  0.58590499593E+03  0.00000000000E+00 0.  1.
         23    2    1    2    0    0 -0.81396933027E+02  0.47926832791E+03 -0.34994043095E+03  0.60593406295E+03  0.91510614614E+02 0.  0.
        254    2    1    2    0    0  0.81396933027E+02 -0.47926832791E+03  0.23212913054E+04  0.25372268034E+04  0.90155584203E+03 0.  0.
        -24    2    4    4    0    0  0.21261561903E+02  0.94143829006E+01  0.18467462212E+04  0.18487742002E+04  0.83389165215E+02 0.  0.
         24    2    4    4    0    0  0.60135371124E+02 -0.48868271081E+03  0.47454508415E+03  0.68845260319E+03  0.79667403901E+02 0.  0.
         11    1    3    3    0    0 -0.23418531674E+02  0.22903265184E+03 -0.21844347931E+03  0.31736719567E+03  0.00000000000E+00 0. -1.
        -11    1    3    3    0    0 -0.57978401353E+02  0.25023567607E+03 -0.13149695164E+03  0.28856686728E+03  0.00000000000E+00 0.  1.
          4    1    6    6  502    0  0.77821215654E+02 -0.41531563086E+03  0.38848654148E+03  0.57399042479E+03  0.00000000000E+00 0. -1.
          1    1    5    5  503    0 -0.73263254773E+01 -0.33834755361E+02  0.69464651395E+03  0.69550862328E+03  0.00000000000E+00 0. -1.
         -2    1    5    5    0  503  0.28587887380E+02  0.43249138262E+02  0.11520997073E+04  0.11532655769E+04  0.00000000000E+00 0.  1.
         -3    1    6    6    0  502 -0.17685844530E+02 -0.73367079956E+02  0.86058542678E+02  0.11446217841E+03  0.00000000000E+00 0.  1.
<mgrwt>
<rscale>  0 0.24481086E+04</rscale>
<asrwt>0</asrwt>
<pdfrwt beam="1">  1        2 0.39342397E+00 0.24481086E+04</pdfrwt>
<pdfrwt beam="2">  1       -2 0.90139232E-01 0.24481086E+04</pdfrwt>
<totfact> 0.30404111E+00</totfact>
</mgrwt>
</event>
<event>
12    1  0.1532786E-007  0.1799394E+04  0.7818608E-02  0.8706622E-01
          2   -1    0    0  501    0  0.00000000000E+00  0.00000000000E+00  0.26699978160E+04  0.26699978160E+04  0.00000000000E+00 0. -1.
         -2   -1    0    0    0  501 -0.00000000000E+00 -0.00000000000E+00 -0.30316664224E+03  0.30316664224E+03  0.00000000000E+00 0.  1.
         23    2    1    2    0    0  0.80857739745E+02  0.30811053723E+03 -0.84306903890E+02  0.34221837656E+03  0.92388776252E+02 0.  0.
        254    2    1    2    0    0 -0.80857739745E+02 -0.30811053723E+03  0.24511380776E+04  0.26309460816E+04  0.90129314420E+03 0.  0.
        -24    2    4    4    0    0 -0.43884015470E+02 -0.54784111210E+03  0.22133789458E+04  0.22820358299E+04  0.81150971998E+02 0.  0.
         24    2    4    4    0    0 -0.36973724275E+02  0.23973057487E+03  0.23775913177E+03  0.34891025172E+03  0.79819510145E+02 0.  0.
         11    1    3    3    0    0  0.28801618323E+02  0.20795158668E+03 -0.91716020888E+02  0.22909653884E+03  0.00000000000E+00 0.  1.
        -11    1    3    3    0    0  0.52056121421E+02  0.10015895055E+03  0.74091169976E+01  0.11312183771E+03  0.00000000000E+00 0. -1.
          4    1    6    6  502    0 -0.55151009182E+02  0.21392337196E+03  0.22355481334E+03  0.31429539839E+03  0.00000000000E+00 0. -1.
          3    1    5    5  503    0 -0.56975459420E+01 -0.27789792619E+03  0.96496267698E+03  0.10041975340E+04  0.00000000000E+00 0. -1.
         -4    1    5    5    0  503 -0.38186469528E+02 -0.26994318591E+03  0.12484162689E+04  0.12778382959E+04  0.00000000000E+00 0.  1.
         -3    1    6    6    0  502  0.18177284908E+02  0.25807202911E+02  0.14204318435E+02  0.34614853328E+02  0.00000000000E+00 0.  1.
<mgrwt>
<rscale>  0 0.17993935E+04</rscale>
<asrwt>0</asrwt>
<pdfrwt beam="1">  1        2 0.41076888E+00 0.17993935E+04</pdfrwt>
<pdfrwt beam="2">  1       -2 0.46641024E-01 0.17993935E+04</pdfrwt>
<totfact> 0.11406029E+01</totfact>
</mgrwt>
</event>
<event>
12    1  0.1532786E-007  0.1946778E+04  0.7818608E-02  0.8631916E-01
          1   -1    0    0  501    0  0.00000000000E+00  0.00000000000E+00  0.30655365835E+04  0.30655365835E+04  0.00000000000E+00 0. -1.
         -1   -1    0    0    0  501 -0.00000000000E+00 -0.00000000000E+00 -0.30907683397E+03  0.30907683397E+03  0.00000000000E+00 0.  1.
         23    2    1    2    0    0 -0.56321085846E+03 -0.24605217117E+03  0.18562494032E+04  0.19574208561E+04  0.89924517489E+02 0.  0.
        254    2    1    2    0    0  0.56321085846E+03  0.24605217117E+03  0.90021034637E+03  0.14171925615E+04  0.90570853286E+03 0.  0.
        -24    2    4    4    0    0  0.61751880327E+03  0.50034934800E+03  0.53140606496E+03  0.95960719365E+03  0.82308066401E+02 0.  0.
         24    2    4    4    0    0 -0.54307944811E+02 -0.25429717683E+03  0.36880428142E+03  0.45758536780E+03  0.75837746679E+02 0.  0.
         13    1    3    3    0    0 -0.52808923317E+02 -0.16127805338E+02  0.10158044075E+03  0.11561779460E+03  0.00000000000E+00 0.  1.
        -13    1    3    3    0    0 -0.51040193514E+03 -0.22992436583E+03  0.17546689625E+04  0.18418030615E+04  0.00000000000E+00 0. -1.
          2    1    6    6  502    0 -0.20827553662E+02 -0.19980045503E+03  0.23415034133E+03  0.30851319448E+03  0.00000000000E+00 0. -1.
          1    1    5    5  503    0  0.24914455135E+03  0.25372129427E+03  0.22803905143E+03  0.42243261191E+03  0.00000000000E+00 0. -1.
         -2    1    5    5    0  503  0.36837425192E+03  0.24662805374E+03  0.30336701352E+03  0.53717458174E+03  0.00000000000E+00 0.  1.
         -1    1    6    6    0  502 -0.33480391149E+02 -0.54496721801E+02  0.13465394009E+03  0.14907217333E+03  0.00000000000E+00 0.  1.
<mgrwt>
<rscale>  0 0.19467782E+04</rscale>
<asrwt>0</asrwt>
<pdfrwt beam="1">  1        1 0.47162099E+00 0.19467782E+04</pdfrwt>
<pdfrwt beam="2">  1       -1 0.47550284E-01 0.19467782E+04</pdfrwt>
<totfact> 0.22072814E+00</totfact>
</mgrwt>
</event>
<event>
12    1  0.1532786E-007  0.2541037E+04  0.7818608E-02  0.8388510E-01
         -2   -1    0    0    0  501 -0.00000000000E+00  0.00000000000E+00  0.15377472156E+04  0.15377472156E+04  0.00000000000E+00 0.  1.
          2   -1    0    0  501    0  0.00000000000E+00 -0.00000000000E+00 -0.10497288615E+04  0.10497288615E+04  0.00000000000E+00 0. -1.
         23    2    1    2    0    0 -0.18561261427E+03 -0.40818801696E+03 -0.81247735009E+03  0.93276088422E+03  0.94095286569E+02 0.  0.
        254    2    1    2    0    0  0.18561261427E+03  0.40818801696E+03  0.13004957041E+04  0.16547151929E+04  0.91963242288E+03 0.  0.
        -24    2    4    4    0    0 -0.54579884972E+02  0.38607791865E+03  0.77202301999E+02  0.40534493397E+03  0.79430453499E+02 0.  0.
         24    2    4    4    0    0  0.24019249924E+03  0.22110098306E+02  0.12232934021E+04  0.12493702589E+04  0.79359957994E+02 0.  0.
         13    1    3    3    0    0 -0.19352616710E+03 -0.37955611890E+03 -0.73176532389E+03  0.84675599437E+03  0.00000000000E+00 0. -1.
        -13    1    3    3    0    0  0.79135528373E+01 -0.28631898056E+02 -0.80712026201E+02  0.86004889851E+02  0.00000000000E+00 0.  1.
          4    1    6    6  502    0  0.13545246099E+03  0.88188033086E+01  0.48766252877E+03  0.50620142477E+03  0.00000000000E+00 0. -1.
          1    1    5    5  503    0 -0.57436555327E+02  0.21655241838E+03  0.14274450180E+02  0.22449424875E+03  0.00000000000E+00 0. -1.
         -2    1    5    5    0  503  0.28566703553E+01  0.16952550027E+03  0.62927851820E+02  0.18085068521E+03  0.00000000000E+00 0.  1.
         -3    1    6    6    0  502  0.10474003824E+03  0.13291294997E+02  0.73563087338E+03  0.74316883411E+03  0.00000000000E+00 0.  1.
<mgrwt>
<rscale>  0 0.25410373E+04</rscale>
<asrwt>0</asrwt>
<pdfrwt beam="1">  1        2 0.16149675E+00 0.25410373E+04</pdfrwt>
<pdfrwt beam="2">  1       -2 0.23657649E+00 0.25410373E+04</pdfrwt>
<totfact> 0.16190228E+00</totfact>
</mgrwt>
</event>
<event>
12    1  0.1532786E-007  0.2916507E+04  0.7818608E-02  0.8267983E-01
          1   -1    0    0  501    0  0.00000000000E+00  0.00000000000E+00  0.24764640001E+04  0.24764640001E+04  0.00000000000E+00 0. -1.
         -1   -1    0    0    0  501 -0.00000000000E+00 -0.00000000000E+00 -0.85868531031E+03  0.85868531031E+03  0.00000000000E+00 0.  1.
         23    2    1    2    0    0  0.88002452564E+03  0.40730262075E+03 -0.28808633228E+03  0.10157900954E+04  0.92180216933E+02 0.  0.
        254    2    1    2    0    0 -0.88002452564E+03 -0.40730262075E+03  0.19058650221E+04  0.23193592151E+04  0.89820214624E+03 0.  0.
        -24    2    4    4    0    0 -0.75070821503E+03 -0.53112158109E+03  0.19115199102E+04  0.21226765083E+04  0.78703453458E+02 0.  0.
         24    2    4    4    0    0 -0.12931631061E+03  0.12381896034E+03 -0.56548881064E+01  0.19668270682E+03  0.81229712988E+02 0.  0.
         11    1    3    3    0    0  0.18729029558E+03  0.56528397326E+02 -0.32435442363E+02  0.19830575494E+03  0.00000000000E+00 0. -1.
        -11    1    3    3    0    0  0.69273423006E+03  0.35077422342E+03 -0.25565088992E+03  0.81748434042E+03  0.00000000000E+00 0.  1.
          4    1    6    6  502    0 -0.15178023963E+02  0.46461799132E+02  0.25782670319E+02  0.55261354298E+02  0.00000000000E+00 0. -1.
          3    1    5    5  503    0 -0.49444891701E+02 -0.34717855332E+02  0.86279611968E+02  0.10532947468E+03  0.00000000000E+00 0. -1.
         -4    1    5    5    0  503 -0.70126332333E+03 -0.49640372576E+03  0.18252402982E+04  0.20173470336E+04  0.00000000000E+00 0.  1.
         -3    1    6    6    0  502 -0.11413828665E+03  0.77357161212E+02 -0.31437558425E+02  0.14142135252E+03  0.00000000000E+00 0.  1.
<mgrwt>
<rscale>  0 0.29165070E+04</rscale>
<asrwt>0</asrwt>
<pdfrwt beam="1">  1        1 0.38099446E+00 0.29165070E+04</pdfrwt>
<pdfrwt beam="2">  1       -1 0.13210543E+00 0.29165070E+04</pdfrwt>
<totfact> 0.58680390E-01</totfact>
</mgrwt>
</event>
<event>
12    1  0.1532786E-007  0.2172742E+04  0.7818608E-02  0.8529860E-01
         -1   -1    0    0    0  501 -0.00000000000E+00  0.00000000000E+00  0.16898130990E+04  0.16898130990E+04  0.00000000000E+00 0.  1.
          1   -1    0    0  501    0  0.00000000000E+00 -0.00000000000E+00 -0.69842160220E+03  0.69842160220E+03  0.00000000000E+00 0. -1.
         23    2    1    2    0    0 -0.21713791505E+02 -0.59669613513E+03 -0.32065001483E+03  0.68424412768E+03  0.94105408078E+02 0.  0.
        254    2    1    2    0    0  0.21713791505E+02  0.59669613513E+03  0.13120415117E+04  0.17039905736E+04  0.90863258803E+03 0.  0.
        -24    2    4    4    0    0 -0.10058325684E+03  0.22422330261E+02 -0.10518064570E+03  0.16788869266E+03  0.80646713781E+02 0.  0.
         24    2    4    4    0    0  0.12229704835E+03  0.57427380487E+03  0.14172221574E+04  0.15361018809E+04  0.79645302267E+02 0.  0.
         11    1    3    3    0    0 -0.23135867822E+02 -0.59541945072E+03 -0.30670691171E+03  0.67017066510E+03  0.00000000000E+00 0. -1.
        -11    1    3    3    0    0  0.14220763165E+01 -0.12766844102E+01 -0.13943103123E+02  0.14073462575E+02  0.00000000000E+00 0.  1.
          2    1    6    6  502    0  0.44884078326E+02  0.12040604353E+03  0.24398616982E+03  0.27575613659E+03  0.00000000000E+00 0. -1.
          3    1    5    5  503    0 -0.43346505585E+02 -0.74743041481E+00  0.28601051694E+01  0.43447190936E+02  0.00000000000E+00 0. -1.
         -4    1    5    5    0  503 -0.57236751257E+02  0.23169760676E+02 -0.10804075087E+03  0.12444150173E+03  0.00000000000E+00 0.  1.
         -1    1    6    6    0  502  0.77412970021E+02  0.45386776134E+03  0.11732359876E+04  0.12603457443E+04  0.00000000000E+00 0.  1.
<mgrwt>
<rscale>  0 0.21727420E+04</rscale>
<asrwt>0</asrwt>
<pdfrwt beam="1">  1        1 0.10744948E+00 0.21727420E+04</pdfrwt>
<pdfrwt beam="2">  1       -1 0.25997124E+00 0.21727420E+04</pdfrwt>
<totfact> 0.14997331E+00</totfact>
</mgrwt>
</event>
<event>
12    1  0.1532786E-007  0.2171027E+04  0.7818608E-02  0.8530585E-01
          3   -1    0    0  501    0  0.00000000000E+00  0.00000000000E+00  0.12508273983E+04  0.12508273983E+04  0.00000000000E+00 0. -1.
         -3   -1    0    0    0  501 -0.00000000000E+00 -0.00000000000E+00 -0.94204842197E+03  0.94204842197E+03  0.00000000000E+00 0.  1.
         23    2    1    2    0    0 -0.40829578418E+03 -0.65042742460E+03 -0.33397746504E+03  0.84223530679E+03  0.89766824571E+02 0.  0.
        254    2    1    2    0    0  0.40829578418E+03  0.65042742460E+03  0.64275644132E+03  0.13506405134E+04  0.90627405990E+03 0.  0.
        -24    2    4    4    0    0  0.45952190185E+03  0.66673634104E+03  0.12411143445E+03  0.82347484024E+03  0.83722384190E+02 0.  0.
         24    2    4    4    0    0 -0.51226117667E+02 -0.16308916440E+02  0.51864500687E+03  0.52716567320E+03  0.77594509862E+02 0.  0.
         13    1    3    3    0    0 -0.32956879387E+03 -0.57405389059E+03 -0.26723875009E+03  0.71384172528E+03  0.00000000000E+00 0. -1.
        -13    1    3    3    0    0 -0.78726990305E+02 -0.76373534005E+02 -0.66738714944E+02  0.12839358150E+03  0.00000000000E+00 0.  1.
          2    1    6    6  502    0  0.67561632801E+01 -0.25426554563E+02  0.71534584969E+02  0.76219106961E+02  0.00000000000E+00 0. -1.
          3    1    5    5  503    0  0.23081451637E+03  0.26833370576E+03  0.71425171140E+02  0.36108153329E+03  0.00000000000E+00 0. -1.
         -4    1    5    5    0  503  0.22870738547E+03  0.39840263528E+03  0.52686263309E+02  0.46239330695E+03  0.00000000000E+00 0.  1.
         -1    1    6    6    0  502 -0.57982280947E+02  0.91176381235E+01  0.44711042190E+03  0.45094656624E+03  0.00000000000E+00 0.  1.
<mgrwt>
<rscale>  0 0.21710274E+04</rscale>
<asrwt>0</asrwt>
<pdfrwt beam="1">  1        3 0.19243498E+00 0.21710274E+04</pdfrwt>
<pdfrwt beam="2">  1       -3 0.14493053E+00 0.21710274E+04</pdfrwt>
<totfact> 0.13875594E-01</totfact>
</mgrwt>
</event>
<event>
12    1  0.1532786E-007  0.1574471E+04  0.7818608E-02  0.8836387E-01
         -2   -1    0    0    0  501 -0.00000000000E+00  0.00000000000E+00  0.50001835300E+03  0.50001835300E+03  0.00000000000E+00 0.  1.
          2   -1    0    0  501    0  0.00000000000E+00 -0.00000000000E+00 -0.12394344933E+04  0.12394344933E+04  0.00000000000E+00 0. -1.
         23    2    1    2    0    0  0.35239575919E+03 -0.38032930553E+03 -0.14716272748E+03  0.54620039723E+03  0.88571179455E+02 0.  0.
        254    2    1    2    0    0 -0.35239575919E+03  0.38032930553E+03 -0.59225341285E+03  0.11932524491E+04  0.89680218025E+03 0.  0.
        -24    2    4    4    0    0 -0.18526710520E+03  0.52899423556E+03 -0.12022595818E+02  0.56649543032E+03  0.81324831618E+02 0.  0.
         24    2    4    4    0    0 -0.16712865399E+03 -0.14866493003E+03 -0.58023081703E+03  0.62675701878E+03  0.78251588773E+02 0.  0.
         13    1    3    3    0    0  0.34474625618E+03 -0.37352979731E+03 -0.15700515800E+03  0.53200104348E+03  0.00000000000E+00 0.  1.
        -13    1    3    3    0    0  0.76495030091E+01 -0.67995082278E+01  0.98424305156E+01  0.14199353749E+02  0.00000000000E+00 0. -1.
          2    1    6    6  502    0 -0.16752216318E+03 -0.14022808990E+03 -0.57816305346E+03  0.61806157358E+03  0.00000000000E+00 0. -1.
          3    1    5    5  503    0 -0.17792028820E+03  0.44943773787E+03 -0.31037245200E+02  0.48436888810E+03  0.00000000000E+00 0. -1.
         -4    1    5    5    0  503 -0.73468169961E+01  0.79556497696E+02  0.19014649382E+02  0.82126542218E+02  0.00000000000E+00 0.  1.
         -1    1    6    6    0  502  0.39350918898E+00 -0.84368401338E+01 -0.20677635716E+01  0.86954451935E+01  0.00000000000E+00 0.  1.
<mgrwt>
<rscale>  0 0.15744713E+04</rscale>
<asrwt>0</asrwt>
<pdfrwt beam="1">  1        2 0.19068223E+00 0.15744713E+04</pdfrwt>
<pdfrwt beam="2">  1       -2 0.76925900E-01 0.15744713E+04</pdfrwt>
<totfact> 0.26021947E+01</totfact>
</mgrwt>
</event>
<event>
12    1  0.1532786E-007  0.2203942E+04  0.7818608E-02  0.8516789E-01
         -2   -1    0    0    0  501 -0.00000000000E+00  0.00000000000E+00  0.11715731604E+04  0.11715731604E+04  0.00000000000E+00 0.  1.
          2   -1    0    0  501    0  0.00000000000E+00 -0.00000000000E+00 -0.10365036771E+04  0.10365036771E+04  0.00000000000E+00 0. -1.
         23    2    1    2    0    0  0.81551070333E+02  0.45599698181E+03 -0.73152605447E+03  0.87051592617E+03  0.89909870767E+02 0.  0.
        254    2    1    2    0    0 -0.81551070333E+02 -0.45599698181E+03  0.86659553783E+03  0.13375609113E+04  0.90746765273E+03 0.  0.
        -24    2    4    4    0    0  0.35513989902E+03  0.20040918022E+02  0.26684158810E+03  0.45215481911E+03  0.81936323063E+02 0.  0.
         24    2    4    4    0    0 -0.43669096935E+03 -0.47603789983E+03  0.59975394973E+03  0.88540609218E+03  0.83234987013E+02 0.  0.
         13    1    3    3    0    0  0.71534371022E+02  0.44055592353E+03 -0.72423465829E+03  0.85071883033E+03  0.00000000000E+00 0. -1.
        -13    1    3    3    0    0  0.10016699311E+02  0.15441058276E+02 -0.72913961761E+01  0.19797095847E+02  0.00000000000E+00 0.  1.
          2    1    6    6  502    0 -0.12507884735E+03 -0.15034351779E+03  0.13286186494E+03  0.23643216057E+03  0.00000000000E+00 0. -1.
          1    1    5    5  503    0  0.11877036788E+03  0.27323716132E+02  0.13312607921E+03  0.18048694888E+03  0.00000000000E+00 0. -1.
         -2    1    5    5    0  503  0.23636953114E+03 -0.72827981100E+01  0.13371550889E+03  0.27166787024E+03  0.00000000000E+00 0.  1.
         -1    1    6    6    0  502 -0.31161212200E+03 -0.32569438205E+03  0.46689208479E+03  0.64897393161E+03  0.00000000000E+00 0.  1.
<mgrwt>
<rscale>  0 0.22039418E+04</rscale>
<asrwt>0</asrwt>
<pdfrwt beam="1">  1        2 0.15946210E+00 0.22039418E+04</pdfrwt>
<pdfrwt beam="2">  1       -2 0.18024203E+00 0.22039418E+04</pdfrwt>
<totfact> 0.39395147E+00</totfact>
</mgrwt>
</event>
<event>
12    1  0.1532786E-007  0.3902678E+04  0.7818608E-02  0.8024472E-01
         -1   -1    0    0    0  501 -0.00000000000E+00  0.00000000000E+00  0.27901792252E+04  0.27901792252E+04  0.00000000000E+00 0.  1.
          1   -1    0    0  501    0  0.00000000000E+00 -0.00000000000E+00 -0.13646882558E+04  0.13646882558E+04  0.00000000000E+00 0. -1.
         23    2    1    2    0    0  0.76928675476E+03  0.14795210006E+04  0.15198581018E+04  0.22580511613E+04  0.89676615395E+02 0.  0.
        254    2    1    2    0    0 -0.76928675476E+03 -0.14795210006E+04 -0.94367132381E+02  0.18968163197E+04  0.89901195374E+03 0.  0.
        -24    2    4    4    0    0 -0.80074635499E+03 -0.13701658855E+04 -0.33043152220E+03  0.16230440970E+04  0.80857101316E+02 0.  0.
         24    2    4    4    0    0  0.31459600233E+02 -0.10935511501E+03  0.23606438982E+03  0.27377222277E+03  0.79224908950E+02 0.  0.
         13    1    3    3    0    0  0.26185328498E+03  0.53232347490E+03  0.48596923736E+03  0.76687777674E+03  0.00000000000E+00 0.  1.
        -13    1    3    3    0    0  0.50743346978E+03  0.94719752565E+03  0.10338888644E+04  0.14911733846E+04  0.00000000000E+00 0. -1.
          4    1    6    6  502    0  0.42682884509E+02 -0.39408646532E+02  0.57807933538E+02  0.81955031764E+02  0.00000000000E+00 0. -1.
          1    1    5    5  503    0 -0.69422553428E+02 -0.99212826362E+02 -0.59814741121E+01  0.12123718024E+03  0.00000000000E+00 0. -1.
         -2    1    5    5    0  503 -0.73132380157E+03 -0.12709530592E+04 -0.32445004808E+03  0.15018069167E+04  0.00000000000E+00 0.  1.
         -3    1    6    6    0  502 -0.11223284276E+02 -0.69946468475E+02  0.17825645628E+03  0.19181719101E+03  0.00000000000E+00 0.  1.
<mgrwt>
<rscale>  0 0.39026785E+04</rscale>
<asrwt>0</asrwt>
<pdfrwt beam="1">  1        1 0.20995204E+00 0.39026785E+04</pdfrwt>
<pdfrwt beam="2">  1       -1 0.42925834E+00 0.39026785E+04</pdfrwt>
<totfact> 0.28869717E-02</totfact>
</mgrwt>
</event>
<event>
12    1  0.1532786E-007  0.4008304E+04  0.7818608E-02  0.8002873E-01
          1   -1    0    0  501    0  0.00000000000E+00  0.00000000000E+00  0.25768602520E+04  0.25768602520E+04  0.00000000000E+00 0. -1.
         -1   -1    0    0    0  501 -0.00000000000E+00 -0.00000000000E+00 -0.15587287097E+04  0.15587287097E+04  0.00000000000E+00 0.  1.
         23    2    1    2    0    0 -0.11754602929E+04 -0.64764874252E+03 -0.90465134800E+03  0.16210067128E+04  0.90071680910E+02 0.  0.
        254    2    1    2    0    0  0.11754602929E+04  0.64764874252E+03  0.19227828903E+04  0.25145822489E+04  0.90822577016E+03 0.  0.
        -24    2    4    4    0    0  0.12622514764E+04  0.64053868168E+03  0.19314054978E+04  0.23959223626E+04  0.80920816030E+02 0.  0.
         24    2    4    4    0    0 -0.86791183565E+02  0.71100608380E+01 -0.86226074754E+01  0.11865988629E+03  0.80140855648E+02 0.  0.
         13    1    3    3    0    0 -0.56094726205E+03 -0.32384839309E+03 -0.48854089391E+03  0.81130254377E+03  0.00000000000E+00 0. -1.
        -13    1    3    3    0    0 -0.61451303083E+03 -0.32380034943E+03 -0.41611045410E+03  0.80970416904E+03  0.00000000000E+00 0.  1.
          4    1    6    6  502    0 -0.84470011839E+02  0.57592403295E+01 -0.35385050558E+02  0.91763029332E+02  0.00000000000E+00 0. -1.
          3    1    5    5  503    0  0.12499554735E+04  0.62776562655E+03  0.19171553936E+04  0.23731757564E+04  0.00000000000E+00 0. -1.
         -4    1    5    5    0  503  0.12296002972E+02  0.12773055125E+02  0.14250104130E+02  0.22746606209E+02  0.00000000000E+00 0.  1.
         -3    1    6    6    0  502 -0.23211717263E+01  0.13508205085E+01  0.26762443083E+02  0.26896856954E+02  0.00000000000E+00 0.  1.
<mgrwt>
<rscale>  0 0.40083044E+04</rscale>
<asrwt>0</asrwt>
<pdfrwt beam="1">  1        1 0.39644004E+00 0.40083044E+04</pdfrwt>
<pdfrwt beam="2">  1       -1 0.23980442E+00 0.40083044E+04</pdfrwt>
<totfact> 0.76164678E-02</totfact>
</mgrwt>
</event>
<event>
12    1  0.1532786E-007  0.1817351E+04  0.7818608E-02  0.8697127E-01
          2   -1    0    0  501    0  0.00000000000E+00  0.00000000000E+00  0.26760274440E+04  0.26760274440E+04  0.00000000000E+00 0. -1.
         -2   -1    0    0    0  501 -0.00000000000E+00 -0.00000000000E+00 -0.30855093222E+03  0.30855093222E+03  0.00000000000E+00 0.  1.
         23    2    1    2    0    0 -0.31568171945E+03  0.60744448633E+03  0.85927973029E+03  0.11028215830E+04  0.95968938472E+02 0.  0.
        254    2    1    2    0    0  0.31568171945E+03 -0.60744448633E+03  0.15081967815E+04  0.18817567932E+04  0.89314463837E+03 0.  0.
        -24    2    4    4    0    0 -0.24091834078E+03 -0.27947222604E+03  0.21632809523E+03  0.43515982129E+03  0.80123986648E+02 0.  0.
         24    2    4    4    0    0  0.55660006022E+03 -0.32797226029E+03  0.12918686862E+04  0.14465969719E+04  0.79678516495E+02 0.  0.
         11    1    3    3    0    0 -0.66234250502E+02  0.16381365363E+03  0.16328007199E+03  0.24058734581E+03  0.00000000000E+00 0.  1.
        -11    1    3    3    0    0 -0.24944746894E+03  0.44363083269E+03  0.69599965830E+03  0.86223423722E+03  0.00000000000E+00 0. -1.
          4    1    6    6  502    0  0.38776864522E+03 -0.18471999171E+03  0.85096165294E+03  0.95321651912E+03  0.00000000000E+00 0. -1.
          3    1    5    5  503    0 -0.23226206656E+03 -0.25145116586E+03  0.21792464878E+03  0.40578874913E+03  0.00000000000E+00 0. -1.
         -4    1    5    5    0  503 -0.86562742186E+01 -0.28021060178E+02 -0.15965535557E+01  0.29371072165E+02  0.00000000000E+00 0.  1.
         -3    1    6    6    0  502  0.16883141500E+03 -0.14325226858E+03  0.44090703330E+03  0.49338045276E+03  0.00000000000E+00 0.  1.
<mgrwt>
<rscale>  0 0.18173506E+04</rscale>
<asrwt>0</asrwt>
<pdfrwt beam="1">  1        2 0.41169651E+00 0.18173506E+04</pdfrwt>
<pdfrwt beam="2">  1       -2 0.47469376E-01 0.18173506E+04</pdfrwt>
<totfact> 0.10900794E+01</totfact>
</mgrwt>
</event>
<event>
12    1  0.1532786E-007  0.1362323E+04  0.7818608E-02  0.8981552E-01
         -2   -1    0    0    0  501 -0.00000000000E+00  0.00000000000E+00  0.45588655110E+03  0.45588655110E+03  0.00000000000E+00 0.  1.
          2   -1    0    0  501    0  0.00000000000E+00 -0.00000000000E+00 -0.10177555037E+04  0.10177555037E+04  0.00000000000E+00 0. -1.
         23    2    1    2    0    0 -0.12471087989E+03 -0.27667049461E+03  0.83200691092E+02  0.32628691935E+03  0.86263738546E+02 0.  0.
        254    2    1    2    0    0  0.12471087989E+03  0.27667049461E+03 -0.64506964374E+03  0.11473551355E+04  0.89900478058E+03 0.  0.
        -24    2    4    4    0    0 -0.12953199663E+03  0.30257436968E+03 -0.77772511581E+03  0.84865364153E+03  0.83826369294E+02 0.  0.
         24    2    4    4    0    0  0.25424287652E+03 -0.25903875066E+02  0.13265547207E+03  0.29870149396E+03  0.79464817478E+02 0.  0.
         11    1    3    3    0    0 -0.12609766645E+03 -0.28177136482E+03  0.77037562432E+02  0.31816742376E+03  0.00000000000E+00 0.  1.
        -11    1    3    3    0    0  0.13867865553E+01  0.51008702052E+01  0.61631286598E+01  0.81194955925E+01  0.00000000000E+00 0. -1.
          4    1    6    6  502    0  0.11153384863E+03  0.18318055447E+02  0.28469998987E+02  0.11655853202E+03  0.00000000000E+00 0. -1.
          1    1    5    5  503    0 -0.43496758632E+01  0.10897300179E+03 -0.24411388243E+03  0.26736795319E+03  0.00000000000E+00 0. -1.
         -2    1    5    5    0  503 -0.12518232077E+03  0.19360136789E+03 -0.53361123338E+03  0.58128568835E+03  0.00000000000E+00 0.  1.
         -3    1    6    6    0  502  0.14270902790E+03 -0.44221930513E+02  0.10418547308E+03  0.18214296194E+03  0.00000000000E+00 0.  1.
<mgrwt>
<rscale>  0 0.13623231E+04</rscale>
<asrwt>0</asrwt>
<pdfrwt beam="1">  1        2 0.15657777E+00 0.13623231E+04</pdfrwt>
<pdfrwt beam="2">  1       -2 0.70136393E-01 0.13623231E+04</pdfrwt>
<totfact> 0.44334849E+01</totfact>
</mgrwt>
</event>
<event>
12    1  0.1532786E-007  0.1831677E+04  0.7818608E-02  0.8689633E-01
          2   -1    0    0  501    0  0.00000000000E+00  0.00000000000E+00  0.13991111384E+04  0.13991111384E+04  0.00000000000E+00 0. -1.
         -2   -1    0    0    0  501 -0.00000000000E+00 -0.00000000000E+00 -0.59949499199E+03  0.59949499199E+03  0.00000000000E+00 0.  1.
         23    2    1    2    0    0  0.52768672116E+03 -0.49762057112E+01  0.81436106444E+03  0.97457569720E+03  0.90198713907E+02 0.  0.
        254    2    1    2    0    0 -0.52768672116E+03  0.49762057112E+01 -0.14744918056E+02  0.10240304332E+04  0.87746388935E+03 0.  0.
        -24    2    4    4    0    0 -0.19638881635E+02  0.44552920025E+02 -0.38017558797E+03  0.39155497105E+03  0.80069777766E+02 0.  0.
         24    2    4    4    0    0 -0.50804783953E+03 -0.39576714314E+02  0.36543066992E+03  0.63247546210E+03  0.82502800462E+02 0.  0.
         11    1    3    3    0    0  0.47810601308E+03 -0.17789064610E+01  0.67945353288E+03  0.83081022358E+03  0.00000000000E+00 0. -1.
        -11    1    3    3    0    0  0.49580708080E+02 -0.31972992502E+01  0.13490753156E+03  0.14376547363E+03  0.00000000000E+00 0.  1.
          2    1    6    6  502    0 -0.37028660564E+03  0.82056395608E+01  0.25900589982E+03  0.45195526214E+03  0.00000000000E+00 0. -1.
          3    1    5    5  503    0  0.36246063873E+01  0.10885631651E+02 -0.31078069110E+03  0.31099239976E+03  0.00000000000E+00 0. -1.
         -4    1    5    5    0  503 -0.23263488023E+02  0.33667288375E+02 -0.69394896875E+02  0.80562571296E+02  0.00000000000E+00 0.  1.
         -1    1    6    6    0  502 -0.13776123388E+03 -0.47782353875E+02  0.10642477010E+03  0.18052019996E+03  0.00000000000E+00 0.  1.
<mgrwt>
<rscale>  0 0.18316770E+04</rscale>
<asrwt>0</asrwt>
<pdfrwt beam="1">  1        2 0.21524787E+00 0.18316770E+04</pdfrwt>
<pdfrwt beam="2">  1       -2 0.92229999E-01 0.18316770E+04</pdfrwt>
<totfact> 0.13624496E+01</totfact>
</mgrwt>
</event>
<event>
12    1  0.1532786E-007  0.1500256E+04  0.7818608E-02  0.8884283E-01
         -1   -1    0    0    0  501 -0.00000000000E+00  0.00000000000E+00  0.19753944169E+03  0.19753944169E+03  0.00000000000E+00 0.  1.
          1   -1    0    0  501    0  0.00000000000E+00 -0.00000000000E+00 -0.28485051216E+04  0.28485051216E+04  0.00000000000E+00 0. -1.
         23    2    1    2    0    0  0.40416024200E+03 -0.10208304193E+03 -0.11805131004E+04  0.12552665671E+04  0.91194986778E+02 0.  0.
        254    2    1    2    0    0 -0.40416024200E+03  0.10208304193E+03 -0.14704525795E+04  0.17907779962E+04  0.93321412032E+03 0.  0.
        -24    2    4    4    0    0 -0.68849891292E+02 -0.90085356642E+02 -0.13791041674E+04  0.13860868883E+04  0.80329811055E+02 0.  0.
         24    2    4    4    0    0 -0.33531035070E+03  0.19216839857E+03 -0.91348412112E+02  0.40469110782E+03  0.77901448371E+02 0.  0.
         13    1    3    3    0    0  0.63711810892E+02 -0.30298513270E+01 -0.28640384099E+03  0.29342040655E+03  0.00000000000E+00 0. -1.
        -13    1    3    3    0    0  0.34044843110E+03 -0.99053190600E+02 -0.89410925940E+03  0.96184616054E+03  0.00000000000E+00 0.  1.
          2    1    6    6  502    0 -0.99792352156E+02  0.18569226298E+02 -0.28544639154E+02  0.10544252529E+03  0.00000000000E+00 0. -1.
          1    1    5    5  503    0 -0.81783634798E+01  0.15276612646E+02 -0.18405917107E+03  0.18487303476E+03  0.00000000000E+00 0. -1.
         -2    1    5    5    0  503 -0.60671527812E+02 -0.10536196929E+03 -0.11950449963E+04  0.12012138536E+04  0.00000000000E+00 0.  1.
         -3    1    6    6    0  502 -0.23551799855E+03  0.17359917227E+03 -0.62803772958E+02  0.29924858254E+03  0.00000000000E+00 0.  1.
<mgrwt>
<rscale>  0 0.15002561E+04</rscale>
<asrwt>0</asrwt>
<pdfrwt beam="1">  1        1 0.43823155E+00 0.15002561E+04</pdfrwt>
<pdfrwt beam="2">  1       -1 0.30390684E-01 0.15002561E+04</pdfrwt>
<totfact> 0.74602929E+00</totfact>
</mgrwt>
</event>
<event>
12    1  0.1532786E-007  0.1379801E+04  0.7818608E-02  0.8968571E-01
          2   -1    0    0  501    0  0.00000000000E+00  0.00000000000E+00  0.12593846255E+04  0.12593846255E+04  0.00000000000E+00 0. -1.
         -2   -1    0    0    0  501 -0.00000000000E+00 -0.00000000000E+00 -0.37793273316E+03  0.37793273316E+03  0.00000000000E+00 0.  1.
         23    2    1    2    0    0 -0.38576922731E+02  0.33528511253E+03  0.23599377123E+02  0.34991284710E+03  0.89318443296E+02 0.  0.
        254    2    1    2    0    0  0.38576922731E+02 -0.33528511253E+03  0.85785251520E+03  0.12874045115E+04  0.89866298070E+03 0.  0.
        -24    2    4    4    0    0  0.44042411642E+03 -0.58888007742E+02  0.51902545678E+03  0.68778494056E+03  0.78863805965E+02 0.  0.
         24    2    4    4    0    0 -0.40184719369E+03 -0.27639710479E+03  0.33882705842E+03  0.59961957099E+03  0.82845203767E+02 0.  0.
         13    1    3    3    0    0  0.47909316066E+01  0.28478625074E+02  0.27718954004E+02  0.40029058481E+02  0.00000000000E+00 0. -1.
        -13    1    3    3    0    0 -0.43367854338E+02  0.30680648745E+03 -0.41195768812E+01  0.30988378862E+03  0.00000000000E+00 0.  1.
          4    1    6    6  502    0 -0.33118428771E+03 -0.19047082804E+03  0.28082652105E+03  0.47415788898E+03  0.00000000000E+00 0. -1.
          1    1    5    5  503    0  0.28586175316E+03 -0.70573881116E+02  0.36887372732E+03  0.47198033997E+03  0.00000000000E+00 0. -1.
         -2    1    5    5    0  503  0.15456236326E+03  0.11685873374E+02  0.15015172947E+03  0.21580460059E+03  0.00000000000E+00 0.  1.
         -3    1    6    6    0  502 -0.70662905981E+02 -0.85926276745E+02  0.58000537368E+02  0.12546168201E+03  0.00000000000E+00 0.  1.
<mgrwt>
<rscale>  0 0.13798010E+04</rscale>
<asrwt>0</asrwt>
<pdfrwt beam="1">  1        2 0.19375148E+00 0.13798010E+04</pdfrwt>
<pdfrwt beam="2">  1       -2 0.58143498E-01 0.13798010E+04</pdfrwt>
<totfact> 0.47106233E+01</totfact>
</mgrwt>
</event>
<event>
12    1  0.1532786E-007  0.2066021E+04  0.7818608E-02  0.8576361E-01
         -2   -1    0    0    0  501 -0.00000000000E+00  0.00000000000E+00  0.46907660949E+03  0.46907660949E+03  0.00000000000E+00 0.  1.
          2   -1    0    0  501    0  0.00000000000E+00 -0.00000000000E+00 -0.22749174866E+04  0.22749174866E+04  0.00000000000E+00 0. -1.
         23    2    1    2    0    0  0.65157651745E+03  0.51963741163E+03 -0.70953040153E+03  0.10983458822E+04  0.91407267407E+02 0.  0.
        254    2    1    2    0    0 -0.65157651745E+03 -0.51963741163E+03 -0.10963104756E+04  0.16456482140E+04  0.90093639479E+03 0.  0.
        -24    2    4    4    0    0  0.14921816424E+03 -0.35331843493E+03 -0.24417619021E+03  0.46183416303E+03  0.81048166408E+02 0.  0.
         24    2    4    4    0    0 -0.80079468170E+03 -0.16631897671E+03 -0.85213428541E+03  0.11838140509E+04  0.79678996856E+02 0.  0.
         13    1    3    3    0    0  0.49916861875E+03  0.44297361643E+03 -0.55074920880E+03  0.86528586363E+03  0.00000000000E+00 0.  1.
        -13    1    3    3    0    0  0.15240789870E+03  0.76663795201E+02 -0.15878119273E+03  0.23306001855E+03  0.00000000000E+00 0. -1.
          4    1    6    6  502    0 -0.12333733803E+03 -0.27942320469E+02 -0.17604994888E+03  0.21676359640E+03  0.00000000000E+00 0. -1.
          1    1    5    5  503    0  0.41643999301E+02 -0.41406471991E+02 -0.60053953289E+02  0.83995213591E+02  0.00000000000E+00 0. -1.
         -2    1    5    5    0  503  0.10757416494E+03 -0.31191196293E+03 -0.18412223692E+03  0.37783894944E+03  0.00000000000E+00 0.  1.
         -3    1    6    6    0  502 -0.67745734367E+03 -0.13837665624E+03 -0.67608433654E+03  0.96705045453E+03  0.00000000000E+00 0.  1.
<mgrwt>
<rscale>  0 0.20660209E+04</rscale>
<asrwt>0</asrwt>
<pdfrwt beam="1">  1        2 0.34998730E+00 0.20660209E+04</pdfrwt>
<pdfrwt beam="2">  1       -2 0.72165633E-01 0.20660209E+04</pdfrwt>
<totfact> 0.75272176E+00</totfact>
</mgrwt>
</event>
<event>
12    1  0.1532786E-007  0.1086965E+04  0.7818608E-02  0.9217991E-01
         -2   -1    0    0    0  501 -0.00000000000E+00  0.00000000000E+00  0.26256491138E+03  0.26256491138E+03  0.00000000000E+00 0.  1.
          2   -1    0    0  501    0  0.00000000000E+00 -0.00000000000E+00 -0.11249531428E+04  0.11249531428E+04  0.00000000000E+00 0. -1.
         23    2    1    2    0    0  0.51691704204E+02  0.13978776070E+03 -0.14119832627E+03  0.22531381245E+03  0.92826162331E+02 0.  0.
        254    2    1    2    0    0 -0.51691704204E+02 -0.13978776070E+03 -0.72118990510E+03  0.11622042417E+04  0.89910576122E+03 0.  0.
        -24    2    4    4    0    0  0.32301921125E+03  0.31683278048E+02 -0.76115678914E+01  0.33438005838E+03  0.80042779390E+02 0.  0.
         24    2    4    4    0    0 -0.37471091546E+03 -0.17147103875E+03 -0.71357833721E+03  0.82782418331E+03  0.79298473137E+02 0.  0.
         11    1    3    3    0    0 -0.16575632825E+02  0.16321463465E+02 -0.55659631757E+02  0.60325254915E+02  0.00000000000E+00 0. -1.
        -11    1    3    3    0    0  0.68267337029E+02  0.12346629723E+03 -0.85538694516E+02  0.16498855753E+03  0.00000000000E+00 0.  1.
          2    1    6    6  502    0 -0.93992200515E+02 -0.32201326766E+02 -0.11344479967E+03  0.15080179633E+03  0.00000000000E+00 0. -1.
          1    1    5    5  503    0  0.22136721344E+03 -0.78732531853E+01 -0.28460729814E+02  0.22332810939E+03  0.00000000000E+00 0. -1.
         -2    1    5    5    0  503  0.10165199781E+03  0.39556531234E+02  0.20849161922E+02  0.11105194900E+03  0.00000000000E+00 0.  1.
         -1    1    6    6    0  502 -0.28071871494E+03 -0.13926971198E+03 -0.60013353754E+03  0.67702238698E+03  0.00000000000E+00 0.  1.
<mgrwt>
<rscale>  0 0.10869650E+04</rscale>
<asrwt>0</asrwt>
<pdfrwt beam="1">  1        2 0.17306971E+00 0.10869650E+04</pdfrwt>
<pdfrwt beam="2">  1       -2 0.40394602E-01 0.10869650E+04</pdfrwt>
<totfact> 0.12112761E+02</totfact>
</mgrwt>
</event>
<event>
12    1  0.1532786E-007  0.1689936E+04  0.7818608E-02  0.8767125E-01
         -1   -1    0    0    0  501 -0.00000000000E+00  0.00000000000E+00  0.52374867710E+03  0.52374867710E+03  0.00000000000E+00 0.  1.
          1   -1    0    0  501    0  0.00000000000E+00 -0.00000000000E+00 -0.13631944854E+04  0.13631944854E+04  0.00000000000E+00 0. -1.
         23    2    1    2    0    0  0.30507039867E+03 -0.55359792614E+02 -0.86754153778E+03  0.92582273571E+03  0.91579273900E+02 0.  0.
        254    2    1    2    0    0 -0.30507039867E+03  0.55359792614E+02  0.28095729470E+02  0.96112042679E+03  0.90930217749E+03 0.  0.
        -24    2    4    4    0    0 -0.87901577766E+02  0.46839138753E+03  0.57295677693E+02  0.48690206829E+03  0.81692411755E+02 0.  0.
         24    2    4    4    0    0 -0.21716882091E+03 -0.41303159492E+03 -0.29199948223E+02  0.47421835850E+03  0.79202395076E+02 0.  0.
         11    1    3    3    0    0  0.13514296817E+03  0.21289044135E+02 -0.35767136254E+03  0.38294340160E+03  0.00000000000E+00 0.  1.
        -11    1    3    3    0    0  0.16992743050E+03 -0.76648836749E+02 -0.50987017524E+03  0.54287933412E+03  0.00000000000E+00 0. -1.
          4    1    6    6  502    0 -0.79246347476E+02 -0.20547443579E+03 -0.43985749952E+02  0.22457620878E+03  0.00000000000E+00 0. -1.
          3    1    5    5  503    0 -0.37540982144E+02  0.10300830552E+03  0.43064012451E+02  0.11779026069E+03  0.00000000000E+00 0. -1.
         -4    1    5    5    0  503 -0.50360595621E+02  0.36538308201E+03  0.14231665242E+02  0.36911180760E+03  0.00000000000E+00 0.  1.
         -3    1    6    6    0  502 -0.13792247343E+03 -0.20755715913E+03  0.14785801729E+02  0.24964214972E+03  0.00000000000E+00 0.  1.
<mgrwt>
<rscale>  0 0.16899365E+04</rscale>
<asrwt>0</asrwt>
<pdfrwt beam="1">  1        1 0.20972223E+00 0.16899365E+04</pdfrwt>
<pdfrwt beam="2">  1       -1 0.80576721E-01 0.16899365E+04</pdfrwt>
<totfact> 0.11932879E+01</totfact>
</mgrwt>
</event>
<event>
12    1  0.1532786E-007  0.1715798E+04  0.7818608E-02  0.8752405E-01
          2   -1    0    0  501    0  0.00000000000E+00  0.00000000000E+00  0.30150503478E+04  0.30150503478E+04  0.00000000000E+00 0.  1.
         -2   -1    0    0    0  501 -0.00000000000E+00 -0.00000000000E+00 -0.24410552887E+03  0.24410552887E+03  0.00000000000E+00 0. -1.
         23    2    1    2    0    0  0.45672225146E+03  0.19441258191E+03  0.15737877947E+04  0.16527036647E+04  0.90718871422E+02 0.  0.
        254    2    1    2    0    0 -0.45672225146E+03 -0.19441258191E+03  0.11971570243E+04  0.16064522120E+04  0.94926935147E+03 0.  0.
        -24    2    4    4    0    0 -0.65588041486E+03 -0.10071720890E+03  0.11976983888E+04  0.13716380912E+04  0.81157550445E+02 0.  0.
         24    2    4    4    0    0  0.19915816340E+03 -0.93695373017E+02 -0.54136450021E+00  0.23481412079E+03  0.81820420866E+02 0.  0.
         13    1    3    3    0    0  0.15925445220E+03  0.37530242642E+02  0.41458268013E+03  0.44570090680E+03  0.00000000000E+00 0. -1.
        -13    1    3    3    0    0  0.29746779926E+03  0.15688233927E+03  0.11592051146E+04  0.12070027579E+04  0.00000000000E+00 0.  1.
          2    1    6    6  502    0  0.11731537656E+03 -0.11561582469E+02 -0.10991507330E+02  0.11839502101E+03  0.00000000000E+00 0. -1.
          3    1    5    5  503    0 -0.60742824236E+03 -0.77639892239E+02  0.11298586846E+04  0.12851372182E+04  0.00000000000E+00 0. -1.
         -4    1    5    5    0  503 -0.48452172497E+02 -0.23077316658E+02  0.67839704164E+02  0.86500872972E+02  0.00000000000E+00 0.  1.
         -1    1    6    6    0  502  0.81842786847E+02 -0.82133790548E+02  0.10450142830E+02  0.11641909978E+03  0.00000000000E+00 0.  1.
<mgrwt>
<rscale>  0 0.17157977E+04</rscale>
<asrwt>0</asrwt>
<pdfrwt beam="1">  1        2 0.46385387E+00 0.17157977E+04</pdfrwt>
<pdfrwt beam="2">  1       -2 0.37554699E-01 0.17157977E+04</pdfrwt>
<totfact> 0.10881114E+01</totfact>
</mgrwt>
</event>
<event>
12    1  0.1532786E-007  0.2763606E+04  0.7818608E-02  0.8314657E-01
         -2   -1    0    0    0  501 -0.00000000000E+00  0.00000000000E+00  0.15971186976E+04  0.15971186976E+04  0.00000000000E+00 0.  1.
          2   -1    0    0  501    0  0.00000000000E+00 -0.00000000000E+00 -0.11955155029E+04  0.11955155029E+04  0.00000000000E+00 0. -1.
         23    2    1    2    0    0 -0.96252991062E+03 -0.31380345797E+03  0.89134503024E+03  0.13519384859E+04  0.91133240753E+02 0.  0.
        254    2    1    2    0    0  0.96252991062E+03  0.31380345797E+03 -0.48974183556E+03  0.14406957146E+04  0.90045579426E+03 0.  0.
        -24    2    4    4    0    0 -0.12029161945E+03  0.21640287357E+03 -0.47769075029E+02  0.26447465129E+03  0.79778939876E+02 0.  0.
         24    2    4    4    0    0  0.10828215301E+04  0.97400584400E+02 -0.44197276054E+03  0.11762210633E+04  0.78528522446E+02 0.  0.
         11    1    3    3    0    0 -0.12938905543E+03 -0.69144494069E+02  0.15523046820E+03  0.21358601776E+03  0.00000000000E+00 0. -1.
        -11    1    3    3    0    0 -0.83314085519E+03 -0.24465896390E+03  0.73611456204E+03  0.11383524681E+04  0.00000000000E+00 0.  1.
          2    1    6    6  502    0  0.38278314539E+03  0.31525621885E+02 -0.11607755326E+03  0.40123658806E+03  0.00000000000E+00 0. -1.
          1    1    5    5  503    0 -0.12762434056E+02  0.42664259438E+02 -0.40230225087E+02  0.60013246595E+02  0.00000000000E+00 0. -1.
         -2    1    5    5    0  503 -0.10752918539E+03  0.17373861413E+03 -0.75388499419E+01  0.20446140469E+03  0.00000000000E+00 0.  1.
         -1    1    6    6    0  502  0.70003838468E+03  0.65874962515E+02 -0.32589520727E+03  0.77498447522E+03  0.00000000000E+00 0.  1.
<mgrwt>
<rscale>  0 0.27636065E+04</rscale>
<asrwt>0</asrwt>
<pdfrwt beam="1">  1        2 0.18392546E+00 0.27636065E+04</pdfrwt>
<pdfrwt beam="2">  1       -2 0.24571057E+00 0.27636065E+04</pdfrwt>
<totfact> 0.11359234E+00</totfact>
</mgrwt>
</event>
<event>
12    1  0.1532786E-007  0.1812999E+04  0.7818608E-02  0.8699417E-01
          2   -1    0    0  501    0  0.00000000000E+00  0.00000000000E+00  0.12704719878E+04  0.12704719878E+04  0.00000000000E+00 0. -1.
         -2   -1    0    0    0  501 -0.00000000000E+00 -0.00000000000E+00 -0.64679976343E+03  0.64679976343E+03  0.00000000000E+00 0.  1.
         23    2    1    2    0    0 -0.16799983261E+03 -0.30344434211E+03 -0.37581697662E+03  0.51937119044E+03  0.90584883028E+02 0.  0.
        254    2    1    2    0    0  0.16799983261E+03  0.30344434211E+03  0.99948920100E+03  0.13979005608E+04  0.91369847457E+03 0.  0.
        -24    2    4    4    0    0 -0.35091208590E+03  0.27140140223E+03  0.48442218162E+03  0.66171499574E+03  0.80024198694E+02 0.  0.
         24    2    4    4    0    0  0.51891191850E+03  0.32042939874E+02  0.51506701937E+03  0.73618556505E+03  0.79867531469E+02 0.  0.
         13    1    3    3    0    0 -0.15415810932E+03 -0.30609817117E+03 -0.36934743738E+03  0.50386341658E+03  0.00000000000E+00 0.  1.
        -13    1    3    3    0    0 -0.13841723288E+02  0.26538290658E+01 -0.64695392369E+01  0.15507773865E+02  0.00000000000E+00 0. -1.
          4    1    6    6  502    0  0.20940860198E+02 -0.47406078294E+01  0.47463882216E+02  0.52094271311E+02  0.00000000000E+00 0. -1.
          3    1    5    5  503    0  0.16681267685E+01  0.24671489447E+00 -0.19834562145E+01  0.26033850483E+01  0.00000000000E+00 0. -1.
         -4    1    5    5    0  503 -0.35258021267E+03  0.27115468734E+03  0.48640563784E+03  0.65911161069E+03  0.00000000000E+00 0.  1.
         -3    1    6    6    0  502  0.49797105830E+03  0.36783547704E+02  0.46760313716E+03  0.68409129374E+03  0.00000000000E+00 0.  1.
<mgrwt>
<rscale>  0 0.18129986E+04</rscale>
<asrwt>0</asrwt>
<pdfrwt beam="1">  1        2 0.19545723E+00 0.18129986E+04</pdfrwt>
<pdfrwt beam="2">  1       -2 0.99507656E-01 0.18129986E+04</pdfrwt>
<totfact> 0.13561119E+01</totfact>
</mgrwt>
</event>
<event>
12    1  0.1532786E-007  0.2412711E+04  0.7818608E-02  0.8434760E-01
         -2   -1    0    0    0  501 -0.00000000000E+00  0.00000000000E+00  0.49346676379E+03  0.49346676379E+03  0.00000000000E+00 0.  1.
          2   -1    0    0  501    0  0.00000000000E+00 -0.00000000000E+00 -0.29491224842E+04  0.29491224842E+04  0.00000000000E+00 0. -1.
         23    2    1    2    0    0  0.75878883908E+03 -0.63233488016E+03 -0.14977831118E+04  0.17971772651E+04  0.10432626381E+03 0.  0.
        254    2    1    2    0    0 -0.75878883908E+03  0.63233488016E+03 -0.95787260865E+03  0.16454119829E+04  0.90235954921E+03 0.  0.
        -24    2    4    4    0    0 -0.70357014344E+03  0.14585464663E+03 -0.21895417950E+03  0.75541064410E+03  0.80123553382E+02 0.  0.
         24    2    4    4    0    0 -0.55218695632E+02  0.48648023354E+03 -0.73891842915E+03  0.89000133879E+03  0.79936325574E+02 0.  0.
         13    1    3    3    0    0  0.36372867972E+03 -0.29690771086E+03 -0.61847593401E+03  0.77650835293E+03  0.00000000000E+00 0. -1.
        -13    1    3    3    0    0  0.39506015936E+03 -0.33542716930E+03 -0.87930717775E+03  0.10206689122E+04  0.00000000000E+00 0.  1.
          4    1    6    6  502    0 -0.38655918818E+02  0.87858970063E+02 -0.12051555476E+03  0.15406971675E+03  0.00000000000E+00 0. -1.
          1    1    5    5  503    0 -0.13738310793E+02 -0.59179416992E+01 -0.12588592107E+02  0.19550853399E+02  0.00000000000E+00 0. -1.
         -4    1    5    5    0  503 -0.68983183265E+03  0.15177258833E+03 -0.20636558739E+03  0.73585979070E+03  0.00000000000E+00 0.  1.
         -3    1    6    6    0  502 -0.16562776814E+02  0.39862126347E+03 -0.61840287439E+03  0.73593162204E+03  0.00000000000E+00 0.  1.
<mgrwt>
<rscale>  0 0.24127113E+04</rscale>
<asrwt>0</asrwt>
<pdfrwt beam="1">  1        2 0.45371115E+00 0.24127113E+04</pdfrwt>
<pdfrwt beam="2">  1       -2 0.75917964E-01 0.24127113E+04</pdfrwt>
<totfact> 0.26162305E+00</totfact>
</mgrwt>
</event>
<event>
12    1  0.1532786E-007  0.1668006E+04  0.7818608E-02  0.8779825E-01
          2   -1    0    0  501    0  0.00000000000E+00  0.00000000000E+00  0.26341642317E+04  0.26341642317E+04  0.00000000000E+00 0. -1.
         -2   -1    0    0    0  501 -0.00000000000E+00 -0.00000000000E+00 -0.26405382476E+03  0.26405382476E+03  0.00000000000E+00 0.  1.
         23    2    1    2    0    0  0.39667643963E+03  0.38925253911E+03  0.11685441643E+04  0.12973416809E+04  0.93435733487E+02 0.  0.
        254    2    1    2    0    0 -0.39667643963E+03 -0.38925253911E+03  0.12015662427E+04  0.16008763755E+04  0.90009665993E+03 0.  0.
        -24    2    4    4    0    0 -0.30314848759E+03  0.90767561349E+02  0.10238103544E+04  0.10745420452E+04  0.79468290926E+02 0.  0.
         24    2    4    4    0    0 -0.93527952038E+02 -0.48002010046E+03  0.17775588825E+03  0.52633433036E+03  0.79144784123E+02 0.  0.
         13    1    3    3    0    0  0.77804376881E+02  0.39679650759E+02  0.13722657546E+03  0.16266262250E+03  0.00000000000E+00 0.  1.
        -13    1    3    3    0    0  0.31887206275E+03  0.34957288835E+03  0.10313175888E+04  0.11346790584E+04  0.00000000000E+00 0. -1.
          2    1    6    6  502    0  0.71104926927E+01 -0.27538593169E+01  0.21182497139E+01  0.79139010179E+01  0.00000000000E+00 0. -1.
          1    1    5    5  503    0 -0.12733212516E+02  0.19978594063E+01  0.12821615062E+03  0.12886235844E+03  0.00000000000E+00 0. -1.
         -2    1    5    5    0  503 -0.29041527507E+03  0.88769701943E+02  0.89559420381E+03  0.94567968673E+03  0.00000000000E+00 0.  1.
         -1    1    6    6    0  502 -0.10063844473E+03 -0.47726624114E+03  0.17563763854E+03  0.51842042935E+03  0.00000000000E+00 0.  1.
<mgrwt>
<rscale>  0 0.16680062E+04</rscale>
<asrwt>0</asrwt>
<pdfrwt beam="1">  1        2 0.40525602E+00 0.16680062E+04</pdfrwt>
<pdfrwt beam="2">  1       -2 0.40623667E-01 0.16680062E+04</pdfrwt>
<totfact> 0.15941542E+01</totfact>
</mgrwt>
</event>
<event>
12    1  0.1532786E-007  0.1391570E+04  0.7818608E-02  0.8959943E-01
          1   -1    0    0  501    0  0.00000000000E+00  0.00000000000E+00  0.80455570534E+03  0.80455570534E+03  0.00000000000E+00 0. -1.
         -1   -1    0    0    0  501 -0.00000000000E+00 -0.00000000000E+00 -0.60171970225E+03  0.60171970225E+03  0.00000000000E+00 0.  1.
         23    2    1    2    0    0  0.24924405842E+03 -0.55387391000E+02 -0.15506868919E+03  0.31275163939E+03  0.92611693841E+02 0.  0.
        254    2    1    2    0    0 -0.24924405842E+03  0.55387391000E+02  0.35790469228E+03  0.10935237682E+04  0.10012532642E+04 0.  0.
        -24    2    4    4    0    0 -0.44766523596E+03 -0.26383834422E+03  0.45781666544E+03  0.69713153044E+03  0.79883892021E+02 0.  0.
         24    2    4    4    0    0  0.19842117754E+03  0.31922573522E+03 -0.99911973161E+02  0.39639223776E+03  0.76605287345E+02 0.  0.
         13    1    3    3    0    0  0.13424051137E+03 -0.10110624996E+02 -0.32080792657E+02  0.13839045086E+03  0.00000000000E+00 0. -1.
        -13    1    3    3    0    0  0.11500354705E+03 -0.45276766004E+02 -0.12298789653E+03  0.17436118853E+03  0.00000000000E+00 0.  1.
          2    1    6    6  502    0  0.48492409214E+01 -0.40979435401E+01 -0.41177381299E+01  0.75673011092E+01  0.00000000000E+00 0. -1.
          1    1    5    5  503    0 -0.82102570582E+02 -0.87067712336E+02  0.10339658388E+03  0.15815331860E+03  0.00000000000E+00 0. -1.
         -2    1    5    5    0  503 -0.36556266538E+03 -0.17677063188E+03  0.35442008156E+03  0.53897821183E+03  0.00000000000E+00 0.  1.
         -1    1    6    6    0  502  0.19357193662E+03  0.32332367876E+03 -0.95794235031E+02  0.38882493665E+03  0.00000000000E+00 0.  1.
<mgrwt>
<rscale>  0 0.13915704E+04</rscale>
<asrwt>0</asrwt>
<pdfrwt beam="1">  1        1 0.12377780E+00 0.13915704E+04</pdfrwt>
<pdfrwt beam="2">  1       -1 0.92572262E-01 0.13915704E+04</pdfrwt>
<totfact> 0.24264668E+01</totfact>
</mgrwt>
</event>
<event>
12    1  0.1532786E-007  0.1946853E+04  0.7818608E-02  0.8631880E-01
         -2   -1    0    0    0  501 -0.00000000000E+00  0.00000000000E+00  0.75100107764E+03  0.75100107764E+03  0.00000000000E+00 0.  1.
          2   -1    0    0  501    0  0.00000000000E+00 -0.00000000000E+00 -0.12617279817E+04  0.12617279817E+04  0.00000000000E+00 0. -1.
         23    2    1    2    0    0  0.41793167755E+03 -0.42049880523E+03  0.29274924733E+03  0.66734368943E+03  0.90329096771E+02 0.  0.
        254    2    1    2    0    0 -0.41793167755E+03  0.42049880523E+03 -0.80347615139E+03  0.13453853699E+04  0.90166608865E+03 0.  0.
        -24    2    4    4    0    0 -0.28090546108E+03 -0.25111348703E+03 -0.34065812161E+03  0.51485411812E+03  0.84029433496E+02 0.  0.
         24    2    4    4    0    0 -0.13702621646E+03  0.67161229226E+03 -0.46281802977E+03  0.83053125178E+03  0.75778469190E+02 0.  0.
         11    1    3    3    0    0  0.26341494821E+03 -0.22990945327E+03  0.13051933645E+03  0.37320381674E+03  0.00000000000E+00 0.  1.
        -11    1    3    3    0    0  0.15451672934E+03 -0.19058935195E+03  0.16222991088E+03  0.29413987269E+03  0.00000000000E+00 0. -1.
          4    1    6    6  502    0 -0.50910942166E+02  0.12922831376E+03 -0.71669744813E+02  0.15629598022E+03  0.00000000000E+00 0. -1.
          1    1    5    5  503    0 -0.71701439431E+02 -0.21952681779E+02 -0.53901672221E+02  0.92349374237E+02  0.00000000000E+00 0. -1.
         -2    1    5    5    0  503 -0.20920402165E+03 -0.22916080525E+03 -0.28675644939E+03  0.42250474389E+03  0.00000000000E+00 0.  1.
         -3    1    6    6    0  502 -0.86115274296E+02  0.54238397850E+03 -0.39114828496E+03  0.67423527157E+03  0.00000000000E+00 0.  1.
<mgrwt>
<rscale>  0 0.19468529E+04</rscale>
<asrwt>0</asrwt>
<pdfrwt beam="1">  1        2 0.19411200E+00 0.19468529E+04</pdfrwt>
<pdfrwt beam="2">  1       -2 0.11553863E+00 0.19468529E+04</pdfrwt>
<totfact> 0.94703738E+00</totfact>
</mgrwt>
</event>
<event>
12    1  0.1532786E-007  0.1820917E+04  0.7818608E-02  0.8695255E-01
          1   -1    0    0  501    0  0.00000000000E+00  0.00000000000E+00  0.16397762800E+04  0.16397762800E+04  0.00000000000E+00 0. -1.
         -1   -1    0    0    0  501 -0.00000000000E+00 -0.00000000000E+00 -0.50551679422E+03  0.50551679422E+03  0.00000000000E+00 0.  1.
         23    2    1    2    0    0 -0.81927638590E+02 -0.12645550047E+03  0.12332575069E+04  0.12458214991E+04  0.91891226800E+02 0.  0.
        254    2    1    2    0    0  0.81927638590E+02  0.12645550047E+03 -0.98998021115E+02  0.89947157518E+03  0.88121811989E+03 0.  0.
        -24    2    4    4    0    0  0.17876817625E+03  0.12021141268E+03  0.35787164313E+03  0.42553944228E+03  0.81257980513E+02 0.  0.
         24    2    4    4    0    0 -0.96840537663E+02  0.62440877933E+01 -0.45686966425E+03  0.47393213290E+03  0.80403346454E+02 0.  0.
         11    1    3    3    0    0 -0.63481940176E+02 -0.47475137597E+02  0.87079099250E+03  0.87439167313E+03  0.00000000000E+00 0. -1.
        -11    1    3    3    0    0 -0.18445698415E+02 -0.78980362877E+02  0.36246651443E+03  0.37142982594E+03  0.00000000000E+00 0.  1.
          4    1    6    6  502    0 -0.96169788079E+02  0.30559404246E+02 -0.38742216134E+03  0.40034789424E+03  0.00000000000E+00 0. -1.
          3    1    5    5  503    0  0.86094924066E+02  0.97383837054E+02  0.16242249247E+03  0.20803128065E+03  0.00000000000E+00 0. -1.
         -4    1    5    5    0  503  0.92673252188E+02  0.22827575627E+02  0.19544915066E+03  0.21750816163E+03  0.00000000000E+00 0.  1.
         -3    1    6    6    0  502 -0.67074958473E+00 -0.24315316453E+02 -0.69447502912E+02  0.73584238665E+02  0.00000000000E+00 0.  1.
<mgrwt>
<rscale>  0 0.18209167E+04</rscale>
<asrwt>0</asrwt>
<pdfrwt beam="1">  1        1 0.25227327E+00 0.18209167E+04</pdfrwt>
<pdfrwt beam="2">  1       -1 0.77771815E-01 0.18209167E+04</pdfrwt>
<totfact> 0.81750308E+00</totfact>
</mgrwt>
</event>
<event>
12    1  0.1532786E-007  0.1454616E+04  0.7818608E-02  0.8915207E-01
         -2   -1    0    0    0  501 -0.00000000000E+00  0.00000000000E+00  0.45635606407E+03  0.45635606407E+03  0.00000000000E+00 0.  1.
          2   -1    0    0  501    0  0.00000000000E+00 -0.00000000000E+00 -0.11591319573E+04  0.11591319573E+04  0.00000000000E+00 0. -1.
         23    2    1    2    0    0 -0.29250969163E+03 -0.13409763545E+03 -0.55540912798E+03  0.64919222159E+03  0.97093488918E+02 0.  0.
        254    2    1    2    0    0  0.29250969163E+03  0.13409763545E+03 -0.14736676528E+03  0.96629579981E+03  0.89914765956E+03 0.  0.
        -24    2    4    4    0    0  0.43446794130E+03 -0.23644826670E+03  0.71303719406E+02  0.50613520865E+03  0.80115255643E+02 0.  0.
         24    2    4    4    0    0 -0.14195824967E+03  0.37054590216E+03 -0.21867048468E+03  0.46016059116E+03  0.80464765773E+02 0.  0.
         11    1    3    3    0    0 -0.27623212329E+03 -0.92280736313E+02 -0.48138901150E+03  0.56263247384E+03  0.00000000000E+00 0. -1.
        -11    1    3    3    0    0 -0.16277568337E+02 -0.41816899141E+02 -0.74020116489E+02  0.86559747745E+02  0.00000000000E+00 0.  1.
          2    1    6    6  502    0 -0.81718496984E+02  0.25562902736E+03 -0.18548811592E+03  0.32623603959E+03  0.00000000000E+00 0. -1.
          3    1    5    5  503    0  0.25764680431E+03 -0.18400927866E+03  0.41772416276E+02  0.31935282238E+03  0.00000000000E+00 0. -1.
         -4    1    5    5    0  503  0.17682113699E+03 -0.52438988048E+02  0.29531303130E+02  0.18678238626E+03  0.00000000000E+00 0.  1.
         -1    1    6    6    0  502 -0.60239752687E+02  0.11491687480E+03 -0.33182368758E+02  0.13392455157E+03  0.00000000000E+00 0.  1.
<mgrwt>
<rscale>  0 0.14546160E+04</rscale>
<asrwt>0</asrwt>
<pdfrwt beam="1">  1        2 0.17832799E+00 0.14546160E+04</pdfrwt>
<pdfrwt beam="2">  1       -2 0.70208627E-01 0.14546160E+04</pdfrwt>
<totfact> 0.35893526E+01</totfact>
</mgrwt>
</event>
<event>
12    1  0.1532786E-007  0.1015573E+04  0.7818608E-02  0.9291627E-01
         -2   -1    0    0    0  501 -0.00000000000E+00  0.00000000000E+00  0.13975303735E+03  0.13975303735E+03  0.00000000000E+00 0.  1.
          2   -1    0    0  501    0  0.00000000000E+00 -0.00000000000E+00 -0.18450213216E+04  0.18450213216E+04  0.00000000000E+00 0. -1.
         23    2    1    2    0    0  0.11373638743E+01 -0.73901471432E+01 -0.76103759110E+02  0.12009899035E+03  0.92607113451E+02 0.  0.
        254    2    1    2    0    0 -0.11373638743E+01  0.73901471432E+01 -0.16291645252E+04  0.18646753686E+04  0.90707291462E+03 0.  0.
        -24    2    4    4    0    0  0.28377645148E+03 -0.71721525035E+02 -0.15034041742E+04  0.15337614067E+04  0.80789172020E+02 0.  0.
         24    2    4    4    0    0 -0.28491381535E+03  0.79111672178E+02 -0.12576035100E+03  0.33091396190E+03  0.79081258473E+02 0.  0.
         11    1    3    3    0    0 -0.42452355693E+02  0.68871472156E+01 -0.54422484920E+02  0.69364559867E+02  0.00000000000E+00 0. -1.
        -11    1    3    3    0    0  0.43589719568E+02 -0.14277294359E+02 -0.21681274190E+02  0.50734430486E+02  0.00000000000E+00 0.  1.
          2    1    6    6  502    0 -0.13324433798E+03  0.42185588547E+02 -0.17292582722E+02  0.14082865795E+03  0.00000000000E+00 0. -1.
          1    1    5    5  503    0  0.27502085486E+03 -0.81648281921E+02 -0.14717671797E+04  0.14994670866E+04  0.00000000000E+00 0. -1.
         -2    1    5    5    0  503  0.87555966215E+01  0.99267568857E+01 -0.31636994409E+02  0.34294320079E+02  0.00000000000E+00 0.  1.
         -1    1    6    6    0  502 -0.15166947737E+03  0.36926083631E+02 -0.10846776828E+03  0.19008530394E+03  0.00000000000E+00 0.  1.
<mgrwt>
<rscale>  0 0.10155734E+04</rscale>
<asrwt>0</asrwt>
<pdfrwt beam="1">  1        2 0.28384943E+00 0.10155734E+04</pdfrwt>
<pdfrwt beam="2">  1       -2 0.21500467E-01 0.10155734E+04</pdfrwt>
<totfact> 0.15309736E+02</totfact>
</mgrwt>
</event>
<event>
12    1  0.1532786E-007  0.1644228E+04  0.7818608E-02  0.8793829E-01
         -2   -1    0    0    0  501 -0.00000000000E+00  0.00000000000E+00  0.51991001274E+03  0.51991001274E+03  0.00000000000E+00 0.  1.
          2   -1    0    0  501    0  0.00000000000E+00 -0.00000000000E+00 -0.12999771549E+04  0.12999771549E+04  0.00000000000E+00 0. -1.
         23    2    1    2    0    0 -0.43588942878E+03  0.35081856505E+03 -0.14546068645E+03  0.58611074871E+03  0.96404039062E+02 0.  0.
        254    2    1    2    0    0  0.43588942878E+03 -0.35081856505E+03 -0.63460645568E+03  0.12337764189E+04  0.89800091231E+03 0.  0.
        -24    2    4    4    0    0  0.36953443358E+02  0.19714637190E+03  0.92555833364E+02  0.23658029560E+03  0.84684148736E+02 0.  0.
         24    2    4    4    0    0  0.39893598542E+03 -0.54796493695E+03 -0.72716228904E+03  0.99719612329E+03  0.78864574466E+02 0.  0.
         13    1    3    3    0    0 -0.34927153622E+03  0.32205959415E+03 -0.13700449036E+03  0.49445244319E+03  0.00000000000E+00 0. -1.
        -13    1    3    3    0    0 -0.86617892561E+02  0.28758970899E+02 -0.84561960880E+01  0.91658305522E+02  0.00000000000E+00 0.  1.
          4    1    6    6  502    0  0.12833171695E+03 -0.22060971955E+03 -0.31433483320E+03  0.40490006829E+03  0.00000000000E+00 0. -1.
          3    1    5    5  503    0  0.20939134125E+02  0.10833484336E+03  0.44053144987E+01  0.11042777015E+03  0.00000000000E+00 0. -1.
         -4    1    5    5    0  503  0.16014309233E+02  0.88811528538E+02  0.88150518865E+02  0.12615252545E+03  0.00000000000E+00 0.  1.
         -3    1    6    6    0  502  0.27060426847E+03 -0.32735521740E+03 -0.41282745584E+03  0.59229605500E+03  0.00000000000E+00 0.  1.
<mgrwt>
<rscale>  0 0.16442276E+04</rscale>
<asrwt>0</asrwt>
<pdfrwt beam="1">  1        2 0.19999649E+00 0.16442276E+04</pdfrwt>
<pdfrwt beam="2">  1       -2 0.79986156E-01 0.16442276E+04</pdfrwt>
<totfact> 0.21849498E+01</totfact>
</mgrwt>
</event>
<event>
12    1  0.1532786E-007  0.1503935E+04  0.7818608E-02  0.8881840E-01
          2   -1    0    0  501    0  0.00000000000E+00  0.00000000000E+00  0.16737007859E+04  0.16737007859E+04  0.00000000000E+00 0. -1.
         -2   -1    0    0    0  501 -0.00000000000E+00 -0.00000000000E+00 -0.33784730892E+03  0.33784730892E+03  0.00000000000E+00 0.  1.
         23    2    1    2    0    0 -0.26599390833E+03 -0.20599116710E+03 -0.18219547482E+02  0.34931748587E+03  0.92225993272E+02 0.  0.
        254    2    1    2    0    0  0.26599390833E+03  0.20599116710E+03  0.13540730244E+04  0.16622306089E+04  0.90349970753E+03 0.  0.
        -24    2    4    4    0    0 -0.12986559456E+03 -0.24297013295E+03  0.17029599953E+03  0.33341155934E+03  0.79139006136E+02 0.  0.
         24    2    4    4    0    0  0.39585950289E+03  0.44896130005E+03  0.11837770249E+04  0.13288190496E+04  0.78492208781E+02 0.  0.
         11    1    3    3    0    0 -0.55884420031E+01 -0.19467441697E+02  0.17824745371E+02  0.26980243101E+02  0.00000000000E+00 0. -1.
        -11    1    3    3    0    0 -0.26040546633E+03 -0.18652372540E+03 -0.36044292853E+02  0.32233724277E+03  0.00000000000E+00 0.  1.
          4    1    6    6  502    0  0.29198568676E+03  0.28998201735E+03  0.75492142796E+03  0.85979740291E+03  0.00000000000E+00 0. -1.
          1    1    5    5  503    0 -0.12776537546E+03 -0.24834057101E+03  0.16069234337E+03  0.32220965161E+03  0.00000000000E+00 0. -1.
         -2    1    5    5    0  503 -0.21002191036E+01  0.53704380577E+01  0.96036561591E+01  0.11201907732E+02  0.00000000000E+00 0.  1.
         -3    1    6    6    0  502  0.10387381613E+03  0.15897928270E+03  0.42885559692E+03  0.46902164664E+03  0.00000000000E+00 0.  1.
<mgrwt>
<rscale>  0 0.15039352E+04</rscale>
<asrwt>0</asrwt>
<pdfrwt beam="1">  1        2 0.25749242E+00 0.15039352E+04</pdfrwt>
<pdfrwt beam="2">  1       -2 0.51976510E-01 0.15039352E+04</pdfrwt>
<totfact> 0.34237817E+01</totfact>
</mgrwt>
</event>
<event>
12    1  0.1532786E-007  0.1547402E+04  0.7818608E-02  0.8853529E-01
         -2   -1    0    0    0  501 -0.00000000000E+00  0.00000000000E+00  0.30885124058E+03  0.30885124058E+03  0.00000000000E+00 0.  1.
          2   -1    0    0  501    0  0.00000000000E+00 -0.00000000000E+00 -0.19381925264E+04  0.19381925264E+04  0.00000000000E+00 0. -1.
         23    2    1    2    0    0  0.11568439282E+03 -0.24777541522E+03  0.77232729507E+02  0.29709637922E+03  0.86751535465E+02 0.  0.
        254    2    1    2    0    0 -0.11568439282E+03  0.24777541522E+03 -0.17065740153E+04  0.19499473877E+04  0.90284240603E+03 0.  0.
        -24    2    4    4    0    0 -0.23190083775E+03  0.45937648480E+03 -0.51873121757E+03  0.73516423558E+03  0.81114880634E+02 0.  0.
         24    2    4    4    0    0  0.11621644493E+03 -0.21160106958E+03 -0.11878427977E+04  0.12147831522E+04  0.80288977660E+02 0.  0.
         11    1    3    3    0    0  0.65757765618E+02 -0.21676199496E+03  0.48398861440E+02  0.23162965265E+03  0.00000000000E+00 0.  1.
        -11    1    3    3    0    0  0.49926627197E+02 -0.31013420268E+02  0.28833868068E+02  0.65466726570E+02  0.00000000000E+00 0. -1.
          4    1    6    6  502    0  0.48443143445E+02 -0.46868597168E+02 -0.20123000413E+03  0.21221903333E+03  0.00000000000E+00 0. -1.
          1    1    5    5  503    0 -0.83835825630E+02  0.10153630477E+03 -0.10450713848E+03  0.16810654014E+03  0.00000000000E+00 0. -1.
         -2    1    5    5    0  503 -0.14806501212E+03  0.35784018004E+03 -0.41422407910E+03  0.56705769545E+03  0.00000000000E+00 0.  1.
         -3    1    6    6    0  502  0.67773301486E+02 -0.16473247241E+03 -0.98661279360E+03  0.10025641188E+04  0.00000000000E+00 0.  1.
<mgrwt>
<rscale>  0 0.15474019E+04</rscale>
<asrwt>0</asrwt>
<pdfrwt beam="1">  1        2 0.29818347E+00 0.15474019E+04</pdfrwt>
<pdfrwt beam="2">  1       -2 0.47515575E-01 0.15474019E+04</pdfrwt>
<totfact> 0.29227998E+01</totfact>
</mgrwt>
</event>
<event>
12    1  0.1532786E-007  0.2933976E+04  0.7818608E-02  0.8262840E-01
         -2   -1    0    0    0  501 -0.00000000000E+00  0.00000000000E+00  0.22502351052E+04  0.22502351052E+04  0.00000000000E+00 0. -1.
          2   -1    0    0  501    0  0.00000000000E+00 -0.00000000000E+00 -0.95636856782E+03  0.95636856782E+03  0.00000000000E+00 0.  1.
         23    2    1    2    0    0  0.13580707240E+03 -0.99662782712E+03 -0.36176392664E+03  0.10726399472E+04  0.89290150646E+02 0.  0.
        254    2    1    2    0    0 -0.13580707240E+03  0.99662782712E+03  0.16556304640E+04  0.21339637258E+04  0.89497394545E+03 0.  0.
        -24    2    4    4    0    0  0.78912040682E+02 -0.10859209668E+03  0.47655337027E+03  0.50163389900E+03  0.80709976414E+02 0.  0.
         24    2    4    4    0    0 -0.21471911309E+03  0.11052199238E+04  0.11790770937E+04  0.16323298268E+04  0.81624095817E+02 0.  0.
         13    1    3    3    0    0  0.48872294025E+02 -0.66768202524E+03 -0.24646006157E+03  0.71339354489E+03  0.00000000000E+00 0.  1.
        -13    1    3    3    0    0  0.86934778378E+02 -0.32894580188E+03 -0.11530386507E+03  0.35924640230E+03  0.00000000000E+00 0. -1.
          4    1    6    6  502    0 -0.21843580774E+03  0.10575613551E+04  0.11429243398E+04  0.15723950739E+04  0.00000000000E+00 0. -1.
          3    1    5    5  503    0  0.67793824525E+02 -0.11113397676E+03  0.33167864019E+03  0.35631093695E+03  0.00000000000E+00 0. -1.
         -4    1    5    5    0  503  0.11118216158E+02  0.25418800803E+01  0.14487473008E+03  0.14532296205E+03  0.00000000000E+00 0.  1.
         -3    1    6    6    0  502  0.37166946512E+01  0.47658568675E+02  0.36152753936E+02  0.59934752894E+02  0.00000000000E+00 0.  1.
<mgrwt>
<rscale>  0 0.29339762E+04</rscale>
<asrwt>0</asrwt>
<pdfrwt beam="1">  1        2 0.14713363E+00 0.29339762E+04</pdfrwt>
<pdfrwt beam="2">  1       -2 0.34619002E+00 0.29339762E+04</pdfrwt>
<totfact> 0.38044250E-01</totfact>
</mgrwt>
</event>
<event>
12    1  0.1532786E-007  0.1498264E+04  0.7818608E-02  0.8885608E-01
         -2   -1    0    0    0  501 -0.00000000000E+00  0.00000000000E+00  0.33313843164E+03  0.33313843164E+03  0.00000000000E+00 0.  1.
          2   -1    0    0  501    0  0.00000000000E+00 -0.00000000000E+00 -0.16845811399E+04  0.16845811399E+04  0.00000000000E+00 0. -1.
         23    2    1    2    0    0  0.24066975667E+02  0.82267685462E+02  0.19334213009E+03  0.23049295269E+03  0.91644042822E+02 0.  0.
        254    2    1    2    0    0 -0.24066975667E+02 -0.82267685462E+02 -0.15447848383E+04  0.17872266188E+04  0.89469078398E+03 0.  0.
        -24    2    4    4    0    0 -0.21370324695E+03  0.22221220108E+01 -0.15486065533E+04  0.15652973787E+04  0.79370089926E+02 0.  0.
         24    2    4    4    0    0  0.18963627128E+03 -0.84489807473E+02  0.38217149416E+01  0.22192924019E+03  0.78342448203E+02 0.  0.
         13    1    3    3    0    0  0.39480851696E+02  0.75552022636E+02  0.19575176192E+03  0.21350784077E+03  0.00000000000E+00 0.  1.
        -13    1    3    3    0    0 -0.15413876029E+02  0.67156628266E+01 -0.24096318330E+01  0.16985111922E+02  0.00000000000E+00 0. -1.
          4    1    6    6  502    0  0.11785537330E+02 -0.35283661471E+02 -0.25484640885E+01  0.37287133521E+02  0.00000000000E+00 0. -1.
          3    1    5    5  503    0 -0.25596379433E+01  0.13207648933E+02 -0.17475173927E+03  0.17526883383E+03  0.00000000000E+00 0. -1.
         -4    1    5    5    0  503 -0.21114360901E+03 -0.10985526922E+02 -0.13738548140E+04  0.13900285448E+04  0.00000000000E+00 0.  1.
         -3    1    6    6    0  502  0.17785073395E+03 -0.49206146002E+02  0.63701790302E+01  0.18464210666E+03  0.00000000000E+00 0.  1.
<mgrwt>
<rscale>  0 0.14982640E+04</rscale>
<asrwt>0</asrwt>
<pdfrwt beam="1">  1        2 0.25916633E+00 0.14982640E+04</pdfrwt>
<pdfrwt beam="2">  1       -2 0.51252067E-01 0.14982640E+04</pdfrwt>
<totfact> 0.34766537E+01</totfact>
</mgrwt>
</event>
<event>
12    1  0.1532786E-007  0.1367757E+04  0.7818608E-02  0.8977494E-01
         -1   -1    0    0    0  501 -0.00000000000E+00  0.00000000000E+00  0.14896336050E+04  0.14896336050E+04  0.00000000000E+00 0.  1.
          1   -1    0    0  501    0  0.00000000000E+00 -0.00000000000E+00 -0.31396314053E+03  0.31396314053E+03  0.00000000000E+00 0. -1.
         23    2    1    2    0    0 -0.57232525923E+02 -0.24754018097E+03 -0.35101934374E+02  0.27180857267E+03  0.89978059320E+02 0.  0.
        254    2    1    2    0    0  0.57232525923E+02  0.24754018097E+03  0.12107723988E+04  0.15317881728E+04  0.90324609131E+03 0.  0.
        -24    2    4    4    0    0 -0.25011550794E+03  0.79902064981E+02  0.57394835754E+01  0.27446052671E+03  0.79709044349E+02 0.  0.
         24    2    4    4    0    0  0.30734803386E+03  0.16763811599E+03  0.12050329152E+04  0.12573276461E+04  0.78759958261E+02 0.  0.
         11    1    3    3    0    0  0.97594684412E+01 -0.39972412464E+01  0.10786222009E+02  0.15085348755E+02  0.00000000000E+00 0.  1.
        -11    1    3    3    0    0 -0.66991994364E+02 -0.24354293973E+03 -0.45888156383E+02  0.25672322391E+03  0.00000000000E+00 0. -1.
          4    1    6    6  502    0  0.19658599548E+03  0.12674450797E+03  0.67739957180E+03  0.71664524264E+03  0.00000000000E+00 0. -1.
          3    1    5    5  503    0 -0.11709030412E+03 -0.21616891947E+01  0.13981152480E+02  0.11794187061E+03  0.00000000000E+00 0. -1.
         -2    1    5    5    0  503 -0.13302520382E+03  0.82063754176E+02 -0.82416689042E+01  0.15651865610E+03  0.00000000000E+00 0.  1.
         -3    1    6    6    0  502  0.11076203838E+03  0.40893608025E+02  0.52763334342E+03  0.54068240347E+03  0.00000000000E+00 0.  1.
<mgrwt>
<rscale>  0 0.13677574E+04</rscale>
<asrwt>0</asrwt>
<pdfrwt beam="1">  1        1 0.48302022E-01 0.13677574E+04</pdfrwt>
<pdfrwt beam="2">  1       -1 0.22917440E+00 0.13677574E+04</pdfrwt>
<totfact> 0.77226629E+00</totfact>
</mgrwt>
</event>
<event>
12    1  0.1532786E-007  0.1783092E+04  0.7818608E-02  0.8715343E-01
         -1   -1    0    0    0  501 -0.00000000000E+00  0.00000000000E+00  0.47864497925E+03  0.47864497925E+03  0.00000000000E+00 0.  1.
          1   -1    0    0  501    0  0.00000000000E+00 -0.00000000000E+00 -0.16606339222E+04  0.16606339222E+04  0.00000000000E+00 0. -1.
         23    2    1    2    0    0 -0.46965732961E+03 -0.12575376731E+03 -0.97376148567E+03  0.10921382868E+04  0.90347049547E+02 0.  0.
        254    2    1    2    0    0  0.46965732961E+03  0.12575376731E+03 -0.20822745726E+03  0.10471406146E+04  0.90374375545E+03 0.  0.
        -24    2    4    4    0    0  0.37315664670E+03  0.45417720697E+03  0.71769694656E+02  0.59745531229E+03  0.79241042361E+02 0.  0.
         24    2    4    4    0    0  0.96500682908E+02 -0.32842343967E+03 -0.27999715192E+03  0.44968530230E+03  0.81511523714E+02 0.  0.
         13    1    3    3    0    0 -0.14558906464E+03  0.24676414129E+01 -0.30735588179E+03  0.34010278309E+03  0.00000000000E+00 0.  1.
        -13    1    3    3    0    0 -0.32406826497E+03 -0.12822140872E+03 -0.66640560388E+03  0.75203550375E+03  0.00000000000E+00 0. -1.
          4    1    6    6  502    0  0.97996175543E+02 -0.31459483693E+03 -0.28422076495E+03  0.43514894585E+03  0.00000000000E+00 0. -1.
          1    1    5    5  503    0  0.24140077403E+03  0.23512848163E+03  0.53214630638E+02  0.34116203407E+03  0.00000000000E+00 0. -1.
         -2    1    5    5    0  503  0.13175587267E+03  0.21904872534E+03  0.18555064018E+02  0.25629327822E+03  0.00000000000E+00 0.  1.
         -3    1    6    6    0  502 -0.14954926357E+01 -0.13828602738E+02  0.42236130305E+01  0.14536356453E+02  0.00000000000E+00 0.  1.
<mgrwt>
<rscale>  0 0.17830918E+04</rscale>
<asrwt>0</asrwt>
<pdfrwt beam="1">  1        1 0.25548215E+00 0.17830918E+04</pdfrwt>
<pdfrwt beam="2">  1       -1 0.73637688E-01 0.17830918E+04</pdfrwt>
<totfact> 0.89008796E+00</totfact>
</mgrwt>
</event>
<event>
12    1  0.1532786E-007  0.3108138E+04  0.7818608E-02  0.8213508E-01
          2   -1    0    0  501    0  0.00000000000E+00  0.00000000000E+00  0.23007029182E+04  0.23007029182E+04  0.00000000000E+00 0. -1.
         -2   -1    0    0    0  501 -0.00000000000E+00 -0.00000000000E+00 -0.10497359822E+04  0.10497359822E+04  0.00000000000E+00 0.  1.
         23    2    1    2    0    0  0.50443462156E+03  0.52665991912E+03 -0.74462400348E+03  0.10464568759E+04  0.93713012957E+02 0.  0.
        254    2    1    2    0    0 -0.50443462156E+03 -0.52665991912E+03  0.19955909395E+04  0.23039820244E+04  0.89113692169E+03 0.  0.
        -24    2    4    4    0    0 -0.31292910353E+03  0.20638527342E+03  0.54849613083E+03  0.66880845433E+03  0.77053475799E+02 0.  0.
         24    2    4    4    0    0 -0.19150551803E+03 -0.73304519254E+03  0.14470948087E+04  0.16351735701E+04  0.75363129554E+02 0.  0.
         13    1    3    3    0    0  0.69988884358E+02  0.12470725267E+03 -0.13171306538E+03  0.19441881183E+03  0.00000000000E+00 0. -1.
        -13    1    3    3    0    0  0.43444573721E+03  0.40195266645E+03 -0.61291093810E+03  0.85203806411E+03  0.00000000000E+00 0.  1.
          2    1    6    6  502    0 -0.14212255572E+03 -0.46471401734E+03  0.99005209886E+03  0.11028876177E+04  0.00000000000E+00 0. -1.
          1    1    5    5  503    0 -0.12772005929E+03  0.12076166489E+03  0.21329647082E+03  0.27638953981E+03  0.00000000000E+00 0. -1.
         -2    1    5    5    0  503 -0.18520904424E+03  0.85623608528E+02  0.33519966001E+03  0.39241891452E+03  0.00000000000E+00 0.  1.
         -1    1    6    6    0  502 -0.49382962311E+02 -0.26833117520E+03  0.45704270982E+03  0.53228595242E+03  0.00000000000E+00 0.  1.
<mgrwt>
<rscale>  0 0.31081381E+04</rscale>
<asrwt>0</asrwt>
<pdfrwt beam="1">  1        2 0.35395429E+00 0.31081381E+04</pdfrwt>
<pdfrwt beam="2">  1       -2 0.16149784E+00 0.31081381E+04</pdfrwt>
<totfact> 0.94364247E-01</totfact>
</mgrwt>
</event>
<event>
12    1  0.1532786E-007  0.2045160E+04  0.7818608E-02  0.8585793E-01
          2   -1    0    0  501    0  0.00000000000E+00  0.00000000000E+00  0.12860157656E+04  0.12860157656E+04  0.00000000000E+00 0. -1.
         -2   -1    0    0    0  501 -0.00000000000E+00 -0.00000000000E+00 -0.81310806555E+03  0.81310806555E+03  0.00000000000E+00 0.  1.
         23    2    1    2    0    0  0.46445070485E+03 -0.11102413586E+03  0.87653965301E+03  0.10031451415E+04  0.99687490117E+02 0.  0.
        254    2    1    2    0    0 -0.46445070485E+03  0.11102413586E+03 -0.40363195293E+03  0.10959786897E+04  0.90011650290E+03 0.  0.
        -24    2    4    4    0    0  0.25244938779E+03  0.11532794693E+03 -0.50196110126E+02  0.29261684585E+03  0.77934204736E+02 0.  0.
         24    2    4    4    0    0 -0.71690009263E+03 -0.43038110633E+01 -0.35343584280E+03  0.80336184381E+03  0.80678940930E+02 0.  0.
         13    1    3    3    0    0  0.32557486543E+03 -0.12024785066E+03  0.66089207035E+03  0.74648299863E+03  0.00000000000E+00 0. -1.
        -13    1    3    3    0    0  0.13887583942E+03  0.92237147999E+01  0.21564758266E+03  0.25666214289E+03  0.00000000000E+00 0.  1.
          4    1    6    6  502    0 -0.28415591617E+02 -0.16354473309E+02 -0.18295478505E+02  0.37545161844E+02  0.00000000000E+00 0. -1.
          1    1    5    5  503    0  0.14835402749E+03  0.27815391452E+02 -0.12287636127E+02  0.15143843461E+03  0.00000000000E+00 0. -1.
         -2    1    5    5    0  503  0.10409536030E+03  0.87512555474E+02 -0.37908473998E+02  0.14117841125E+03  0.00000000000E+00 0.  1.
         -3    1    6    6    0  502 -0.68848450102E+03  0.12050662246E+02 -0.33514036430E+03  0.76581668197E+03  0.00000000000E+00 0.  1.
<mgrwt>
<rscale>  0 0.20451599E+04</rscale>
<asrwt>0</asrwt>
<pdfrwt beam="1">  1        2 0.19784858E+00 0.20451599E+04</pdfrwt>
<pdfrwt beam="2">  1       -2 0.12509355E+00 0.20451599E+04</pdfrwt>
<totfact> 0.74640457E+00</totfact>
</mgrwt>
</event>
<event>
12    1  0.1532786E-007  0.1575751E+04  0.7818608E-02  0.8835585E-01
         -1   -1    0    0    0  501 -0.00000000000E+00  0.00000000000E+00  0.79658857959E+03  0.79658857959E+03  0.00000000000E+00 0.  1.
          1   -1    0    0  501    0  0.00000000000E+00 -0.00000000000E+00 -0.77925812025E+03  0.77925812025E+03  0.00000000000E+00 0. -1.
         23    2    1    2    0    0 -0.21490632600E+03 -0.11659868986E+03  0.46963915437E+03  0.53742985976E+03  0.92140845497E+02 0.  0.
        254    2    1    2    0    0  0.21490632600E+03  0.11659868986E+03 -0.45230869503E+03  0.10384168401E+04  0.90218977755E+03 0.  0.
        -24    2    4    4    0    0  0.72184228640E+02 -0.10994533000E+02  0.26787541181E+03  0.28924821295E+03  0.81091613755E+02 0.  0.
         24    2    4    4    0    0  0.14272209736E+03  0.12759322286E+03 -0.72018410684E+03  0.74916862713E+03  0.77063976839E+02 0.  0.
         11    1    3    3    0    0 -0.18418539545E+03 -0.65962594288E+02  0.40488874650E+03  0.44967790782E+03  0.00000000000E+00 0.  1.
        -11    1    3    3    0    0 -0.30720930555E+02 -0.50636095575E+02  0.64750407872E+02  0.87751951938E+02  0.00000000000E+00 0. -1.
          4    1    6    6  502    0  0.94354462131E+02  0.34271334780E+02 -0.38628429344E+03  0.39911507647E+03  0.00000000000E+00 0. -1.
          1    1    5    5  503    0 -0.67624499926E+01 -0.18027815911E+01 -0.25008147218E+01  0.74320135657E+01  0.00000000000E+00 0. -1.
         -2    1    5    5    0  503  0.78946678632E+02 -0.91917514087E+01  0.27037622653E+03  0.28181619938E+03  0.00000000000E+00 0.  1.
         -3    1    6    6    0  502  0.48367635232E+02  0.93321888083E+02 -0.33389981341E+03  0.35005355066E+03  0.00000000000E+00 0.  1.
<mgrwt>
<rscale>  0 0.15757514E+04</rscale>
<asrwt>0</asrwt>
<pdfrwt beam="1">  1        1 0.11988586E+00 0.15757514E+04</pdfrwt>
<pdfrwt beam="2">  1       -1 0.12255209E+00 0.15757514E+04</pdfrwt>
<totfact> 0.13034428E+01</totfact>
</mgrwt>
</event>
<event>
12    1  0.1532786E-007  0.1298986E+04  0.7818608E-02  0.9030370E-01
         -2   -1    0    0    0  501 -0.00000000000E+00  0.00000000000E+00  0.28559174038E+03  0.28559174038E+03  0.00000000000E+00 0.  1.
          2   -1    0    0  501    0  0.00000000000E+00 -0.00000000000E+00 -0.14770776092E+04  0.14770776092E+04  0.00000000000E+00 0. -1.
         23    2    1    2    0    0 -0.24176012518E+03 -0.22742847492E+03 -0.25354341151E+03  0.42736844927E+03  0.90486797805E+02 0.  0.
        254    2    1    2    0    0  0.24176012518E+03  0.22742847492E+03 -0.93794245735E+03  0.13353009003E+04  0.89057328269E+03 0.  0.
        -24    2    4    4    0    0  0.23627823309E+03 -0.30498264705E+03 -0.52229275222E+03  0.65455938225E+03  0.82561779503E+02 0.  0.
         24    2    4    4    0    0  0.54818920909E+01  0.53241112197E+03 -0.41564970513E+03  0.68074151810E+03  0.84573536949E+02 0.  0.
         11    1    3    3    0    0 -0.21736095618E+03 -0.20915446889E+03 -0.25752743697E+03  0.39662546302E+03  0.00000000000E+00 0.  1.
        -11    1    3    3    0    0 -0.24399168999E+02 -0.18274006037E+02  0.39840254563E+01  0.30742986246E+02  0.00000000000E+00 0. -1.
          2    1    6    6  502    0 -0.10554238775E+01 -0.18722220185E+01  0.17020726308E+01  0.27415663567E+01  0.00000000000E+00 0. -1.
          3    1    5    5  503    0  0.29195011232E+01 -0.44913630472E+02 -0.54792453707E+02  0.70908184804E+02  0.00000000000E+00 0. -1.
         -4    1    5    5    0  503  0.23335873196E+03 -0.26006901658E+03 -0.46750029851E+03  0.58365119744E+03  0.00000000000E+00 0.  1.
         -1    1    6    6    0  502  0.65373159684E+01  0.53428334399E+03 -0.41735177776E+03  0.67799995175E+03  0.00000000000E+00 0.  1.
<mgrwt>
<rscale>  0 0.12989860E+04</rscale>
<asrwt>0</asrwt>
<pdfrwt beam="1">  1        2 0.22724271E+00 0.12989860E+04</pdfrwt>
<pdfrwt beam="2">  1       -2 0.43937191E-01 0.12989860E+04</pdfrwt>
<totfact> 0.62953852E+01</totfact>
</mgrwt>
</event>
<event>
12    1  0.1532786E-007  0.3148468E+04  0.7818608E-02  0.8202561E-01
          2   -1    0    0  501    0  0.00000000000E+00  0.00000000000E+00  0.25678905966E+04  0.25678905966E+04  0.00000000000E+00 0. -1.
         -2   -1    0    0    0  501 -0.00000000000E+00 -0.00000000000E+00 -0.96507691546E+03  0.96507691546E+03  0.00000000000E+00 0.  1.
         23    2    1    2    0    0 -0.92439790934E+03 -0.92325516015E+03  0.46006087034E+02  0.13104646956E+04  0.91047090754E+02 0.  0.
        254    2    1    2    0    0  0.92439790934E+03  0.92325516015E+03  0.15568075941E+04  0.22225028165E+04  0.89942053498E+03 0.  0.
        -24    2    4    4    0    0  0.54665979177E+03  0.40854725498E+03  0.19171962079E+03  0.71337402089E+03  0.79989331792E+02 0.  0.
         24    2    4    4    0    0  0.37773811757E+03  0.51470790517E+03  0.13650879733E+04  0.15091287956E+04  0.79963952730E+02 0.  0.
         13    1    3    3    0    0 -0.13963648641E+03 -0.18873847541E+03  0.83414341765E+01  0.23492581799E+03  0.00000000000E+00 0. -1.
        -13    1    3    3    0    0 -0.78476142293E+03 -0.73451668474E+03  0.37664652857E+02  0.10755388776E+04  0.00000000000E+00 0.  1.
          4    1    6    6  502    0  0.73352867648E+02  0.55196549709E+02  0.21533555630E+03  0.23408695841E+03  0.00000000000E+00 0. -1.
          1    1    5    5  503    0  0.15677568608E+03  0.12639298880E+03  0.19932564791E+02  0.20236380729E+03  0.00000000000E+00 0. -1.
         -2    1    5    5    0  503  0.38988410569E+03  0.28215426618E+03  0.17178705600E+03  0.51101021360E+03  0.00000000000E+00 0.  1.
         -3    1    6    6    0  502  0.30438524992E+03  0.45951135546E+03  0.11497524170E+04  0.12750418372E+04  0.00000000000E+00 0.  1.
<mgrwt>
<rscale>  0 0.31484675E+04</rscale>
<asrwt>0</asrwt>
<pdfrwt beam="1">  1        2 0.39506009E+00 0.31484675E+04</pdfrwt>
<pdfrwt beam="2">  1       -2 0.14847337E+00 0.31484675E+04</pdfrwt>
<totfact> 0.82713938E-01</totfact>
</mgrwt>
</event>
<event>
12    1  0.1532786E-007  0.1526005E+04  0.7818608E-02  0.8867342E-01
         -2   -1    0    0    0  501 -0.00000000000E+00  0.00000000000E+00  0.36778912807E+03  0.36778912807E+03  0.00000000000E+00 0.  1.
          2   -1    0    0  501    0  0.00000000000E+00 -0.00000000000E+00 -0.15828976620E+04  0.15828976620E+04  0.00000000000E+00 0. -1.
         23    2    1    2    0    0  0.92896151691E+02 -0.32129145977E+03  0.56126747628E+02  0.34976149978E+03  0.85586201057E+02 0.  0.
        254    2    1    2    0    0 -0.92896151691E+02  0.32129145977E+03 -0.12712352816E+04  0.16009252903E+04  0.91381877139E+03 0.  0.
        -24    2    4    4    0    0 -0.11327398544E+03  0.51705447653E+03 -0.12826589532E+04  0.13898296190E+04  0.78968677921E+02 0.  0.
         24    2    4    4    0    0  0.20377833748E+02 -0.19576301676E+03  0.11423671664E+02  0.21109567130E+03  0.75448441519E+02 0.  0.
         13    1    3    3    0    0  0.11408896874E+02 -0.12442221658E+03 -0.13343915197E+02  0.12565472923E+03  0.00000000000E+00 0. -1.
        -13    1    3    3    0    0  0.81487254818E+02 -0.19686924319E+03  0.69470662826E+02  0.22410677055E+03  0.00000000000E+00 0.  1.
          2    1    6    6  502    0  0.21620537594E+02 -0.19611472613E+03  0.23727268699E+02  0.19872447442E+03  0.00000000000E+00 0. -1.
          1    1    5    5  503    0 -0.24494348479E+02  0.21200939123E+03 -0.60104291731E+03  0.63780917485E+03  0.00000000000E+00 0. -1.
         -2    1    5    5    0  503 -0.88779636960E+02  0.30504508530E+03 -0.68161603594E+03  0.75202044417E+03  0.00000000000E+00 0.  1.
         -1    1    6    6    0  502 -0.12427038460E+01  0.35170937255E+00 -0.12303597035E+02  0.12371196883E+02  0.00000000000E+00 0.  1.
<mgrwt>
<rscale>  0 0.15260047E+04</rscale>
<asrwt>0</asrwt>
<pdfrwt beam="1">  1        2 0.24352272E+00 0.15260047E+04</pdfrwt>
<pdfrwt beam="2">  1       -2 0.56582943E-01 0.15260047E+04</pdfrwt>
<totfact> 0.32208710E+01</totfact>
</mgrwt>
</event>
<event>
12    1  0.1567327E-007  0.1309057E+04  0.7818608E-02  0.9022413E-01
         -1   -1    0    0    0  501 -0.00000000000E+00  0.00000000000E+00  0.20615441702E+03  0.20615441702E+03  0.00000000000E+00 0.  1.
          1   -1    0    0  501    0  0.00000000000E+00 -0.00000000000E+00 -0.20780912506E+04  0.20780912506E+04  0.00000000000E+00 0. -1.
         23    2    1    2    0    0  0.20473498900E+03 -0.77441538304E+01 -0.31572168915E+02  0.22695928199E+03  0.92397652532E+02 0.  0.
        254    2    1    2    0    0 -0.20473498900E+03  0.77441538304E+01 -0.18403646647E+04  0.20572863857E+04  0.89638651591E+03 0.  0.
        -24    2    4    4    0    0 -0.35164409035E+02  0.41212696364E+03 -0.12335893267E+04  0.13034389533E+04  0.78264348407E+02 0.  0.
         24    2    4    4    0    0 -0.16957057996E+03 -0.40438280981E+03 -0.60677533799E+03  0.75384743234E+03  0.88487298481E+02 0.  0.
         11    1    3    3    0    0 -0.79872302400E+01 -0.38829055930E+01 -0.95881307820E+01  0.13069240783E+02  0.00000000000E+00 0. -1.
        -11    1    3    3    0    0  0.21272221924E+03 -0.38612482374E+01 -0.21984038133E+02  0.21389004121E+03  0.00000000000E+00 0.  1.
          2    1    6    6  502    0 -0.16490317175E+03 -0.31700619010E+03 -0.45360573179E+03  0.57744622306E+03  0.00000000000E+00 0. -1.
          1    1    5    5  503    0 -0.11781958203E+02  0.30692408276E+03 -0.10016432822E+04  0.10476786110E+04  0.00000000000E+00 0. -1.
         -2    1    5    5    0  503 -0.23382450832E+02  0.10520288088E+03 -0.23194604454E+03  0.25576034237E+03  0.00000000000E+00 0.  1.
         -1    1    6    6    0  502 -0.46674082154E+01 -0.87376619706E+02 -0.15316960620E+03  0.17640120928E+03  0.00000000000E+00 0.  1.
<mgrwt>
<rscale>  0 0.13090572E+04</rscale>
<asrwt>0</asrwt>
<pdfrwt beam="1">  1        1 0.31970637E+00 0.13090572E+04</pdfrwt>
<pdfrwt beam="2">  1       -1 0.31716062E-01 0.13090572E+04</pdfrwt>
<totfact> 0.23992441E+01</totfact>
</mgrwt>
</event>
<event>
12    1  0.1532786E-007  0.1425467E+04  0.7818608E-02  0.8935588E-01
         -2   -1    0    0    0  501 -0.00000000000E+00  0.00000000000E+00  0.45049954104E+03  0.45049954104E+03  0.00000000000E+00 0.  1.
          2   -1    0    0  501    0  0.00000000000E+00 -0.00000000000E+00 -0.11276122303E+04  0.11276122303E+04  0.00000000000E+00 0. -1.
         23    2    1    2    0    0  0.40481505832E+03 -0.42898485751E+02 -0.90595416215E+02  0.42687748730E+03  0.91111734719E+02 0.  0.
        254    2    1    2    0    0 -0.40481505832E+03  0.42898485751E+02 -0.58651727308E+03  0.11512342841E+04  0.90311812831E+03 0.  0.
        -24    2    4    4    0    0  0.98048962223E+02 -0.32707355899E+03 -0.13986703855E+03  0.37935395241E+03  0.88067705522E+02 0.  0.
         24    2    4    4    0    0 -0.50286402054E+03  0.36997204474E+03 -0.44665023453E+03  0.77188033166E+03  0.80939961428E+02 0.  0.
         13    1    3    3    0    0  0.37071007191E+03 -0.24021381280E+02 -0.57843297170E+02  0.37596386954E+03  0.00000000000E+00 0.  1.
        -13    1    3    3    0    0  0.34104986405E+02 -0.18877104471E+02 -0.32752119045E+02  0.50913617754E+02  0.00000000000E+00 0. -1.
          4    1    6    6  502    0 -0.79751724886E+02  0.25874606927E+02 -0.51403879912E+02  0.98347301823E+02  0.00000000000E+00 0. -1.
          3    1    5    5  503    0  0.63747229371E+02 -0.11482841377E+03 -0.88292023527E+02  0.15825534834E+03  0.00000000000E+00 0. -1.
         -4    1    5    5    0  503  0.34301732852E+02 -0.21224514522E+03 -0.51575015025E+02  0.22109860407E+03  0.00000000000E+00 0.  1.
         -3    1    6    6    0  502 -0.42311229565E+03  0.34409743781E+03 -0.39524635462E+03  0.67353302984E+03  0.00000000000E+00 0.  1.
<mgrwt>
<rscale>  0 0.14254666E+04</rscale>
<asrwt>0</asrwt>
<pdfrwt beam="1">  1        2 0.17347880E+00 0.14254666E+04</pdfrwt>
<pdfrwt beam="2">  1       -2 0.69307622E-01 0.14254666E+04</pdfrwt>
<totfact> 0.38672077E+01</totfact>
</mgrwt>
</event>
<event>
12    1  0.1532786E-007  0.3997658E+04  0.7818608E-02  0.8005019E-01
         -1   -1    0    0    0  501 -0.00000000000E+00  0.00000000000E+00  0.11639746060E+04  0.11639746060E+04  0.00000000000E+00 0.  1.
          1   -1    0    0  501    0  0.00000000000E+00 -0.00000000000E+00 -0.34324780397E+04  0.34324780397E+04  0.00000000000E+00 0. -1.
         23    2    1    2    0    0  0.56604703371E+03 -0.13977209085E+04 -0.23980692840E+04  0.28342546221E+04  0.90719292617E+02 0.  0.
        254    2    1    2    0    0 -0.56604703371E+03  0.13977209085E+04  0.12956585028E+03  0.17621980235E+04  0.90250849425E+03 0.  0.
        -24    2    4    4    0    0 -0.43038702244E+03  0.77970724841E+03 -0.35442563200E+03  0.96180119643E+03  0.79168368200E+02 0.  0.
         24    2    4    4    0    0 -0.13566001128E+03  0.61801366007E+03  0.48399148228E+03  0.80039682710E+03  0.77735469565E+02 0.  0.
         11    1    3    3    0    0  0.34234661177E+03 -0.75347946818E+03 -0.12598609311E+04  0.15073758911E+04  0.00000000000E+00 0. -1.
        -11    1    3    3    0    0  0.22370042195E+03 -0.64424144030E+03 -0.11382083529E+04  0.13268787310E+04  0.00000000000E+00 0.  1.
          4    1    6    6  502    0 -0.44500018119E+02  0.37987833824E+03  0.28714216039E+03  0.47826605958E+03  0.00000000000E+00 0. -1.
          3    1    5    5  503    0 -0.25871523184E+03  0.41998206224E+03 -0.16199988070E+03  0.51919405345E+03  0.00000000000E+00 0. -1.
         -4    1    5    5    0  503 -0.17167179060E+03  0.35972518617E+03 -0.19242575130E+03  0.44260714297E+03  0.00000000000E+00 0.  1.
         -3    1    6    6    0  502 -0.91159993158E+02  0.23813532183E+03  0.19684932189E+03  0.32213076752E+03  0.00000000000E+00 0.  1.
<mgrwt>
<rscale>  0 0.39976580E+04</rscale>
<asrwt>0</asrwt>
<pdfrwt beam="1">  1        1 0.52807354E+00 0.39976580E+04</pdfrwt>
<pdfrwt beam="2">  1       -1 0.17907302E+00 0.39976580E+04</pdfrwt>
<totfact> 0.46635217E-02</totfact>
</mgrwt>
</event>
<event>
12    1  0.1532786E-007  0.1725031E+04  0.7818608E-02  0.8747216E-01
          1   -1    0    0  501    0  0.00000000000E+00  0.00000000000E+00  0.12626467202E+04  0.12626467202E+04  0.00000000000E+00 0. -1.
         -1   -1    0    0    0  501 -0.00000000000E+00 -0.00000000000E+00 -0.58918520507E+03  0.58918520507E+03  0.00000000000E+00 0.  1.
         23    2    1    2    0    0  0.29188608007E+03 -0.17448271124E+03 -0.31478455494E+03  0.47244713943E+03  0.92061301656E+02 0.  0.
        254    2    1    2    0    0 -0.29188608007E+03  0.17448271124E+03  0.98824607002E+03  0.13793847858E+04  0.90023907497E+03 0.  0.
        -24    2    4    4    0    0 -0.43473446174E+03  0.41980604295E+03  0.86812436926E+03  0.10608070356E+04  0.80252603710E+02 0.  0.
         24    2    4    4    0    0  0.14284838167E+03 -0.24532333171E+03  0.12012170076E+03  0.31857775017E+03  0.80457210271E+02 0.  0.
         11    1    3    3    0    0  0.19013686184E+03 -0.16055495665E+03 -0.23654151800E+03  0.34333920556E+03  0.00000000000E+00 0.  1.
        -11    1    3    3    0    0  0.10174921824E+03 -0.13927754598E+02 -0.78243036934E+02  0.12910793387E+03  0.00000000000E+00 0. -1.
          4    1    6    6  502    0  0.10830610988E+03 -0.14344082656E+03  0.10952433045E+03  0.21047817730E+03  0.00000000000E+00 0. -1.
          1    1    5    5  503    0 -0.33361550640E+03  0.30564306921E+03  0.70312235010E+03  0.83612082326E+03  0.00000000000E+00 0. -1.
         -2    1    5    5    0  503 -0.10111895534E+03  0.11416297374E+03  0.16500201916E+03  0.22468621237E+03  0.00000000000E+00 0.  1.
         -3    1    6    6    0  502  0.34542271787E+02 -0.10188250515E+03  0.10597370306E+02  0.10809957286E+03  0.00000000000E+00 0.  1.
<mgrwt>
<rscale>  0 0.17250307E+04</rscale>
<asrwt>0</asrwt>
<pdfrwt beam="1">  1        1 0.19425334E+00 0.17250307E+04</pdfrwt>
<pdfrwt beam="2">  1       -1 0.90643878E-01 0.17250307E+04</pdfrwt>
<totfact> 0.10865534E+01</totfact>
</mgrwt>
</event>
<event>
12    1  0.1532786E-007  0.2184691E+04  0.7818608E-02  0.8524827E-01
          2   -1    0    0  501    0  0.00000000000E+00  0.00000000000E+00  0.23866037963E+04  0.23866037963E+04  0.00000000000E+00 0. -1.
         -2   -1    0    0    0  501 -0.00000000000E+00 -0.00000000000E+00 -0.49996533724E+03  0.49996533724E+03  0.00000000000E+00 0.  1.
         23    2    1    2    0    0  0.13998848966E+03  0.88302406824E+03  0.96277350056E+03  0.13171454198E+04  0.92795264924E+02 0.  0.
        254    2    1    2    0    0 -0.13998848966E+03 -0.88302406824E+03  0.92386495846E+03  0.15694237137E+04  0.90013112895E+03 0.  0.
        -24    2    4    4    0    0 -0.38334032058E+03 -0.92924970782E+03  0.73932040410E+03  0.12504231561E+04  0.80675824079E+02 0.  0.
         24    2    4    4    0    0  0.24335183092E+03  0.46225639573E+02  0.18454455435E+03  0.31900055756E+03  0.79672704356E+02 0.  0.
         11    1    3    3    0    0  0.19466503057E+02  0.28647508227E+02  0.52716779173E+02  0.63076804574E+02  0.00000000000E+00 0.  1.
        -11    1    3    3    0    0  0.12052198661E+03  0.85437656002E+03  0.91005672139E+03  0.12540686152E+04  0.00000000000E+00 0. -1.
          2    1    6    6  502    0  0.23471809057E+03  0.35481640319E+02  0.19011902130E+03  0.30413281819E+03  0.00000000000E+00 0. -1.
          3    1    5    5  503    0 -0.35311246835E+03 -0.81741038115E+03  0.62670573131E+03  0.10888563818E+04  0.00000000000E+00 0. -1.
         -4    1    5    5    0  503 -0.30227852238E+02 -0.11183932666E+03  0.11261467280E+03  0.16156677433E+03  0.00000000000E+00 0.  1.
         -1    1    6    6    0  502  0.86337403511E+01  0.10743999254E+02 -0.55744669459E+01  0.14867739376E+02  0.00000000000E+00 0.  1.
<mgrwt>
<rscale>  0 0.21846914E+04</rscale>
<asrwt>0</asrwt>
<pdfrwt beam="1">  1        2 0.36716981E+00 0.21846914E+04</pdfrwt>
<pdfrwt beam="2">  1       -2 0.76917746E-01 0.21846914E+04</pdfrwt>
<totfact> 0.55901965E+00</totfact>
</mgrwt>
</event>
<event>
12    1  0.1532786E-007  0.1745755E+04  0.7818608E-02  0.8735690E-01
          1   -1    0    0  501    0  0.00000000000E+00  0.00000000000E+00  0.70907662080E+03  0.70907662080E+03  0.00000000000E+00 0. -1.
         -1   -1    0    0    0  501 -0.00000000000E+00 -0.00000000000E+00 -0.10745178732E+04  0.10745178732E+04  0.00000000000E+00 0.  1.
         23    2    1    2    0    0 -0.48724737711E+02  0.62815044263E+03 -0.10764268623E+03  0.64516594926E+03  0.87778559702E+02 0.  0.
        254    2    1    2    0    0  0.48724737711E+02 -0.62815044263E+03 -0.25779856618E+03  0.11384285447E+04  0.91247595700E+03 0.  0.
        -24    2    4    4    0    0 -0.24758015434E+03 -0.39201860233E+03  0.22337354060E+03  0.52084966682E+03  0.80088197525E+02 0.  0.
         24    2    4    4    0    0  0.29630489206E+03 -0.23613184030E+03 -0.48117210678E+03  0.61757887792E+03  0.79512508783E+02 0.  0.
         11    1    3    3    0    0 -0.17707430180E+02  0.28893533782E+03 -0.54210747652E+01  0.28952818615E+03  0.00000000000E+00 0. -1.
        -11    1    3    3    0    0 -0.31017307532E+02  0.33921510482E+03 -0.10222161146E+03  0.35563776311E+03  0.00000000000E+00 0.  1.
          2    1    6    6  502    0  0.22978380173E+03 -0.21612410866E+03 -0.36706419591E+03  0.48399003068E+03  0.00000000000E+00 0. -1.
          1    1    5    5  503    0 -0.20014157992E+03 -0.36267591360E+03  0.20449316190E+03  0.46196095461E+03  0.00000000000E+00 0. -1.
         -2    1    5    5    0  503 -0.47438574426E+02 -0.29342688729E+02  0.18880378695E+02  0.58888712205E+02  0.00000000000E+00 0.  1.
         -1    1    6    6    0  502  0.66521090321E+02 -0.20007731640E+02 -0.11410791087E+03  0.13358884724E+03  0.00000000000E+00 0.  1.
<mgrwt>
<rscale>  0 0.17457554E+04</rscale>
<asrwt>0</asrwt>
<pdfrwt beam="1">  1        1 0.10908871E+00 0.17457554E+04</pdfrwt>
<pdfrwt beam="2">  1       -1 0.16531044E+00 0.17457554E+04</pdfrwt>
<totfact> 0.67500036E+00</totfact>
</mgrwt>
</event>
<event>
12    1  0.1532786E-007  0.1681985E+04  0.7818608E-02  0.8771706E-01
          1   -1    0    0  501    0  0.00000000000E+00  0.00000000000E+00  0.55544516774E+03  0.55544516774E+03  0.00000000000E+00 0. -1.
         -1   -1    0    0    0  501 -0.00000000000E+00 -0.00000000000E+00 -0.12733365330E+04  0.12733365330E+04  0.00000000000E+00 0.  1.
         23    2    1    2    0    0 -0.31047690347E+03 -0.37539046460E+03 -0.64059878233E+03  0.81178382150E+03  0.10635912949E+03 0.  0.
        254    2    1    2    0    0  0.31047690347E+03  0.37539046460E+03 -0.77292582937E+02  0.10169978792E+04  0.88937991573E+03 0.  0.
        -24    2    4    4    0    0  0.13748488789E+03  0.57934824170E+02  0.38794352239E+03  0.42326672028E+03  0.79975006622E+02 0.  0.
         24    2    4    4    0    0  0.17299201558E+03  0.31745564043E+03 -0.46523610532E+03  0.59373115897E+03  0.73264823298E+02 0.  0.
         13    1    3    3    0    0 -0.17537492606E+03 -0.23198719047E+03 -0.29677580902E+03  0.41551209616E+03  0.00000000000E+00 0.  1.
        -13    1    3    3    0    0 -0.13510197741E+03 -0.14340327413E+03 -0.34382297331E+03  0.39627172534E+03  0.00000000000E+00 0. -1.
          2    1    6    6  502    0  0.10578086435E+03  0.19606916068E+03 -0.34194628731E+03  0.40811759389E+03  0.00000000000E+00 0. -1.
          1    1    5    5  503    0  0.56703137073E+02 -0.11715837405E+02  0.18714178302E+03  0.19589424073E+03  0.00000000000E+00 0. -1.
         -2    1    5    5    0  503  0.80781750822E+02  0.69650661574E+02  0.20080173937E+03  0.22737247955E+03  0.00000000000E+00 0.  1.
         -1    1    6    6    0  502  0.67211151229E+02  0.12138647975E+03 -0.12328981801E+03  0.18561356508E+03  0.00000000000E+00 0.  1.
<mgrwt>
<rscale>  0 0.16819853E+04</rscale>
<asrwt>0</asrwt>
<pdfrwt beam="1">  1        1 0.85453102E-01 0.16819853E+04</pdfrwt>
<pdfrwt beam="2">  1       -1 0.19589793E+00 0.16819853E+04</pdfrwt>
<totfact> 0.58571113E+00</totfact>
</mgrwt>
</event>
<event>
12    1  0.1532786E-007  0.1528432E+04  0.7818608E-02  0.8865763E-01
          1   -1    0    0  501    0  0.00000000000E+00  0.00000000000E+00  0.31386828399E+04  0.31386828399E+04  0.00000000000E+00 0. -1.
         -1   -1    0    0    0  501 -0.00000000000E+00 -0.00000000000E+00 -0.18607372495E+03  0.18607372495E+03  0.00000000000E+00 0.  1.
         23    2    1    2    0    0  0.16372309666E+03 -0.30954898843E+03  0.21074719304E+03  0.41907836879E+03  0.92663213818E+02 0.  0.
        254    2    1    2    0    0 -0.16372309666E+03  0.30954898843E+03  0.27418619219E+04  0.29056781961E+04  0.89584214658E+03 0.  0.
        -24    2    4    4    0    0 -0.32959607410E+03  0.41627248807E+03  0.25862037138E+04  0.26413491637E+04  0.79745839097E+02 0.  0.
         24    2    4    4    0    0  0.16587297744E+03 -0.10672349964E+03  0.15565820812E+03  0.26432903238E+03  0.82076851678E+02 0.  0.
         11    1    3    3    0    0  0.22915806672E+02 -0.11287366255E+03  0.10209413791E+03  0.15391169835E+03  0.00000000000E+00 0. -1.
        -11    1    3    3    0    0  0.14080728999E+03 -0.19667532588E+03  0.10865305513E+03  0.26516667044E+03  0.00000000000E+00 0.  1.
          4    1    6    6  502    0  0.89976072055E+02 -0.10411427282E+03  0.96651615716E+02  0.16815769434E+03  0.00000000000E+00 0. -1.
          1    1    5    5  503    0 -0.16347708870E+03  0.26968978399E+03  0.15188828334E+04  0.15512776669E+04  0.00000000000E+00 0. -1.
         -2    1    5    5    0  503 -0.16611898540E+03  0.14658270408E+03  0.10673208804E+04  0.10900714968E+04  0.00000000000E+00 0.  1.
         -3    1    6    6    0  502  0.75896905384E+02 -0.26092268231E+01  0.59006592405E+02  0.96171338031E+02  0.00000000000E+00 0.  1.
<mgrwt>
<rscale>  0 0.15284324E+04</rscale>
<asrwt>0</asrwt>
<pdfrwt beam="1">  1        1 0.48287424E+00 0.15284324E+04</pdfrwt>
<pdfrwt beam="2">  1       -1 0.28626729E-01 0.15284324E+04</pdfrwt>
<totfact> 0.50860560E+00</totfact>
</mgrwt>
</event>
<event>
12    1  0.1532786E-007  0.2746931E+04  0.7818608E-02  0.8319936E-01
         -2   -1    0    0    0  501 -0.00000000000E+00  0.00000000000E+00  0.88703642765E+03  0.88703642765E+03  0.00000000000E+00 0.  1.
          2   -1    0    0  501    0  0.00000000000E+00 -0.00000000000E+00 -0.21266398872E+04  0.21266398872E+04  0.00000000000E+00 0. -1.
         23    2    1    2    0    0  0.50272366256E+03  0.34292902593E+03  0.61469967618E+03  0.86754345110E+03  0.66667457808E+02 0.  0.
        254    2    1    2    0    0 -0.50272366256E+03 -0.34292902593E+03 -0.18543031357E+04  0.21461328637E+04  0.89281283141E+03 0.  0.
        -24    2    4    4    0    0 -0.38252244577E+03  0.24993541889E+03 -0.92499029798E+03  0.10344805966E+04  0.75841402017E+02 0.  0.
         24    2    4    4    0    0 -0.12020121679E+03 -0.59286444482E+03 -0.92931283774E+03  0.11116522671E+04  0.78815164601E+02 0.  0.
         11    1    3    3    0    0  0.33347915375E+02  0.93071655880E+01  0.21259518076E+02  0.40628486311E+02  0.00000000000E+00 0. -1.
        -11    1    3    3    0    0  0.46937574718E+03  0.33362186034E+03  0.59344015810E+03  0.82691496479E+03  0.00000000000E+00 0.  1.
          2    1    6    6  502    0 -0.74578285337E+01 -0.57864864709E+02 -0.53338324774E+02  0.79050228740E+02  0.00000000000E+00 0. -1.
          1    1    5    5  503    0 -0.75044943983E+02  0.66283695795E+02 -0.26999073344E+03  0.28795879582E+03  0.00000000000E+00 0. -1.
         -2    1    5    5    0  503 -0.30747750178E+03  0.18365172310E+03 -0.65499956454E+03  0.74652180078E+03  0.00000000000E+00 0.  1.
         -1    1    6    6    0  502 -0.11274338826E+03 -0.53499958011E+03 -0.87597451296E+03  0.10326020384E+04  0.00000000000E+00 0.  1.
<mgrwt>
<rscale>  0 0.27469307E+04</rscale>
<asrwt>0</asrwt>
<pdfrwt beam="1">  1        2 0.32717536E+00 0.27469307E+04</pdfrwt>
<pdfrwt beam="2">  1       -2 0.13646714E+00 0.27469307E+04</pdfrwt>
<totfact> 0.19040489E+00</totfact>
</mgrwt>
</event>
<event>
12    1  0.1532786E-007  0.2345272E+04  0.7818608E-02  0.8460282E-01
          2   -1    0    0  501    0  0.00000000000E+00  0.00000000000E+00  0.41341553804E+04  0.41341553804E+04  0.00000000000E+00 0. -1.
         -2   -1    0    0    0  501 -0.00000000000E+00 -0.00000000000E+00 -0.33261335539E+03  0.33261335539E+03  0.00000000000E+00 0.  1.
         23    2    1    2    0    0  0.49418523325E+03 -0.14932318554E+03 -0.17656508047E+01  0.52480903679E+03  0.94366037678E+02 0.  0.
        254    2    1    2    0    0 -0.49418523325E+03  0.14932318554E+03  0.38033076758E+04  0.39419596990E+04  0.89854356221E+03 0.  0.
        -24    2    4    4    0    0  0.85028723462E+02 -0.13834285898E+02  0.31537717475E+02  0.12164863548E+03  0.79890497629E+02 0.  0.
         24    2    4    4    0    0 -0.57921395671E+03  0.16315747144E+03  0.37717699583E+04  0.38203110635E+04  0.80117634292E+02 0.  0.
         11    1    3    3    0    0  0.47067283053E+03 -0.12614932031E+03  0.15544988863E+02  0.48753277950E+03  0.00000000000E+00 0.  1.
        -11    1    3    3    0    0  0.23512402727E+02 -0.23173865227E+02 -0.17310639667E+02  0.37276257286E+02  0.00000000000E+00 0. -1.
          4    1    6    6  502    0 -0.57783498651E+03  0.16672846510E+03  0.37628002241E+04  0.38105586440E+04  0.00000000000E+00 0. -1.
          3    1    5    5  503    0  0.97546002434E+02 -0.16658866095E+02  0.14038939843E+02  0.99949148282E+02  0.00000000000E+00 0. -1.
         -4    1    5    5    0  503 -0.12517278972E+02  0.28245801968E+01  0.17498777632E+02  0.21699487201E+02  0.00000000000E+00 0.  1.
         -3    1    6    6    0  502 -0.13789702028E+01 -0.35709936674E+01  0.89697341646E+01  0.97524194729E+01  0.00000000000E+00 0.  1.
<mgrwt>
<rscale>  0 0.23452721E+04</rscale>
<asrwt>0</asrwt>
<pdfrwt beam="1">  1        2 0.63602387E+00 0.23452721E+04</pdfrwt>
<pdfrwt beam="2">  1       -2 0.51171288E-01 0.23452721E+04</pdfrwt>
<totfact> 0.86867081E-01</totfact>
</mgrwt>
</event>
<event>
12    1  0.1532786E-007  0.1057742E+04  0.7818608E-02  0.9247388E-01
          1   -1    0    0  501    0  0.00000000000E+00  0.00000000000E+00  0.40399478781E+03  0.40399478781E+03  0.00000000000E+00 0. -1.
         -1   -1    0    0    0  501 -0.00000000000E+00 -0.00000000000E+00 -0.69234634427E+03  0.69234634427E+03  0.00000000000E+00 0.  1.
         23    2    1    2    0    0  0.94149808884E+02 -0.76752860009E+02 -0.57479742688E+02  0.16267286556E+03  0.91669800576E+02 0.  0.
        254    2    1    2    0    0 -0.94149808884E+02  0.76752860009E+02 -0.23087181377E+03  0.93366826652E+03  0.89648170616E+03 0.  0.
        -24    2    4    4    0    0 -0.12756667490E+03  0.30025493044E+03 -0.48059507036E+03  0.58759826744E+03  0.88734561695E+02 0.  0.
         24    2    4    4    0    0  0.33416866012E+02 -0.22350207043E+03  0.24972325659E+03  0.34606999908E+03  0.79579375208E+02 0.  0.
         13    1    3    3    0    0  0.61190976909E+02 -0.36773073325E+02 -0.79079518802E+02  0.10653715254E+03  0.00000000000E+00 0.  1.
        -13    1    3    3    0    0  0.32958831975E+02 -0.39979786684E+02  0.21599776114E+02  0.56135713023E+02  0.00000000000E+00 0. -1.
          2    1    6    6  502    0  0.15087238247E+02 -0.16574118970E+00  0.11162533216E+02  0.18768440954E+02  0.00000000000E+00 0. -1.
          3    1    5    5  503    0 -0.55909007267E+02  0.49856448490E+02 -0.78374790917E+02  0.10841628291E+03  0.00000000000E+00 0. -1.
         -4    1    5    5    0  503 -0.71657667628E+02  0.25039848195E+03 -0.40222027944E+03  0.47918198452E+03  0.00000000000E+00 0.  1.
         -1    1    6    6    0  502  0.18329627765E+02 -0.22333632924E+03  0.23856072338E+03  0.32730155813E+03  0.00000000000E+00 0.  1.
<mgrwt>
<rscale>  0 0.10577416E+04</rscale>
<asrwt>0</asrwt>
<pdfrwt beam="1">  1        1 0.62153045E-01 0.10577416E+04</pdfrwt>
<pdfrwt beam="2">  1       -1 0.10651482E+00 0.10577416E+04</pdfrwt>
<totfact> 0.48730015E+01</totfact>
</mgrwt>
</event>
<event>
12    1  0.1532786E-007  0.3739252E+04  0.7818608E-02  0.8059318E-01
         -2   -1    0    0    0  501 -0.00000000000E+00  0.00000000000E+00  0.10166310584E+04  0.10166310584E+04  0.00000000000E+00 0.  1.
          2   -1    0    0  501    0  0.00000000000E+00 -0.00000000000E+00 -0.34383178864E+04  0.34383178864E+04  0.00000000000E+00 0. -1.
         23    2    1    2    0    0 -0.89467226105E+03  0.62724123751E+03  0.51703054998E+03  0.12122146388E+04  0.90959970062E+02 0.  0.
        254    2    1    2    0    0  0.89467226105E+03 -0.62724123751E+03 -0.29387173780E+04  0.32427343059E+04  0.82788642123E+03 0.  0.
        -24    2    4    4    0    0  0.34933370354E+03 -0.30958223975E+03 -0.38281479858E+03  0.60883765267E+03  0.79125961007E+02 0.  0.
         24    2    4    4    0    0  0.54533855751E+03 -0.31765899776E+03 -0.25559025794E+04  0.26338966533E+04  0.80450005996E+02 0.  0.
         13    1    3    3    0    0 -0.18515673531E+01  0.21649420011E+01 -0.34113642404E+01  0.44443988921E+01  0.00000000000E+00 0. -1.
        -13    1    3    3    0    0 -0.89282069369E+03  0.62507629550E+03  0.52044191422E+03  0.12077702399E+04  0.00000000000E+00 0.  1.
          4    1    6    6  502    0  0.25053902001E+03 -0.11270246833E+03 -0.99474864455E+03  0.10319866824E+04  0.00000000000E+00 0. -1.
          3    1    5    5  503    0  0.30254534794E+03 -0.27396161019E+03 -0.29685984373E+03  0.50469239962E+03  0.00000000000E+00 0. -1.
         -4    1    5    5    0  503  0.46788355600E+02 -0.35620629557E+02 -0.85954954847E+02  0.10414525305E+03  0.00000000000E+00 0.  1.
         -3    1    6    6    0  502  0.29479953750E+03 -0.20495652943E+03 -0.15611539349E+04  0.16019099708E+04  0.00000000000E+00 0.  1.
<mgrwt>
<rscale>  0 0.37392517E+04</rscale>
<asrwt>0</asrwt>
<pdfrwt beam="1">  1        2 0.52897199E+00 0.37392517E+04</pdfrwt>
<pdfrwt beam="2">  1       -2 0.15640478E+00 0.37392517E+04</pdfrwt>
<totfact> 0.19342461E-01</totfact>
</mgrwt>
</event>
<event>
12    1  0.1532786E-007  0.3588752E+04  0.7818608E-02  0.8093073E-01
         -1   -1    0    0    0  501 -0.00000000000E+00  0.00000000000E+00  0.20727527579E+04  0.20727527579E+04  0.00000000000E+00 0.  1.
          1   -1    0    0  501    0  0.00000000000E+00 -0.00000000000E+00 -0.15533862759E+04  0.15533862759E+04  0.00000000000E+00 0. -1.
         23    2    1    2    0    0 -0.67049250642E+03 -0.60033091814E+02  0.17997925704E+04  0.19237455712E+04  0.91539898459E+02 0.  0.
        254    2    1    2    0    0  0.67049250642E+03  0.60033091814E+02 -0.12804260884E+04  0.17023934627E+04  0.89749003375E+03 0.  0.
        -24    2    4    4    0    0  0.78902555740E+03 -0.84925448644E+02 -0.61651510539E+03  0.10080266861E+04  0.79077574043E+02 0.  0.
         24    2    4    4    0    0 -0.11853305098E+03  0.14495854046E+03 -0.66391098299E+03  0.69436677655E+03  0.79400027787E+02 0.  0.
         13    1    3    3    0    0 -0.30872043910E+03 -0.57513343457E+02  0.73891901491E+03  0.80288069151E+03  0.00000000000E+00 0.  1.
        -13    1    3    3    0    0 -0.36177206732E+03 -0.25197483570E+01  0.10608735555E+04  0.11208648797E+04  0.00000000000E+00 0. -1.
          2    1    6    6  502    0 -0.11248202019E+03  0.83073968948E+02 -0.42057116917E+03  0.44320830037E+03  0.00000000000E+00 0. -1.
          3    1    5    5  503    0  0.19764723790E+03  0.12807269591E+02 -0.15809119088E+03  0.25341918127E+03  0.00000000000E+00 0. -1.
         -4    1    5    5    0  503  0.59137831950E+03 -0.97732718236E+02 -0.45842391450E+03  0.75460750485E+03  0.00000000000E+00 0.  1.
         -1    1    6    6    0  502 -0.60510307909E+01  0.61884571510E+02 -0.24333981382E+03  0.25115847618E+03  0.00000000000E+00 0.  1.
<mgrwt>
<rscale>  0 0.35887523E+04</rscale>
<asrwt>0</asrwt>
<pdfrwt beam="1">  1        1 0.23898250E+00 0.35887523E+04</pdfrwt>
<pdfrwt beam="2">  1       -1 0.31888504E+00 0.35887523E+04</pdfrwt>
<totfact> 0.12106993E-01</totfact>
</mgrwt>
</event>
<event>
12    1  0.1532786E-007  0.2144034E+04  0.7818608E-02  0.8542090E-01
         -1   -1    0    0    0  501 -0.00000000000E+00  0.00000000000E+00  0.73519999162E+03  0.73519999162E+03  0.00000000000E+00 0.  1.
          1   -1    0    0  501    0  0.00000000000E+00 -0.00000000000E+00 -0.15631397415E+04  0.15631397415E+04  0.00000000000E+00 0. -1.
         23    2    1    2    0    0 -0.32004133497E+03  0.60135748791E+03 -0.92925139923E+03  0.11569913222E+04  0.10518304154E+03 0.  0.
        254    2    1    2    0    0  0.32004133497E+03 -0.60135748791E+03  0.10131164935E+03  0.11413484109E+04  0.91014002248E+03 0.  0.
        -24    2    4    4    0    0  0.47622071889E+03  0.32698753694E+00 -0.78161508386E+02  0.48927486629E+03  0.80587799099E+02 0.  0.
         24    2    4    4    0    0 -0.15617938392E+03 -0.60168447544E+03  0.17947315774E+03  0.65207354466E+03  0.81074566577E+02 0.  0.
         13    1    3    3    0    0 -0.32791043965E+03  0.59232612898E+03 -0.90842529983E+03  0.11329660299E+04  0.00000000000E+00 0. -1.
        -13    1    3    3    0    0  0.78691046797E+01  0.90313589233E+01 -0.20826099400E+02  0.24025292270E+02  0.00000000000E+00 0.  1.
          2    1    6    6  502    0 -0.78194776140E+02 -0.23359468358E+03  0.33999585359E+02  0.24867020533E+03  0.00000000000E+00 0. -1.
          1    1    5    5  503    0  0.17698348167E+03 -0.29636902849E+02 -0.38183281775E+01  0.17948837964E+03  0.00000000000E+00 0. -1.
         -2    1    5    5    0  503  0.29923723722E+03  0.29963890386E+02 -0.74343180208E+02  0.30978648664E+03  0.00000000000E+00 0.  1.
         -1    1    6    6    0  502 -0.77984607781E+02 -0.36808979186E+03  0.14547357238E+03  0.40340333933E+03  0.00000000000E+00 0.  1.
<mgrwt>
<rscale>  0 0.21440339E+04</rscale>
<asrwt>0</asrwt>
<pdfrwt beam="1">  1        1 0.24048303E+00 0.21440339E+04</pdfrwt>
<pdfrwt beam="2">  1       -1 0.11310769E+00 0.21440339E+04</pdfrwt>
<totfact> 0.38709984E+00</totfact>
</mgrwt>
</event>
<event>
12    1  0.1532786E-007  0.1346627E+04  0.7818608E-02  0.8993385E-01
          1   -1    0    0  501    0  0.00000000000E+00  0.00000000000E+00  0.19145181408E+04  0.19145181408E+04  0.00000000000E+00 0. -1.
         -1   -1    0    0    0  501 -0.00000000000E+00 -0.00000000000E+00 -0.23679656224E+03  0.23679656224E+03  0.00000000000E+00 0.  1.
         23    2    1    2    0    0 -0.16188755829E+03 -0.14185582091E+02 -0.64723848227E+02  0.18979359522E+03  0.73645230586E+02 0.  0.
        254    2    1    2    0    0  0.16188755829E+03  0.14185582091E+02  0.17424454268E+04  0.19615211078E+04  0.88602493125E+03 0.  0.
        -24    2    4    4    0    0 -0.36640234822E+02 -0.60251846954E+02 -0.74758256169E+02  0.13032093362E+03  0.80137113784E+02 0.  0.
         24    2    4    4    0    0  0.19852779311E+03  0.74437429045E+02  0.18172036829E+04  0.18312001742E+04  0.78170564338E+02 0.  0.
         11    1    3    3    0    0 -0.53627181031E+02 -0.33539771070E+02 -0.22084255135E+01  0.63290346278E+02  0.00000000000E+00 0. -1.
        -11    1    3    3    0    0 -0.10826037726E+03  0.19354188979E+02 -0.62515422714E+02  0.12650324894E+03  0.00000000000E+00 0.  1.
          2    1    6    6  502    0  0.66410832002E+02  0.47764502875E+02  0.45053252849E+03  0.45789890322E+03  0.00000000000E+00 0. -1.
          1    1    5    5  503    0 -0.22881695670E+02 -0.58485841605E+01  0.12388819946E+02  0.26669473056E+02  0.00000000000E+00 0. -1.
         -2    1    5    5    0  503 -0.13758539152E+02 -0.54403262794E+02 -0.87147076115E+02  0.10365146057E+03  0.00000000000E+00 0.  1.
         -1    1    6    6    0  502  0.13211696111E+03  0.26672926170E+02  0.13666711545E+04  0.13733012710E+04  0.00000000000E+00 0.  1.
<mgrwt>
<rscale>  0 0.13466274E+04</rscale>
<asrwt>0</asrwt>
<pdfrwt beam="1">  1        1 0.29454124E+00 0.13466274E+04</pdfrwt>
<pdfrwt beam="2">  1       -1 0.36430242E-01 0.13466274E+04</pdfrwt>
<totfact> 0.24094712E+01</totfact>
</mgrwt>
</event>
<event>
12    1  0.1532786E-007  0.1627212E+04  0.7818608E-02  0.8804003E-01
         -2   -1    0    0    0  501 -0.00000000000E+00  0.00000000000E+00  0.62503600654E+03  0.62503600654E+03  0.00000000000E+00 0.  1.
          2   -1    0    0  501    0  0.00000000000E+00 -0.00000000000E+00 -0.10590671293E+04  0.10590671293E+04  0.00000000000E+00 0. -1.
         23    2    1    2    0    0  0.32174937478E+03  0.25864331163E+03 -0.54449702658E+03  0.68931240751E+03  0.90860114281E+02 0.  0.
        254    2    1    2    0    0 -0.32174937478E+03 -0.25864331163E+03  0.11046590386E+03  0.99479072829E+03  0.89832447053E+03 0.  0.
        -24    2    4    4    0    0 -0.24887466903E+02 -0.17127992058E+02  0.46188257990E+03  0.46924722185E+03  0.77101773488E+02 0.  0.
         24    2    4    4    0    0 -0.29686190788E+03 -0.24151531957E+03 -0.35141667604E+03  0.52554350644E+03  0.79029456717E+02 0.  0.
         13    1    3    3    0    0  0.18527600976E+03  0.92254982993E+02 -0.28416968284E+03  0.35155453393E+03  0.00000000000E+00 0. -1.
        -13    1    3    3    0    0  0.13647336502E+03  0.16638832863E+03 -0.26032734374E+03  0.33775787358E+03  0.00000000000E+00 0.  1.
          2    1    6    6  502    0 -0.33707109170E+02 -0.75720291125E+01 -0.56591211355E+02  0.66302865972E+02  0.00000000000E+00 0. -1.
          3    1    5    5  503    0  0.24515296665E+02  0.77231472048E+01  0.19570491837E+03  0.19738556647E+03  0.00000000000E+00 0. -1.
         -4    1    5    5    0  503 -0.49402763568E+02 -0.24851139263E+02  0.26617766153E+03  0.27186165538E+03  0.00000000000E+00 0.  1.
         -1    1    6    6    0  502 -0.26315479871E+03 -0.23394329046E+03 -0.29482546468E+03  0.45924064047E+03  0.00000000000E+00 0.  1.
<mgrwt>
<rscale>  0 0.16272124E+04</rscale>
<asrwt>0</asrwt>
<pdfrwt beam="1">  1        2 0.16293340E+00 0.16272124E+04</pdfrwt>
<pdfrwt beam="2">  1       -2 0.96159386E-01 0.16272124E+04</pdfrwt>
<totfact> 0.20031666E+01</totfact>
</mgrwt>
</event>
<event>
12    1  0.1532786E-007  0.1624306E+04  0.7818608E-02  0.8805753E-01
         -1   -1    0    0    0  501 -0.00000000000E+00  0.00000000000E+00  0.65917387223E+03  0.65917387223E+03  0.00000000000E+00 0.  1.
          1   -1    0    0  501    0  0.00000000000E+00 -0.00000000000E+00 -0.10006355264E+04  0.10006355264E+04  0.00000000000E+00 0. -1.
         23    2    1    2    0    0  0.41082613018E+03 -0.33526172185E+03  0.82537068193E+02  0.54402814961E+03  0.89306934587E+02 0.  0.
        254    2    1    2    0    0 -0.41082613018E+03  0.33526172185E+03 -0.42399872237E+03  0.11157812490E+04  0.88544584686E+03 0.  0.
        -24    2    4    4    0    0 -0.56101385608E+02  0.43493496972E+03 -0.55971576312E+03  0.71540368819E+03  0.78771239934E+02 0.  0.
         24    2    4    4    0    0 -0.35472474457E+03 -0.99673247865E+02  0.13571704075E+03  0.40037756083E+03  0.78221961853E+02 0.  0.
         13    1    3    3    0    0  0.32784581571E+03 -0.25762394330E+03  0.10071079242E+03  0.42894712815E+03  0.00000000000E+00 0.  1.
        -13    1    3    3    0    0  0.82980314475E+02 -0.77637778548E+02 -0.18173724225E+02  0.11508102146E+03  0.00000000000E+00 0. -1.
          2    1    6    6  502    0  0.28683338841E+01  0.11785188143E+01 -0.24749042848E+01  0.39675429532E+01  0.00000000000E+00 0. -1.
          1    1    5    5  503    0 -0.41839150248E+02  0.12383092445E+03 -0.20763418372E+03  0.24534988606E+03  0.00000000000E+00 0. -1.
         -2    1    5    5    0  503 -0.14262235360E+02  0.31110404526E+03 -0.35208157940E+03  0.47005380213E+03  0.00000000000E+00 0.  1.
         -1    1    6    6    0  502 -0.35759307846E+03 -0.10085176668E+03  0.13819194504E+03  0.39641001788E+03  0.00000000000E+00 0.  1.
<mgrwt>
<rscale>  0 0.16243064E+04</rscale>
<asrwt>0</asrwt>
<pdfrwt beam="1">  1        1 0.15394393E+00 0.16243064E+04</pdfrwt>
<pdfrwt beam="2">  1       -1 0.10141137E+00 0.16243064E+04</pdfrwt>
<totfact> 0.13360059E+01</totfact>
</mgrwt>
</event>
<event>
12    1  0.1532786E-007  0.2012497E+04  0.7818608E-02  0.8600800E-01
          1   -1    0    0  501    0  0.00000000000E+00  0.00000000000E+00  0.16669751281E+04  0.16669751281E+04  0.00000000000E+00 0. -1.
         -1   -1    0    0    0  501 -0.00000000000E+00 -0.00000000000E+00 -0.60740921571E+03  0.60740921571E+03  0.00000000000E+00 0.  1.
         23    2    1    2    0    0 -0.20754188539E+03  0.80206296544E+03  0.76474985644E+03  0.11313304363E+04  0.93207180082E+02 0.  0.
        254    2    1    2    0    0  0.20754188539E+03 -0.80206296544E+03  0.29481605595E+03  0.11430539075E+04  0.73025823783E+03 0.  0.
        -24    2    4    4    0    0 -0.19943246898E+03 -0.56876537134E+03  0.27450821360E+03  0.66696161593E+03  0.78839586930E+02 0.  0.
         24    2    4    4    0    0  0.40697435437E+03 -0.23329759410E+03  0.20307842348E+02  0.47609229159E+03  0.78711937591E+02 0.  0.
         11    1    3    3    0    0 -0.15042812071E+03  0.48847114683E+03  0.52300381605E+03  0.73127674131E+03  0.00000000000E+00 0.  1.
        -11    1    3    3    0    0 -0.57113764684E+02  0.31359181861E+03  0.24174604039E+03  0.40005369498E+03  0.00000000000E+00 0. -1.
          2    1    6    6  502    0  0.27023827313E+02 -0.42398521451E+02 -0.17513304962E+01  0.50308935810E+02  0.00000000000E+00 0. -1.
          3    1    5    5  503    0 -0.46491707053E+01 -0.58514247412E+02  0.79983504782E+01  0.59241079909E+02  0.00000000000E+00 0. -1.
         -4    1    5    5    0  503 -0.19478329827E+03 -0.51025112393E+03  0.26650986313E+03  0.60772053602E+03  0.00000000000E+00 0.  1.
         -1    1    6    6    0  502  0.37995052706E+03 -0.19089907265E+03  0.22059172844E+02  0.42578335578E+03  0.00000000000E+00 0.  1.
<mgrwt>
<rscale>  0 0.20124970E+04</rscale>
<asrwt>0</asrwt>
<pdfrwt beam="1">  1        1 0.25645771E+00 0.20124970E+04</pdfrwt>
<pdfrwt beam="2">  1       -1 0.93447572E-01 0.20124970E+04</pdfrwt>
<totfact> 0.51682561E+00</totfact>
</mgrwt>
</event>
<event>
12    1  0.1532786E-007  0.1635733E+04  0.7818608E-02  0.8798891E-01
         -1   -1    0    0    0  501 -0.00000000000E+00  0.00000000000E+00  0.98147620534E+03  0.98147620534E+03  0.00000000000E+00 0.  1.
          1   -1    0    0  501    0  0.00000000000E+00 -0.00000000000E+00 -0.68153049048E+03  0.68153049048E+03  0.00000000000E+00 0. -1.
         23    2    1    2    0    0  0.52279563176E+03 -0.17308128802E+03 -0.22702444087E+02  0.55971941393E+03  0.97457767856E+02 0.  0.
        254    2    1    2    0    0 -0.52279563176E+03  0.17308128802E+03  0.32264815894E+03  0.11032872819E+04  0.89992698985E+03 0.  0.
        -24    2    4    4    0    0 -0.18948644037E+03  0.30826910469E+03  0.55564211784E+03  0.66777863887E+03  0.79089793403E+02 0.  0.
         24    2    4    4    0    0 -0.33330919139E+03 -0.13518781667E+03 -0.23299395890E+03  0.43550864303E+03  0.77529545481E+02 0.  0.
         13    1    3    3    0    0  0.25131137278E+03 -0.11924656893E+03 -0.46100447264E+02  0.28196170223E+03  0.00000000000E+00 0. -1.
        -13    1    3    3    0    0  0.27148425898E+03 -0.53834719086E+02  0.23398003178E+02  0.27775771170E+03  0.00000000000E+00 0.  1.
          4    1    6    6  502    0 -0.29917756033E+03 -0.96112883967E+02 -0.18397386806E+03  0.36413085999E+03  0.00000000000E+00 0. -1.
          3    1    5    5  503    0 -0.16031346068E+03  0.19592733434E+03  0.40493797182E+03  0.47755909272E+03  0.00000000000E+00 0. -1.
         -4    1    5    5    0  503 -0.29172979684E+02  0.11234177035E+03  0.15070414602E+03  0.19021954615E+03  0.00000000000E+00 0.  1.
         -3    1    6    6    0  502 -0.34131631063E+02 -0.39074932702E+02 -0.49020090841E+02  0.71377783033E+02  0.00000000000E+00 0.  1.
<mgrwt>
<rscale>  0 0.16357334E+04</rscale>
<asrwt>0</asrwt>
<pdfrwt beam="1">  1        1 0.10485084E+00 0.16357334E+04</pdfrwt>
<pdfrwt beam="2">  1       -1 0.15099634E+00 0.16357334E+04</pdfrwt>
<totfact> 0.93029250E+00</totfact>
</mgrwt>
</event>
<event>
12    1  0.1532786E-007  0.1461395E+04  0.7818608E-02  0.8910539E-01
         -2   -1    0    0    0  501 -0.00000000000E+00  0.00000000000E+00  0.62817726232E+03  0.62817726232E+03  0.00000000000E+00 0.  1.
          2   -1    0    0  501    0  0.00000000000E+00 -0.00000000000E+00 -0.84994917959E+03  0.84994917959E+03  0.00000000000E+00 0. -1.
         23    2    1    2    0    0  0.39323724077E+03 -0.16387211007E+03 -0.20820057998E+03  0.48296353482E+03  0.91742566316E+02 0.  0.
        254    2    1    2    0    0 -0.39323724077E+03  0.16387211007E+03 -0.13571337286E+02  0.99516290709E+03  0.89926382917E+03 0.  0.
        -24    2    4    4    0    0  0.16174694579E+03  0.69328029395E+02 -0.30122447223E+03  0.35784053072E+03  0.79656842901E+02 0.  0.
         24    2    4    4    0    0 -0.55498418656E+03  0.94544080677E+02  0.28765313495E+03  0.63732237637E+03  0.80557152670E+02 0.  0.
         11    1    3    3    0    0  0.49748405439E+02 -0.56264858516E+02 -0.46731479569E+02  0.88456030491E+02  0.00000000000E+00 0.  1.
        -11    1    3    3    0    0  0.34348883533E+03 -0.10760725156E+03 -0.16146910041E+03  0.39450750433E+03  0.00000000000E+00 0. -1.
          2    1    6    6  502    0 -0.52548562512E+03  0.69588846992E+02  0.26767249283E+03  0.59382346977E+03  0.00000000000E+00 0. -1.
          3    1    5    5  503    0  0.66061399392E+02  0.51284047782E+02 -0.78242335597E+02  0.11452521611E+03  0.00000000000E+00 0. -1.
         -4    1    5    5    0  503  0.95685546398E+02  0.18043981613E+02 -0.22298213664E+03  0.24331531461E+03  0.00000000000E+00 0.  1.
         -1    1    6    6    0  502 -0.29498561440E+02  0.24955233686E+02  0.19980642117E+02  0.43498906593E+02  0.00000000000E+00 0.  1.
<mgrwt>
<rscale>  0 0.14613949E+04</rscale>
<asrwt>0</asrwt>
<pdfrwt beam="1">  1        2 0.13076141E+00 0.14613949E+04</pdfrwt>
<pdfrwt beam="2">  1       -2 0.96642656E-01 0.14613949E+04</pdfrwt>
<totfact> 0.27542899E+01</totfact>
</mgrwt>
</event>
<event>
12    1  0.1532786E-007  0.2012636E+04  0.7818608E-02  0.8600736E-01
         -1   -1    0    0    0  501 -0.00000000000E+00  0.00000000000E+00  0.13482410258E+04  0.13482410258E+04  0.00000000000E+00 0.  1.
          1   -1    0    0  501    0  0.00000000000E+00 -0.00000000000E+00 -0.75110874843E+03  0.75110874843E+03  0.00000000000E+00 0. -1.
         23    2    1    2    0    0 -0.79850735895E+03 -0.21508714872E+02  0.13337054703E+03  0.81502182734E+03  0.91631048883E+02 0.  0.
        254    2    1    2    0    0  0.79850735895E+03  0.21508714872E+02  0.46376173035E+03  0.12843279469E+04  0.89238260041E+03 0.  0.
        -24    2    4    4    0    0  0.20007446618E+03  0.39305767515E+03  0.34534391464E+03  0.56573651468E+03  0.79191266239E+02 0.  0.
         24    2    4    4    0    0  0.59843289277E+03 -0.37154896028E+03  0.11841781570E+03  0.71859143221E+03  0.78614949844E+02 0.  0.
         13    1    3    3    0    0 -0.33640558797E+03  0.18437340586E+02  0.19782752303E+02  0.33749075904E+03  0.00000000000E+00 0.  1.
        -13    1    3    3    0    0 -0.46210177098E+03 -0.39946055458E+02  0.11358779473E+03  0.47753106831E+03  0.00000000000E+00 0. -1.
          2    1    6    6  502    0  0.18905268831E+03 -0.12533422822E+03  0.75010033908E+02  0.23890603363E+03  0.00000000000E+00 0. -1.
          3    1    5    5  503    0  0.16187718310E+02  0.31703926293E+02  0.41720478046E+01  0.35841137668E+02  0.00000000000E+00 0. -1.
         -4    1    5    5    0  503  0.18388674787E+03  0.36135374886E+03  0.34117186684E+03  0.52989537701E+03  0.00000000000E+00 0.  1.
         -1    1    6    6    0  502  0.40938020446E+03 -0.24621473206E+03  0.43407781795E+02  0.47968539858E+03  0.00000000000E+00 0.  1.
<mgrwt>
<rscale>  0 0.20126357E+04</rscale>
<asrwt>0</asrwt>
<pdfrwt beam="1">  1        1 0.11555519E+00 0.20126357E+04</pdfrwt>
<pdfrwt beam="2">  1       -1 0.20742170E+00 0.20126357E+04</pdfrwt>
<totfact> 0.30305900E+00</totfact>
</mgrwt>
</event>
<event>
12    1  0.1532786E-007  0.1712539E+04  0.7818608E-02  0.8754245E-01
         -1   -1    0    0    0  501 -0.00000000000E+00  0.00000000000E+00  0.10151915978E+04  0.10151915978E+04  0.00000000000E+00 0.  1.
          1   -1    0    0  501    0  0.00000000000E+00 -0.00000000000E+00 -0.72222534089E+03  0.72222534089E+03  0.00000000000E+00 0. -1.
         23    2    1    2    0    0 -0.13602855479E+03 -0.30809048957E+03  0.62941276012E+03  0.71968687514E+03  0.91461785237E+02 0.  0.
        254    2    1    2    0    0  0.13602855479E+03  0.30809048957E+03 -0.33644650318E+03  0.10177300636E+04  0.89953027484E+03 0.  0.
        -24    2    4    4    0    0 -0.35058951196E+03 -0.30055473234E+02 -0.98683221546E+02  0.37415378969E+03  0.80226820677E+02 0.  0.
         24    2    4    4    0    0  0.48661806675E+03  0.33814596280E+03 -0.23776328163E+03  0.64357627390E+03  0.80741607595E+02 0.  0.
         11    1    3    3    0    0 -0.59626250487E+02 -0.14009963423E+03  0.19279558793E+03  0.24566915961E+03  0.00000000000E+00 0. -1.
        -11    1    3    3    0    0 -0.76402304302E+02 -0.16799085534E+03  0.43661717219E+03  0.47401771553E+03  0.00000000000E+00 0.  1.
          2    1    6    6  502    0  0.27159511683E+03  0.18782808458E+03 -0.89091593521E+02  0.34202428112E+03  0.00000000000E+00 0. -1.
          3    1    5    5  503    0 -0.26484301988E+03 -0.26514758131E+02 -0.37586687042E+02  0.26880776890E+03  0.00000000000E+00 0. -1.
         -4    1    5    5    0  503 -0.85746492074E+02 -0.35407151027E+01 -0.61096534504E+02  0.10534602078E+03  0.00000000000E+00 0.  1.
         -1    1    6    6    0  502  0.21502294992E+03  0.15031787822E+03 -0.14867168811E+03  0.30155199278E+03  0.00000000000E+00 0.  1.
<mgrwt>
<rscale>  0 0.17125386E+04</rscale>
<asrwt>0</asrwt>
<pdfrwt beam="1">  1        1 0.11111159E+00 0.17125386E+04</pdfrwt>
<pdfrwt beam="2">  1       -1 0.15618332E+00 0.17125386E+04</pdfrwt>
<totfact> 0.77153392E+00</totfact>
</mgrwt>
</event>
<event>
12    1  0.1532786E-007  0.1698519E+04  0.7818608E-02  0.8762209E-01
          2   -1    0    0  501    0  0.00000000000E+00  0.00000000000E+00  0.11056587011E+04  0.11056587011E+04  0.00000000000E+00 0. -1.
         -2   -1    0    0    0  501 -0.00000000000E+00 -0.00000000000E+00 -0.65231891086E+03  0.65231891086E+03  0.00000000000E+00 0.  1.
         23    2    1    2    0    0 -0.37087932071E+03 -0.17424401486E+03  0.63565842844E+03  0.76185401809E+03  0.91910064589E+02 0.  0.
        254    2    1    2    0    0  0.37087932071E+03  0.17424401486E+03 -0.18231863820E+03  0.99612359387E+03  0.88944346711E+03 0.  0.
        -24    2    4    4    0    0  0.15286682482E+03 -0.20792417238E+03  0.25419229858E+03  0.37095391145E+03  0.79952186794E+02 0.  0.
         24    2    4    4    0    0  0.21801249589E+03  0.38216818724E+03 -0.43651093678E+03  0.62516968242E+03  0.81935109575E+02 0.  0.
         11    1    3    3    0    0 -0.22823513996E+03 -0.10152396480E+03  0.30317768152E+03  0.39282960825E+03  0.00000000000E+00 0.  1.
        -11    1    3    3    0    0 -0.14264418075E+03 -0.72720050059E+02  0.33248074692E+03  0.36902440984E+03  0.00000000000E+00 0. -1.
          4    1    6    6  502    0  0.13500291461E+03  0.22553448613E+03 -0.31494037700E+03  0.41021827415E+03  0.00000000000E+00 0. -1.
          3    1    5    5  503    0  0.98781336937E+02 -0.14998850489E+03  0.22164606758E+03  0.28527404964E+03  0.00000000000E+00 0. -1.
         -4    1    5    5    0  503  0.54085487885E+02 -0.57935667489E+02  0.32546231001E+02  0.85679861808E+02  0.00000000000E+00 0.  1.
         -1    1    6    6    0  502  0.83009581278E+02  0.15663370111E+03 -0.12157055978E+03  0.21495140826E+03  0.00000000000E+00 0.  1.
<mgrwt>
<rscale>  0 0.16985194E+04</rscale>
<asrwt>0</asrwt>
<pdfrwt beam="1">  1        2 0.17010134E+00 0.16985194E+04</pdfrwt>
<pdfrwt beam="2">  1       -2 0.10035676E+00 0.16985194E+04</pdfrwt>
<totfact> 0.16848402E+01</totfact>
</mgrwt>
</event>
<event>
12    1  0.1532786E-007  0.1876813E+04  0.7818608E-02  0.8666485E-01
         -2   -1    0    0    0  501 -0.00000000000E+00  0.00000000000E+00  0.39719473915E+03  0.39719473915E+03  0.00000000000E+00 0.  1.
          2   -1    0    0  501    0  0.00000000000E+00 -0.00000000000E+00 -0.22170662299E+04  0.22170662299E+04  0.00000000000E+00 0. -1.
         23    2    1    2    0    0  0.69405270342E+03 -0.68558619432E+01 -0.51341327439E+03  0.86819963867E+03  0.91767446815E+02 0.  0.
        254    2    1    2    0    0 -0.69405270342E+03  0.68558619432E+01 -0.13064582164E+04  0.17460613304E+04  0.92743783641E+03 0.  0.
        -24    2    4    4    0    0  0.14939859775E+02 -0.16130592024E+03 -0.87881932938E+03  0.89741291077E+03  0.82363337786E+02 0.  0.
         24    2    4    4    0    0 -0.70899256320E+03  0.16816178219E+03 -0.42763888699E+03  0.84864841962E+03  0.79876672475E+02 0.  0.
         11    1    3    3    0    0  0.10551400824E+03  0.23385936932E+02 -0.10879787051E+03  0.15335281089E+03  0.00000000000E+00 0. -1.
        -11    1    3    3    0    0  0.58853869518E+03 -0.30241798875E+02 -0.40461540388E+03  0.71484682778E+03  0.00000000000E+00 0.  1.
          4    1    6    6  502    0 -0.16997041662E+03  0.33462734037E+02 -0.64241529437E+02  0.18476111929E+03  0.00000000000E+00 0. -1.
          3    1    5    5  503    0 -0.66706607686E+01  0.74860939436E+01 -0.27957408109E+02  0.29701110851E+02  0.00000000000E+00 0. -1.
         -4    1    5    5    0  503  0.21610520544E+02 -0.16879201419E+03 -0.85086192127E+03  0.86771179992E+03  0.00000000000E+00 0.  1.
         -3    1    6    6    0  502 -0.53902214657E+03  0.13469904815E+03 -0.36339735755E+03  0.66388730033E+03  0.00000000000E+00 0.  1.
<mgrwt>
<rscale>  0 0.18768133E+04</rscale>
<asrwt>0</asrwt>
<pdfrwt beam="1">  1        2 0.34108712E+00 0.18768133E+04</pdfrwt>
<pdfrwt beam="2">  1       -2 0.61106882E-01 0.18768133E+04</pdfrwt>
<totfact> 0.11809545E+01</totfact>
</mgrwt>
</event>
<event>
12    1  0.1532786E-007  0.1443018E+04  0.7818608E-02  0.8923255E-01
          2   -1    0    0  501    0  0.00000000000E+00  0.00000000000E+00  0.80682515480E+03  0.80682515480E+03  0.00000000000E+00 0.  1.
         -2   -1    0    0    0  501 -0.00000000000E+00 -0.00000000000E+00 -0.64521431728E+03  0.64521431728E+03  0.00000000000E+00 0. -1.
         23    2    1    2    0    0 -0.45808205442E+02 -0.35018352398E+03 -0.21032280307E+03  0.42027739387E+03  0.87581471521E+02 0.  0.
        254    2    1    2    0    0  0.45808205442E+02  0.35018352398E+03  0.37193364058E+03  0.10317620782E+04  0.89524938475E+03 0.  0.
        -24    2    4    4    0    0  0.38660693905E+03  0.21660929123E+02  0.38484437361E+03  0.55151945766E+03  0.78322404929E+02 0.  0.
         24    2    4    4    0    0 -0.34079873361E+03  0.32852259485E+03 -0.12910733025E+02  0.48024262055E+03  0.79971341184E+02 0.  0.
         11    1    3    3    0    0 -0.51135663478E+01 -0.10984847430E+03 -0.11338729543E+03  0.15795415358E+03  0.00000000000E+00 0.  1.
        -11    1    3    3    0    0 -0.40694639094E+02 -0.24033504968E+03 -0.96935507635E+02  0.26232324029E+03  0.00000000000E+00 0. -1.
          4    1    6    6  502    0 -0.29941152506E+03  0.29295352827E+03  0.14567401274E+02  0.41914346022E+03  0.00000000000E+00 0. -1.
          3    1    5    5  503    0  0.13005619551E+03  0.34813448591E+02  0.16839622414E+03  0.21560120245E+03  0.00000000000E+00 0. -1.
         -4    1    5    5    0  503  0.25655074354E+03 -0.13152519468E+02  0.21644814947E+03  0.33591825521E+03  0.00000000000E+00 0.  1.
         -3    1    6    6    0  502 -0.41387208546E+02  0.35569066585E+02 -0.27478134299E+02  0.61099160334E+02  0.00000000000E+00 0.  1.
<mgrwt>
<rscale>  0 0.14430179E+04</rscale>
<asrwt>0</asrwt>
<pdfrwt beam="1">  1        2 0.12412695E+00 0.14430179E+04</pdfrwt>
<pdfrwt beam="2">  1       -2 0.99263742E-01 0.14430179E+04</pdfrwt>
<totfact> 0.27783728E+01</totfact>
</mgrwt>
</event>
<event>
12    1  0.1532786E-007  0.2428228E+04  0.7818608E-02  0.8429010E-01
          2   -1    0    0  501    0  0.00000000000E+00  0.00000000000E+00  0.12735589010E+04  0.12735589010E+04  0.00000000000E+00 0. -1.
         -2   -1    0    0    0  501 -0.00000000000E+00 -0.00000000000E+00 -0.11574437825E+04  0.11574437825E+04  0.00000000000E+00 0.  1.
         23    2    1    2    0    0  0.87725618676E+03 -0.54426007145E+03  0.16386129914E+03  0.10470266106E+04  0.60139465328E+02 0.  0.
        254    2    1    2    0    0 -0.87725618676E+03  0.54426007145E+03 -0.47746180728E+02  0.13839760729E+04  0.92049586100E+03 0.  0.
        -24    2    4    4    0    0 -0.72408326085E+03  0.11989746133E+02  0.22284598126E+03  0.76229420786E+03  0.83617015750E+02 0.  0.
         24    2    4    4    0    0 -0.15317292592E+03  0.53227032531E+03 -0.27059216199E+03  0.62168186508E+03  0.80588949573E+02 0.  0.
         11    1    3    3    0    0  0.56212618448E+03 -0.34554555891E+03  0.75537212017E+02  0.66414866631E+03  0.00000000000E+00 0. -1.
        -11    1    3    3    0    0  0.31513000228E+03 -0.19871451254E+03  0.88324087124E+02  0.38287794426E+03  0.00000000000E+00 0.  1.
          2    1    6    6  502    0 -0.97660374051E+02  0.31721839010E+03 -0.11821467492E+03  0.35233473437E+03  0.00000000000E+00 0. -1.
          3    1    5    5  503    0 -0.35591995878E+03  0.45380409240E+02  0.12412924536E+03  0.37966625891E+03  0.00000000000E+00 0. -1.
         -4    1    5    5    0  503 -0.36816330206E+03 -0.33390663107E+02  0.98716735899E+02  0.38262794895E+03  0.00000000000E+00 0.  1.
         -1    1    6    6    0  502 -0.55512551865E+02  0.21505193521E+03 -0.15237748708E+03  0.26934713071E+03  0.00000000000E+00 0.  1.
<mgrwt>
<rscale>  0 0.24282280E+04</rscale>
<asrwt>0</asrwt>
<pdfrwt beam="1">  1        2 0.19593214E+00 0.24282280E+04</pdfrwt>
<pdfrwt beam="2">  1       -2 0.17806827E+00 0.24282280E+04</pdfrwt>
<totfact> 0.28744067E+00</totfact>
</mgrwt>
</event>
<event>
12    1  0.1532786E-007  0.1211652E+04  0.7818608E-02  0.9102718E-01
          2   -1    0    0  501    0  0.00000000000E+00  0.00000000000E+00  0.13187109827E+04  0.13187109827E+04  0.00000000000E+00 0. -1.
         -2   -1    0    0    0  501 -0.00000000000E+00 -0.00000000000E+00 -0.27832126922E+03  0.27832126922E+03  0.00000000000E+00 0.  1.
         23    2    1    2    0    0 -0.11129525492E+02 -0.20610334494E+03  0.53642754332E+03  0.58169261282E+03  0.89494868283E+02 0.  0.
        254    2    1    2    0    0  0.11129525492E+02  0.20610334494E+03  0.50396217016E+03  0.10153396391E+04  0.85693305377E+03 0.  0.
        -24    2    4    4    0    0  0.22078835767E+03  0.38863553928E+03  0.55985272971E+03  0.72073569480E+03  0.78992287710E+02 0.  0.
         24    2    4    4    0    0 -0.20965883218E+03 -0.18253219434E+03 -0.55890559552E+02  0.29460394430E+03  0.79955621861E+02 0.  0.
         13    1    3    3    0    0  0.29568360669E+02 -0.74468331937E+02  0.27152635879E+03  0.28310136688E+03  0.00000000000E+00 0. -1.
        -13    1    3    3    0    0 -0.40697886161E+02 -0.13163501301E+03  0.26490118453E+03  0.29859124594E+03  0.00000000000E+00 0.  1.
          2    1    6    6  502    0 -0.19768308721E+03 -0.18674347033E+03 -0.40963219093E+02  0.27500856713E+03  0.00000000000E+00 0. -1.
          1    1    5    5  503    0  0.15776165597E+03  0.28618865898E+03  0.46081452289E+03  0.56492717507E+03  0.00000000000E+00 0. -1.
         -2    1    5    5    0  503  0.63026701701E+02  0.10244688030E+03  0.99038206822E+02  0.15580851973E+03  0.00000000000E+00 0.  1.
         -1    1    6    6    0  502 -0.11975744967E+02  0.42112759862E+01 -0.14927340460E+02  0.19595377163E+02  0.00000000000E+00 0.  1.
<mgrwt>
<rscale>  0 0.12116523E+04</rscale>
<asrwt>0</asrwt>
<pdfrwt beam="1">  1        2 0.20287861E+00 0.12116523E+04</pdfrwt>
<pdfrwt beam="2">  1       -2 0.42818658E-01 0.12116523E+04</pdfrwt>
<totfact> 0.82151354E+01</totfact>
</mgrwt>
</event>
<event>
12    1  0.1532786E-007  0.1801300E+04  0.7818608E-02  0.8705608E-01
          2   -1    0    0  501    0  0.00000000000E+00  0.00000000000E+00  0.21764144828E+04  0.21764144828E+04  0.00000000000E+00 0. -1.
         -2   -1    0    0    0  501 -0.00000000000E+00 -0.00000000000E+00 -0.37270972709E+03  0.37270972709E+03  0.00000000000E+00 0.  1.
         23    2    1    2    0    0  0.84892702976E+02  0.66027385959E+03  0.80038391714E+03  0.10449925365E+04  0.90700858734E+02 0.  0.
        254    2    1    2    0    0 -0.84892702976E+02 -0.66027385959E+03  0.10033208385E+04  0.15041316734E+04  0.90143832022E+03 0.  0.
        -24    2    4    4    0    0 -0.26060104666E+03 -0.82333485283E+03  0.78983250527E+03  0.11730371539E+04  0.79922415980E+02 0.  0.
         24    2    4    4    0    0  0.17570834368E+03  0.16306099325E+03  0.21348833326E+03  0.33109451951E+03  0.81141868663E+02 0.  0.
         11    1    3    3    0    0  0.52296401135E+02  0.55957285627E+03  0.62847635845E+03  0.84311282055E+03  0.00000000000E+00 0. -1.
        -11    1    3    3    0    0  0.32596301840E+02  0.10070100332E+03  0.17190755868E+03  0.20187971591E+03  0.00000000000E+00 0.  1.
          4    1    6    6  502    0  0.15755568795E+03  0.10275435835E+03  0.14108220573E+03  0.23513069076E+03  0.00000000000E+00 0. -1.
          1    1    5    5  503    0 -0.24361470917E+03 -0.66840061602E+03  0.64989019894E+03  0.96356877320E+03  0.00000000000E+00 0. -1.
         -2    1    5    5    0  503 -0.16986337488E+02 -0.15493423681E+03  0.13994230634E+03  0.20946838067E+03  0.00000000000E+00 0.  1.
         -3    1    6    6    0  502  0.18152655732E+02  0.60306634893E+02  0.72406127539E+02  0.95963828745E+02  0.00000000000E+00 0.  1.
<mgrwt>
<rscale>  0 0.18013005E+04</rscale>
<asrwt>0</asrwt>
<pdfrwt beam="1">  1        2 0.33483299E+00 0.18013005E+04</pdfrwt>
<pdfrwt beam="2">  1       -2 0.57339959E-01 0.18013005E+04</pdfrwt>
<totfact> 0.14325070E+01</totfact>
</mgrwt>
</event>
<event>
12    1  0.1532786E-007  0.1230865E+04  0.7818608E-02  0.9086262E-01
          2   -1    0    0  501    0  0.00000000000E+00  0.00000000000E+00  0.61700700640E+03  0.61700700640E+03  0.00000000000E+00 0. -1.
         -2   -1    0    0    0  501 -0.00000000000E+00 -0.00000000000E+00 -0.61386157048E+03  0.61386157048E+03  0.00000000000E+00 0.  1.
         23    2    1    2    0    0 -0.13585392200E+03  0.13997246620E+03 -0.19202225928E+03  0.28900290343E+03  0.92744545477E+02 0.  0.
        254    2    1    2    0    0  0.13585392200E+03 -0.13997246620E+03  0.19516769520E+03  0.94186567345E+03  0.90053980376E+03 0.  0.
        -24    2    4    4    0    0 -0.14935793151E+03 -0.44891492894E+03  0.18081330436E+03  0.51351988808E+03  0.84716109977E+02 0.  0.
         24    2    4    4    0    0  0.28521185350E+03  0.30894246274E+03  0.14354390839E+02  0.42834578537E+03  0.80515940326E+02 0.  0.
         11    1    3    3    0    0 -0.43128916645E+02  0.10673916898E+02 -0.88937289915E+02  0.99417692039E+02  0.00000000000E+00 0. -1.
        -11    1    3    3    0    0 -0.92725005352E+02  0.12929854930E+03 -0.10308496937E+03  0.18958521139E+03  0.00000000000E+00 0.  1.
          4    1    6    6  502    0  0.17249211752E+03  0.12777735857E+03  0.32755092052E+01  0.21468887473E+03  0.00000000000E+00 0. -1.
          1    1    5    5  503    0 -0.30967407560E+02 -0.98254902979E+02  0.78536973881E+02  0.12954174060E+03  0.00000000000E+00 0. -1.
         -4    1    5    5    0  503 -0.11839052395E+03 -0.35066002596E+03  0.10227633048E+03  0.38397814748E+03  0.00000000000E+00 0.  1.
         -3    1    6    6    0  502  0.11271973598E+03  0.18116510417E+03  0.11078881633E+02  0.21365691064E+03  0.00000000000E+00 0.  1.
<mgrwt>
<rscale>  0 0.12308646E+04</rscale>
<asrwt>0</asrwt>
<pdfrwt beam="1">  1        2 0.94924155E-01 0.12308646E+04</pdfrwt>
<pdfrwt beam="2">  1       -2 0.94440242E-01 0.12308646E+04</pdfrwt>
<totfact> 0.44625197E+01</totfact>
</mgrwt>
</event>
<event>
12    1  0.1532786E-007  0.1113698E+04  0.7818608E-02  0.9191942E-01
         -1   -1    0    0    0  501 -0.00000000000E+00  0.00000000000E+00  0.32201333321E+03  0.32201333321E+03  0.00000000000E+00 0.  1.
          1   -1    0    0  501    0  0.00000000000E+00 -0.00000000000E+00 -0.96294465413E+03  0.96294465413E+03  0.00000000000E+00 0. -1.
         23    2    1    2    0    0 -0.85065427908E+01  0.13489057633E+03 -0.23543609846E+03  0.28744136957E+03  0.94469866227E+02 0.  0.
        254    2    1    2    0    0  0.85065427908E+01 -0.13489057633E+03 -0.40549522246E+03  0.99751661778E+03  0.90130194633E+03 0.  0.
        -24    2    4    4    0    0 -0.32369752165E+02  0.33605395962E+03 -0.38419784625E+03  0.51716923979E+03  0.76654894767E+02 0.  0.
         24    2    4    4    0    0  0.40876294956E+02 -0.47094453595E+03 -0.21297376206E+02  0.48034737798E+03  0.82585700168E+02 0.  0.
         13    1    3    3    0    0 -0.17010796885E+01  0.13007425305E+03 -0.24335556662E+03  0.27594227074E+03  0.00000000000E+00 0.  1.
        -13    1    3    3    0    0 -0.68054631023E+01  0.48163232796E+01  0.79194681519E+01  0.11499098825E+02  0.00000000000E+00 0. -1.
          4    1    6    6  502    0 -0.10833753128E+02 -0.30366186816E+03  0.87627059166E+00  0.30385632827E+03  0.00000000000E+00 0. -1.
          3    1    5    5  503    0 -0.21645525154E+01  0.28689934240E+03 -0.33731358444E+03  0.44282770036E+03  0.00000000000E+00 0. -1.
         -4    1    5    5    0  503 -0.30205199649E+02  0.49154617215E+02 -0.46884261818E+02  0.74341539435E+02  0.00000000000E+00 0.  1.
         -3    1    6    6    0  502  0.51710048084E+02 -0.16728266779E+03 -0.22173646798E+02  0.17649104971E+03  0.00000000000E+00 0.  1.
<mgrwt>
<rscale>  0 0.11136984E+04</rscale>
<asrwt>0</asrwt>
<pdfrwt beam="1">  1        1 0.14814533E+00 0.11136984E+04</pdfrwt>
<pdfrwt beam="2">  1       -1 0.49540513E-01 0.11136984E+04</pdfrwt>
<totfact> 0.65802350E+01</totfact>
</mgrwt>
</event>
<event>
12    1  0.1532786E-007  0.1005597E+04  0.7818608E-02  0.9302427E-01
         -1   -1    0    0    0  501 -0.00000000000E+00  0.00000000000E+00  0.31916511040E+03  0.31916511040E+03  0.00000000000E+00 0.  1.
          1   -1    0    0  501    0  0.00000000000E+00 -0.00000000000E+00 -0.79208641321E+03  0.79208641321E+03  0.00000000000E+00 0. -1.
         23    2    1    2    0    0 -0.40110922268E+02  0.48713280564E+02 -0.66996759568E+02  0.12930334831E+03  0.90823566891E+02 0.  0.
        254    2    1    2    0    0  0.40110922268E+02 -0.48713280564E+02 -0.40592454324E+03  0.98194817530E+03  0.89188879037E+03 0.  0.
        -24    2    4    4    0    0 -0.15642381289E+03 -0.25800019914E+03  0.15363001375E+03  0.34802159871E+03  0.80525400033E+02 0.  0.
         24    2    4    4    0    0  0.19653473516E+03  0.20928691858E+03 -0.55955455699E+03  0.63392657659E+03  0.79590739741E+02 0.  0.
         11    1    3    3    0    0  0.25933562522E+02 -0.11168202327E+01 -0.26840160797E+02  0.37338869615E+02  0.00000000000E+00 0.  1.
        -11    1    3    3    0    0 -0.66044484789E+02  0.49830100797E+02 -0.40156598771E+02  0.91964478694E+02  0.00000000000E+00 0. -1.
          2    1    6    6  502    0  0.19368926292E+03  0.20994905123E+03 -0.51207601205E+03  0.58635823248E+03  0.00000000000E+00 0. -1.
          3    1    5    5  503    0 -0.94013366167E+02 -0.17519835573E+03  0.58374720302E+02  0.20722110133E+03  0.00000000000E+00 0. -1.
         -4    1    5    5    0  503 -0.62410446724E+02 -0.82801843415E+02  0.95255293444E+02  0.14080049738E+03  0.00000000000E+00 0.  1.
         -1    1    6    6    0  502  0.28454722394E+01 -0.66213265245E+00 -0.47478544941E+02  0.47568344113E+02  0.00000000000E+00 0.  1.
<mgrwt>
<rscale>  0 0.10055970E+04</rscale>
<asrwt>0</asrwt>
<pdfrwt beam="1">  1        1 0.12185945E+00 0.10055970E+04</pdfrwt>
<pdfrwt beam="2">  1       -1 0.49102325E-01 0.10055970E+04</pdfrwt>
<totfact> 0.93512906E+01</totfact>
</mgrwt>
</event>
<event>
12    1  0.1532786E-007  0.2416030E+04  0.7818608E-02  0.8433527E-01
         -1   -1    0    0    0  501 -0.00000000000E+00  0.00000000000E+00  0.52888700175E+03  0.52888700175E+03  0.00000000000E+00 0.  1.
          1   -1    0    0  501    0  0.00000000000E+00 -0.00000000000E+00 -0.27591902301E+04  0.27591902301E+04  0.00000000000E+00 0. -1.
         23    2    1    2    0    0 -0.47120693904E+03  0.88806043974E+03 -0.13108989321E+04  0.16545522301E+04  0.91650138655E+02 0.  0.
        254    2    1    2    0    0  0.47120693904E+03 -0.88806043974E+03 -0.91940429627E+03  0.16335250018E+04  0.90133919661E+03 0.  0.
        -24    2    4    4    0    0  0.25732626871E+03 -0.53691810932E+03 -0.10371894911E+04  0.11985836548E+04  0.79642152571E+02 0.  0.
         24    2    4    4    0    0  0.21388067034E+03 -0.35114233042E+03  0.11778519481E+03  0.43494134696E+03  0.79086951048E+02 0.  0.
         11    1    3    3    0    0 -0.68091554776E+02  0.18407957154E+03 -0.29824331534E+03  0.35703056400E+03  0.00000000000E+00 0. -1.
        -11    1    3    3    0    0 -0.40311538427E+03  0.70398086820E+03 -0.10126556167E+04  0.12975216661E+04  0.00000000000E+00 0.  1.
          2    1    6    6  502    0  0.59947141329E+01 -0.24247874480E+02 -0.10156473335E+02  0.26963864058E+02  0.00000000000E+00 0. -1.
          3    1    5    5  503    0  0.30745366014E+01  0.24536834165E+00 -0.22148824189E+02  0.22362544441E+02  0.00000000000E+00 0. -1.
         -4    1    5    5    0  503  0.25425173211E+03 -0.53716347766E+03 -0.10150406669E+04  0.11762211104E+04  0.00000000000E+00 0.  1.
         -1    1    6    6    0  502  0.20788595620E+03 -0.32689445594E+03  0.12794166814E+03  0.40797748290E+03  0.00000000000E+00 0.  1.
<mgrwt>
<rscale>  0 0.24160297E+04</rscale>
<asrwt>0</asrwt>
<pdfrwt beam="1">  1        1 0.42449080E+00 0.24160297E+04</pdfrwt>
<pdfrwt beam="2">  1       -1 0.81367231E-01 0.24160297E+04</pdfrwt>
<totfact> 0.11994839E+00</totfact>
</mgrwt>
</event>
<event>
12    1  0.1532786E-007  0.2300575E+04  0.7818608E-02  0.8477694E-01
          2   -1    0    0  501    0  0.00000000000E+00  0.00000000000E+00  0.58468719276E+03  0.58468719276E+03  0.00000000000E+00 0. -1.
         -2   -1    0    0    0  501 -0.00000000000E+00 -0.00000000000E+00 -0.22630250835E+04  0.22630250835E+04  0.00000000000E+00 0.  1.
         23    2    1    2    0    0  0.89070246157E+03 -0.38266803629E+03 -0.80564313066E+03  0.12638973523E+04  0.92682049185E+02 0.  0.
        254    2    1    2    0    0 -0.89070246157E+03  0.38266803629E+03 -0.87269476005E+03  0.15838149239E+04  0.89838069205E+03 0.  0.
        -24    2    4    4    0    0 -0.22177453114E+03  0.35972497978E+01  0.16650261518E+03  0.28853692555E+03  0.79583626916E+02 0.  0.
         24    2    4    4    0    0 -0.66892793043E+03  0.37907078650E+03 -0.10391973752E+04  0.12952779983E+04  0.81576166838E+02 0.  0.
         13    1    3    3    0    0  0.40209862533E+03 -0.17869987684E+03 -0.42545494246E+03  0.61206932494E+03  0.00000000000E+00 0. -1.
        -13    1    3    3    0    0  0.48860383624E+03 -0.20396815945E+03 -0.38018818820E+03  0.65182802741E+03  0.00000000000E+00 0.  1.
          2    1    6    6  502    0 -0.20739190025E+02  0.10026528708E+02 -0.60616601103E+02  0.64846107131E+02  0.00000000000E+00 0. -1.
          1    1    5    5  503    0 -0.40108066552E+02  0.29343877525E+02  0.53635638868E+02  0.73119777813E+02  0.00000000000E+00 0. -1.
         -2    1    5    5    0  503 -0.18166646459E+03 -0.25746627728E+02  0.11286697632E+03  0.21541714773E+03  0.00000000000E+00 0.  1.
         -1    1    6    6    0  502 -0.64818874041E+03  0.36904425779E+03 -0.97858077413E+03  0.12304318912E+04  0.00000000000E+00 0.  1.
<mgrwt>
<rscale>  0 0.23005754E+04</rscale>
<asrwt>0</asrwt>
<pdfrwt beam="1">  1        2 0.89951874E-01 0.23005754E+04</pdfrwt>
<pdfrwt beam="2">  1       -2 0.34815771E+00 0.23005754E+04</pdfrwt>
<totfact> 0.74205821E-01</totfact>
</mgrwt>
</event>
<event>
12    1  0.1532786E-007  0.2680340E+04  0.7818608E-02  0.8341412E-01
         -2   -1    0    0    0  501 -0.00000000000E+00  0.00000000000E+00  0.46654058235E+03  0.46654058235E+03  0.00000000000E+00 0.  1.
          2   -1    0    0  501    0  0.00000000000E+00 -0.00000000000E+00 -0.38497306503E+04  0.38497306503E+04  0.00000000000E+00 0. -1.
         23    2    1    2    0    0 -0.49343088110E+03 -0.13604474020E+03  0.22163669901E+03  0.56563300369E+03  0.93998206138E+02 0.  0.
        254    2    1    2    0    0  0.49343088110E+03  0.13604474020E+03 -0.36048267670E+04  0.37506382290E+04  0.90029378484E+03 0.  0.
        -24    2    4    4    0    0  0.12577458393E+03  0.43517473174E+03 -0.98468085325E+03  0.10867779905E+04  0.79332999451E+02 0.  0.
         24    2    4    4    0    0  0.36765629717E+03 -0.29912999154E+03 -0.26201459137E+04  0.26638602385E+04  0.79604372895E+02 0.  0.
         11    1    3    3    0    0 -0.20134603727E+03 -0.77966457272E+02  0.13822482606E+03  0.25636906546E+03  0.00000000000E+00 0. -1.
        -11    1    3    3    0    0 -0.29208484383E+03 -0.58078282930E+02  0.83411872949E+02  0.30926393823E+03  0.00000000000E+00 0.  1.
          4    1    6    6  502    0  0.31325804294E+03 -0.21615713219E+03 -0.21380039309E+04  0.21716158307E+04  0.00000000000E+00 0. -1.
          3    1    5    5  503    0  0.10514368468E+03  0.23756336256E+03 -0.59960719829E+03  0.65346793181E+03  0.00000000000E+00 0. -1.
         -4    1    5    5    0  503  0.20630899248E+02  0.19761136918E+03 -0.38507365496E+03  0.43331005870E+03  0.00000000000E+00 0.  1.
         -3    1    6    6    0  502  0.54398254232E+02 -0.82972859342E+02 -0.48214198277E+03  0.49224440779E+03  0.00000000000E+00 0.  1.
<mgrwt>
<rscale>  0 0.26803400E+04</rscale>
<asrwt>0</asrwt>
<pdfrwt beam="1">  1        2 0.59226626E+00 0.26803400E+04</pdfrwt>
<pdfrwt beam="2">  1       -2 0.71775473E-01 0.26803400E+04</pdfrwt>
<totfact> 0.69631911E-01</totfact>
</mgrwt>
</event>
<event>
12    1  0.1532786E-007  0.1510283E+04  0.7818608E-02  0.8877643E-01
         -1   -1    0    0    0  501 -0.00000000000E+00  0.00000000000E+00  0.31194097608E+03  0.31194097608E+03  0.00000000000E+00 0.  1.
          1   -1    0    0  501    0  0.00000000000E+00 -0.00000000000E+00 -0.18280347735E+04  0.18280347735E+04  0.00000000000E+00 0. -1.
         23    2    1    2    0    0 -0.45352238131E+03 -0.36613062497E+02 -0.29091620895E+03  0.54757912361E+03  0.90485298756E+02 0.  0.
        254    2    1    2    0    0  0.45352238131E+03  0.36613062497E+02 -0.12251775885E+04  0.15923966260E+04  0.90974931955E+03 0.  0.
        -24    2    4    4    0    0  0.54189241868E+02 -0.32784239352E+03 -0.88447599178E+03  0.94819704678E+03  0.79766851319E+02 0.  0.
         24    2    4    4    0    0  0.39933313944E+03  0.36445545602E+03 -0.34070159673E+03  0.64419957922E+03  0.81368201211E+02 0.  0.
         11    1    3    3    0    0 -0.23934985829E+03  0.19037624135E+02 -0.12286537909E+03  0.26971593793E+03  0.00000000000E+00 0.  1.
        -11    1    3    3    0    0 -0.21417252303E+03 -0.55650686632E+02 -0.16805082986E+03  0.27786318568E+03  0.00000000000E+00 0. -1.
          4    1    6    6  502    0  0.31814717112E+03  0.32590378605E+03 -0.30116083726E+03  0.54601167584E+03  0.00000000000E+00 0. -1.
          3    1    5    5  503    0  0.34467185795E+02 -0.29273482950E+03 -0.82748763224E+03  0.87841758225E+03  0.00000000000E+00 0. -1.
         -4    1    5    5    0  503  0.19722056073E+02 -0.35107564025E+02 -0.56988359546E+02  0.69779464538E+02  0.00000000000E+00 0.  1.
         -3    1    6    6    0  502  0.81185968326E+02  0.38551669968E+02 -0.39540759472E+02  0.98187903379E+02  0.00000000000E+00 0.  1.
<mgrwt>
<rscale>  0 0.15102834E+04</rscale>
<asrwt>0</asrwt>
<pdfrwt beam="1">  1        1 0.28123612E+00 0.15102834E+04</pdfrwt>
<pdfrwt beam="2">  1       -1 0.47990919E-01 0.15102834E+04</pdfrwt>
<totfact> 0.16356339E+01</totfact>
</mgrwt>
</event>
<event>
12    1  0.1532786E-007  0.2964176E+04  0.7818608E-02  0.8254035E-01
         -1   -1    0    0    0  501 -0.00000000000E+00  0.00000000000E+00  0.72979315039E+03  0.72979315039E+03  0.00000000000E+00 0.  1.
          1   -1    0    0  501    0  0.00000000000E+00 -0.00000000000E+00 -0.30098722506E+04  0.30098722506E+04  0.00000000000E+00 0. -1.
         23    2    1    2    0    0  0.76739232132E+03 -0.28912940380E+03 -0.23768347582E+04  0.25159649736E+04  0.90826722219E+02 0.  0.
        254    2    1    2    0    0 -0.76739232132E+03  0.28912940380E+03  0.96755657964E+02  0.12237004274E+04  0.90310259207E+03 0.  0.
        -24    2    4    4    0    0 -0.62665507939E+03  0.46064762614E+03 -0.23509928304E+03  0.81645530704E+03  0.80217027479E+02 0.  0.
         24    2    4    4    0    0 -0.14073724193E+03 -0.17151822235E+03  0.33185494100E+03  0.40724512041E+03  0.80594133565E+02 0.  0.
         11    1    3    3    0    0  0.48829322224E+03 -0.16880358984E+03 -0.16197437954E+04  0.17001455484E+04  0.00000000000E+00 0.  1.
        -11    1    3    3    0    0  0.27909909908E+03 -0.12032581395E+03 -0.75709096276E+03  0.81581942519E+03  0.00000000000E+00 0. -1.
          4    1    6    6  502    0 -0.15024018568E+03 -0.15837307335E+03  0.31902904206E+03  0.38656651877E+03  0.00000000000E+00 0. -1.
          3    1    5    5  503    0 -0.42167937414E+03  0.35124978935E+03 -0.18114962839E+03  0.57793174074E+03  0.00000000000E+00 0. -1.
         -4    1    5    5    0  503 -0.20497570525E+03  0.10939783679E+03 -0.53949654651E+02  0.23852356629E+03  0.00000000000E+00 0.  1.
         -3    1    6    6    0  502  0.95029437525E+01 -0.13145148991E+02  0.12825898947E+02  0.20678601639E+02  0.00000000000E+00 0.  1.
<mgrwt>
<rscale>  0 0.29641755E+04</rscale>
<asrwt>0</asrwt>
<pdfrwt beam="1">  1        1 0.46305726E+00 0.29641755E+04</pdfrwt>
<pdfrwt beam="2">  1       -1 0.11227587E+00 0.29641755E+04</pdfrwt>
<totfact> 0.36455399E-01</totfact>
</mgrwt>
</event>
<event>
12    1  0.1532786E-007  0.1713963E+04  0.7818608E-02  0.8753441E-01
          2   -1    0    0  501    0  0.00000000000E+00  0.00000000000E+00  0.11428787281E+04  0.11428787281E+04  0.00000000000E+00 0. -1.
         -2   -1    0    0    0  501 -0.00000000000E+00 -0.00000000000E+00 -0.64260264305E+03  0.64260264305E+03  0.00000000000E+00 0.  1.
         23    2    1    2    0    0 -0.57158971065E+03 -0.18209909897E+03  0.32679809018E+03  0.68925395493E+03  0.91646841059E+02 0.  0.
        254    2    1    2    0    0  0.57158971065E+03  0.18209909897E+03  0.17347799491E+03  0.10962274163E+04  0.90096895299E+03 0.  0.
        -24    2    4    4    0    0  0.24908804690E+03 -0.13393568885E+03 -0.31193422748E+03  0.42878377901E+03  0.81049016101E+02 0.  0.
         24    2    4    4    0    0  0.32250166375E+03  0.31603478782E+03  0.48541222239E+03  0.66744363724E+03  0.77270130110E+02 0.  0.
         11    1    3    3    0    0 -0.47144979335E+03 -0.13191229289E+03  0.29970712374E+03  0.57401230012E+03  0.00000000000E+00 0. -1.
        -11    1    3    3    0    0 -0.10013991730E+03 -0.50186806078E+02  0.27090966435E+02  0.11524165481E+03  0.00000000000E+00 0.  1.
          4    1    6    6  502    0  0.13363476147E+02  0.36254427862E+02  0.63074265405E+02  0.73968432394E+02  0.00000000000E+00 0. -1.
          1    1    5    5  503    0  0.59449834017E+02  0.33514382968E+01 -0.74017021837E+02  0.94994917890E+02  0.00000000000E+00 0. -1.
         -2    1    5    5    0  503  0.18963821288E+03 -0.13728712715E+03 -0.23791720564E+03  0.33378886112E+03  0.00000000000E+00 0.  1.
         -3    1    6    6    0  502  0.30913818761E+03  0.27978035996E+03  0.42233795699E+03  0.59347520485E+03  0.00000000000E+00 0.  1.
<mgrwt>
<rscale>  0 0.17139625E+04</rscale>
<asrwt>0</asrwt>
<pdfrwt beam="1">  1        2 0.17582750E+00 0.17139625E+04</pdfrwt>
<pdfrwt beam="2">  1       -2 0.98861945E-01 0.17139625E+04</pdfrwt>
<totfact> 0.16544729E+01</totfact>
</mgrwt>
</event>
<event>
12    1  0.1532786E-007  0.2496005E+04  0.7818608E-02  0.8404410E-01
         -1   -1    0    0    0  501 -0.00000000000E+00  0.00000000000E+00  0.13879930462E+04  0.13879930462E+04  0.00000000000E+00 0.  1.
          1   -1    0    0  501    0  0.00000000000E+00 -0.00000000000E+00 -0.11221311003E+04  0.11221311003E+04  0.00000000000E+00 0. -1.
         23    2    1    2    0    0  0.10576479156E+04 -0.21471819895E+03  0.22013910591E+03  0.11051678942E+04  0.90619148804E+02 0.  0.
        254    2    1    2    0    0 -0.10576479156E+04  0.21471819895E+03  0.45722839957E+02  0.14049562524E+04  0.89838102985E+03 0.  0.
        -24    2    4    4    0    0 -0.89817889562E+03  0.52726849321E+02 -0.32711533783E+03  0.96084501791E+03  0.81934455692E+02 0.  0.
         24    2    4    4    0    0 -0.15946901993E+03  0.16199134963E+03  0.37283817779E+03  0.44411123448E+03  0.80962436329E+02 0.  0.
         11    1    3    3    0    0  0.21661673947E+03 -0.25037120634E+02  0.76739870316E+02  0.23116807073E+03  0.00000000000E+00 0.  1.
        -11    1    3    3    0    0  0.84103117608E+03 -0.18968107832E+03  0.14339923559E+03  0.87399982345E+03  0.00000000000E+00 0. -1.
          2    1    6    6  502    0 -0.26329105138E+01  0.38890024127E+02  0.38175715373E+02  0.54559613622E+02  0.00000000000E+00 0. -1.
          3    1    5    5  503    0 -0.18858965006E+03  0.38579683640E+02 -0.49560000385E+02  0.19877283953E+03  0.00000000000E+00 0. -1.
         -4    1    5    5    0  503 -0.70958924556E+03  0.14147165681E+02 -0.27755533745E+03  0.76207217838E+03  0.00000000000E+00 0.  1.
         -1    1    6    6    0  502 -0.15683610942E+03  0.12310132550E+03  0.33466246242E+03  0.38955162085E+03  0.00000000000E+00 0.  1.
<mgrwt>
<rscale>  0 0.24960049E+04</rscale>
<asrwt>0</asrwt>
<pdfrwt beam="1">  1        1 0.17263555E+00 0.24960049E+04</pdfrwt>
<pdfrwt beam="2">  1       -1 0.21353739E+00 0.24960049E+04</pdfrwt>
<totfact> 0.13192238E+00</totfact>
</mgrwt>
</event>
<event>
12    1  0.1532786E-007  0.2203663E+04  0.7818608E-02  0.8516905E-01
         -3   -1    0    0    0  501 -0.00000000000E+00  0.00000000000E+00  0.13609704232E+04  0.13609704232E+04  0.00000000000E+00 0.  1.
          3   -1    0    0  501    0  0.00000000000E+00 -0.00000000000E+00 -0.89203457288E+03  0.89203457288E+03  0.00000000000E+00 0. -1.
         23    2    1    2    0    0 -0.69409021237E+03  0.41929358690E+02 -0.40245774429E+03  0.80842428435E+03  0.89767998558E+02 0.  0.
        254    2    1    2    0    0  0.69409021237E+03 -0.41929358690E+02  0.87139359462E+03  0.14445807117E+04  0.91867695189E+03 0.  0.
        -24    2    4    4    0    0  0.91124523159E+03  0.41775377399E+01  0.66273492333E+03  0.11296145978E+04  0.80163813931E+02 0.  0.
         24    2    4    4    0    0 -0.21715501922E+03 -0.46106896430E+02  0.20865867129E+03  0.31496611393E+03  0.79894077054E+02 0.  0.
         13    1    3    3    0    0 -0.51381827440E+03 -0.43466037373E+00 -0.32304021881E+03  0.60693030160E+03  0.00000000000E+00 0.  1.
        -13    1    3    3    0    0 -0.18027193797E+03  0.42364019063E+02 -0.79417525483E+02  0.20149398275E+03  0.00000000000E+00 0. -1.
          4    1    6    6  502    0 -0.75333416297E+02  0.35130651479E+01  0.11625780868E+03  0.13857612823E+03  0.00000000000E+00 0. -1.
          3    1    5    5  503    0 -0.50220603217E+00  0.25554136096E+01  0.29312429036E+00  0.26207387250E+01  0.00000000000E+00 0. -1.
         -4    1    5    5    0  503  0.91174743762E+03  0.16221241303E+01  0.66244179903E+03  0.11269938591E+04  0.00000000000E+00 0.  1.
         -3    1    6    6    0  502 -0.14182160292E+03 -0.49619961577E+02  0.92400862617E+02  0.17638998570E+03  0.00000000000E+00 0.  1.
<mgrwt>
<rscale>  0 0.22036630E+04</rscale>
<asrwt>0</asrwt>
<pdfrwt beam="1">  1        3 0.13723609E+00 0.22036630E+04</pdfrwt>
<pdfrwt beam="2">  1       -3 0.20938006E+00 0.22036630E+04</pdfrwt>
<totfact> 0.12389528E-01</totfact>
</mgrwt>
</event>
<event>
12    1  0.1532786E-007  0.1683282E+04  0.7818608E-02  0.8770957E-01
         -2   -1    0    0    0  501 -0.00000000000E+00  0.00000000000E+00  0.43303111071E+03  0.43303111071E+03  0.00000000000E+00 0.  1.
          2   -1    0    0  501    0  0.00000000000E+00 -0.00000000000E+00 -0.16358174605E+04  0.16358174605E+04  0.00000000000E+00 0. -1.
         23    2    1    2    0    0 -0.34832741451E+02  0.16231041534E+03 -0.11415806392E+04  0.11571013675E+04  0.90106758108E+02 0.  0.
        254    2    1    2    0    0  0.34832741451E+02 -0.16231041534E+03 -0.61205710493E+02  0.91174720371E+03  0.89441535858E+03 0.  0.
        -24    2    4    4    0    0  0.12538965501E+03  0.31917143657E+03  0.13548061742E+03  0.37632870097E+03  0.75334732853E+02 0.  0.
         24    2    4    4    0    0 -0.90556913555E+02 -0.48148185191E+03 -0.19668632791E+03  0.53541850274E+03  0.89230786013E+02 0.  0.
         11    1    3    3    0    0 -0.62010589303E+02  0.11536361715E+03 -0.69452452518E+03  0.70676615187E+03  0.00000000000E+00 0. -1.
        -11    1    3    3    0    0  0.27177847852E+02  0.46946798193E+02 -0.44705611407E+03  0.45033521559E+03  0.00000000000E+00 0.  1.
          4    1    6    6  502    0 -0.96188457575E+02 -0.36645103324E+03 -0.12145931404E+03  0.39785794462E+03  0.00000000000E+00 0. -1.
          3    1    5    5  503    0  0.24262496830E+02  0.95622742654E+02  0.74174994039E+02  0.12342733654E+03  0.00000000000E+00 0. -1.
         -4    1    5    5    0  503  0.10112715818E+03  0.22354869391E+03  0.61305623377E+02  0.25290136443E+03  0.00000000000E+00 0.  1.
         -3    1    6    6    0  502  0.56315440197E+01 -0.11503081867E+03 -0.75227013871E+02  0.13756055812E+03  0.00000000000E+00 0.  1.
<mgrwt>
<rscale>  0 0.16832823E+04</rscale>
<asrwt>0</asrwt>
<pdfrwt beam="1">  1        2 0.25166423E+00 0.16832823E+04</pdfrwt>
<pdfrwt beam="2">  1       -2 0.66620170E-01 0.16832823E+04</pdfrwt>
<totfact> 0.21002881E+01</totfact>
</mgrwt>
</event>
<event>
12    1  0.1532786E-007  0.2343778E+04  0.7818608E-02  0.8460857E-01
          1   -1    0    0  501    0  0.00000000000E+00  0.00000000000E+00  0.16275323488E+04  0.16275323488E+04  0.00000000000E+00 0. -1.
         -1   -1    0    0    0  501 -0.00000000000E+00 -0.00000000000E+00 -0.84380742897E+03  0.84380742897E+03  0.00000000000E+00 0.  1.
         23    2    1    2    0    0  0.34584441490E+03  0.10039462552E+02 -0.65055286215E+03  0.74230653376E+03  0.89948949344E+02 0.  0.
        254    2    1    2    0    0 -0.34584441490E+03 -0.10039462552E+02  0.14342777820E+04  0.17290332440E+04  0.90149545361E+03 0.  0.
        -24    2    4    4    0    0  0.17834192038E+03 -0.29379888610E+03  0.65138528152E+03  0.74176553565E+03  0.88259270713E+02 0.  0.
         24    2    4    4    0    0 -0.52418633527E+03  0.28375942355E+03  0.78289250044E+03  0.98726770834E+03  0.80536551531E+02 0.  0.
         11    1    3    3    0    0  0.11567922854E+03 -0.36450953339E+02 -0.25340331303E+03  0.28093343513E+03  0.00000000000E+00 0. -1.
        -11    1    3    3    0    0  0.23016518636E+03  0.46490415891E+02 -0.39714954912E+03  0.46137309864E+03  0.00000000000E+00 0.  1.
          4    1    6    6  502    0 -0.20644253130E+03  0.87549650769E+02  0.34860154005E+03  0.41449546898E+03  0.00000000000E+00 0. -1.
          3    1    5    5  503    0  0.84700402015E+01 -0.64576711511E+01  0.96778007958E+00  0.10694844365E+02  0.00000000000E+00 0. -1.
         -4    1    5    5    0  503  0.16987188017E+03 -0.28734121495E+03  0.65041750144E+03  0.73107069129E+03  0.00000000000E+00 0.  1.
         -3    1    6    6    0  502 -0.31774380397E+03  0.19620977278E+03  0.43429096039E+03  0.57277223935E+03  0.00000000000E+00 0.  1.
<mgrwt>
<rscale>  0 0.23437780E+04</rscale>
<asrwt>0</asrwt>
<pdfrwt beam="1">  1        1 0.25038959E+00 0.23437780E+04</pdfrwt>
<pdfrwt beam="2">  1       -1 0.12981653E+00 0.23437780E+04</pdfrwt>
<totfact> 0.24484162E+00</totfact>
</mgrwt>
</event>
<event>
12    1  0.1532786E-007  0.1525554E+04  0.7818608E-02  0.8867635E-01
          2   -1    0    0  501    0  0.00000000000E+00  0.00000000000E+00  0.24588325329E+03  0.24588325329E+03  0.00000000000E+00 0. -1.
         -2   -1    0    0    0  501 -0.00000000000E+00 -0.00000000000E+00 -0.23662819718E+04  0.23662819718E+04  0.00000000000E+00 0.  1.
         23    2    1    2    0    0  0.16605728947E+03  0.20107370983E+03 -0.12852824990E+04  0.13146680536E+04  0.91626026161E+02 0.  0.
        254    2    1    2    0    0 -0.16605728947E+03 -0.20107370983E+03 -0.83511621953E+03  0.12974971715E+04  0.95816185994E+03 0.  0.
        -24    2    4    4    0    0 -0.76993494526E+01 -0.20724475906E+03 -0.10185180121E+04  0.10424771696E+04  0.79812517756E+02 0.  0.
         24    2    4    4    0    0 -0.15835794001E+03  0.61710492336E+01  0.18340179259E+03  0.25502000193E+03  0.79269570756E+02 0.  0.
         13    1    3    3    0    0  0.57831320482E+02  0.39006394197E+02 -0.53333171827E+03  0.53787422520E+03  0.00000000000E+00 0.  1.
        -13    1    3    3    0    0  0.10822596898E+03  0.16206731563E+03 -0.75195078074E+03  0.77679382838E+03  0.00000000000E+00 0. -1.
          2    1    6    6  502    0 -0.56109489363E+02  0.67295135354E+01  0.15780611550E+02  0.58673578806E+02  0.00000000000E+00 0. -1.
          3    1    5    5  503    0  0.15922872086E+02 -0.82643020697E+01 -0.42998444672E+02  0.46590801543E+02  0.00000000000E+00 0. -1.
         -4    1    5    5    0  503 -0.23622221539E+02 -0.19898045699E+03 -0.97551956745E+03  0.99588636806E+03  0.00000000000E+00 0.  1.
         -1    1    6    6    0  502 -0.10224845065E+03 -0.55846430180E+00  0.16762118104E+03  0.19634642313E+03  0.00000000000E+00 0.  1.
<mgrwt>
<rscale>  0 0.15255545E+04</rscale>
<asrwt>0</asrwt>
<pdfrwt beam="1">  1        2 0.37828192E-01 0.15255545E+04</pdfrwt>
<pdfrwt beam="2">  1       -2 0.36404339E+00 0.15255545E+04</pdfrwt>
<totfact> 0.16885048E+00</totfact>
</mgrwt>
</event>
<event>
12    1  0.1532786E-007  0.1981902E+04  0.7818608E-02  0.8615129E-01
          2   -1    0    0  501    0  0.00000000000E+00  0.00000000000E+00  0.28994640437E+04  0.28994640437E+04  0.00000000000E+00 0. -1.
         -2   -1    0    0    0  501 -0.00000000000E+00 -0.00000000000E+00 -0.33867778559E+03  0.33867778559E+03  0.00000000000E+00 0.  1.
         23    2    1    2    0    0 -0.30054413383E+03 -0.17230320856E+03  0.21691404058E+04  0.21985957606E+04  0.92941090422E+02 0.  0.
        254    2    1    2    0    0  0.30054413383E+03  0.17230320856E+03  0.39164585231E+03  0.10395460687E+04  0.89847336259E+03 0.  0.
        -24    2    4    4    0    0 -0.73555924638E+02  0.21572739192E+03 -0.21319537050E+03  0.32240679848E+03  0.80901767780E+02 0.  0.
         24    2    4    4    0    0  0.37410005846E+03 -0.43424183367E+02  0.60484122281E+03  0.71713927023E+03  0.81359170613E+02 0.  0.
         13    1    3    3    0    0 -0.30264909578E+03 -0.17792299500E+03  0.21516766903E+04  0.21801297317E+04  0.00000000000E+00 0. -1.
        -13    1    3    3    0    0  0.21049619570E+01  0.56197864422E+01  0.17463715503E+02  0.18466028909E+02  0.00000000000E+00 0.  1.
          2    1    6    6  502    0  0.29483447558E+03 -0.39439836898E+02  0.53148935024E+03  0.60906797498E+03  0.00000000000E+00 0. -1.
          1    1    5    5  503    0 -0.82950404371E+02  0.19574598171E+03 -0.21209084422E+03  0.30029949241E+03  0.00000000000E+00 0. -1.
         -2    1    5    5    0  503  0.93944797324E+01  0.19981410209E+02 -0.11045262830E+01  0.22107306070E+02  0.00000000000E+00 0.  1.
         -1    1    6    6    0  502  0.79265582883E+02 -0.39843464696E+01  0.73351872573E+02  0.10807129525E+03  0.00000000000E+00 0.  1.
<mgrwt>
<rscale>  0 0.19819022E+04</rscale>
<asrwt>0</asrwt>
<pdfrwt beam="1">  1        2 0.44607137E+00 0.19819022E+04</pdfrwt>
<pdfrwt beam="2">  1       -2 0.52104277E-01 0.19819022E+04</pdfrwt>
<totfact> 0.65183104E+00</totfact>
</mgrwt>
</event>
<event>
12    1  0.1532786E-007  0.1447395E+04  0.7818608E-02  0.8920209E-01
          2   -1    0    0  501    0  0.00000000000E+00  0.00000000000E+00  0.12497998375E+04  0.12497998375E+04  0.00000000000E+00 0. -1.
         -2   -1    0    0    0  501 -0.00000000000E+00 -0.00000000000E+00 -0.41905738370E+03  0.41905738370E+03  0.00000000000E+00 0.  1.
         23    2    1    2    0    0 -0.31767922477E+03 -0.29400705126E+03  0.25799528613E+03  0.51189167039E+03  0.90062636608E+02 0.  0.
        254    2    1    2    0    0  0.31767922477E+03  0.29400705126E+03  0.57274716768E+03  0.11569655508E+04  0.90728701724E+03 0.  0.
        -24    2    4    4    0    0  0.42652892437E+03  0.53881205422E+03  0.53467719095E+03  0.87497182344E+03  0.86317090987E+02 0.  0.
         24    2    4    4    0    0 -0.10884969960E+03 -0.24480500296E+03  0.38069976727E+02  0.28199372737E+03  0.79330905505E+02 0.  0.
         13    1    3    3    0    0 -0.20094243660E+03 -0.18425655548E+03  0.11070368793E+03  0.29425099419E+03  0.00000000000E+00 0.  1.
        -13    1    3    3    0    0 -0.11673678817E+03 -0.10975049578E+03  0.14729159820E+03  0.21764067620E+03  0.00000000000E+00 0. -1.
          4    1    6    6  502    0 -0.39573652871E+02 -0.13094707240E+03  0.55412039829E+02  0.14759303483E+03  0.00000000000E+00 0. -1.
          3    1    5    5  503    0  0.20665147362E+03  0.30414519852E+03  0.24242308393E+03  0.44042943243E+03  0.00000000000E+00 0. -1.
         -4    1    5    5    0  503  0.21987745075E+03  0.23466685570E+03  0.29225410702E+03  0.43454239101E+03  0.00000000000E+00 0.  1.
         -3    1    6    6    0  502 -0.69276046733E+02 -0.11385793056E+03 -0.17342063102E+02  0.13440069254E+03  0.00000000000E+00 0.  1.
<mgrwt>
<rscale>  0 0.14473947E+04</rscale>
<asrwt>0</asrwt>
<pdfrwt beam="1">  1        2 0.19227690E+00 0.14473947E+04</pdfrwt>
<pdfrwt beam="2">  1       -2 0.64470368E-01 0.14473947E+04</pdfrwt>
<totfact> 0.38130693E+01</totfact>
</mgrwt>
</event>
<event>
12    1  0.1532786E-007  0.2155159E+04  0.7818608E-02  0.8537327E-01
          2   -1    0    0  501    0  0.00000000000E+00  0.00000000000E+00  0.15441752069E+04  0.15441752069E+04  0.00000000000E+00 0. -1.
         -2   -1    0    0    0  501 -0.00000000000E+00 -0.00000000000E+00 -0.75197268158E+03  0.75197268158E+03  0.00000000000E+00 0.  1.
         23    2    1    2    0    0  0.63617248113E+03  0.21122765398E+03  0.94306400360E+03  0.11605604750E+04  0.90544761359E+02 0.  0.
        254    2    1    2    0    0 -0.63617248113E+03 -0.21122765398E+03 -0.15086147833E+03  0.11355874134E+04  0.90413883903E+03 0.  0.
        -24    2    4    4    0    0 -0.35804441272E+03 -0.22811632371E+03  0.35033577996E+03  0.55647972550E+03  0.81863713235E+02 0.  0.
         24    2    4    4    0    0 -0.27812806841E+03  0.16888669728E+02 -0.50119725829E+03  0.57910768788E+03  0.80787207232E+02 0.  0.
         13    1    3    3    0    0  0.10664551127E+03  0.35598374686E+02  0.22224284085E+03  0.24906302348E+03  0.00000000000E+00 0.  1.
        -13    1    3    3    0    0  0.52952696987E+03  0.17562927930E+03  0.72082116274E+03  0.91149745157E+03  0.00000000000E+00 0. -1.
          2    1    6    6  502    0 -0.14474152009E+03 -0.22726182049E+02 -0.30740374203E+03  0.34053435598E+03  0.00000000000E+00 0. -1.
          1    1    5    5  503    0 -0.35769185306E+03 -0.22802937222E+03  0.35418152587E+03  0.55261687416E+03  0.00000000000E+00 0. -1.
         -2    1    5    5    0  503 -0.35255966298E+00 -0.86951488267E-01 -0.38457459066E+01  0.38628513375E+01  0.00000000000E+00 0.  1.
         -1    1    6    6    0  502 -0.13338654832E+03  0.39614851777E+02 -0.19379351626E+03  0.23857333191E+03  0.00000000000E+00 0.  1.
<mgrwt>
<rscale>  0 0.21551590E+04</rscale>
<asrwt>0</asrwt>
<pdfrwt beam="1">  1        2 0.23756542E+00 0.21551590E+04</pdfrwt>
<pdfrwt beam="2">  1       -2 0.11568811E+00 0.21551590E+04</pdfrwt>
<totfact> 0.63909493E+00</totfact>
</mgrwt>
</event>
<event>
12    1  0.1532786E-007  0.2976115E+04  0.7818608E-02  0.8250584E-01
         -1   -1    0    0    0  501 -0.00000000000E+00  0.00000000000E+00  0.19968462870E+04  0.19968462870E+04  0.00000000000E+00 0.  1.
          1   -1    0    0  501    0  0.00000000000E+00 -0.00000000000E+00 -0.11089064772E+04  0.11089064772E+04  0.00000000000E+00 0. -1.
         23    2    1    2    0    0  0.32684173391E+03 -0.90713776433E+03  0.13876293892E+04  0.16920649626E+04  0.88566773506E+02 0.  0.
        254    2    1    2    0    0 -0.32684173391E+03  0.90713776433E+03 -0.49968957945E+03  0.14136878016E+04  0.90504092842E+03 0.  0.
        -24    2    4    4    0    0 -0.47419995311E+03  0.42093053246E+03  0.72980081328E+02  0.64331865970E+03  0.80527616121E+02 0.  0.
         24    2    4    4    0    0  0.14735821921E+03  0.48620723187E+03 -0.57266966078E+03  0.77036914191E+03  0.86059034007E+02 0.  0.
         11    1    3    3    0    0  0.59807254041E+02 -0.28200981971E+03  0.39665775566E+03  0.49035071243E+03  0.00000000000E+00 0. -1.
        -11    1    3    3    0    0  0.26703447986E+03 -0.62512794462E+03  0.99097163353E+03  0.12017142502E+04  0.00000000000E+00 0.  1.
          4    1    6    6  502    0  0.51018604624E+02  0.23908015402E+03 -0.33139877204E+03  0.41180986410E+03  0.00000000000E+00 0. -1.
          1    1    5    5  503    0 -0.32838084757E+03  0.32828551452E+03  0.76109298245E+02  0.47052947344E+03  0.00000000000E+00 0. -1.
         -2    1    5    5    0  503 -0.14581910554E+03  0.92645017936E+02 -0.31292169169E+01  0.17278918626E+03  0.00000000000E+00 0.  1.
         -3    1    6    6    0  502  0.96339614585E+02  0.24712707786E+03 -0.24127088874E+03  0.35855927781E+03  0.00000000000E+00 0.  1.
<mgrwt>
<rscale>  0 0.29761154E+04</rscale>
<asrwt>0</asrwt>
<pdfrwt beam="1">  1        1 0.17060100E+00 0.29761154E+04</pdfrwt>
<pdfrwt beam="2">  1       -1 0.30720712E+00 0.29761154E+04</pdfrwt>
<totfact> 0.31564497E-01</totfact>
</mgrwt>
</event>
<event>
12    1  0.1532786E-007  0.1379199E+04  0.7818608E-02  0.8969015E-01
          2   -1    0    0  501    0  0.00000000000E+00  0.00000000000E+00  0.55667453694E+03  0.55667453694E+03  0.00000000000E+00 0. -1.
         -2   -1    0    0    0  501 -0.00000000000E+00 -0.00000000000E+00 -0.85426465772E+03  0.85426465772E+03  0.00000000000E+00 0.  1.
         23    2    1    2    0    0 -0.89737820836E+02 -0.35527190534E+02 -0.46402362642E+03  0.48288107680E+03  0.92418346139E+02 0.  0.
        254    2    1    2    0    0  0.89737820836E+02  0.35527190534E+02  0.16643350565E+03  0.92805811786E+03  0.90789685569E+03 0.  0.
        -24    2    4    4    0    0  0.30639243595E+03  0.35201248381E+03  0.23672305477E+03  0.52902869767E+03  0.77746027096E+02 0.  0.
         24    2    4    4    0    0 -0.21665461511E+03 -0.31648529328E+03 -0.70289549125E+02  0.39902942019E+03  0.84744878032E+02 0.  0.
         11    1    3    3    0    0  0.16142953482E+02  0.13982716603E+01 -0.11886035947E+03  0.11995972309E+03  0.00000000000E+00 0. -1.
        -11    1    3    3    0    0 -0.10588077432E+03 -0.36925462194E+02 -0.34516326695E+03  0.36292135371E+03  0.00000000000E+00 0.  1.
          4    1    6    6  502    0 -0.12264501726E+03 -0.17706033772E+03  0.34450000831E+01  0.21541594991E+03  0.00000000000E+00 0. -1.
          1    1    5    5  503    0  0.25921462191E+02  0.10073373871E+02  0.88459255933E+00  0.27824046565E+02  0.00000000000E+00 0. -1.
         -2    1    5    5    0  503  0.28047097376E+03  0.34193910994E+03  0.23583846221E+03  0.50120465110E+03  0.00000000000E+00 0.  1.
         -3    1    6    6    0  502 -0.94009597853E+02 -0.13942495556E+03 -0.73734549208E+02  0.18361347028E+03  0.00000000000E+00 0.  1.
<mgrwt>
<rscale>  0 0.13791989E+04</rscale>
<asrwt>0</asrwt>
<pdfrwt beam="1">  1        2 0.85642237E-01 0.13791989E+04</pdfrwt>
<pdfrwt beam="2">  1       -2 0.13142533E+00 0.13791989E+04</pdfrwt>
<totfact> 0.22335689E+01</totfact>
</mgrwt>
</event>
<event>
12    1  0.1532786E-007  0.1535181E+04  0.7818608E-02  0.8861389E-01
          1   -1    0    0  501    0  0.00000000000E+00  0.00000000000E+00  0.31150160462E+04  0.31150160462E+04  0.00000000000E+00 0. -1.
         -1   -1    0    0    0  501 -0.00000000000E+00 -0.00000000000E+00 -0.18914678796E+03  0.18914678796E+03  0.00000000000E+00 0.  1.
         23    2    1    2    0    0  0.41547189121E+03  0.69422610379E+02  0.15638820122E+04  0.16217712569E+04  0.83538438389E+02 0.  0.
        254    2    1    2    0    0 -0.41547189121E+03 -0.69422610379E+02  0.13619872460E+04  0.16823915772E+04  0.89330608940E+03 0.  0.
        -24    2    4    4    0    0  0.22796619379E+03 -0.21296055900E+03  0.40596709745E+03  0.51837477856E+03  0.81131631509E+02 0.  0.
         24    2    4    4    0    0 -0.64343808500E+03  0.14353794862E+03  0.95602014859E+03  0.11640167986E+04  0.79654698705E+02 0.  0.
         11    1    3    3    0    0  0.22944649357E+03  0.60587072421E+01  0.94292884408E+03  0.97046236730E+03  0.00000000000E+00 0. -1.
        -11    1    3    3    0    0  0.18602539764E+03  0.63363903137E+02  0.62095316807E+03  0.65130888964E+03  0.00000000000E+00 0.  1.
          2    1    6    6  502    0 -0.51970425009E+03  0.87219997446E+02  0.78642174675E+03  0.94665674839E+03  0.00000000000E+00 0. -1.
          1    1    5    5  503    0  0.21347263181E+03 -0.15993684412E+03  0.32385875358E+03  0.41956507350E+03  0.00000000000E+00 0. -1.
         -2    1    5    5    0  503  0.14493561986E+02 -0.53023714885E+02  0.82108343876E+02  0.98809705056E+02  0.00000000000E+00 0.  1.
         -1    1    6    6    0  502 -0.12373383492E+03  0.56317951175E+02  0.16959840184E+03  0.21736005023E+03  0.00000000000E+00 0.  1.
<mgrwt>
<rscale>  0 0.15351811E+04</rscale>
<asrwt>0</asrwt>
<pdfrwt beam="1">  1        1 0.47923320E+00 0.15351811E+04</pdfrwt>
<pdfrwt beam="2">  1       -1 0.29099508E-01 0.15351811E+04</pdfrwt>
<totfact> 0.51421269E+00</totfact>
</mgrwt>
</event>
<event>
12    1  0.1532786E-007  0.1657009E+04  0.7818608E-02  0.8786271E-01
          1   -1    0    0  501    0  0.00000000000E+00  0.00000000000E+00  0.14400515714E+04  0.14400515714E+04  0.00000000000E+00 0. -1.
         -1   -1    0    0    0  501 -0.00000000000E+00 -0.00000000000E+00 -0.47666310091E+03  0.47666310091E+03  0.00000000000E+00 0.  1.
         23    2    1    2    0    0 -0.30348999396E+03  0.35497241418E+03  0.74060402343E+03  0.87975451052E+03  0.85802610642E+02 0.  0.
        254    2    1    2    0    0  0.30348999396E+03 -0.35497241418E+03  0.22278444711E+03  0.10369601618E+04  0.89863333797E+03 0.  0.
        -24    2    4    4    0    0  0.27712146461E+03 -0.64760242237E+03  0.16531325702E+03  0.72815764673E+03  0.81852806483E+02 0.  0.
         24    2    4    4    0    0  0.26368529350E+02  0.29263000819E+03  0.57471190086E+02  0.30880251512E+03  0.75686422939E+02 0.  0.
         11    1    3    3    0    0 -0.66796911524E+02  0.31065923367E+02  0.11555124988E+03  0.13703652919E+03  0.00000000000E+00 0.  1.
        -11    1    3    3    0    0 -0.23669308243E+03  0.32390649081E+03  0.62505277355E+03  0.74271798132E+03  0.00000000000E+00 0. -1.
          4    1    6    6  502    0  0.39659476684E+02  0.28397165129E+03  0.49217290825E+02  0.29092114832E+03  0.00000000000E+00 0. -1.
          3    1    5    5  503    0  0.13025347598E+03 -0.28328458671E+03  0.11414321910E+03  0.33203132313E+03  0.00000000000E+00 0. -1.
         -4    1    5    5    0  503  0.14686798862E+03 -0.36431783567E+03  0.51170037924E+02  0.39612632360E+03  0.00000000000E+00 0.  1.
         -3    1    6    6    0  502 -0.13290947334E+02  0.86583569038E+01  0.82538992606E+01  0.17881366791E+02  0.00000000000E+00 0.  1.
<mgrwt>
<rscale>  0 0.16570087E+04</rscale>
<asrwt>0</asrwt>
<pdfrwt beam="1">  1        1 0.22154639E+00 0.16570087E+04</pdfrwt>
<pdfrwt beam="2">  1       -1 0.73332785E-01 0.16570087E+04</pdfrwt>
<totfact> 0.12887914E+01</totfact>
</mgrwt>
</event>
<event>
12    1  0.1532786E-007  0.1567337E+04  0.7818608E-02  0.8840869E-01
          2   -1    0    0  501    0  0.00000000000E+00  0.00000000000E+00  0.16477573947E+04  0.16477573947E+04  0.00000000000E+00 0. -1.
         -2   -1    0    0    0  501 -0.00000000000E+00 -0.00000000000E+00 -0.37271047944E+03  0.37271047944E+03  0.00000000000E+00 0.  1.
         23    2    1    2    0    0  0.10946438104E+03 -0.47412474396E+03  0.65525855598E+03  0.82149779825E+03  0.93370947269E+02 0.  0.
        254    2    1    2    0    0 -0.10946438104E+03  0.47412474396E+03  0.61978835924E+03  0.11989700759E+04  0.90366747700E+03 0.  0.
        -24    2    4    4    0    0 -0.29768811460E+03  0.59104581033E+03  0.68433415969E+03  0.95507555238E+03  0.76829064555E+02 0.  0.
         24    2    4    4    0    0  0.18822373355E+03 -0.11692106637E+03 -0.64545800451E+02  0.24389452347E+03  0.78864875510E+02 0.  0.
         11    1    3    3    0    0 -0.16959908355E+02 -0.44023606263E+02  0.62380068894E+02  0.78211184590E+02  0.00000000000E+00 0.  1.
        -11    1    3    3    0    0  0.12642428940E+03 -0.43010113769E+03  0.59287848709E+03  0.74328661366E+03  0.00000000000E+00 0. -1.
          4    1    6    6  502    0  0.12583039851E+03 -0.11840952675E+03 -0.46781537858E+02  0.17900451809E+03  0.00000000000E+00 0. -1.
          1    1    5    5  503    0 -0.27932173055E+03  0.50904135615E+03  0.57493489319E+03  0.81712536543E+03  0.00000000000E+00 0. -1.
         -4    1    5    5    0  503 -0.18366384044E+02  0.82004454175E+02  0.10939926650E+03  0.13795018695E+03  0.00000000000E+00 0.  1.
         -3    1    6    6    0  502  0.62393335048E+02  0.14884603771E+01 -0.17764262592E+02  0.64890005380E+02  0.00000000000E+00 0.  1.
<mgrwt>
<rscale>  0 0.15673372E+04</rscale>
<asrwt>0</asrwt>
<pdfrwt beam="1">  1        2 0.25350113E+00 0.15673372E+04</pdfrwt>
<pdfrwt beam="2">  1       -2 0.57340075E-01 0.15673372E+04</pdfrwt>
<totfact> 0.28724453E+01</totfact>
</mgrwt>
</event>
<event>
12    1  0.1532786E-007  0.1245903E+04  0.7818608E-02  0.9073600E-01
          1   -1    0    0  501    0  0.00000000000E+00  0.00000000000E+00  0.99502001544E+03  0.99502001544E+03  0.00000000000E+00 0. -1.
         -1   -1    0    0    0  501 -0.00000000000E+00 -0.00000000000E+00 -0.39001103648E+03  0.39001103648E+03  0.00000000000E+00 0.  1.
         23    2    1    2    0    0 -0.30244054056E+03  0.14259543353E+03  0.26637518039E+03  0.43648126601E+03  0.88070543370E+02 0.  0.
        254    2    1    2    0    0  0.30244054056E+03 -0.14259543353E+03  0.33863379857E+03  0.94854978592E+03  0.82053038249E+03 0.  0.
        -24    2    4    4    0    0 -0.26178055317E+02 -0.88286106626E+01 -0.24627324845E+03  0.25996133203E+03  0.78524813285E+02 0.  0.
         24    2    4    4    0    0  0.32861859587E+03 -0.13376682287E+03  0.58490704702E+03  0.68858845389E+03  0.78447821601E+02 0.  0.
         11    1    3    3    0    0 -0.30025383095E+03  0.12332368646E+03  0.26054999130E+03  0.41622997562E+03  0.00000000000E+00 0. -1.
        -11    1    3    3    0    0 -0.21867096075E+01  0.19271747074E+02  0.58251890891E+01  0.20251290381E+02  0.00000000000E+00 0.  1.
          2    1    6    6  502    0  0.33287467573E+03 -0.13112785451E+03  0.57119921372E+03  0.67399451461E+03  0.00000000000E+00 0. -1.
          3    1    5    5  503    0 -0.45696118288E+02 -0.26395569064E+02 -0.12167500932E+03  0.13262605018E+03  0.00000000000E+00 0. -1.
         -4    1    5    5    0  503  0.19518062971E+02  0.17566958402E+02 -0.12459823913E+03  0.12733528185E+03  0.00000000000E+00 0.  1.
         -1    1    6    6    0  502 -0.42560798552E+01 -0.26389683539E+01  0.13707833304E+02  0.14593939276E+02  0.00000000000E+00 0.  1.
<mgrwt>
<rscale>  0 0.12459033E+04</rscale>
<asrwt>0</asrwt>
<pdfrwt beam="1">  1        1 0.15308000E+00 0.12459033E+04</pdfrwt>
<pdfrwt beam="2">  1       -1 0.60001698E-01 0.12459033E+04</pdfrwt>
<totfact> 0.42416979E+01</totfact>
</mgrwt>
</event>
<event>
12    1  0.1532786E-007  0.1728823E+04  0.7818608E-02  0.8745094E-01
          1   -1    0    0  501    0  0.00000000000E+00  0.00000000000E+00  0.21982064367E+04  0.21982064367E+04  0.00000000000E+00 0. -1.
         -1   -1    0    0    0  501 -0.00000000000E+00 -0.00000000000E+00 -0.33991687981E+03  0.33991687981E+03  0.00000000000E+00 0.  1.
         23    2    1    2    0    0  0.24284911138E+03  0.53683389485E+03  0.98438962256E+03  0.11496003820E+04  0.73428794169E+02 0.  0.
        254    2    1    2    0    0 -0.24284911138E+03 -0.53683389485E+03  0.87389993429E+03  0.13885229344E+04  0.90395161526E+03 0.  0.
        -24    2    4    4    0    0 -0.43026008542E+02 -0.44117385735E+03 -0.32473422007E+02  0.45208910146E+03  0.82731026254E+02 0.  0.
         24    2    4    4    0    0 -0.19982310284E+03 -0.95660037501E+02  0.90637335629E+03  0.93643383297E+03  0.79470417902E+02 0.  0.
         11    1    3    3    0    0  0.20168570453E+03  0.36455780316E+03  0.69402446082E+03  0.80947480966E+03  0.00000000000E+00 0. -1.
        -11    1    3    3    0    0  0.41163406852E+02  0.17227609169E+03  0.29036516174E+03  0.34012557238E+03  0.00000000000E+00 0.  1.
          2    1    6    6  502    0 -0.20092824190E+03 -0.88644015639E+02  0.79328677079E+03  0.82312442596E+03  0.00000000000E+00 0. -1.
          3    1    5    5  503    0 -0.44959534929E+02 -0.43195873438E+03 -0.17802928934E+02  0.43465693629E+03  0.00000000000E+00 0. -1.
         -4    1    5    5    0  503  0.19335263863E+01 -0.92151229750E+01 -0.14670493073E+02  0.17432165176E+02  0.00000000000E+00 0.  1.
         -1    1    6    6    0  502  0.11051390616E+01 -0.70160218618E+01  0.11308658551E+03  0.11330940701E+03  0.00000000000E+00 0.  1.
<mgrwt>
<rscale>  0 0.17288233E+04</rscale>
<asrwt>0</asrwt>
<pdfrwt beam="1">  1        1 0.33818560E+00 0.17288233E+04</pdfrwt>
<pdfrwt beam="2">  1       -1 0.52294906E-01 0.17288233E+04</pdfrwt>
<totfact> 0.76433347E+00</totfact>
</mgrwt>
</event>
<event>
12    1  0.1532786E-007  0.1296186E+04  0.7818608E-02  0.9032595E-01
         -2   -1    0    0    0  501 -0.00000000000E+00  0.00000000000E+00  0.21129209366E+03  0.21129209366E+03  0.00000000000E+00 0. -1.
          2   -1    0    0  501    0  0.00000000000E+00 -0.00000000000E+00 -0.19878854069E+04  0.19878854069E+04  0.00000000000E+00 0.  1.
         23    2    1    2    0    0  0.11515150080E+03 -0.82278676928E+02  0.35617141263E+02  0.17103890498E+03  0.89196846639E+02 0.  0.
        254    2    1    2    0    0 -0.11515150080E+03  0.82278676928E+02 -0.18122104545E+04  0.20281385956E+04  0.89956088325E+03 0.  0.
        -24    2    4    4    0    0  0.38669819353E+03  0.16292098810E+02 -0.71377566858E+03  0.81611770781E+03  0.82289018640E+02 0.  0.
         24    2    4    4    0    0 -0.50184969433E+03  0.65986578118E+02 -0.10984347860E+04  0.12120208878E+04  0.78919638119E+02 0.  0.
         13    1    3    3    0    0  0.96004034322E+02 -0.15491099889E+02  0.13826625618E+02  0.98223848214E+02  0.00000000000E+00 0.  1.
        -13    1    3    3    0    0  0.19147466477E+02 -0.66787577039E+02  0.21790515646E+02  0.72815056763E+02  0.00000000000E+00 0. -1.
          4    1    6    6  502    0 -0.13795945219E+03 -0.17138629195E+02 -0.29705277066E+03  0.32797391911E+03  0.00000000000E+00 0. -1.
          1    1    5    5  503    0  0.38004433190E+02  0.27058851519E+02 -0.76514494376E+02  0.89615770025E+02  0.00000000000E+00 0. -1.
         -2    1    5    5    0  503  0.34869376034E+03 -0.10766752708E+02 -0.63726117421E+03  0.72650193779E+03  0.00000000000E+00 0.  1.
         -3    1    6    6    0  502 -0.36389024213E+03  0.83125207313E+02 -0.80138201529E+03  0.88404696869E+03  0.00000000000E+00 0.  1.
<mgrwt>
<rscale>  0 0.12961859E+04</rscale>
<asrwt>0</asrwt>
<pdfrwt beam="1">  1        2 0.30582853E+00 0.12961859E+04</pdfrwt>
<pdfrwt beam="2">  1       -2 0.32506476E-01 0.12961859E+04</pdfrwt>
<totfact> 0.58717888E+01</totfact>
</mgrwt>
</event>
<event>
12    1  0.1532786E-007  0.1896696E+04  0.7818608E-02  0.8656503E-01
         -2   -1    0    0    0  501 -0.00000000000E+00  0.00000000000E+00  0.41749058990E+03  0.41749058990E+03  0.00000000000E+00 0.  1.
          2   -1    0    0  501    0  0.00000000000E+00 -0.00000000000E+00 -0.21542136072E+04  0.21542136072E+04  0.00000000000E+00 0. -1.
         23    2    1    2    0    0  0.98254970981E+02 -0.47698058047E+03  0.64651042510E+02  0.49997140053E+03  0.92882348067E+02 0.  0.
        254    2    1    2    0    0 -0.98254970981E+02  0.47698058047E+03 -0.18013740598E+04  0.20717327965E+04  0.89997986838E+03 0.  0.
        -24    2    4    4    0    0 -0.76627637628E+02 -0.23609757707E+03 -0.78715995615E+03  0.82920138257E+03  0.79625847161E+02 0.  0.
         24    2    4    4    0    0 -0.21627333353E+02  0.71307815755E+03 -0.10142141036E+04  0.12425314140E+04  0.79409485315E+02 0.  0.
         11    1    3    3    0    0 -0.25618505472E+01 -0.30767274446E+02 -0.17055006304E+02  0.35271255933E+02  0.00000000000E+00 0. -1.
        -11    1    3    3    0    0  0.10081682153E+03 -0.44621330603E+03  0.81706048813E+02  0.46470014460E+03  0.00000000000E+00 0.  1.
          2    1    6    6  502    0 -0.33758485813E+02  0.69607721743E+03 -0.98661346053E+03  0.12079193882E+04  0.00000000000E+00 0. -1.
          3    1    5    5  503    0 -0.51334871922E+02 -0.17351731929E+03 -0.44384482388E+03  0.47931383962E+03  0.00000000000E+00 0. -1.
         -4    1    5    5    0  503 -0.25292765707E+02 -0.62580257782E+02 -0.34331513228E+03  0.34988754295E+03  0.00000000000E+00 0.  1.
         -1    1    6    6    0  502  0.12131152460E+02  0.17000940117E+02 -0.27600643103E+02  0.34612025722E+02  0.00000000000E+00 0.  1.
<mgrwt>
<rscale>  0 0.18966960E+04</rscale>
<asrwt>0</asrwt>
<pdfrwt beam="1">  1        2 0.33141747E+00 0.18966960E+04</pdfrwt>
<pdfrwt beam="2">  1       -2 0.64229322E-01 0.18966960E+04</pdfrwt>
<totfact> 0.11497660E+01</totfact>
</mgrwt>
</event>
<event>
12    1  0.1532786E-007  0.3071678E+04  0.7818608E-02  0.8223554E-01
          2   -1    0    0  501    0  0.00000000000E+00  0.00000000000E+00  0.13705619078E+04  0.13705619078E+04  0.00000000000E+00 0. -1.
         -2   -1    0    0    0  501 -0.00000000000E+00 -0.00000000000E+00 -0.17210469514E+04  0.17210469514E+04  0.00000000000E+00 0.  1.
         23    2    1    2    0    0 -0.12026922058E+03 -0.23104565598E+03  0.12258311062E+04  0.12566019931E+04  0.92411511282E+02 0.  0.
        254    2    1    2    0    0  0.12026922058E+03  0.23104565598E+03 -0.15763161498E+04  0.18350068661E+04  0.90256900778E+03 0.  0.
        -24    2    4    4    0    0 -0.24842817932E+03  0.28549803206E+03 -0.26359950262E+03  0.46805146832E+03  0.79760846412E+02 0.  0.
         24    2    4    4    0    0  0.36869739990E+03 -0.54452376085E+02 -0.13127166472E+04  0.13669553978E+04  0.80244810857E+02 0.  0.
         13    1    3    3    0    0 -0.74584521734E+02 -0.13605993387E+03  0.51086322521E+03  0.53390672533E+03  0.00000000000E+00 0.  1.
        -13    1    3    3    0    0 -0.45684698845E+02 -0.94985722112E+02  0.71496788104E+03  0.72269526775E+03  0.00000000000E+00 0. -1.
          2    1    6    6  502    0  0.84356633666E+01 -0.12882544264E+00 -0.58829082963E+01  0.10285213778E+02  0.00000000000E+00 0. -1.
          1    1    5    5  503    0 -0.45419149431E+01 -0.48772751178E+01 -0.86863929931E+00  0.67209625916E+01  0.00000000000E+00 0. -1.
         -2    1    5    5    0  503 -0.24388626438E+03  0.29037530718E+03 -0.26273086332E+03  0.46133050573E+03  0.00000000000E+00 0.  1.
         -1    1    6    6    0  502  0.36026173654E+03 -0.54323550642E+02 -0.13068337389E+04  0.13566701840E+04  0.00000000000E+00 0.  1.
<mgrwt>
<rscale>  0 0.30716780E+04</rscale>
<asrwt>0</asrwt>
<pdfrwt beam="1">  1        2 0.21085568E+00 0.30716780E+04</pdfrwt>
<pdfrwt beam="2">  1       -2 0.26477646E+00 0.30716780E+04</pdfrwt>
<totfact> 0.66787097E-01</totfact>
</mgrwt>
</event>
<event>
12    1  0.1532786E-007  0.1474404E+04  0.7818608E-02  0.8901655E-01
          1   -1    0    0  501    0  0.00000000000E+00  0.00000000000E+00  0.14990036175E+04  0.14990036175E+04  0.00000000000E+00 0. -1.
         -1   -1    0    0    0  501 -0.00000000000E+00 -0.00000000000E+00 -0.36255203532E+03  0.36255203532E+03  0.00000000000E+00 0.  1.
         23    2    1    2    0    0 -0.19922743863E+03 -0.37720172930E+03  0.12681306889E+03  0.45761057063E+03  0.10655122251E+03 0.  0.
        254    2    1    2    0    0  0.19922743863E+03  0.37720172930E+03  0.10096385133E+04  0.14039450822E+04  0.87733639465E+03 0.  0.
        -24    2    4    4    0    0  0.20488178917E+03  0.55751020682E+03  0.10435372370E+04  0.12034555715E+04  0.80877496134E+02 0.  0.
         24    2    4    4    0    0 -0.56543505378E+01 -0.18030847752E+03 -0.33898723725E+02  0.20048951065E+03  0.80646150957E+02 0.  0.
         11    1    3    3    0    0 -0.13508105112E+03 -0.30098177012E+03  0.13751370692E+03  0.35741703360E+03  0.00000000000E+00 0. -1.
        -11    1    3    3    0    0 -0.64146387514E+02 -0.76219959179E+02 -0.10700638025E+02  0.10019353703E+03  0.00000000000E+00 0.  1.
          4    1    6    6  502    0 -0.20308988254E+02 -0.17380731245E+03 -0.45370560628E+02  0.18077589617E+03  0.00000000000E+00 0. -1.
          3    1    5    5  503    0  0.95377184413E+02  0.36302151741E+03  0.68599650306E+03  0.78196715508E+03  0.00000000000E+00 0. -1.
         -4    1    5    5    0  503  0.10950460476E+03  0.19448868942E+03  0.35754073396E+03  0.42148841647E+03  0.00000000000E+00 0.  1.
         -3    1    6    6    0  502  0.14654637716E+02 -0.65011650733E+01  0.11471836903E+02  0.19713614479E+02  0.00000000000E+00 0.  1.
<mgrwt>
<rscale>  0 0.14744040E+04</rscale>
<asrwt>0</asrwt>
<pdfrwt beam="1">  1        1 0.23061594E+00 0.14744040E+04</pdfrwt>
<pdfrwt beam="2">  1       -1 0.55777237E-01 0.14744040E+04</pdfrwt>
<totfact> 0.20646951E+01</totfact>
</mgrwt>
</event>
<event>
12    1  0.1532786E-007  0.1446901E+04  0.7818608E-02  0.8920552E-01
         -1   -1    0    0    0  501 -0.00000000000E+00  0.00000000000E+00  0.18441887348E+03  0.18441887348E+03  0.00000000000E+00 0.  1.
          1   -1    0    0  501    0  0.00000000000E+00 -0.00000000000E+00 -0.28379974538E+04  0.28379974538E+04  0.00000000000E+00 0. -1.
         23    2    1    2    0    0  0.11762870428E+03  0.40161088225E+03 -0.56025660096E+03  0.70535970811E+03  0.92287843695E+02 0.  0.
        254    2    1    2    0    0 -0.11762870428E+03 -0.40161088225E+03 -0.20933219794E+04  0.23170566192E+04  0.90090324361E+03 0.  0.
        -24    2    4    4    0    0 -0.29233767567E+03 -0.55676651360E+03 -0.19055669401E+04  0.20082906017E+04  0.81212748452E+02 0.  0.
         24    2    4    4    0    0  0.17470897139E+03  0.15515563135E+03 -0.18775503934E+03  0.30876601751E+03  0.74081064721E+02 0.  0.
         13    1    3    3    0    0  0.62144764682E+02  0.82716943886E+02 -0.16101244673E+03  0.19138723203E+03  0.00000000000E+00 0. -1.
        -13    1    3    3    0    0  0.55483939601E+02  0.31889393836E+03 -0.39924415424E+03  0.51397247608E+03  0.00000000000E+00 0.  1.
          4    1    6    6  502    0  0.61640613384E+02  0.92083275850E+02 -0.11731374176E+03  0.16137350747E+03  0.00000000000E+00 0. -1.
          3    1    5    5  503    0 -0.11742034730E+03 -0.18938559400E+03 -0.56584091010E+03  0.60813680757E+03  0.00000000000E+00 0. -1.
         -4    1    5    5    0  503 -0.17491732837E+03 -0.36738091960E+03 -0.13397260299E+04  0.14001537941E+04  0.00000000000E+00 0.  1.
         -3    1    6    6    0  502  0.11306835800E+03  0.63072355497E+02 -0.70441297581E+02  0.14739251004E+03  0.00000000000E+00 0.  1.
<mgrwt>
<rscale>  0 0.14469005E+04</rscale>
<asrwt>0</asrwt>
<pdfrwt beam="1">  1        1 0.43661501E+00 0.14469005E+04</pdfrwt>
<pdfrwt beam="2">  1       -1 0.28372133E-01 0.14469005E+04</pdfrwt>
<totfact> 0.86048671E+00</totfact>
</mgrwt>
</event>
<event>
12    1  0.1532786E-007  0.2209386E+04  0.7818608E-02  0.8514532E-01
         -1   -1    0    0    0  501 -0.00000000000E+00  0.00000000000E+00  0.11313765414E+04  0.11313765414E+04  0.00000000000E+00 0.  1.
          1   -1    0    0  501    0  0.00000000000E+00 -0.00000000000E+00 -0.10786385613E+04  0.10786385613E+04  0.00000000000E+00 0. -1.
         23    2    1    2    0    0 -0.33253162867E+03 -0.82366999884E+03 -0.21877075571E+03  0.91936433621E+03  0.91436251538E+02 0.  0.
        254    2    1    2    0    0  0.33253162867E+03  0.82366999884E+03  0.27150873581E+03  0.12906507666E+04  0.89613216467E+03 0.  0.
        -24    2    4    4    0    0 -0.27958749259E+03  0.46210600180E+03  0.99573273822E+02  0.55487127815E+03  0.79095989395E+02 0.  0.
         24    2    4    4    0    0  0.61211912126E+03  0.36156399704E+03  0.17193546199E+03  0.73577948842E+03  0.79945668580E+02 0.  0.
         11    1    3    3    0    0 -0.29104265116E+03 -0.76451283404E+03 -0.18096231843E+03  0.83781445374E+03  0.00000000000E+00 0. -1.
        -11    1    3    3    0    0 -0.41488977507E+02 -0.59157164798E+02 -0.37808437280E+02  0.81549882471E+02  0.00000000000E+00 0.  1.
          2    1    6    6  502    0  0.77740831785E+02  0.76747220097E+02  0.15306315139E+02  0.11030891171E+03  0.00000000000E+00 0. -1.
          3    1    5    5  503    0 -0.48764595764E+02  0.66055953720E+02 -0.12275760843E+02  0.83018486653E+02  0.00000000000E+00 0. -1.
         -4    1    5    5    0  503 -0.23082289683E+03  0.39605004808E+03  0.11184903466E+03  0.47185279149E+03  0.00000000000E+00 0.  1.
         -1    1    6    6    0  502  0.53437828947E+03  0.28481677694E+03  0.15662914685E+03  0.62547057671E+03  0.00000000000E+00 0.  1.
<mgrwt>
<rscale>  0 0.22093858E+04</rscale>
<asrwt>0</asrwt>
<pdfrwt beam="1">  1        1 0.16594439E+00 0.22093858E+04</pdfrwt>
<pdfrwt beam="2">  1       -1 0.17405793E+00 0.22093858E+04</pdfrwt>
<totfact> 0.27549045E+00</totfact>
</mgrwt>
</event>
<event>
12    1  0.1532786E-007  0.3130500E+04  0.7818608E-02  0.8207417E-01
         -2   -1    0    0    0  501 -0.00000000000E+00  0.00000000000E+00  0.13875733943E+04  0.13875733943E+04  0.00000000000E+00 0.  1.
          2   -1    0    0  501    0  0.00000000000E+00 -0.00000000000E+00 -0.17656775328E+04  0.17656775328E+04  0.00000000000E+00 0. -1.
         23    2    1    2    0    0 -0.56975996449E+03 -0.13077002300E+04  0.73732750869E+01  0.14295095455E+04  0.93471208852E+02 0.  0.
        254    2    1    2    0    0  0.56975996449E+03  0.13077002300E+04 -0.38547741365E+03  0.17237413816E+04  0.88768530761E+03 0.  0.
        -24    2    4    4    0    0  0.51435406132E+03  0.54516247889E+03  0.17321062630E+03  0.77333183539E+03  0.79233691008E+02 0.  0.
         24    2    4    4    0    0  0.55405903177E+02  0.76253775113E+03 -0.55868803995E+03  0.95040954616E+03  0.81316317297E+02 0.  0.
         11    1    3    3    0    0 -0.38335742814E+03 -0.76968082030E+03  0.16942572340E+02  0.86003403049E+03  0.00000000000E+00 0.  1.
        -11    1    3    3    0    0 -0.18640253636E+03 -0.53801940972E+03 -0.95692972528E+01  0.56947551505E+03  0.00000000000E+00 0. -1.
          2    1    6    6  502    0  0.22954231082E+02  0.15256744431E+03 -0.15195824601E+03  0.21655260405E+03  0.00000000000E+00 0. -1.
          1    1    5    5  503    0  0.18943199782E+03  0.14710209049E+03  0.53378324360E+02  0.24570867371E+03  0.00000000000E+00 0. -1.
         -2    1    5    5    0  503  0.32492206350E+03  0.39806038839E+03  0.11983230194E+03  0.52762316168E+03  0.00000000000E+00 0.  1.
         -1    1    6    6    0  502  0.32451672095E+02  0.60997030682E+03 -0.40672979393E+03  0.73385694212E+03  0.00000000000E+00 0.  1.
<mgrwt>
<rscale>  0 0.31304997E+04</rscale>
<asrwt>0</asrwt>
<pdfrwt beam="1">  1        2 0.27164269E+00 0.31304997E+04</pdfrwt>
<pdfrwt beam="2">  1       -2 0.21347283E+00 0.31304997E+04</pdfrwt>
<totfact> 0.83060802E-01</totfact>
</mgrwt>
</event>
<event>
12    1  0.1532786E-007  0.1024795E+04  0.7818608E-02  0.9281760E-01
         -2   -1    0    0    0  501 -0.00000000000E+00  0.00000000000E+00  0.62120135969E+03  0.62120135969E+03  0.00000000000E+00 0.  1.
          2   -1    0    0  501    0  0.00000000000E+00 -0.00000000000E+00 -0.42265109941E+03  0.42265109941E+03  0.00000000000E+00 0. -1.
         23    2    1    2    0    0  0.72228815057E+02 -0.39417023121E+02 -0.35187983518E+01  0.12159727937E+03  0.89458442710E+02 0.  0.
        254    2    1    2    0    0 -0.72228815057E+02  0.39417023121E+02  0.20206905863E+03  0.92225517973E+03  0.89607589447E+03 0.  0.
        -24    2    4    4    0    0  0.16989028921E+03 -0.30182092536E+03 -0.13432765776E+03  0.37980208377E+03  0.79038736344E+02 0.  0.
         24    2    4    4    0    0 -0.24211910426E+03  0.34123794848E+03  0.33639671639E+03  0.54245309596E+03  0.77637699501E+02 0.  0.
         11    1    3    3    0    0 -0.45770095174E+01 -0.20449692479E+02 -0.31369416398E+02  0.37725047697E+02  0.00000000000E+00 0. -1.
        -11    1    3    3    0    0  0.76805824575E+02 -0.18967330642E+02  0.27850618046E+02  0.83872231673E+02  0.00000000000E+00 0.  1.
          4    1    6    6  502    0 -0.11239446898E+03  0.17365432400E+03  0.21440923741E+03  0.29792559808E+03  0.00000000000E+00 0. -1.
          3    1    5    5  503    0  0.12880367744E+02 -0.21899900444E+02 -0.36127161290E+02  0.44166517811E+02  0.00000000000E+00 0. -1.
         -4    1    5    5    0  503  0.15700992146E+03 -0.27992102492E+03 -0.98200496469E+02  0.33563556596E+03  0.00000000000E+00 0.  1.
         -3    1    6    6    0  502 -0.12972463528E+03  0.16758362448E+03  0.12198747898E+03  0.24452749788E+03  0.00000000000E+00 0.  1.
<mgrwt>
<rscale>  0 0.10247955E+04</rscale>
<asrwt>0</asrwt>
<pdfrwt beam="1">  1        2 0.65023246E-01 0.10247955E+04</pdfrwt>
<pdfrwt beam="2">  1       -2 0.95569440E-01 0.10247955E+04</pdfrwt>
<totfact> 0.68486201E+01</totfact>
</mgrwt>
</event>
<event>
12    1  0.1532786E-007  0.2520906E+04  0.7818608E-02  0.8395575E-01
         -1   -1    0    0    0  501 -0.00000000000E+00  0.00000000000E+00  0.13344793542E+04  0.13344793542E+04  0.00000000000E+00 0.  1.
          1   -1    0    0  501    0  0.00000000000E+00 -0.00000000000E+00 -0.11905327742E+04  0.11905327742E+04  0.00000000000E+00 0. -1.
         23    2    1    2    0    0  0.76857358558E+03 -0.61534082696E+02  0.83876407544E+03  0.11429310675E+04  0.90964010003E+02 0.  0.
        254    2    1    2    0    0 -0.76857358558E+03  0.61534082696E+02 -0.69481749550E+03  0.13820810608E+04  0.91262528284E+03 0.  0.
        -24    2    4    4    0    0 -0.63974575091E+03  0.40052101857E+03 -0.24235774521E+03  0.79672455602E+03  0.79630580662E+02 0.  0.
         24    2    4    4    0    0 -0.12882783468E+03 -0.33898693588E+03 -0.45245975028E+03  0.58535650481E+03  0.80085319624E+02 0.  0.
         11    1    3    3    0    0  0.25376356510E+03 -0.50379841413E+02  0.23624308300E+03  0.35034963916E+03  0.00000000000E+00 0.  1.
        -11    1    3    3    0    0  0.51481002048E+03 -0.11154241283E+02  0.60252099244E+03  0.79258142838E+03  0.00000000000E+00 0. -1.
          2    1    6    6  502    0 -0.63594089810E+02 -0.20334982163E+03 -0.32238228257E+03  0.38642682921E+03  0.00000000000E+00 0. -1.
          1    1    5    5  503    0 -0.40040732245E+03  0.20932581753E+03 -0.12626617603E+03  0.46913374316E+03  0.00000000000E+00 0. -1.
         -2    1    5    5    0  503 -0.23933842845E+03  0.19119520104E+03 -0.11609156918E+03  0.32759081286E+03  0.00000000000E+00 0.  1.
         -1    1    6    6    0  502 -0.65233744866E+02 -0.13563711425E+03 -0.13007746771E+03  0.19892967561E+03  0.00000000000E+00 0.  1.
<mgrwt>
<rscale>  0 0.25209057E+04</rscale>
<asrwt>0</asrwt>
<pdfrwt beam="1">  1        1 0.18315889E+00 0.25209057E+04</pdfrwt>
<pdfrwt beam="2">  1       -1 0.20530452E+00 0.25209057E+04</pdfrwt>
<totfact> 0.13325124E+00</totfact>
</mgrwt>
</event>
<event>
12    1  0.1532786E-007  0.1467680E+04  0.7818608E-02  0.8906235E-01
         -2   -1    0    0    0  501 -0.00000000000E+00  0.00000000000E+00  0.12997938709E+04  0.12997938709E+04  0.00000000000E+00 0.  1.
          2   -1    0    0  501    0  0.00000000000E+00 -0.00000000000E+00 -0.41431258767E+03  0.41431258767E+03  0.00000000000E+00 0. -1.
         23    2    1    2    0    0 -0.34736317382E+02  0.20368330851E+03  0.76144499609E+03  0.79415184647E+03  0.90471936307E+02 0.  0.
        254    2    1    2    0    0  0.34736317382E+02 -0.20368330851E+03  0.12403628715E+03  0.91995461212E+03  0.88782767806E+03 0.  0.
        -24    2    4    4    0    0 -0.26535838162E+03  0.41041110746E+02  0.36276664579E+03  0.45837445572E+03  0.80050352269E+02 0.  0.
         24    2    4    4    0    0  0.30009469900E+03 -0.24472441926E+03 -0.23873035863E+03  0.46158015640E+03  0.78212447225E+02 0.  0.
         11    1    3    3    0    0  0.29668674763E+02  0.72894270998E+02  0.23105199799E+03  0.24408775222E+03  0.00000000000E+00 0. -1.
        -11    1    3    3    0    0 -0.64404992146E+02  0.13078903751E+03  0.53039299810E+03  0.55006409425E+03  0.00000000000E+00 0.  1.
          2    1    6    6  502    0  0.14145793827E+02  0.45071310214E+01 -0.35337558108E+01  0.15261230067E+02  0.00000000000E+00 0. -1.
          1    1    5    5  503    0 -0.49597304161E+02 -0.21290939738E+02  0.51979423743E+02  0.74933685267E+02  0.00000000000E+00 0. -1.
         -2    1    5    5    0  503 -0.21576107746E+03  0.62332050484E+02  0.31078722204E+03  0.38344077046E+03  0.00000000000E+00 0.  1.
         -1    1    6    6    0  502  0.28594890517E+03 -0.24923155028E+03 -0.23519660282E+03  0.44631892633E+03  0.00000000000E+00 0.  1.
<mgrwt>
<rscale>  0 0.14676797E+04</rscale>
<asrwt>0</asrwt>
<pdfrwt beam="1">  1        2 0.63740399E-01 0.14676797E+04</pdfrwt>
<pdfrwt beam="2">  1       -2 0.19996829E+00 0.14676797E+04</pdfrwt>
<totfact> 0.98381845E+00</totfact>
</mgrwt>
</event>
<event>
12    1  0.1532786E-007  0.1547479E+04  0.7818608E-02  0.8853480E-01
          1   -1    0    0  501    0  0.00000000000E+00  0.00000000000E+00  0.88660087476E+03  0.88660087476E+03  0.00000000000E+00 0. -1.
         -1   -1    0    0    0  501 -0.00000000000E+00 -0.00000000000E+00 -0.67524476016E+03  0.67524476016E+03  0.00000000000E+00 0.  1.
         23    2    1    2    0    0  0.81593242129E+02 -0.43129952324E+03  0.32087039728E+03  0.55104729831E+03  0.89546508659E+02 0.  0.
        254    2    1    2    0    0 -0.81593242129E+02  0.43129952324E+03 -0.10951428269E+03  0.10107983366E+04  0.90390439941E+03 0.  0.
        -24    2    4    4    0    0  0.34399205161E+03  0.30109610546E+03  0.15208295407E+03  0.48801686974E+03  0.77729299128E+02 0.  0.
         24    2    4    4    0    0 -0.42558529374E+03  0.13020341778E+03 -0.26159723675E+03  0.52278146687E+03  0.82411016090E+02 0.  0.
         11    1    3    3    0    0 -0.60254901644E+01 -0.14272316398E+03  0.13643520637E+03  0.19753676520E+03  0.00000000000E+00 0. -1.
        -11    1    3    3    0    0  0.87618732293E+02 -0.28857635926E+03  0.18443519091E+03  0.35351053310E+03  0.00000000000E+00 0.  1.
          2    1    6    6  502    0 -0.10955339803E+03  0.70430690160E+02 -0.89193699208E+02  0.15785418941E+03  0.00000000000E+00 0. -1.
          3    1    5    5  503    0  0.61353549749E+02  0.22137475401E+02  0.34875591317E+02  0.73963725931E+02  0.00000000000E+00 0. -1.
         -4    1    5    5    0  503  0.28263850186E+03  0.27895863006E+03  0.11720736275E+03  0.41405314381E+03  0.00000000000E+00 0.  1.
         -1    1    6    6    0  502 -0.31603189571E+03  0.59772727621E+02 -0.17240353754E+03  0.36492727745E+03  0.00000000000E+00 0.  1.
<mgrwt>
<rscale>  0 0.15474787E+04</rscale>
<asrwt>0</asrwt>
<pdfrwt beam="1">  1        1 0.13640013E+00 0.15474787E+04</pdfrwt>
<pdfrwt beam="2">  1       -1 0.10388381E+00 0.15474787E+04</pdfrwt>
<totfact> 0.15703975E+01</totfact>
</mgrwt>
</event>
<event>
12    1  0.1532786E-007  0.3324663E+04  0.7818608E-02  0.8156648E-01
         -1   -1    0    0    0  501 -0.00000000000E+00  0.00000000000E+00  0.20176475605E+04  0.20176475605E+04  0.00000000000E+00 0.  1.
          1   -1    0    0  501    0  0.00000000000E+00 -0.00000000000E+00 -0.13695884503E+04  0.13695884503E+04  0.00000000000E+00 0. -1.
         23    2    1    2    0    0  0.11439745952E+04  0.10268201258E+04  0.38961388447E+03  0.15882217413E+04  0.87246062266E+02 0.  0.
        254    2    1    2    0    0 -0.11439745952E+04 -0.10268201258E+04  0.25844522574E+03  0.17990142694E+04  0.89812079457E+03 0.  0.
        -24    2    4    4    0    0 -0.80044615244E+03 -0.11172365963E+04  0.45846020178E+02  0.13775400999E+04  0.81137008215E+02 0.  0.
         24    2    4    4    0    0 -0.34352844278E+03  0.90416470477E+02  0.21259920557E+03  0.42147416958E+03  0.79089343660E+02 0.  0.
         11    1    3    3    0    0  0.35821429938E+03  0.34276240762E+03  0.87030814605E+02  0.50336658118E+03  0.00000000000E+00 0. -1.
        -11    1    3    3    0    0  0.78576029583E+03  0.68405771820E+03  0.30258306987E+03  0.10848551602E+04  0.00000000000E+00 0.  1.
          4    1    6    6  502    0 -0.11433147402E+03 -0.61239125602E+01  0.79590661335E+02  0.13944124794E+03  0.00000000000E+00 0. -1.
          3    1    5    5  503    0 -0.31051084103E+03 -0.42671382635E+03 -0.21672181216E+02  0.52817739012E+03  0.00000000000E+00 0. -1.
         -4    1    5    5    0  503 -0.48993531141E+03 -0.69052276994E+03  0.67518201394E+02  0.84936270974E+03  0.00000000000E+00 0.  1.
         -1    1    6    6    0  502 -0.22919696876E+03  0.96540383037E+02  0.13300854423E+03  0.28203292163E+03  0.00000000000E+00 0.  1.
<mgrwt>
<rscale>  0 0.33246635E+04</rscale>
<asrwt>0</asrwt>
<pdfrwt beam="1">  1        1 0.21070592E+00 0.33246635E+04</pdfrwt>
<pdfrwt beam="2">  1       -1 0.31040732E+00 0.33246635E+04</pdfrwt>
<totfact> 0.18883556E-01</totfact>
</mgrwt>
</event>
<event>
12    1  0.1532786E-007  0.1657801E+04  0.7818608E-02  0.8785805E-01
          2   -1    0    0  501    0  0.00000000000E+00  0.00000000000E+00  0.14122086149E+04  0.14122086149E+04  0.00000000000E+00 0. -1.
         -2   -1    0    0    0  501 -0.00000000000E+00 -0.00000000000E+00 -0.48652583121E+03  0.48652583121E+03  0.00000000000E+00 0.  1.
         23    2    1    2    0    0 -0.41677600376E+02 -0.11144040862E+03 -0.31557098247E+03  0.34935377696E+03  0.91142906763E+02 0.  0.
        254    2    1    2    0    0  0.41677600376E+02  0.11144040862E+03  0.12412537662E+04  0.15493806691E+04  0.91962685850E+03 0.  0.
        -24    2    4    4    0    0  0.14446702304E+03 -0.25397985708E+03  0.10926612996E+04  0.11339457921E+04  0.80918818702E+02 0.  0.
         24    2    4    4    0    0 -0.10278942267E+03  0.36542026569E+03  0.14859246658E+03  0.41543487707E+03  0.80054856004E+02 0.  0.
         13    1    3    3    0    0 -0.56884398232E+02 -0.40895195050E+02 -0.10058526109E+03  0.12257914378E+03  0.00000000000E+00 0. -1.
        -13    1    3    3    0    0  0.15206797855E+02 -0.70545213569E+02 -0.21498572139E+03  0.22677463319E+03  0.00000000000E+00 0.  1.
          4    1    6    6  502    0  0.62887678642E+01 -0.30985431217E+00  0.21375541650E+01  0.66493419789E+01  0.00000000000E+00 0. -1.
          3    1    5    5  503    0  0.89165674608E+01 -0.89387822501E+02  0.30863857420E+03  0.32144588576E+03  0.00000000000E+00 0. -1.
         -4    1    5    5    0  503  0.13555045558E+03 -0.16459203457E+03  0.78402272537E+03  0.81249990631E+03  0.00000000000E+00 0.  1.
         -3    1    6    6    0  502 -0.10907819053E+03  0.36573012001E+03  0.14645491242E+03  0.40878553509E+03  0.00000000000E+00 0.  1.
<mgrwt>
<rscale>  0 0.16578009E+04</rscale>
<asrwt>0</asrwt>
<pdfrwt beam="1">  1        2 0.21726286E+00 0.16578009E+04</pdfrwt>
<pdfrwt beam="2">  1       -2 0.74850129E-01 0.16578009E+04</pdfrwt>
<totfact> 0.21803899E+01</totfact>
</mgrwt>
</event>
<event>
12    1  0.1532786E-007  0.1348471E+04  0.7818608E-02  0.8991986E-01
          2   -1    0    0  501    0  0.00000000000E+00  0.00000000000E+00  0.25027136138E+04  0.25027136138E+04  0.00000000000E+00 0. -1.
         -2   -1    0    0    0  501 -0.00000000000E+00 -0.00000000000E+00 -0.18164031285E+03  0.18164031285E+03  0.00000000000E+00 0.  1.
         23    2    1    2    0    0  0.71987408524E+02  0.23091351028E+03  0.11958996552E+04  0.12238610545E+04  0.95690434271E+02 0.  0.
        254    2    1    2    0    0 -0.71987408524E+02 -0.23091351028E+03  0.11251736457E+04  0.14604928721E+04  0.89917765779E+03 0.  0.
        -24    2    4    4    0    0 -0.20507354058E+03 -0.29557087393E+03  0.48771800564E+02  0.37128700237E+03  0.77833482781E+02 0.  0.
         24    2    4    4    0    0  0.13308613205E+03  0.64657363645E+02  0.10764018451E+04  0.10892058697E+04  0.76393725038E+02 0.  0.
         13    1    3    3    0    0  0.55430316651E+02  0.42378659444E+02  0.27493140017E+03  0.28364722029E+03  0.00000000000E+00 0.  1.
        -13    1    3    3    0    0  0.16557091873E+02  0.18853485084E+03  0.92096825507E+03  0.94021383426E+03  0.00000000000E+00 0. -1.
          4    1    6    6  502    0 -0.61638485916E+01  0.32795630505E+01  0.16805818385E+03  0.16820315610E+03  0.00000000000E+00 0. -1.
          3    1    5    5  503    0 -0.13518071929E+03 -0.25125292529E+03  0.38045218913E+02  0.28783553987E+03  0.00000000000E+00 0. -1.
         -4    1    5    5    0  503 -0.69892821290E+02 -0.44317948645E+02  0.10726581652E+02  0.83451462503E+02  0.00000000000E+00 0.  1.
         -3    1    6    6    0  502  0.13924998064E+03  0.61377800595E+02  0.90834366128E+03  0.92100271362E+03  0.00000000000E+00 0.  1.
<mgrwt>
<rscale>  0 0.13484713E+04</rscale>
<asrwt>0</asrwt>
<pdfrwt beam="1">  1        2 0.38503284E+00 0.13484713E+04</pdfrwt>
<pdfrwt beam="2">  1       -2 0.27944665E-01 0.13484713E+04</pdfrwt>
<totfact> 0.39810878E+01</totfact>
</mgrwt>
</event>
<event>
12    1  0.1532786E-007  0.1798970E+04  0.7818608E-02  0.8706847E-01
          1   -1    0    0  501    0  0.00000000000E+00  0.00000000000E+00  0.18374405831E+04  0.18374405831E+04  0.00000000000E+00 0. -1.
         -1   -1    0    0    0  501 -0.00000000000E+00 -0.00000000000E+00 -0.44032644831E+03  0.44032644831E+03  0.00000000000E+00 0.  1.
         23    2    1    2    0    0  0.10678703347E+03 -0.59838033880E+03  0.88060815526E+03  0.10740730857E+04  0.93272557127E+02 0.  0.
        254    2    1    2    0    0 -0.10678703347E+03  0.59838033880E+03  0.51650597952E+03  0.12036939457E+04  0.90146446836E+03 0.  0.
        -24    2    4    4    0    0 -0.19527428196E+03  0.48993177888E+03  0.74991205682E+03  0.92016512557E+03  0.78552989774E+02 0.  0.
         24    2    4    4    0    0  0.88487248487E+02  0.10844855991E+03 -0.23340607729E+03  0.28352882016E+03  0.79492840247E+02 0.  0.
         13    1    3    3    0    0  0.74276101730E+02 -0.55627284918E+03  0.79102415979E+03  0.96988434536E+03  0.00000000000E+00 0. -1.
        -13    1    3    3    0    0  0.32510931745E+02 -0.42107489620E+02  0.89583995478E+02  0.10418874033E+03  0.00000000000E+00 0.  1.
          4    1    6    6  502    0  0.63001274710E+02  0.64549023014E+02 -0.75378115499E+02  0.11754827639E+03  0.00000000000E+00 0. -1.
          3    1    5    5  503    0 -0.78764054396E+02  0.11488861511E+03  0.22443721734E+03  0.26415002304E+03  0.00000000000E+00 0. -1.
         -4    1    5    5    0  503 -0.11651022757E+03  0.37504316377E+03  0.52547483948E+03  0.65601510253E+03  0.00000000000E+00 0.  1.
         -3    1    6    6    0  502  0.25485973777E+02  0.43899536901E+02 -0.15802796179E+03  0.16598054376E+03  0.00000000000E+00 0.  1.
<mgrwt>
<rscale>  0 0.17989705E+04</rscale>
<asrwt>0</asrwt>
<pdfrwt beam="1">  1        1 0.28268316E+00 0.17989705E+04</pdfrwt>
<pdfrwt beam="2">  1       -1 0.67742532E-01 0.17989705E+04</pdfrwt>
<totfact> 0.80004273E+00</totfact>
</mgrwt>
</event>
<event>
12    1  0.1532786E-007  0.2730586E+04  0.7818608E-02  0.8325149E-01
         -2   -1    0    0    0  501 -0.00000000000E+00  0.00000000000E+00  0.49633958472E+03  0.49633958472E+03  0.00000000000E+00 0. -1.
          2   -1    0    0  501    0  0.00000000000E+00 -0.00000000000E+00 -0.37555440853E+04  0.37555440853E+04  0.00000000000E+00 0.  1.
         23    2    1    2    0    0  0.10371199834E+03  0.77925272016E+03 -0.28910206012E+04  0.29975689619E+04  0.97100897732E+02 0.  0.
        254    2    1    2    0    0 -0.10371199834E+03 -0.77925272016E+03 -0.36818389933E+03  0.12543147081E+04  0.90540323762E+03 0.  0.
        -24    2    4    4    0    0 -0.27870679825E+03 -0.22181864188E+03 -0.52951043855E+03  0.64283970339E+03  0.77334277361E+02 0.  0.
         24    2    4    4    0    0  0.17499479991E+03 -0.55743407828E+03  0.16132653921E+03  0.61147500468E+03  0.80743405129E+02 0.  0.
         11    1    3    3    0    0  0.17394574625E+01  0.35536132905E+03 -0.13633224851E+04  0.14088764667E+04  0.00000000000E+00 0. -1.
        -11    1    3    3    0    0  0.10197254088E+03  0.42389139111E+03 -0.15276981161E+04  0.15886924952E+04  0.00000000000E+00 0.  1.
          4    1    6    6  502    0  0.16225948330E+03 -0.40007245942E+03  0.12530932696E+03  0.44954258990E+03  0.00000000000E+00 0. -1.
          1    1    5    5  503    0 -0.18704568278E+03 -0.18364542749E+03 -0.34472612174E+03  0.43306792711E+03  0.00000000000E+00 0. -1.
         -2    1    5    5    0  503 -0.91661115467E+02 -0.38173214386E+02 -0.18478431681E+03  0.20977177628E+03  0.00000000000E+00 0.  1.
         -3    1    6    6    0  502  0.12735316607E+02 -0.15736161886E+03  0.36017212250E+02  0.16193241478E+03  0.00000000000E+00 0.  1.
<mgrwt>
<rscale>  0 0.27305862E+04</rscale>
<asrwt>0</asrwt>
<pdfrwt beam="1">  1        2 0.57777600E+00 0.27305862E+04</pdfrwt>
<pdfrwt beam="2">  1       -2 0.76359938E-01 0.27305862E+04</pdfrwt>
<totfact> 0.71287226E-01</totfact>
</mgrwt>
</event>
<event>
12    1  0.1532786E-007  0.2493595E+04  0.7818608E-02  0.8405271E-01
         -2   -1    0    0    0  501 -0.00000000000E+00  0.00000000000E+00  0.11235327258E+04  0.11235327258E+04  0.00000000000E+00 0.  1.
          2   -1    0    0  501    0  0.00000000000E+00 -0.00000000000E+00 -0.13835862991E+04  0.13835862991E+04  0.00000000000E+00 0. -1.
         23    2    1    2    0    0  0.55009417268E+03  0.56094138325E+03 -0.85882500744E+03  0.11674002927E+04  0.89354439011E+02 0.  0.
        254    2    1    2    0    0 -0.55009417268E+03 -0.56094138325E+03  0.59877143410E+03  0.13397187322E+04  0.90501945657E+03 0.  0.
        -24    2    4    4    0    0  0.26544326670E+02 -0.55001157471E+03  0.85683763273E+02  0.56296930784E+03  0.79846106288E+02 0.  0.
         24    2    4    4    0    0 -0.57663849935E+03 -0.10929808545E+02  0.51308767083E+03  0.77674942433E+03  0.86309272895E+02 0.  0.
         11    1    3    3    0    0  0.44121187896E+03  0.48915920223E+03 -0.74305836662E+03  0.99301580222E+03  0.00000000000E+00 0.  1.
        -11    1    3    3    0    0  0.10888229372E+03  0.71782181026E+02 -0.11576664082E+03  0.17438449050E+03  0.00000000000E+00 0. -1.
          4    1    6    6  502    0 -0.54895049246E+03 -0.99219324238E+01  0.45761427342E+03  0.71474184931E+03  0.00000000000E+00 0. -1.
          1    1    5    5  503    0  0.35754425554E+02 -0.44309199143E+03  0.39978565871E+02  0.44632631285E+03  0.00000000000E+00 0. -1.
         -2    1    5    5    0  503 -0.92100988839E+01 -0.10691958328E+03  0.45705197401E+02  0.11664299499E+03  0.00000000000E+00 0.  1.
         -3    1    6    6    0  502 -0.27688006897E+02 -0.10078761208E+01  0.55473397408E+02  0.62007575023E+02  0.00000000000E+00 0.  1.
<mgrwt>
<rscale>  0 0.24935954E+04</rscale>
<asrwt>0</asrwt>
<pdfrwt beam="1">  1        2 0.21285943E+00 0.24935954E+04</pdfrwt>
<pdfrwt beam="2">  1       -2 0.17285119E+00 0.24935954E+04</pdfrwt>
<totfact> 0.26849866E+00</totfact>
</mgrwt>
</event>
<event>
12    1  0.1532786E-007  0.2328771E+04  0.7818608E-02  0.8466663E-01
          2   -1    0    0  501    0  0.00000000000E+00  0.00000000000E+00  0.83895072447E+03  0.83895072447E+03  0.00000000000E+00 0. -1.
         -2   -1    0    0    0  501 -0.00000000000E+00 -0.00000000000E+00 -0.16160590551E+04  0.16160590551E+04  0.00000000000E+00 0.  1.
         23    2    1    2    0    0 -0.14528988806E+03 -0.41386132882E+03 -0.12666817914E+04  0.13436481867E+04  0.92289425412E+02 0.  0.
        254    2    1    2    0    0  0.14528988806E+03  0.41386132882E+03  0.48957346069E+03  0.11113615929E+04  0.89613172338E+03 0.  0.
        -24    2    4    4    0    0  0.32290806792E+03 -0.15874131436E+03  0.69094488090E+02  0.37488218742E+03  0.79335874293E+02 0.  0.
         24    2    4    4    0    0 -0.17761817986E+03  0.57260264318E+03  0.42047897260E+03  0.73647940546E+03  0.78596078041E+02 0.  0.
         13    1    3    3    0    0 -0.20861882211E+02 -0.10975160995E+03 -0.22222707426E+03  0.24872777599E+03  0.00000000000E+00 0. -1.
        -13    1    3    3    0    0 -0.12442800585E+03 -0.30410971887E+03 -0.10444547171E+04  0.10949204107E+04  0.00000000000E+00 0.  1.
          4    1    6    6  502    0 -0.76422710566E+02  0.36661631963E+03  0.27717034326E+03  0.46590917107E+03  0.00000000000E+00 0. -1.
          3    1    5    5  503    0  0.24106610762E+03 -0.83696548759E+02  0.66963166885E+02  0.26382199726E+03  0.00000000000E+00 0. -1.
         -4    1    5    5    0  503  0.81841960298E+02 -0.75044765597E+02  0.21313212049E+01  0.11106019016E+03  0.00000000000E+00 0.  1.
         -3    1    6    6    0  502 -0.10119546929E+03  0.20598632355E+03  0.14330862935E+03  0.27057023439E+03  0.00000000000E+00 0.  1.
<mgrwt>
<rscale>  0 0.23287713E+04</rscale>
<asrwt>0</asrwt>
<pdfrwt beam="1">  1        2 0.12906934E+00 0.23287713E+04</pdfrwt>
<pdfrwt beam="2">  1       -2 0.24862447E+00 0.23287713E+04</pdfrwt>
<totfact> 0.19146418E+00</totfact>
</mgrwt>
</event>
<event>
12    1  0.1532786E-007  0.1525371E+04  0.7818608E-02  0.8867755E-01
         -2   -1    0    0    0  501 -0.00000000000E+00  0.00000000000E+00  0.19593607474E+04  0.19593607474E+04  0.00000000000E+00 0.  1.
          2   -1    0    0  501    0  0.00000000000E+00 -0.00000000000E+00 -0.29687697795E+03  0.29687697795E+03  0.00000000000E+00 0. -1.
         23    2    1    2    0    0  0.39383492957E+03  0.13987029899E+03  0.16569632384E+03  0.45849060771E+03  0.89937274456E+02 0.  0.
        254    2    1    2    0    0 -0.39383492957E+03 -0.13987029899E+03  0.14967874456E+04  0.17977471176E+04  0.90379886553E+03 0.  0.
        -24    2    4    4    0    0  0.54880652049E+02 -0.15929304728E+03 -0.43448795782E+02  0.19134587087E+03  0.79619617955E+02 0.  0.
         24    2    4    4    0    0 -0.44871558162E+03  0.19422748297E+02  0.15402362414E+04  0.16064012468E+04  0.80463469722E+02 0.  0.
         13    1    3    3    0    0  0.31791830894E+03  0.79387773132E+02  0.14914229530E+03  0.36002485183E+03  0.00000000000E+00 0. -1.
        -13    1    3    3    0    0  0.75916620629E+02  0.60482525853E+02  0.16554028535E+02  0.98465755885E+02  0.00000000000E+00 0.  1.
          4    1    6    6  502    0 -0.29445656006E+03  0.13325198579E+02  0.11380905476E+04  0.11756412383E+04  0.00000000000E+00 0. -1.
          1    1    5    5  503    0  0.32249764461E+02 -0.15767342442E+03 -0.48529072003E+02  0.16809529114E+03  0.00000000000E+00 0. -1.
         -2    1    5    5    0  503  0.22630887588E+02 -0.16196228655E+01  0.50802762211E+01  0.23250579729E+02  0.00000000000E+00 0.  1.
         -3    1    6    6    0  502 -0.15425902157E+03  0.60975497174E+01  0.40214569380E+03  0.43076000847E+03  0.00000000000E+00 0.  1.
<mgrwt>
<rscale>  0 0.15253709E+04</rscale>
<asrwt>0</asrwt>
<pdfrwt beam="1">  1        2 0.45673382E-01 0.15253709E+04</pdfrwt>
<pdfrwt beam="2">  1       -2 0.30144011E+00 0.15253709E+04</pdfrwt>
<totfact> 0.33481924E+00</totfact>
</mgrwt>
</event>
<event>
12    1  0.1532786E-007  0.1334172E+04  0.7818608E-02  0.9002897E-01
         -2   -1    0    0    0  501 -0.00000000000E+00  0.00000000000E+00  0.12516276090E+04  0.12516276090E+04  0.00000000000E+00 0.  1.
          2   -1    0    0  501    0  0.00000000000E+00 -0.00000000000E+00 -0.35554009050E+03  0.35554009050E+03  0.00000000000E+00 0. -1.
         23    2    1    2    0    0  0.97002742534E+02 -0.32559546994E+03  0.38089460004E+03  0.51828664552E+03  0.90102211276E+02 0.  0.
        254    2    1    2    0    0 -0.97002742534E+02  0.32559546994E+03  0.51519291845E+03  0.10888810540E+04  0.89711552456E+03 0.  0.
        -24    2    4    4    0    0 -0.13685170426E+03  0.61164756998E+03  0.22223319433E+03  0.66974580429E+03  0.79565764435E+02 0.  0.
         24    2    4    4    0    0  0.39848961724E+02 -0.28605210005E+03  0.29295972412E+03  0.41913524970E+03  0.80219784915E+02 0.  0.
         13    1    3    3    0    0  0.57616336700E+02 -0.23591964599E+03  0.32435059335E+03  0.40519258264E+03  0.00000000000E+00 0.  1.
        -13    1    3    3    0    0  0.39386405835E+02 -0.89675823951E+02  0.56544006689E+02  0.11309406288E+03  0.00000000000E+00 0. -1.
          4    1    6    6  502    0  0.61944423591E+02 -0.16798008419E+03  0.18808942656E+03  0.25967682354E+03  0.00000000000E+00 0. -1.
          3    1    5    5  503    0 -0.96341930603E+02  0.27281906109E+03  0.12280809881E+03  0.31431486892E+03  0.00000000000E+00 0. -1.
         -4    1    5    5    0  503 -0.40509773655E+02  0.33882850889E+03  0.99425095521E+02  0.35543093537E+03  0.00000000000E+00 0.  1.
         -3    1    6    6    0  502 -0.22095461866E+02 -0.11807201586E+03  0.10487029756E+03  0.15945842616E+03  0.00000000000E+00 0.  1.
<mgrwt>
<rscale>  0 0.13341721E+04</rscale>
<asrwt>0</asrwt>
<pdfrwt beam="1">  1        2 0.54698476E-01 0.13341721E+04</pdfrwt>
<pdfrwt beam="2">  1       -2 0.19255809E+00 0.13341721E+04</pdfrwt>
<totfact> 0.13215539E+01</totfact>
</mgrwt>
</event>
<event>
12    1  0.2018881E-007  0.1958048E+04  0.7818608E-02  0.8626490E-01
          1   -1    0    0  501    0  0.00000000000E+00  0.00000000000E+00  0.64313988383E+03  0.64313988383E+03  0.00000000000E+00 0. -1.
         -1   -1    0    0    0  501 -0.00000000000E+00 -0.00000000000E+00 -0.14903260052E+04  0.14903260052E+04  0.00000000000E+00 0.  1.
         23    2    1    2    0    0  0.56641060063E+03  0.45440661938E+03 -0.61624816400E+03  0.95665021635E+03  0.90063824966E+02 0.  0.
        254    2    1    2    0    0 -0.56641060063E+03 -0.45440661938E+03 -0.23093795740E+03  0.11768156727E+04  0.89680345847E+03 0.  0.
        -24    2    4    4    0    0 -0.96733811872E+02 -0.48952980662E+02 -0.48371148290E+03  0.50201465211E+03  0.79297462549E+02 0.  0.
         24    2    4    4    0    0 -0.46967678876E+03 -0.40545363872E+03  0.25277352550E+03  0.67480102060E+03  0.80455100246E+02 0.  0.
         11    1    3    3    0    0  0.45876088610E+03  0.35104343330E+03 -0.44290089166E+03  0.72791087539E+03  0.00000000000E+00 0. -1.
        -11    1    3    3    0    0  0.10764971453E+03  0.10336318609E+03 -0.17334727234E+03  0.22873934097E+03  0.00000000000E+00 0.  1.
          4    1    6    6  502    0 -0.11986874519E+02  0.25307736459E+01  0.79038730390E+01  0.14579478215E+02  0.00000000000E+00 0. -1.
          3    1    5    5  503    0  0.35398584007E+01 -0.19310107683E+02 -0.26388790725E+02  0.32890410945E+02  0.00000000000E+00 0. -1.
         -4    1    5    5    0  503 -0.10027367027E+03 -0.29642872980E+02 -0.45732269218E+03  0.46912424117E+03  0.00000000000E+00 0.  1.
         -3    1    6    6    0  502 -0.45768991424E+03 -0.40798441237E+03  0.24486965246E+03  0.66022154238E+03  0.00000000000E+00 0.  1.
<mgrwt>
<rscale>  0 0.19580481E+04</rscale>
<asrwt>0</asrwt>
<pdfrwt beam="1">  1        1 0.98944598E-01 0.19580481E+04</pdfrwt>
<pdfrwt beam="2">  1       -1 0.22928092E+00 0.19580481E+04</pdfrwt>
<totfact> 0.27486141E+00</totfact>
</mgrwt>
</event>
<event>
12    1  0.1532786E-007  0.1278411E+04  0.7818608E-02  0.9046863E-01
          2   -1    0    0  501    0  0.00000000000E+00  0.00000000000E+00  0.12291918093E+04  0.12291918093E+04  0.00000000000E+00 0. -1.
         -2   -1    0    0    0  501 -0.00000000000E+00 -0.00000000000E+00 -0.33240025282E+03  0.33240025282E+03  0.00000000000E+00 0.  1.
         23    2    1    2    0    0 -0.21423303725E+03  0.10156842946E+03  0.30352661635E+03  0.39589206979E+03  0.91597947447E+02 0.  0.
        254    2    1    2    0    0  0.21423303725E+03 -0.10156842946E+03  0.59326494014E+03  0.11656999924E+04  0.97502884206E+03 0.  0.
        -24    2    4    4    0    0 -0.34289645080E+03 -0.23659200221E+03  0.26485213397E+03  0.50016593974E+03  0.80408724210E+02 0.  0.
         24    2    4    4    0    0  0.55712948805E+03  0.13502357275E+03  0.32841280617E+03  0.66553405261E+03  0.80349065211E+02 0.  0.
         11    1    3    3    0    0 -0.11976947757E+02 -0.16149996359E+02  0.26035673703E+02  0.32895683077E+02  0.00000000000E+00 0.  1.
        -11    1    3    3    0    0 -0.20225608949E+03  0.11771842582E+03  0.27749094265E+03  0.36299638671E+03  0.00000000000E+00 0. -1.
          4    1    6    6  502    0  0.59438156553E+02 -0.96055347366E+01  0.41641896746E+02  0.73206613885E+02  0.00000000000E+00 0. -1.
          3    1    5    5  503    0 -0.42695920015E+02 -0.14077439642E+01  0.31550749206E+02  0.53107185055E+02  0.00000000000E+00 0. -1.
         -4    1    5    5    0  503 -0.30020053078E+03 -0.23518425824E+03  0.23330138477E+03  0.44705875469E+03  0.00000000000E+00 0.  1.
         -3    1    6    6    0  502  0.49769133149E+03  0.14462910748E+03  0.28677090942E+03  0.59232743872E+03  0.00000000000E+00 0.  1.
<mgrwt>
<rscale>  0 0.12784110E+04</rscale>
<asrwt>0</asrwt>
<pdfrwt beam="1">  1        2 0.18910643E+00 0.12784110E+04</pdfrwt>
<pdfrwt beam="2">  1       -2 0.51138501E-01 0.12784110E+04</pdfrwt>
<totfact> 0.64535255E+01</totfact>
</mgrwt>
</event>
<event>
12    1  0.1532786E-007  0.1112583E+04  0.7818608E-02  0.9193014E-01
          2   -1    0    0  501    0  0.00000000000E+00  0.00000000000E+00  0.68021260848E+03  0.68021260848E+03  0.00000000000E+00 0. -1.
         -2   -1    0    0    0  501 -0.00000000000E+00 -0.00000000000E+00 -0.45494622698E+03  0.45494622698E+03  0.00000000000E+00 0.  1.
         23    2    1    2    0    0 -0.32405837840E+02  0.17790035966E+03  0.15378066309E+02  0.20394845610E+03  0.93058108349E+02 0.  0.
        254    2    1    2    0    0  0.32405837840E+02 -0.17790035966E+03  0.20988831519E+03  0.93121037936E+03  0.88904498732E+03 0.  0.
        -24    2    4    4    0    0  0.20928751505E+02  0.17400479556E+03 -0.26940536312E+03  0.33110172798E+03  0.79582806416E+02 0.  0.
         24    2    4    4    0    0  0.11477086335E+02 -0.35190515522E+03  0.47929367831E+03  0.60010865138E+03  0.80243389831E+02 0.  0.
         13    1    3    3    0    0  0.19879088582E+02  0.10846511024E+02 -0.13755098940E+02  0.26495805538E+02  0.00000000000E+00 0.  1.
        -13    1    3    3    0    0 -0.52284926422E+02  0.16705384863E+03  0.29133165249E+02  0.17745265056E+03  0.00000000000E+00 0. -1.
          2    1    6    6  502    0  0.75665669460E+01 -0.34435480476E+02  0.16623450602E+02  0.38979409448E+02  0.00000000000E+00 0. -1.
          1    1    5    5  503    0 -0.30571796460E+02  0.69996360774E+02 -0.11021766971E+03  0.13409720347E+03  0.00000000000E+00 0. -1.
         -2    1    5    5    0  503  0.51500547965E+02  0.10400843479E+03 -0.15918769341E+03  0.19700452452E+03  0.00000000000E+00 0.  1.
         -1    1    6    6    0  502  0.39105193893E+01 -0.31746967474E+03  0.46267022771E+03  0.56112924193E+03  0.00000000000E+00 0.  1.
<mgrwt>
<rscale>  0 0.11125829E+04</rscale>
<asrwt>0</asrwt>
<pdfrwt beam="1">  1        2 0.10464809E+00 0.11125829E+04</pdfrwt>
<pdfrwt beam="2">  1       -2 0.69991727E-01 0.11125829E+04</pdfrwt>
<totfact> 0.78418832E+01</totfact>
</mgrwt>
</event>
<event>
12    1  0.1532786E-007  0.2084535E+04  0.7818608E-02  0.8568087E-01
         -1   -1    0    0    0  501 -0.00000000000E+00  0.00000000000E+00  0.10398647709E+04  0.10398647709E+04  0.00000000000E+00 0.  1.
          1   -1    0    0  501    0  0.00000000000E+00 -0.00000000000E+00 -0.10446754488E+04  0.10446754488E+04  0.00000000000E+00 0. -1.
         23    2    1    2    0    0  0.39254743042E+03  0.67164914120E+03  0.32727525932E+03  0.84871832335E+03  0.89485434703E+02 0.  0.
        254    2    1    2    0    0 -0.39254743042E+03 -0.67164914120E+03 -0.33208593725E+03  0.12358218964E+04  0.90098203973E+03 0.  0.
        -24    2    4    4    0    0 -0.21608828935E+03 -0.81059093963E+03 -0.46473931167E+03  0.96232986434E+03  0.79651238468E+02 0.  0.
         24    2    4    4    0    0 -0.17645914107E+03  0.13894179842E+03  0.13265337441E+03  0.27349203207E+03  0.82209014397E+02 0.  0.
         11    1    3    3    0    0  0.39616009108E+03  0.65669400838E+03  0.32578138259E+03  0.83326067209E+03  0.00000000000E+00 0.  1.
        -11    1    3    3    0    0 -0.36126606685E+01  0.14955132821E+02  0.14938767336E+01  0.15457651260E+02  0.00000000000E+00 0. -1.
          2    1    6    6  502    0 -0.10526559260E+03  0.70892455561E+02  0.11916360485E+03  0.17408776511E+03  0.00000000000E+00 0. -1.
          3    1    5    5  503    0 -0.63786468080E+02 -0.33976382496E+03 -0.22495587958E+03  0.41244795795E+03  0.00000000000E+00 0. -1.
         -4    1    5    5    0  503 -0.15230182127E+03 -0.47082711466E+03 -0.23978343209E+03  0.54988190638E+03  0.00000000000E+00 0.  1.
         -1    1    6    6    0  502 -0.71193548466E+02  0.68049342861E+02  0.13489769567E+02  0.99404266960E+02  0.00000000000E+00 0.  1.
<mgrwt>
<rscale>  0 0.20845347E+04</rscale>
<asrwt>0</asrwt>
<pdfrwt beam="1">  1        1 0.16071930E+00 0.20845347E+04</pdfrwt>
<pdfrwt beam="2">  1       -1 0.15997919E+00 0.20845347E+04</pdfrwt>
<totfact> 0.37613576E+00</totfact>
</mgrwt>
</event>
<event>
12    1  0.1532786E-007  0.1205495E+04  0.7818608E-02  0.9108061E-01
         -2   -1    0    0    0  501 -0.00000000000E+00  0.00000000000E+00  0.21745379738E+03  0.21745379738E+03  0.00000000000E+00 0.  1.
          2   -1    0    0  501    0  0.00000000000E+00 -0.00000000000E+00 -0.16707199137E+04  0.16707199137E+04  0.00000000000E+00 0. -1.
         23    2    1    2    0    0 -0.24100417606E+03  0.11348922129E+03 -0.44041813964E+03  0.52355894566E+03  0.95828052423E+02 0.  0.
        254    2    1    2    0    0  0.24100417606E+03 -0.11348922129E+03 -0.10128479767E+04  0.13646147654E+04  0.87484262466E+03 0.  0.
        -24    2    4    4    0    0  0.35558525658E+03  0.27933674448E+03 -0.33460034193E+03  0.56828650184E+03  0.80760558680E+02 0.  0.
         24    2    4    4    0    0 -0.11458108052E+03 -0.39282596577E+03 -0.67824763478E+03  0.79632826360E+03  0.81717721067E+02 0.  0.
         11    1    3    3    0    0 -0.13234348538E+03  0.92721536165E+02 -0.32903147327E+03  0.36657030948E+03  0.00000000000E+00 0. -1.
        -11    1    3    3    0    0 -0.10866069068E+03  0.20767685121E+02 -0.11138666637E+03  0.15698863618E+03  0.00000000000E+00 0.  1.
          2    1    6    6  502    0 -0.67659500980E+02 -0.33731910987E+03 -0.57497189986E+03  0.67004080143E+03  0.00000000000E+00 0. -1.
          1    1    5    5  503    0  0.17380091614E+03  0.18011067026E+03 -0.15696965279E+03  0.29544218367E+03  0.00000000000E+00 0. -1.
         -2    1    5    5    0  503  0.18178434044E+03  0.99226074216E+02 -0.17763068913E+03  0.27284431816E+03  0.00000000000E+00 0.  1.
         -3    1    6    6    0  502 -0.46921579545E+02 -0.55506855896E+02 -0.10327573492E+03  0.12628746217E+03  0.00000000000E+00 0.  1.
<mgrwt>
<rscale>  0 0.12054947E+04</rscale>
<asrwt>0</asrwt>
<pdfrwt beam="1">  1        2 0.25703383E+00 0.12054947E+04</pdfrwt>
<pdfrwt beam="2">  1       -2 0.33454430E-01 0.12054947E+04</pdfrwt>
<totfact> 0.83848858E+01</totfact>
</mgrwt>
</event>
<event>
12    1  0.1532786E-007  0.1534589E+04  0.7818608E-02  0.8861772E-01
          2   -1    0    0  501    0  0.00000000000E+00  0.00000000000E+00  0.82137866018E+03  0.82137866018E+03  0.00000000000E+00 0.  1.
         -2   -1    0    0    0  501 -0.00000000000E+00 -0.00000000000E+00 -0.71677188233E+03  0.71677188233E+03  0.00000000000E+00 0. -1.
         23    2    1    2    0    0 -0.80861467938E+02  0.33869942706E+03  0.38806403866E+03  0.52945414801E+03  0.92044108207E+02 0.  0.
        254    2    1    2    0    0  0.80861467938E+02 -0.33869942706E+03 -0.28345726081E+03  0.10086963945E+04  0.90325218997E+03 0.  0.
        -24    2    4    4    0    0 -0.12969650911E+03 -0.23241464101E+03 -0.56705508569E+03  0.63169027137E+03  0.81506925558E+02 0.  0.
         24    2    4    4    0    0  0.21055797704E+03 -0.10628478605E+03  0.28359782488E+03  0.37700612313E+03  0.77940831119E+02 0.  0.
         11    1    3    3    0    0  0.61097390296E+01  0.55323500052E+01  0.36254350282E+02  0.37179479850E+02  0.00000000000E+00 0. -1.
        -11    1    3    3    0    0 -0.86971206968E+02  0.33316707705E+03  0.35180968838E+03  0.49227466816E+03  0.00000000000E+00 0.  1.
          4    1    6    6  502    0  0.65280297024E+02 -0.21861729954E+01  0.46894006350E+02  0.80407365107E+02  0.00000000000E+00 0. -1.
          3    1    5    5  503    0 -0.68670325598E+02 -0.60714460141E+02 -0.24607261364E+03  0.26259015684E+03  0.00000000000E+00 0. -1.
         -4    1    5    5    0  503 -0.61026183509E+02 -0.17170018087E+03 -0.32098247205E+03  0.36910011453E+03  0.00000000000E+00 0.  1.
         -3    1    6    6    0  502  0.14527768002E+03 -0.10409861306E+03  0.23670381853E+03  0.29659875802E+03  0.00000000000E+00 0.  1.
<mgrwt>
<rscale>  0 0.15345894E+04</rscale>
<asrwt>0</asrwt>
<pdfrwt beam="1">  1        2 0.12636595E+00 0.15345894E+04</pdfrwt>
<pdfrwt beam="2">  1       -2 0.11027260E+00 0.15345894E+04</pdfrwt>
<totfact> 0.20928476E+01</totfact>
</mgrwt>
</event>
<event>
12    1  0.1532786E-007  0.1439815E+04  0.7818608E-02  0.8925492E-01
          2   -1    0    0  501    0  0.00000000000E+00  0.00000000000E+00  0.34826792625E+03  0.34826792625E+03  0.00000000000E+00 0. -1.
         -2   -1    0    0    0  501 -0.00000000000E+00 -0.00000000000E+00 -0.14881266734E+04  0.14881266734E+04  0.00000000000E+00 0.  1.
         23    2    1    2    0    0  0.37606684970E+03  0.54987870398E+02 -0.61352728682E+03  0.72752962696E+03  0.91835097299E+02 0.  0.
        254    2    1    2    0    0 -0.37606684970E+03 -0.54987870398E+02 -0.52633146032E+03  0.11088649727E+04  0.89894759590E+03 0.  0.
        -24    2    4    4    0    0 -0.31220848117E+03  0.36921261337E+03 -0.45085271156E+03  0.66601782461E+03  0.80743331483E+02 0.  0.
         24    2    4    4    0    0 -0.63858368529E+02 -0.42420048377E+03 -0.75478748756E+02  0.44284714807E+03  0.79953820290E+02 0.  0.
         11    1    3    3    0    0  0.36762658264E+03  0.59515276072E+02 -0.55592663998E+03  0.66913810337E+03  0.00000000000E+00 0.  1.
        -11    1    3    3    0    0  0.84402670656E+01 -0.45274056734E+01 -0.57600646844E+02  0.58391523590E+02  0.00000000000E+00 0. -1.
          2    1    6    6  502    0  0.75687420301E+01 -0.20660054020E+01  0.10849586212E+01  0.79203137216E+01  0.00000000000E+00 0. -1.
          1    1    5    5  503    0 -0.58398924588E+02  0.11636840174E+03 -0.14586334433E+03  0.19552021516E+03  0.00000000000E+00 0. -1.
         -2    1    5    5    0  503 -0.25380955659E+03  0.25284421163E+03 -0.30498936723E+03  0.47049760945E+03  0.00000000000E+00 0.  1.
         -1    1    6    6    0  502 -0.71427110559E+02 -0.42213447837E+03 -0.76563707377E+02  0.43492683435E+03  0.00000000000E+00 0.  1.
<mgrwt>
<rscale>  0 0.14398150E+04</rscale>
<asrwt>0</asrwt>
<pdfrwt beam="1">  1        2 0.53579681E-01 0.14398150E+04</pdfrwt>
<pdfrwt beam="2">  1       -2 0.22894256E+00 0.14398150E+04</pdfrwt>
<totfact> 0.78280577E+00</totfact>
</mgrwt>
</event>
<event>
12    1  0.1532786E-007  0.3743684E+04  0.7818608E-02  0.8058349E-01
          3   -1    0    0  501    0  0.00000000000E+00  0.00000000000E+00  0.95377604951E+03  0.95377604951E+03  0.00000000000E+00 0. -1.
         -3   -1    0    0    0  501 -0.00000000000E+00 -0.00000000000E+00 -0.36736006534E+04  0.36736006534E+04  0.00000000000E+00 0.  1.
         23    2    1    2    0    0 -0.18255929335E+03  0.14859347815E+04 -0.12899294381E+03  0.15052273173E+04  0.87977422352E+02 0.  0.
        254    2    1    2    0    0  0.18255929335E+03 -0.14859347815E+04 -0.25908316600E+04  0.31221493856E+04  0.89111055699E+03 0.  0.
        -24    2    4    4    0    0  0.19450911322E+03 -0.99098672884E+03 -0.88878334934E+03  0.13476669872E+04  0.79887260352E+02 0.  0.
         24    2    4    4    0    0 -0.11949819872E+02 -0.49494805263E+03 -0.17020483107E+04  0.17744823984E+04  0.81871590264E+02 0.  0.
         11    1    3    3    0    0 -0.31004418468E+01  0.21839696587E+02 -0.13039089484E+02  0.25624264696E+02  0.00000000000E+00 0.  1.
        -11    1    3    3    0    0 -0.17945885150E+03  0.14640950849E+04 -0.11595385433E+03  0.14796030526E+04  0.00000000000E+00 0. -1.
          4    1    6    6  502    0 -0.14672469841E+02 -0.14603391963E+03 -0.63883361531E+03  0.65547660150E+03  0.00000000000E+00 0. -1.
          3    1    5    5  503    0  0.11419393272E+03 -0.75405870935E+03 -0.68134542886E+03  0.10226809790E+04  0.00000000000E+00 0. -1.
         -4    1    5    5    0  503  0.80315180500E+02 -0.23692801950E+03 -0.20743792048E+03  0.32498600815E+03  0.00000000000E+00 0.  1.
         -3    1    6    6    0  502  0.27226499693E+01 -0.34891413299E+03 -0.10632146954E+04  0.11190057969E+04  0.00000000000E+00 0.  1.
<mgrwt>
<rscale>  0 0.37436839E+04</rscale>
<asrwt>0</asrwt>
<pdfrwt beam="1">  1        3 0.14673478E+00 0.37436839E+04</pdfrwt>
<pdfrwt beam="2">  1       -3 0.56516934E+00 0.37436839E+04</pdfrwt>
<totfact> 0.98478782E-04</totfact>
</mgrwt>
</event>
<event>
12    1  0.1532786E-007  0.1326459E+04  0.7818608E-02  0.9008842E-01
         -1   -1    0    0    0  501 -0.00000000000E+00  0.00000000000E+00  0.56571198772E+03  0.56571198772E+03  0.00000000000E+00 0.  1.
          1   -1    0    0  501    0  0.00000000000E+00 -0.00000000000E+00 -0.77755749644E+03  0.77755749644E+03  0.00000000000E+00 0. -1.
         23    2    1    2    0    0  0.21214774498E+03 -0.66106477845E+02 -0.32260491248E+03  0.40209525217E+03  0.90718962465E+02 0.  0.
        254    2    1    2    0    0 -0.21214774498E+03  0.66106477845E+02  0.11075940376E+03  0.94117423199E+03  0.90783509369E+03 0.  0.
        -24    2    4    4    0    0 -0.48997739547E+03  0.21094748977E+03  0.24541747154E+03  0.59250485306E+03  0.79092187094E+02 0.  0.
         24    2    4    4    0    0  0.27782965049E+03 -0.14484101192E+03 -0.13465806777E+03  0.34866937893E+03  0.72589993532E+02 0.  0.
         11    1    3    3    0    0  0.13675604113E+03 -0.50052608563E+02 -0.27588041467E+03  0.31195749969E+03  0.00000000000E+00 0. -1.
        -11    1    3    3    0    0  0.75391703847E+02 -0.16053869282E+02 -0.46724497805E+02  0.90137752485E+02  0.00000000000E+00 0.  1.
          2    1    6    6  502    0  0.27790658955E+03 -0.14861481255E+03 -0.13760547553E+03  0.34388035990E+03  0.00000000000E+00 0. -1.
          1    1    5    5  503    0 -0.32238090015E+03  0.17063422728E+03  0.14157285169E+03  0.39126507209E+03  0.00000000000E+00 0. -1.
         -2    1    5    5    0  503 -0.16759649532E+03  0.40313262482E+02  0.10384461984E+03  0.20123978097E+03  0.00000000000E+00 0.  1.
         -1    1    6    6    0  502 -0.76939061626E-01  0.37738006313E+01  0.29474077565E+01  0.47890190339E+01  0.00000000000E+00 0.  1.
<mgrwt>
<rscale>  0 0.13264593E+04</rscale>
<asrwt>0</asrwt>
<pdfrwt beam="1">  1        1 0.11962423E+00 0.13264593E+04</pdfrwt>
<pdfrwt beam="2">  1       -1 0.87032613E-01 0.13264593E+04</pdfrwt>
<totfact> 0.29517166E+01</totfact>
</mgrwt>
</event>
<event>
12    1  0.1532786E-007  0.3352149E+04  0.7818608E-02  0.8149751E-01
          1   -1    0    0  501    0  0.00000000000E+00  0.00000000000E+00  0.10179497299E+04  0.10179497299E+04  0.00000000000E+00 0. -1.
         -1   -1    0    0    0  501 -0.00000000000E+00 -0.00000000000E+00 -0.27596906378E+04  0.27596906378E+04  0.00000000000E+00 0.  1.
         23    2    1    2    0    0  0.21479769995E+03  0.51089515722E+03 -0.24533743655E+04  0.25168349995E+04  0.90888525604E+02 0.  0.
        254    2    1    2    0    0 -0.21479769995E+03 -0.51089515722E+03  0.71163345754E+03  0.12608053681E+04  0.88094045478E+03 0.  0.
        -24    2    4    4    0    0  0.27205110517E+03 -0.11828493189E+03  0.51629190282E+03  0.60073480994E+03  0.79510087576E+02 0.  0.
         24    2    4    4    0    0 -0.48684880512E+03 -0.39261022534E+03  0.19534155472E+03  0.66007055820E+03  0.79813975670E+02 0.  0.
         13    1    3    3    0    0  0.12088618421E+02  0.11625647040E+03 -0.45096815277E+03  0.46586905501E+03  0.00000000000E+00 0. -1.
        -13    1    3    3    0    0  0.20270908153E+03  0.39463868682E+03 -0.20024062127E+04  0.20509659445E+04  0.00000000000E+00 0.  1.
          2    1    6    6  502    0 -0.84952931059E+02 -0.58429136281E+02  0.63229321009E+02  0.12095003719E+03  0.00000000000E+00 0. -1.
          3    1    5    5  503    0  0.95442300331E+02 -0.65498493789E+02  0.13950149175E+03  0.18127314082E+03  0.00000000000E+00 0. -1.
         -4    1    5    5    0  503  0.17660880484E+03 -0.52786438097E+02  0.37679041107E+03  0.41946166913E+03  0.00000000000E+00 0.  1.
         -1    1    6    6    0  502 -0.40189587406E+03 -0.33418108906E+03  0.13211223371E+03  0.53912052100E+03  0.00000000000E+00 0.  1.
<mgrwt>
<rscale>  0 0.33521494E+04</rscale>
<asrwt>0</asrwt>
<pdfrwt beam="1">  1        1 0.15660765E+00 0.33521494E+04</pdfrwt>
<pdfrwt beam="2">  1       -1 0.42456779E+00 0.33521494E+04</pdfrwt>
<totfact> 0.58622521E-02</totfact>
</mgrwt>
</event>
<event>
12    1  0.1532786E-007  0.1856911E+04  0.7818608E-02  0.8676607E-01
          2   -1    0    0  501    0  0.00000000000E+00  0.00000000000E+00  0.34972341649E+04  0.34972341649E+04  0.00000000000E+00 0. -1.
         -2   -1    0    0    0  501 -0.00000000000E+00 -0.00000000000E+00 -0.24648902878E+03  0.24648902878E+03  0.00000000000E+00 0.  1.
         23    2    1    2    0    0 -0.54135598727E+03 -0.33132558059E+03  0.62728202676E+03  0.89905482612E+03  0.10942528942E+03 0.  0.
        254    2    1    2    0    0  0.54135598727E+03  0.33132558059E+03  0.26234631094E+04  0.28446683676E+04  0.89818510897E+03 0.  0.
        -24    2    4    4    0    0 -0.22793673433E+03 -0.17247838688E+02  0.44336648478E+03  0.50530643394E+03  0.80672855111E+02 0.  0.
         24    2    4    4    0    0  0.76929272160E+03  0.34857341928E+03  0.21800966246E+04  0.23393619336E+04  0.80487538802E+02 0.  0.
         11    1    3    3    0    0 -0.16656413052E+03 -0.58638707936E+02  0.21948202937E+03  0.28169925250E+03  0.00000000000E+00 0. -1.
        -11    1    3    3    0    0 -0.37479185675E+03 -0.27268687266E+03  0.40779999740E+03  0.61735557362E+03  0.00000000000E+00 0.  1.
          4    1    6    6  502    0  0.19961180297E+02 -0.36363282700E+01  0.58921913491E+02  0.62317441311E+02  0.00000000000E+00 0. -1.
          3    1    5    5  503    0 -0.12015571725E+02  0.91662049676E+01  0.83077513586E+02  0.84440905614E+02  0.00000000000E+00 0. -1.
         -4    1    5    5    0  503 -0.21592116261E+03 -0.26414043655E+02  0.36028897120E+03  0.42086552832E+03  0.00000000000E+00 0.  1.
         -3    1    6    6    0  502  0.74933154130E+03  0.35220974755E+03  0.21211747111E+04  0.22770444923E+04  0.00000000000E+00 0.  1.
<mgrwt>
<rscale>  0 0.18569113E+04</rscale>
<asrwt>0</asrwt>
<pdfrwt beam="1">  1        2 0.53803599E+00 0.18569113E+04</pdfrwt>
<pdfrwt beam="2">  1       -2 0.37921392E-01 0.18569113E+04</pdfrwt>
<totfact> 0.50742092E+00</totfact>
</mgrwt>
</event>
<event>
12    1  0.1532786E-007  0.1792713E+04  0.7818608E-02  0.8710184E-01
          1   -1    0    0  501    0  0.00000000000E+00  0.00000000000E+00  0.54248201287E+03  0.54248201287E+03  0.00000000000E+00 0. -1.
         -1   -1    0    0    0  501 -0.00000000000E+00 -0.00000000000E+00 -0.14810718613E+04  0.14810718613E+04  0.00000000000E+00 0.  1.
         23    2    1    2    0    0  0.65996185772E+03  0.95931421587E+02 -0.40359263743E+03  0.78488690440E+03  0.91694843984E+02 0.  0.
        254    2    1    2    0    0 -0.65996185772E+03 -0.95931421587E+02 -0.53499721099E+03  0.12386669698E+04  0.89628196175E+03 0.  0.
        -24    2    4    4    0    0 -0.15038929208E+03  0.25510584150E+03 -0.53208491798E+03  0.61474329979E+03  0.84255772231E+02 0.  0.
         24    2    4    4    0    0 -0.50957256563E+03 -0.35103726309E+03 -0.29122930084E+01  0.62392366998E+03  0.79880565797E+02 0.  0.
         13    1    3    3    0    0  0.37659967095E+03  0.69159624853E+02 -0.28120589801E+03  0.47506538808E+03  0.00000000000E+00 0.  1.
        -13    1    3    3    0    0  0.28336218676E+03  0.26771796734E+02 -0.12238673942E+03  0.30982151632E+03  0.00000000000E+00 0. -1.
          4    1    6    6  502    0 -0.33299840436E+03 -0.27354598800E+03 -0.81207639308E+01  0.43102353957E+03  0.00000000000E+00 0. -1.
          3    1    5    5  503    0 -0.21243653547E+02  0.70614601684E+02 -0.20300945444E+03  0.21598739172E+03  0.00000000000E+00 0. -1.
         -2    1    5    5    0  503 -0.12914563854E+03  0.18449123981E+03 -0.32907546354E+03  0.39875590807E+03  0.00000000000E+00 0.  1.
         -3    1    6    6    0  502 -0.17657416127E+03 -0.77491275089E+02  0.52084709225E+01  0.19290013041E+03  0.00000000000E+00 0.  1.
<mgrwt>
<rscale>  0 0.17927129E+04</rscale>
<asrwt>0</asrwt>
<pdfrwt beam="1">  1        1 0.83458773E-01 0.17927129E+04</pdfrwt>
<pdfrwt beam="2">  1       -1 0.22785721E+00 0.17927129E+04</pdfrwt>
<totfact> 0.36421443E+00</totfact>
</mgrwt>
</event>
<event>
12    1  0.1532786E-007  0.1609553E+04  0.7818608E-02  0.8814701E-01
         -2   -1    0    0    0  501 -0.00000000000E+00  0.00000000000E+00  0.27222883401E+03  0.27222883401E+03  0.00000000000E+00 0.  1.
          2   -1    0    0  501    0  0.00000000000E+00 -0.00000000000E+00 -0.23791193488E+04  0.23791193488E+04  0.00000000000E+00 0. -1.
         23    2    1    2    0    0 -0.38734109882E+03 -0.74078573586E+02 -0.12327436697E+04  0.12974216911E+04  0.90140598872E+02 0.  0.
        254    2    1    2    0    0  0.38734109882E+03  0.74078573586E+02 -0.87414684512E+03  0.13539264917E+04  0.95575283218E+03 0.  0.
        -24    2    4    4    0    0 -0.24505231099E+03  0.20716798802E+03 -0.10485581143E+03  0.34615934368E+03  0.76565917003E+02 0.  0.
         24    2    4    4    0    0  0.63239340980E+03 -0.13308941444E+03 -0.76929103369E+03  0.10077671480E+04  0.78432857426E+02 0.  0.
         13    1    3    3    0    0 -0.31050187472E+03 -0.33443456102E+02 -0.10422734796E+04  0.10880550929E+04  0.00000000000E+00 0. -1.
        -13    1    3    3    0    0 -0.76839224092E+02 -0.40635117484E+02 -0.19047019008E+03  0.20936659820E+03  0.00000000000E+00 0.  1.
          2    1    6    6  502    0  0.45051653873E+03 -0.62240317625E+02 -0.51215080294E+03  0.68493609466E+03  0.00000000000E+00 0. -1.
          3    1    5    5  503    0 -0.24693910861E+03  0.20494137297E+03 -0.11083495052E+03  0.33950592922E+03  0.00000000000E+00 0. -1.
         -4    1    5    5    0  503  0.18867976237E+01  0.22266150502E+01  0.59791390854E+01  0.66534144660E+01  0.00000000000E+00 0.  1.
         -1    1    6    6    0  502  0.18187687107E+03 -0.70849096812E+02 -0.25714023075E+03  0.32283105337E+03  0.00000000000E+00 0.  1.
<mgrwt>
<rscale>  0 0.16095526E+04</rscale>
<asrwt>0</asrwt>
<pdfrwt beam="1">  1        2 0.36601836E+00 0.16095526E+04</pdfrwt>
<pdfrwt beam="2">  1       -2 0.41881359E-01 0.16095526E+04</pdfrwt>
<totfact> 0.21186909E+01</totfact>
</mgrwt>
</event>
<event>
12    1  0.1532786E-007  0.2864773E+04  0.7818608E-02  0.8283436E-01
         -1   -1    0    0    0  501 -0.00000000000E+00  0.00000000000E+00  0.49249680831E+03  0.49249680831E+03  0.00000000000E+00 0. -1.
          1   -1    0    0  501    0  0.00000000000E+00 -0.00000000000E+00 -0.41659792334E+04  0.41659792334E+04  0.00000000000E+00 0.  1.
         23    2    1    2    0    0 -0.12534189805E+04 -0.25731769786E+03 -0.14675188559E+04  0.19496410992E+04  0.10108058755E+03 0.  0.
        254    2    1    2    0    0  0.12534189805E+04  0.25731769786E+03 -0.22059635693E+04  0.27088349425E+04  0.91336736229E+03 0.  0.
        -24    2    4    4    0    0  0.58901716156E+03  0.57798669648E+03 -0.11124130016E+04  0.13873314878E+04  0.78842456184E+02 0.  0.
         24    2    4    4    0    0  0.66440181895E+03 -0.32066899862E+03 -0.10935505676E+04  0.13215034547E+04  0.79121129632E+02 0.  0.
         11    1    3    3    0    0 -0.95409471587E+03 -0.19949673441E+03 -0.10502598586E+04  0.14328787264E+04  0.00000000000E+00 0.  1.
        -11    1    3    3    0    0 -0.29932426464E+03 -0.57820963451E+02 -0.41725899724E+03  0.51676237285E+03  0.00000000000E+00 0. -1.
          2    1    6    6  502    0  0.10391734796E+03 -0.59834779864E+02 -0.23129870253E+03  0.26053427007E+03  0.00000000000E+00 0. -1.
          3    1    5    5  503    0  0.48399681790E+02  0.77358463538E+02 -0.10300530898E+03  0.13761160836E+03  0.00000000000E+00 0. -1.
         -4    1    5    5    0  503  0.54061747977E+03  0.50062823294E+03 -0.10094076927E+04  0.12497198794E+04  0.00000000000E+00 0.  1.
         -1    1    6    6    0  502  0.56048447099E+03 -0.26083421876E+03 -0.86225186510E+03  0.10609691846E+04  0.00000000000E+00 0.  1.
<mgrwt>
<rscale>  0 0.28647733E+04</rscale>
<asrwt>0</asrwt>
<pdfrwt beam="1">  1        1 0.64091988E+00 0.28647733E+04</pdfrwt>
<pdfrwt beam="2">  1       -1 0.75768740E-01 0.28647733E+04</pdfrwt>
<totfact> 0.10249037E-01</totfact>
</mgrwt>
</event>
<event>
12    1  0.1532786E-007  0.1397341E+04  0.7818608E-02  0.8955746E-01
          1   -1    0    0  501    0  0.00000000000E+00  0.00000000000E+00  0.95610855022E+03  0.95610855022E+03  0.00000000000E+00 0. -1.
         -1   -1    0    0    0  501 -0.00000000000E+00 -0.00000000000E+00 -0.51054896775E+03  0.51054896775E+03  0.00000000000E+00 0.  1.
         23    2    1    2    0    0 -0.23706139500E+03 -0.25003657076E+03 -0.15505220220E+03  0.39099192019E+03  0.10058381843E+03 0.  0.
        254    2    1    2    0    0  0.23706139500E+03  0.25003657076E+03  0.60061178467E+03  0.10756655978E+04  0.82316800875E+03 0.  0.
        -24    2    4    4    0    0  0.36230597118E+03  0.34807002307E+03  0.70766939803E+03  0.87119241956E+03  0.75907162263E+02 0.  0.
         24    2    4    4    0    0 -0.12524457618E+03 -0.98033452308E+02 -0.10705761336E+03  0.20447317821E+03  0.71071698976E+02 0.  0.
         11    1    3    3    0    0 -0.22244913431E+03 -0.17972029010E+03 -0.11115232211E+03  0.30681890219E+03  0.00000000000E+00 0.  1.
        -11    1    3    3    0    0 -0.14612260694E+02 -0.70316280660E+02 -0.43899880094E+02  0.84173018008E+02  0.00000000000E+00 0. -1.
          2    1    6    6  502    0 -0.27330161119E+02  0.65300955214E+01 -0.32561788335E+02  0.43009881584E+02  0.00000000000E+00 0. -1.
          3    1    5    5  503    0  0.91729732254E+02  0.61202616210E+02  0.19970639028E+03  0.22812879329E+03  0.00000000000E+00 0. -1.
         -4    1    5    5    0  503  0.27057623893E+03  0.28686740686E+03  0.50796300775E+03  0.64306362627E+03  0.00000000000E+00 0.  1.
         -1    1    6    6    0  502 -0.97914415061E+02 -0.10456354783E+03 -0.74495825027E+02  0.16146329663E+03  0.00000000000E+00 0.  1.
<mgrwt>
<rscale>  0 0.13973407E+04</rscale>
<asrwt>0</asrwt>
<pdfrwt beam="1">  1        1 0.14709362E+00 0.13973407E+04</pdfrwt>
<pdfrwt beam="2">  1       -1 0.78545995E-01 0.13973407E+04</pdfrwt>
<totfact> 0.25932398E+01</totfact>
</mgrwt>
</event>
<event>
12    1  0.1532786E-007  0.1234621E+04  0.7818608E-02  0.9083081E-01
          1   -1    0    0  501    0  0.00000000000E+00  0.00000000000E+00  0.81559369108E+03  0.81559369108E+03  0.00000000000E+00 0. -1.
         -1   -1    0    0    0  501 -0.00000000000E+00 -0.00000000000E+00 -0.46723330946E+03  0.46723330946E+03  0.00000000000E+00 0.  1.
         23    2    1    2    0    0  0.83383768656E+01  0.69160162514E+02  0.36051268920E+03  0.37861625916E+03  0.92348340618E+02 0.  0.
        254    2    1    2    0    0 -0.83383768656E+01 -0.69160162514E+02 -0.12152307580E+02  0.90421074139E+03  0.90144147323E+03 0.  0.
        -24    2    4    4    0    0 -0.36429655693E+03  0.20892232279E+03  0.83801277435E+02  0.43567097382E+03  0.80162491084E+02 0.  0.
         24    2    4    4    0    0  0.35595818006E+03 -0.27808248530E+03 -0.95953585015E+02  0.46853976757E+03  0.79286371662E+02 0.  0.
         11    1    3    3    0    0  0.20562378615E+02  0.19386220247E+01  0.23333721007E+03  0.23424948938E+03  0.00000000000E+00 0. -1.
        -11    1    3    3    0    0 -0.12224001749E+02  0.67221540490E+02  0.12717547913E+03  0.14436676978E+03  0.00000000000E+00 0.  1.
          2    1    6    6  502    0  0.33478182841E+03 -0.23031045586E+03 -0.84553867561E+02  0.41505558090E+03  0.00000000000E+00 0. -1.
          3    1    5    5  503    0 -0.29331920253E+03  0.20204968712E+03  0.67289927411E+02  0.36247505427E+03  0.00000000000E+00 0. -1.
         -4    1    5    5    0  503 -0.70977354396E+02  0.68726356688E+01  0.16511350024E+02  0.73195919543E+02  0.00000000000E+00 0.  1.
         -1    1    6    6    0  502  0.21176351653E+02 -0.47772029441E+02 -0.11399717454E+02  0.53484186675E+02  0.00000000000E+00 0.  1.
<mgrwt>
<rscale>  0 0.12346215E+04</rscale>
<asrwt>0</asrwt>
<pdfrwt beam="1">  1        1 0.12547595E+00 0.12346215E+04</pdfrwt>
<pdfrwt beam="2">  1       -1 0.71882048E-01 0.12346215E+04</pdfrwt>
<totfact> 0.41339603E+01</totfact>
</mgrwt>
</event>
<event>
12    1  0.1532786E-007  0.1665571E+04  0.7818608E-02  0.8781248E-01
          2   -1    0    0  501    0  0.00000000000E+00  0.00000000000E+00  0.26269674739E+04  0.26269674739E+04  0.00000000000E+00 0. -1.
         -2   -1    0    0    0  501 -0.00000000000E+00 -0.00000000000E+00 -0.26400473105E+03  0.26400473105E+03  0.00000000000E+00 0.  1.
         23    2    1    2    0    0  0.45112287579E+03  0.16792931630E+03  0.14093766897E+04  0.14921647900E+04  0.92200881913E+02 0.  0.
        254    2    1    2    0    0 -0.45112287579E+03 -0.16792931630E+03  0.95358605315E+03  0.13988074150E+04  0.90311888426E+03 0.  0.
        -24    2    4    4    0    0 -0.49874094433E+03  0.24207726681E+03  0.34040567353E+03  0.65528144750E+03  0.78573661044E+02 0.  0.
         24    2    4    4    0    0  0.47618068535E+02 -0.41000658311E+03  0.61318037962E+03  0.74352596748E+03  0.80422681707E+02 0.  0.
         11    1    3    3    0    0  0.19700426817E+03  0.86764215206E+02  0.76607218626E+03  0.79574198411E+03  0.00000000000E+00 0. -1.
        -11    1    3    3    0    0  0.25411860762E+03  0.81165101095E+02  0.64330450344E+03  0.69642280586E+03  0.00000000000E+00 0.  1.
          2    1    6    6  502    0  0.10313432561E+01 -0.17935537026E+03  0.32764785158E+03  0.37352714380E+03  0.00000000000E+00 0. -1.
          1    1    5    5  503    0 -0.37637741988E+03  0.14805826764E+03  0.26495670587E+03  0.48351139469E+03  0.00000000000E+00 0. -1.
         -2    1    5    5    0  503 -0.12236352445E+03  0.94018999170E+02  0.75448967665E+02  0.17177005281E+03  0.00000000000E+00 0.  1.
         -1    1    6    6    0  502  0.46586725279E+02 -0.23065121285E+03  0.28553252804E+03  0.36999882368E+03  0.00000000000E+00 0.  1.
<mgrwt>
<rscale>  0 0.16655712E+04</rscale>
<asrwt>0</asrwt>
<pdfrwt beam="1">  1        2 0.40414882E+00 0.16655712E+04</pdfrwt>
<pdfrwt beam="2">  1       -2 0.40616114E-01 0.16655712E+04</pdfrwt>
<totfact> 0.16106712E+01</totfact>
</mgrwt>
</event>
<event>
12    1  0.1532786E-007  0.2624432E+04  0.7818608E-02  0.8359949E-01
         -1   -1    0    0    0  501 -0.00000000000E+00  0.00000000000E+00  0.62433802818E+03  0.62433802818E+03  0.00000000000E+00 0.  1.
          1   -1    0    0  501    0  0.00000000000E+00 -0.00000000000E+00 -0.27579786180E+04  0.27579786180E+04  0.00000000000E+00 0. -1.
         23    2    1    2    0    0 -0.11007497617E+04 -0.27945164318E+03 -0.12288641862E+04  0.16758421309E+04  0.92716776223E+02 0.  0.
        254    2    1    2    0    0  0.11007497617E+04  0.27945164318E+03 -0.90477640359E+03  0.17064745153E+04  0.89648852311E+03 0.  0.
        -24    2    4    4    0    0  0.10406572586E+04  0.34840917708E+03 -0.10474146574E+04  0.15191099715E+04  0.79127468822E+02 0.  0.
         24    2    4    4    0    0  0.60092503087E+02 -0.68957533900E+02  0.14263825377E+03  0.18736454383E+03  0.79959680074E+02 0.  0.
         11    1    3    3    0    0 -0.96398892079E+03 -0.24643515349E+03 -0.10285279772E+04  0.14310397354E+04  0.00000000000E+00 0.  1.
        -11    1    3    3    0    0 -0.13676084093E+03 -0.33016489692E+02 -0.20033620898E+03  0.24480239548E+03  0.00000000000E+00 0. -1.
          4    1    6    6  502    0  0.75985358079E+02 -0.36353799387E+02  0.11018444070E+03  0.13869385114E+03  0.00000000000E+00 0. -1.
          3    1    5    5  503    0  0.23477892763E+03  0.74581340392E+02 -0.28190384658E+03  0.37437053825E+03  0.00000000000E+00 0. -1.
         -4    1    5    5    0  503  0.80587833101E+03  0.27382783669E+03 -0.76551081079E+03  0.11447394332E+04  0.00000000000E+00 0.  1.
         -3    1    6    6    0  502 -0.15892854993E+02 -0.32603734513E+02  0.32453813072E+02  0.48670692690E+02  0.00000000000E+00 0.  1.
<mgrwt>
<rscale>  0 0.26244321E+04</rscale>
<asrwt>0</asrwt>
<pdfrwt beam="1">  1        1 0.42430441E+00 0.26244321E+04</pdfrwt>
<pdfrwt beam="2">  1       -1 0.96052004E-01 0.26244321E+04</pdfrwt>
<totfact> 0.81927627E-01</totfact>
</mgrwt>
</event>
<event>
12    1  0.1532786E-007  0.1855606E+04  0.7818608E-02  0.8677275E-01
         -2   -1    0    0    0  501 -0.00000000000E+00  0.00000000000E+00  0.25786071672E+03  0.25786071672E+03  0.00000000000E+00 0.  1.
          2   -1    0    0  501    0  0.00000000000E+00 -0.00000000000E+00 -0.33383077199E+04  0.33383077199E+04  0.00000000000E+00 0. -1.
         23    2    1    2    0    0  0.49065621678E+03  0.24643214447E+03 -0.32618150769E+03  0.64491140751E+03  0.89688475702E+02 0.  0.
        254    2    1    2    0    0 -0.49065621678E+03 -0.24643214447E+03 -0.27542654955E+04  0.29512570291E+04  0.90689983311E+03 0.  0.
        -24    2    4    4    0    0 -0.25426638037E+03 -0.35308218935E+03 -0.44965282836E+03  0.63071143938E+03  0.79314747015E+02 0.  0.
         24    2    4    4    0    0 -0.23638983641E+03  0.10665004488E+03 -0.23046126671E+04  0.23205455897E+04  0.80236535716E+02 0.  0.
         13    1    3    3    0    0  0.17307817142E+03  0.95407569959E+02 -0.69338824413E+02  0.20944338232E+03  0.00000000000E+00 0. -1.
        -13    1    3    3    0    0  0.31757804536E+03  0.15102457451E+03 -0.25684268328E+03  0.43546802518E+03  0.00000000000E+00 0.  1.
          2    1    6    6  502    0 -0.14853299984E+03  0.28944417004E+02 -0.14615221395E+04  0.14693354945E+04  0.00000000000E+00 0. -1.
          3    1    5    5  503    0 -0.21444742570E+03 -0.31850677057E+03 -0.42414709939E+03  0.57213199807E+03  0.00000000000E+00 0. -1.
         -4    1    5    5    0  503 -0.39818954671E+02 -0.34575418777E+02 -0.25505728968E+02  0.58579441316E+02  0.00000000000E+00 0.  1.
         -1    1    6    6    0  502 -0.87856836571E+02  0.77705627873E+02 -0.84309052762E+03  0.85121009515E+03  0.00000000000E+00 0.  1.
<mgrwt>
<rscale>  0 0.18556060E+04</rscale>
<asrwt>0</asrwt>
<pdfrwt beam="1">  1        2 0.51358575E+00 0.18556060E+04</pdfrwt>
<pdfrwt beam="2">  1       -2 0.39670883E-01 0.18556060E+04</pdfrwt>
<totfact> 0.59664078E+00</totfact>
</mgrwt>
</event>
<event>
12    1  0.1532786E-007  0.2102960E+04  0.7818608E-02  0.8559940E-01
         -1   -1    0    0    0  501 -0.00000000000E+00  0.00000000000E+00  0.98091246194E+03  0.98091246194E+03  0.00000000000E+00 0.  1.
          1   -1    0    0  501    0  0.00000000000E+00 -0.00000000000E+00 -0.11271245855E+04  0.11271245855E+04  0.00000000000E+00 0. -1.
         23    2    1    2    0    0 -0.75508793344E+03  0.41570175261E+03 -0.16442070815E+03  0.88200771097E+03  0.89093762911E+02 0.  0.
        254    2    1    2    0    0  0.75508793344E+03 -0.41570175261E+03  0.18208584617E+02  0.12260293365E+04  0.87169412464E+03 0.  0.
        -24    2    4    4    0    0  0.65228621676E+03 -0.32487482323E+03  0.38435278847E+03  0.82743308468E+03  0.76795079717E+02 0.  0.
         24    2    4    4    0    0  0.10280171668E+03 -0.90826929377E+02 -0.36614420385E+03  0.39859625177E+03  0.77457535872E+02 0.  0.
         11    1    3    3    0    0 -0.65832400157E+03  0.36384622124E+03 -0.11242884841E+03  0.76053587010E+03  0.00000000000E+00 0. -1.
        -11    1    3    3    0    0 -0.96763931863E+02  0.51855531369E+02 -0.51991859741E+02  0.12147184086E+03  0.00000000000E+00 0.  1.
          4    1    6    6  502    0  0.30007265741E+02 -0.27753295151E+02 -0.21865001466E+03  0.22243765486E+03  0.00000000000E+00 0. -1.
          3    1    5    5  503    0  0.49553391448E+03 -0.28221034648E+03  0.29589436782E+03  0.64245623739E+03  0.00000000000E+00 0. -1.
         -4    1    5    5    0  503  0.15675230229E+03 -0.42664476755E+02  0.88458420646E+02  0.18497684729E+03  0.00000000000E+00 0.  1.
         -3    1    6    6    0  502  0.72794450935E+02 -0.63073634226E+02 -0.14749418919E+03  0.17615859691E+03  0.00000000000E+00 0.  1.
<mgrwt>
<rscale>  0 0.21029603E+04</rscale>
<asrwt>0</asrwt>
<pdfrwt beam="1">  1        1 0.17340378E+00 0.21029603E+04</pdfrwt>
<pdfrwt beam="2">  1       -1 0.15090961E+00 0.21029603E+04</pdfrwt>
<totfact> 0.38183313E+00</totfact>
</mgrwt>
</event>
<event>
12    1  0.1532786E-007  0.3268487E+04  0.7818608E-02  0.8170961E-01
          2   -1    0    0  501    0  0.00000000000E+00  0.00000000000E+00  0.15044164088E+04  0.15044164088E+04  0.00000000000E+00 0. -1.
         -2   -1    0    0    0  501 -0.00000000000E+00 -0.00000000000E+00 -0.17752741016E+04  0.17752741016E+04  0.00000000000E+00 0.  1.
         23    2    1    2    0    0  0.86893431793E+03  0.11560752660E+04 -0.44185133545E+03  0.15147691836E+04  0.87955712755E+02 0.  0.
        254    2    1    2    0    0 -0.86893431793E+03 -0.11560752660E+04  0.17099364271E+03  0.17649213268E+04  0.99707150925E+03 0.  0.
        -24    2    4    4    0    0 -0.40849126130E+03 -0.42116391952E+03  0.55676999499E+03  0.81231645128E+03  0.74973542229E+02 0.  0.
         24    2    4    4    0    0 -0.46044305662E+03 -0.73491134645E+03 -0.38577635228E+03  0.95260487554E+03  0.80809401554E+02 0.  0.
         11    1    3    3    0    0  0.41453484560E+03  0.54120881226E+03 -0.16287580005E+03  0.70090986790E+03  0.00000000000E+00 0.  1.
        -11    1    3    3    0    0  0.45439947233E+03  0.61486645371E+03 -0.27897553540E+03  0.81385931567E+03  0.00000000000E+00 0. -1.
          2    1    6    6  502    0 -0.20858296078E+03 -0.26129720432E+03 -0.13732273563E+03  0.36144240791E+03  0.00000000000E+00 0. -1.
          3    1    5    5  503    0 -0.17209695923E+02 -0.46919168361E+02  0.43500007492E+02  0.66255812162E+02  0.00000000000E+00 0. -1.
         -4    1    5    5    0  503 -0.39128156538E+03 -0.37424475116E+03  0.51326998750E+03  0.74606063912E+03  0.00000000000E+00 0.  1.
         -1    1    6    6    0  502 -0.25186009584E+03 -0.47361414213E+03 -0.24845361665E+03  0.59116246763E+03  0.00000000000E+00 0.  1.
<mgrwt>
<rscale>  0 0.32684868E+04</rscale>
<asrwt>0</asrwt>
<pdfrwt beam="1">  1        2 0.23144868E+00 0.32684868E+04</pdfrwt>
<pdfrwt beam="2">  1       -2 0.27311909E+00 0.32684868E+04</pdfrwt>
<totfact> 0.49022229E-01</totfact>
</mgrwt>
</event>
<event>
12    1  0.1532786E-007  0.1526805E+04  0.7818608E-02  0.8866821E-01
          2   -1    0    0  501    0  0.00000000000E+00  0.00000000000E+00  0.12714295211E+04  0.12714295211E+04  0.00000000000E+00 0. -1.
         -2   -1    0    0    0  501 -0.00000000000E+00 -0.00000000000E+00 -0.45836841594E+03  0.45836841594E+03  0.00000000000E+00 0.  1.
         23    2    1    2    0    0  0.99654487279E+02  0.22187173313E+02  0.80052385000E+03  0.81208258758E+03  0.90644399401E+02 0.  0.
        254    2    1    2    0    0 -0.99654487279E+02 -0.22187173313E+02  0.12537255165E+02  0.91771534947E+03  0.91193255912E+03 0.  0.
        -24    2    4    4    0    0  0.10711179520E+02 -0.42661761102E+03  0.16609712858E+03  0.46444009175E+03  0.77453387971E+02 0.  0.
         24    2    4    4    0    0 -0.11036566680E+03  0.40443043770E+03 -0.15355987342E+03  0.45327525771E+03  0.78315165717E+02 0.  0.
         13    1    3    3    0    0  0.55410007665E+02 -0.12564211196E+01  0.15484708310E+03  0.16446722071E+03  0.00000000000E+00 0. -1.
        -13    1    3    3    0    0  0.44244479614E+02  0.23443594433E+02  0.64567676690E+03  0.64761536687E+03  0.00000000000E+00 0.  1.
          4    1    6    6  502    0 -0.18371888119E+02  0.45652060067E+02 -0.46557913794E+02  0.67744196786E+02  0.00000000000E+00 0. -1.
          3    1    5    5  503    0 -0.22835270505E+02 -0.45257615597E+02  0.14957131392E+02  0.52852787325E+02  0.00000000000E+00 0. -1.
         -4    1    5    5    0  503  0.33546450025E+02 -0.38135999542E+03  0.15113999719E+03  0.41158730443E+03  0.00000000000E+00 0.  1.
         -3    1    6    6    0  502 -0.91993778680E+02  0.35877837764E+03 -0.10700195962E+03  0.38553106093E+03  0.00000000000E+00 0.  1.
<mgrwt>
<rscale>  0 0.15268047E+04</rscale>
<asrwt>0</asrwt>
<pdfrwt beam="1">  1        2 0.19560454E+00 0.15268047E+04</pdfrwt>
<pdfrwt beam="2">  1       -2 0.70518218E-01 0.15268047E+04</pdfrwt>
<totfact> 0.30304378E+01</totfact>
</mgrwt>
</event>
<event>
12    1  0.1532786E-007  0.2044677E+04  0.7818608E-02  0.8586013E-01
         -1   -1    0    0    0  501 -0.00000000000E+00  0.00000000000E+00  0.48128453066E+03  0.48128453066E+03  0.00000000000E+00 0.  1.
          1   -1    0    0  501    0  0.00000000000E+00 -0.00000000000E+00 -0.21716387992E+04  0.21716387992E+04  0.00000000000E+00 0. -1.
         23    2    1    2    0    0  0.72827451056E+03 -0.36356414229E+03 -0.55147389702E+03  0.98742834925E+03  0.91261369286E+02 0.  0.
        254    2    1    2    0    0 -0.72827451056E+03  0.36356414229E+03 -0.11388803715E+04  0.16654949806E+04  0.90236488266E+03 0.  0.
        -24    2    4    4    0    0 -0.22990447199E+03  0.37893131594E+03 -0.34954954555E+02  0.45161448480E+03  0.79301863729E+02 0.  0.
         24    2    4    4    0    0 -0.49837003857E+03 -0.15367173649E+02 -0.11039254169E+04  0.12138804958E+04  0.79029655812E+02 0.  0.
         13    1    3    3    0    0  0.48913472788E+03 -0.27820333242E+03 -0.41468847551E+03  0.69901102131E+03  0.00000000000E+00 0. -1.
        -13    1    3    3    0    0  0.23913978268E+03 -0.85360809866E+02 -0.13678542151E+03  0.28841732794E+03  0.00000000000E+00 0.  1.
          4    1    6    6  502    0 -0.12100293655E+01  0.38195335823E+01 -0.30454587839E+02  0.30717013661E+02  0.00000000000E+00 0. -1.
          1    1    5    5  503    0 -0.11102275593E+01  0.10532925904E+02  0.11304082749E+02  0.15490559064E+02  0.00000000000E+00 0. -1.
         -2    1    5    5    0  503 -0.22879424443E+03  0.36839839003E+03 -0.46259037304E+02  0.43612392573E+03  0.00000000000E+00 0.  1.
         -3    1    6    6    0  502 -0.49716000921E+03 -0.19186707231E+02 -0.10734708291E+04  0.11831634821E+04  0.00000000000E+00 0.  1.
<mgrwt>
<rscale>  0 0.20446771E+04</rscale>
<asrwt>0</asrwt>
<pdfrwt beam="1">  1        1 0.33409828E+00 0.20446771E+04</pdfrwt>
<pdfrwt beam="2">  1       -1 0.74043773E-01 0.20446771E+04</pdfrwt>
<totfact> 0.38655635E+00</totfact>
</mgrwt>
</event>
<event>
12    1  0.1532786E-007  0.2237731E+04  0.7818608E-02  0.8502886E-01
         -1   -1    0    0    0  501 -0.00000000000E+00  0.00000000000E+00  0.65367358274E+03  0.65367358274E+03  0.00000000000E+00 0.  1.
          1   -1    0    0  501    0  0.00000000000E+00 -0.00000000000E+00 -0.19151143843E+04  0.19151143843E+04  0.00000000000E+00 0. -1.
         23    2    1    2    0    0 -0.33291371129E+03  0.62871265857E+02 -0.15066673611E+04  0.15468847352E+04  0.89562891956E+02 0.  0.
        254    2    1    2    0    0  0.33291371129E+03 -0.62871265857E+02  0.24522655956E+03  0.10219032319E+04  0.93239788424E+03 0.  0.
        -24    2    4    4    0    0  0.21713004208E+03 -0.18577673180E+02 -0.34390495365E+03  0.41487873574E+03  0.79769437159E+02 0.  0.
         24    2    4    4    0    0  0.11578366921E+03 -0.44293592677E+02  0.58913151321E+03  0.60702449612E+03  0.77685382313E+02 0.  0.
         11    1    3    3    0    0 -0.29983028167E+03  0.33357510099E+02 -0.13827023273E+04  0.14152302453E+04  0.00000000000E+00 0. -1.
        -11    1    3    3    0    0 -0.33083429623E+02  0.29513755758E+02 -0.12396503381E+03  0.13165448987E+03  0.00000000000E+00 0.  1.
          4    1    6    6  502    0  0.12537815639E+03 -0.47739579480E+02  0.51467058226E+03  0.53186892914E+03  0.00000000000E+00 0. -1.
          3    1    5    5  503    0  0.98187990953E+02  0.39499611450E+01 -0.22345239897E+03  0.24410542469E+03  0.00000000000E+00 0. -1.
         -4    1    5    5    0  503  0.11894205113E+03 -0.22527634325E+02 -0.12045255469E+03  0.17077331105E+03  0.00000000000E+00 0.  1.
         -3    1    6    6    0  502 -0.95944871755E+01  0.34459868027E+01  0.74460930955E+02  0.75155566979E+02  0.00000000000E+00 0.  1.
<mgrwt>
<rscale>  0 0.22377307E+04</rscale>
<asrwt>0</asrwt>
<pdfrwt beam="1">  1        1 0.29463298E+00 0.22377307E+04</pdfrwt>
<pdfrwt beam="2">  1       -1 0.10056517E+00 0.22377307E+04</pdfrwt>
<totfact> 0.29089070E+00</totfact>
</mgrwt>
</event>
<event>
12    1  0.1532786E-007  0.1341123E+04  0.7818608E-02  0.8997575E-01
          2   -1    0    0  501    0  0.00000000000E+00  0.00000000000E+00  0.30508706793E+03  0.30508706793E+03  0.00000000000E+00 0.  1.
         -2   -1    0    0    0  501 -0.00000000000E+00 -0.00000000000E+00 -0.14738497984E+04  0.14738497984E+04  0.00000000000E+00 0. -1.
         23    2    1    2    0    0  0.78763976650E+02  0.23581713285E+03 -0.64571059626E+03  0.69792612798E+03  0.91352185719E+02 0.  0.
        254    2    1    2    0    0 -0.78763976650E+02 -0.23581713285E+03 -0.52305213420E+03  0.10810107383E+04  0.91279088358E+03 0.  0.
        -24    2    4    4    0    0  0.13568226366E+03  0.21558590620E+03  0.93814484457E+02  0.28343008654E+03  0.81513783109E+02 0.  0.
         24    2    4    4    0    0 -0.21444624031E+03 -0.45140303905E+03 -0.61686661865E+03  0.79758065180E+03  0.76541343508E+02 0.  0.
         13    1    3    3    0    0  0.28099508902E+02  0.13109660685E+03 -0.45679760718E+03  0.47606717662E+03  0.00000000000E+00 0. -1.
        -13    1    3    3    0    0  0.50664467747E+02  0.10472052600E+03 -0.18891298908E+03  0.22185895137E+03  0.00000000000E+00 0.  1.
          2    1    6    6  502    0 -0.14757774561E+03 -0.23693684317E+03 -0.37490835698E+03  0.46741259587E+03  0.00000000000E+00 0. -1.
          1    1    5    5  503    0  0.13418680622E+02  0.87711837443E+02  0.47052971261E+02  0.10043609671E+03  0.00000000000E+00 0. -1.
         -2    1    5    5    0  503  0.12226358304E+03  0.12787406876E+03  0.46761513196E+02  0.18299398983E+03  0.00000000000E+00 0.  1.
         -1    1    6    6    0  502 -0.66868494700E+02 -0.21446619588E+03 -0.24195826168E+03  0.33016805592E+03  0.00000000000E+00 0.  1.
<mgrwt>
<rscale>  0 0.13411227E+04</rscale>
<asrwt>0</asrwt>
<pdfrwt beam="1">  1        2 0.46936472E-01 0.13411227E+04</pdfrwt>
<pdfrwt beam="2">  1       -2 0.22674612E+00 0.13411227E+04</pdfrwt>
<totfact> 0.94380591E+00</totfact>
</mgrwt>
</event>
<event>
12    1  0.1532786E-007  0.2194023E+04  0.7818608E-02  0.8520920E-01
         -1   -1    0    0    0  501 -0.00000000000E+00  0.00000000000E+00  0.12596971816E+04  0.12596971816E+04  0.00000000000E+00 0.  1.
          1   -1    0    0  501    0  0.00000000000E+00 -0.00000000000E+00 -0.95533600932E+03  0.95533600932E+03  0.00000000000E+00 0. -1.
         23    2    1    2    0    0  0.36374597876E+03  0.64991988478E+03  0.62303957725E+03  0.97689095949E+03  0.10691416280E+03 0.  0.
        254    2    1    2    0    0 -0.36374597876E+03 -0.64991988478E+03 -0.31867840497E+03  0.12381422314E+04  0.93634035788E+03 0.  0.
        -24    2    4    4    0    0  0.13113327804E+03 -0.29773901424E+03 -0.49764280052E+03  0.59982807696E+03  0.79378257646E+02 0.  0.
         24    2    4    4    0    0 -0.49487925680E+03 -0.35218087054E+03  0.17896439556E+03  0.63831415448E+03  0.80497580986E+02 0.  0.
         13    1    3    3    0    0  0.33581574005E+03  0.56056197646E+03  0.50282283447E+03  0.82451970479E+03  0.00000000000E+00 0.  1.
        -13    1    3    3    0    0  0.27930238714E+02  0.89357908318E+02  0.12021674278E+03  0.15237125470E+03  0.00000000000E+00 0. -1.
          2    1    6    6  502    0 -0.56800145923E+02 -0.65259793165E+02  0.46160393723E+02  0.98060589074E+02  0.00000000000E+00 0. -1.
          1    1    5    5  503    0  0.55382359683E+02 -0.17500813830E+03 -0.33840589970E+03  0.38498520385E+03  0.00000000000E+00 0. -1.
         -2    1    5    5    0  503  0.75750918358E+02 -0.12273087593E+03 -0.15923690083E+03  0.21484287311E+03  0.00000000000E+00 0.  1.
         -1    1    6    6    0  502 -0.43807911088E+03 -0.28692107738E+03  0.13280400183E+03  0.54025356541E+03  0.00000000000E+00 0.  1.
<mgrwt>
<rscale>  0 0.21940229E+04</rscale>
<asrwt>0</asrwt>
<pdfrwt beam="1">  1        1 0.14697477E+00 0.21940229E+04</pdfrwt>
<pdfrwt beam="2">  1       -1 0.19379957E+00 0.21940229E+04</pdfrwt>
<totfact> 0.24881020E+00</totfact>
</mgrwt>
</event>
<event>
12    1  0.1532786E-007  0.2052454E+04  0.7818608E-02  0.8582482E-01
          2   -1    0    0  501    0  0.00000000000E+00  0.00000000000E+00  0.20108401528E+04  0.20108401528E+04  0.00000000000E+00 0. -1.
         -2   -1    0    0    0  501 -0.00000000000E+00 -0.00000000000E+00 -0.52373231590E+03  0.52373231590E+03  0.00000000000E+00 0.  1.
         23    2    1    2    0    0  0.81788533973E+03  0.52740021323E+02  0.47023727616E+03  0.94918691570E+03  0.90081997404E+02 0.  0.
        254    2    1    2    0    0 -0.81788533973E+03 -0.52740021323E+02  0.10168705607E+04  0.15853855530E+04  0.89872335874E+03 0.  0.
        -24    2    4    4    0    0 -0.15259232821E+03  0.30237766047E+03  0.66184430814E+03  0.74796818071E+03  0.81864784566E+02 0.  0.
         24    2    4    4    0    0 -0.66529301152E+03 -0.35511768180E+03  0.35502625259E+03  0.83741737228E+03  0.80627887594E+02 0.  0.
         11    1    3    3    0    0  0.37440461892E+03  0.64583795135E+00  0.17060423587E+03  0.41144263399E+03  0.00000000000E+00 0. -1.
        -11    1    3    3    0    0  0.44348072081E+03  0.52094183371E+02  0.29963304029E+03  0.53774428171E+03  0.00000000000E+00 0.  1.
          2    1    6    6  502    0 -0.62481935048E+03 -0.32555958697E+03  0.30885007315E+03  0.76927019511E+03  0.00000000000E+00 0. -1.
          3    1    5    5  503    0 -0.57343927132E+02  0.77446289808E+02  0.26494673932E+03  0.28192734607E+03  0.00000000000E+00 0. -1.
         -4    1    5    5    0  503 -0.95248401075E+02  0.22493137067E+03  0.39689756882E+03  0.46604083464E+03  0.00000000000E+00 0.  1.
         -1    1    6    6    0  502 -0.40473661043E+02 -0.29558094824E+02  0.46176179440E+02  0.68147177165E+02  0.00000000000E+00 0.  1.
<mgrwt>
<rscale>  0 0.20524541E+04</rscale>
<asrwt>0</asrwt>
<pdfrwt beam="1">  1        2 0.30936002E+00 0.20524541E+04</pdfrwt>
<pdfrwt beam="2">  1       -2 0.80574203E-01 0.20524541E+04</pdfrwt>
<totfact> 0.82905733E+00</totfact>
</mgrwt>
</event>
<event>
12    1  0.1532786E-007  0.2567107E+04  0.7818608E-02  0.8379461E-01
         -1   -1    0    0    0  501 -0.00000000000E+00  0.00000000000E+00  0.21448017146E+04  0.21448017146E+04  0.00000000000E+00 0. -1.
          1   -1    0    0  501    0  0.00000000000E+00 -0.00000000000E+00 -0.76814071065E+03  0.76814071065E+03  0.00000000000E+00 0.  1.
         23    2    1    2    0    0  0.33733971130E+03 -0.34133043295E+03  0.17591660288E+04  0.18258697698E+04  0.93972092685E+02 0.  0.
        254    2    1    2    0    0 -0.33733971130E+03  0.34133043295E+03 -0.38250502482E+03  0.10870726555E+04  0.89728051297E+03 0.  0.
        -24    2    4    4    0    0 -0.46473018236E+03  0.65760084357E+02 -0.55271968755E+03  0.72969110862E+03  0.81556912102E+02 0.  0.
         24    2    4    4    0    0  0.12739047105E+03  0.27557034859E+03  0.17021466273E+03  0.35738154683E+03  0.81124530629E+02 0.  0.
         11    1    3    3    0    0  0.25351161653E+03 -0.27172499948E+03  0.12014798155E+04  0.12576392019E+04  0.00000000000E+00 0. -1.
        -11    1    3    3    0    0  0.83828094772E+02 -0.69605433463E+02  0.55768621325E+03  0.56823056789E+03  0.00000000000E+00 0.  1.
          2    1    6    6  502    0  0.53897965391E+02  0.20602437432E+03  0.11964580885E+03  0.24426656149E+03  0.00000000000E+00 0. -1.
          3    1    5    5  503    0 -0.39189680780E+03  0.73962226292E+02 -0.42785605071E+03  0.58490539322E+03  0.00000000000E+00 0. -1.
         -4    1    5    5    0  503 -0.72833374552E+02 -0.82021419351E+01 -0.12486363684E+03  0.14478571541E+03  0.00000000000E+00 0.  1.
         -1    1    6    6    0  502  0.73492505663E+02  0.69545974270E+02  0.50568853879E+02  0.11311498534E+03  0.00000000000E+00 0.  1.
<mgrwt>
<rscale>  0 0.25671069E+04</rscale>
<asrwt>0</asrwt>
<pdfrwt beam="1">  1        1 0.11817549E+00 0.25671069E+04</pdfrwt>
<pdfrwt beam="2">  1       -1 0.32996949E+00 0.25671069E+04</pdfrwt>
<totfact> 0.43888783E-01</totfact>
</mgrwt>
</event>
<event>
12    1  0.1532786E-007  0.1300805E+04  0.7818608E-02  0.9028927E-01
          1   -1    0    0  501    0  0.00000000000E+00  0.00000000000E+00  0.33954276491E+03  0.33954276491E+03  0.00000000000E+00 0. -1.
         -1   -1    0    0    0  501 -0.00000000000E+00 -0.00000000000E+00 -0.12458627563E+04  0.12458627563E+04  0.00000000000E+00 0.  1.
         23    2    1    2    0    0 -0.16962453423E+03 -0.19806972744E+03 -0.48721888503E+03  0.56015140862E+03  0.91560139322E+02 0.  0.
        254    2    1    2    0    0  0.16962453423E+03  0.19806972744E+03 -0.41910110635E+03  0.10252541126E+04  0.89860790031E+03 0.  0.
        -24    2    4    4    0    0 -0.29784851758E+03  0.22046224737E+01  0.70185455539E+02  0.31622495283E+03  0.79709615727E+02 0.  0.
         24    2    4    4    0    0  0.46747305181E+03  0.19586510497E+03 -0.48928656189E+03  0.70902915976E+03  0.80167426198E+02 0.  0.
         13    1    3    3    0    0 -0.14459759947E+03 -0.15101585227E+03 -0.44667732075E+03  0.49318848556E+03  0.00000000000E+00 0.  1.
        -13    1    3    3    0    0 -0.25026934756E+02 -0.47053875168E+02 -0.40541564277E+02  0.66962923067E+02  0.00000000000E+00 0. -1.
          2    1    6    6  502    0  0.40968946577E+02  0.44644569145E+02 -0.55113462134E+02  0.81909009554E+02  0.00000000000E+00 0. -1.
          3    1    5    5  503    0 -0.74863871618E+02  0.15853558559E+02  0.51083235906E+02  0.92007780015E+02  0.00000000000E+00 0. -1.
         -4    1    5    5    0  503 -0.22298464596E+03 -0.13648936086E+02  0.19102219633E+02  0.22421717282E+03  0.00000000000E+00 0.  1.
         -1    1    6    6    0  502  0.42650410523E+03  0.15122053582E+03 -0.43417309976E+03  0.62712015020E+03  0.00000000000E+00 0.  1.
<mgrwt>
<rscale>  0 0.13008054E+04</rscale>
<asrwt>0</asrwt>
<pdfrwt beam="1">  1        1 0.52237348E-01 0.13008054E+04</pdfrwt>
<pdfrwt beam="2">  1       -1 0.19167119E+00 0.13008054E+04</pdfrwt>
<totfact> 0.12594981E+01</totfact>
</mgrwt>
</event>
<event>
12    1  0.1532786E-007  0.3223461E+04  0.7818608E-02  0.8182648E-01
         -2   -1    0    0    0  501 -0.00000000000E+00  0.00000000000E+00  0.66225948490E+03  0.66225948490E+03  0.00000000000E+00 0.  1.
          2   -1    0    0  501    0  0.00000000000E+00 -0.00000000000E+00 -0.39224438401E+04  0.39224438401E+04  0.00000000000E+00 0. -1.
         23    2    1    2    0    0  0.14810521427E+04 -0.88789087083E+02 -0.14699986258E+04  0.20909885174E+04  0.99689862239E+02 0.  0.
        254    2    1    2    0    0 -0.14810521427E+04  0.88789087083E+02 -0.17901857294E+04  0.24937148076E+04  0.90135988631E+03 0.  0.
        -24    2    4    4    0    0 -0.85483421216E+01 -0.19947453669E+03 -0.11802260534E+03  0.24568539145E+03  0.81048203299E+02 0.  0.
         24    2    4    4    0    0 -0.14725038006E+04  0.28826362378E+03 -0.16721631241E+04  0.22480294162E+04  0.78379736015E+02 0.  0.
         11    1    3    3    0    0  0.98280218549E+03 -0.79084124958E+02 -0.10354314552E+04  0.14297806591E+04  0.00000000000E+00 0. -1.
        -11    1    3    3    0    0  0.49824995719E+03 -0.97049621253E+01 -0.43456717060E+03  0.66120785831E+03  0.00000000000E+00 0.  1.
          4    1    6    6  502    0 -0.13264541370E+04  0.24060919248E+03 -0.15222799360E+04  0.20333985257E+04  0.00000000000E+00 0. -1.
          1    1    5    5  503    0  0.29937770117E+02 -0.14815908205E+03 -0.87453311859E+02  0.17462950904E+03  0.00000000000E+00 0. -1.
         -2    1    5    5    0  503 -0.38486112239E+02 -0.51315454643E+02 -0.30569293482E+02  0.71055882406E+02  0.00000000000E+00 0.  1.
         -3    1    6    6    0  502 -0.14604966356E+03  0.47654431301E+02 -0.14988318813E+03  0.21463089044E+03  0.00000000000E+00 0.  1.
<mgrwt>
<rscale>  0 0.32234613E+04</rscale>
<asrwt>0</asrwt>
<pdfrwt beam="1">  1        2 0.60345291E+00 0.32234613E+04</pdfrwt>
<pdfrwt beam="2">  1       -2 0.10188607E+00 0.32234613E+04</pdfrwt>
<totfact> 0.26161038E-01</totfact>
</mgrwt>
</event>
<event>
12    1  0.1532786E-007  0.1128152E+04  0.7818608E-02  0.9178180E-01
          2   -1    0    0  501    0  0.00000000000E+00  0.00000000000E+00  0.14145030861E+03  0.14145030861E+03  0.00000000000E+00 0.  1.
         -2   -1    0    0    0  501 -0.00000000000E+00 -0.00000000000E+00 -0.22494226120E+04  0.22494226120E+04  0.00000000000E+00 0. -1.
         23    2    1    2    0    0  0.60511586067E+01  0.13160254783E+02  0.98772094199E+01  0.92133147071E+02  0.90449702581E+02 0.  0.
        254    2    1    2    0    0 -0.60511586067E+01 -0.13160254783E+02 -0.21178495128E+04  0.22987397735E+04  0.89370474919E+03 0.  0.
        -24    2    4    4    0    0  0.38098049702E+03  0.18644317681E+03 -0.80693770745E+03  0.91516433642E+03  0.80436942165E+02 0.  0.
         24    2    4    4    0    0 -0.38703165563E+03 -0.19960343159E+03 -0.13109118053E+04  0.13835754371E+04  0.78461432582E+02 0.  0.
         13    1    3    3    0    0  0.16817196169E+02 -0.36815350902E+02  0.38615462941E+01  0.40658328653E+02  0.00000000000E+00 0. -1.
        -13    1    3    3    0    0 -0.10766037563E+02  0.49975605685E+02  0.60156631259E+01  0.51474818419E+02  0.00000000000E+00 0.  1.
          4    1    6    6  502    0 -0.19878912096E+03 -0.60870480341E+02 -0.65704770995E+03  0.68915457130E+03  0.00000000000E+00 0. -1.
          1    1    5    5  503    0  0.32967316116E+03  0.13732294269E+03 -0.71253059898E+03  0.79702060090E+03  0.00000000000E+00 0. -1.
         -2    1    5    5    0  503  0.51307335863E+02  0.49120234120E+02 -0.94407108470E+02  0.11814373552E+03  0.00000000000E+00 0.  1.
         -3    1    6    6    0  502 -0.18824253467E+03 -0.13873295125E+03 -0.65386409540E+03  0.69442086581E+03  0.00000000000E+00 0.  1.
<mgrwt>
<rscale>  0 0.11281516E+04</rscale>
<asrwt>0</asrwt>
<pdfrwt beam="1">  1        2 0.21761585E-01 0.11281516E+04</pdfrwt>
<pdfrwt beam="2">  1       -2 0.34606503E+00 0.11281516E+04</pdfrwt>
<totfact> 0.42790348E+00</totfact>
</mgrwt>
</event>
<event>
12    1  0.1532786E-007  0.1258819E+04  0.7818608E-02  0.9062875E-01
          1   -1    0    0  501    0  0.00000000000E+00  0.00000000000E+00  0.17508656247E+04  0.17508656247E+04  0.00000000000E+00 0. -1.
         -1   -1    0    0    0  501 -0.00000000000E+00 -0.00000000000E+00 -0.22626325287E+03  0.22626325287E+03  0.00000000000E+00 0.  1.
         23    2    1    2    0    0  0.26004157558E+02 -0.22803184597E+03  0.46360061290E+03  0.52535139078E+03  0.91617774103E+02 0.  0.
        254    2    1    2    0    0 -0.26004157558E+02  0.22803184597E+03  0.10610017589E+04  0.14517774867E+04  0.96398049755E+03 0.  0.
        -24    2    4    4    0    0 -0.69415284591E+02  0.51464778287E+03  0.10213364904E+04  0.11483334542E+04  0.76555033936E+02 0.  0.
         24    2    4    4    0    0  0.43411127033E+02 -0.28661593690E+03  0.39665268509E+02  0.30344403258E+03  0.80447039383E+02 0.  0.
         13    1    3    3    0    0  0.36975425793E+02 -0.39028558523E+02  0.67188369947E+02  0.86050494183E+02  0.00000000000E+00 0.  1.
        -13    1    3    3    0    0 -0.10971268235E+02 -0.18900328745E+03  0.39641224295E+03  0.43930089660E+03  0.00000000000E+00 0. -1.
          4    1    6    6  502    0 -0.21495767817E+02 -0.12195753769E+03  0.17740509985E+02  0.12510169754E+03  0.00000000000E+00 0. -1.
          3    1    5    5  503    0 -0.18292622853E+02  0.38528145903E+03  0.76061331579E+03  0.85282415472E+03  0.00000000000E+00 0. -1.
         -4    1    5    5    0  503 -0.51122661738E+02  0.12936632384E+03  0.26072317460E+03  0.29550929945E+03  0.00000000000E+00 0.  1.
         -3    1    6    6    0  502  0.64906894849E+02 -0.16465839921E+03  0.21924758524E+02  0.17834233503E+03  0.00000000000E+00 0.  1.
<mgrwt>
<rscale>  0 0.12588194E+04</rscale>
<asrwt>0</asrwt>
<pdfrwt beam="1">  1        1 0.26936393E+00 0.12588194E+04</pdfrwt>
<pdfrwt beam="2">  1       -1 0.34809732E-01 0.12588194E+04</pdfrwt>
<totfact> 0.33993706E+01</totfact>
</mgrwt>
</event>
<event>
12    1  0.1532786E-007  0.2307705E+04  0.7818608E-02  0.8474889E-01
          2   -1    0    0  501    0  0.00000000000E+00  0.00000000000E+00  0.11324329399E+04  0.11324329399E+04  0.00000000000E+00 0. -1.
         -2   -1    0    0    0  501 -0.00000000000E+00 -0.00000000000E+00 -0.11756774994E+04  0.11756774994E+04  0.00000000000E+00 0.  1.
         23    2    1    2    0    0  0.94351521806E+03 -0.23677050283E+03 -0.60152496955E+02  0.97885812879E+03  0.90904761668E+02 0.  0.
        254    2    1    2    0    0 -0.94351521806E+03  0.23677050283E+03  0.16907937439E+02  0.13292523105E+04  0.90572876118E+03 0.  0.
        -24    2    4    4    0    0 -0.65562940751E+03  0.57351212341E+03  0.61804661453E+02  0.87693180984E+03  0.80146785679E+02 0.  0.
         24    2    4    4    0    0 -0.28788581055E+03 -0.33674162058E+03 -0.44896724014E+02  0.45232050063E+03  0.79403781493E+02 0.  0.
         13    1    3    3    0    0  0.23545178928E+03 -0.60927513687E+02  0.24285351759E+02  0.24441662241E+03  0.00000000000E+00 0.  1.
        -13    1    3    3    0    0  0.70806342878E+03 -0.17584298914E+03 -0.84437848714E+02  0.73444150638E+03  0.00000000000E+00 0. -1.
          4    1    6    6  502    0 -0.15598568480E+03 -0.13452038597E+03  0.38424335095E+01  0.20601464123E+03  0.00000000000E+00 0. -1.
          1    1    5    5  503    0 -0.23646487705E+03  0.25862133392E+03  0.19913072266E+02  0.35099453398E+03  0.00000000000E+00 0. -1.
         -2    1    5    5    0  503 -0.41916453046E+03  0.31489078948E+03  0.41891589187E+02  0.52593727586E+03  0.00000000000E+00 0.  1.
         -3    1    6    6    0  502 -0.13190012575E+03 -0.20222123461E+03 -0.48739157523E+02  0.24630585940E+03  0.00000000000E+00 0.  1.
<mgrwt>
<rscale>  0 0.23077053E+04</rscale>
<asrwt>0</asrwt>
<pdfrwt beam="1">  1        2 0.17422045E+00 0.23077053E+04</pdfrwt>
<pdfrwt beam="2">  1       -2 0.18087346E+00 0.23077053E+04</pdfrwt>
<totfact> 0.33713705E+00</totfact>
</mgrwt>
</event>
<event>
12    1  0.1532786E-007  0.1389542E+04  0.7818608E-02  0.8961423E-01
          1   -1    0    0  501    0  0.00000000000E+00  0.00000000000E+00  0.11926534543E+04  0.11926534543E+04  0.00000000000E+00 0. -1.
         -1   -1    0    0    0  501 -0.00000000000E+00 -0.00000000000E+00 -0.40473356010E+03  0.40473356010E+03  0.00000000000E+00 0.  1.
         23    2    1    2    0    0 -0.28878683776E+03 -0.17995920703E+03 -0.21266842730E+02  0.35387746661E+03  0.94835799760E+02 0.  0.
        254    2    1    2    0    0  0.28878683776E+03  0.17995920703E+03  0.80918673698E+03  0.12435095478E+04  0.88076652207E+03 0.  0.
        -24    2    4    4    0    0  0.43094443999E+03  0.14807844077E+03  0.92987422180E+03  0.10385733143E+04  0.79549517659E+02 0.  0.
         24    2    4    4    0    0 -0.14215760223E+03  0.31880766269E+02 -0.12068748482E+03  0.20493623357E+03  0.78792282044E+02 0.  0.
         13    1    3    3    0    0 -0.11464261994E+03 -0.19303038178E+02 -0.42076752421E+01  0.11633246375E+03  0.00000000000E+00 0. -1.
        -13    1    3    3    0    0 -0.17414421781E+03 -0.16065616886E+03 -0.17059167488E+02  0.23754500286E+03  0.00000000000E+00 0.  1.
          2    1    6    6  502    0 -0.25573760384E+02 -0.19342640276E+02 -0.41738373163E+01  0.32335365638E+02  0.00000000000E+00 0. -1.
          3    1    5    5  503    0  0.77384742283E+02 -0.34878189056E+01  0.13976773948E+03  0.15979857389E+03  0.00000000000E+00 0. -1.
         -4    1    5    5    0  503  0.35355969771E+03  0.15156625967E+03  0.79010648232E+03  0.87877474037E+03  0.00000000000E+00 0.  1.
         -1    1    6    6    0  502 -0.11658384185E+03  0.51223406545E+02 -0.11651364750E+03  0.17260086794E+03  0.00000000000E+00 0.  1.
<mgrwt>
<rscale>  0 0.13895422E+04</rscale>
<asrwt>0</asrwt>
<pdfrwt beam="1">  1        1 0.18348515E+00 0.13895422E+04</pdfrwt>
<pdfrwt beam="2">  1       -1 0.62266702E-01 0.13895422E+04</pdfrwt>
<totfact> 0.27619509E+01</totfact>
</mgrwt>
</event>
<event>
12    1  0.1532786E-007  0.1366693E+04  0.7818608E-02  0.8978287E-01
         -3   -1    0    0    0  501 -0.00000000000E+00  0.00000000000E+00  0.59162996442E+03  0.59162996442E+03  0.00000000000E+00 0.  1.
          3   -1    0    0  501    0  0.00000000000E+00 -0.00000000000E+00 -0.78928111525E+03  0.78928111525E+03  0.00000000000E+00 0. -1.
         23    2    1    2    0    0 -0.65016809751E+02  0.23296614074E+03 -0.35867477125E+03  0.44220732883E+03  0.91647814269E+02 0.  0.
        254    2    1    2    0    0  0.65016809751E+02 -0.23296614074E+03  0.16102362042E+03  0.93870375084E+03  0.89260053621E+03 0.  0.
        -24    2    4    4    0    0 -0.35182767695E+03  0.10328542346E+03  0.32708399526E+01  0.37497469297E+03  0.78388321871E+02 0.  0.
         24    2    4    4    0    0  0.41684448670E+03 -0.33625156419E+03  0.15775278047E+03  0.56372905788E+03  0.77974806389E+02 0.  0.
         13    1    3    3    0    0  0.60275083063E+00  0.11684249184E+01 -0.52978895876E+02  0.52995206704E+02  0.00000000000E+00 0.  1.
        -13    1    3    3    0    0 -0.65619560582E+02  0.23179771582E+03 -0.30569587537E+03  0.38921212212E+03  0.00000000000E+00 0. -1.
          2    1    6    6  502    0  0.17772347131E+03 -0.95883439080E+02  0.51187918236E+02  0.20832539240E+03  0.00000000000E+00 0. -1.
          3    1    5    5  503    0  0.39241398205E+01 -0.10332760667E+01  0.12211601198E+01  0.42376602977E+01  0.00000000000E+00 0. -1.
         -4    1    5    5    0  503 -0.35575181677E+03  0.10431869952E+03  0.20496798328E+01  0.37073703267E+03  0.00000000000E+00 0.  1.
         -1    1    6    6    0  502  0.23912101539E+03 -0.24036812511E+03  0.10656486223E+03  0.35540366548E+03  0.00000000000E+00 0.  1.
<mgrwt>
<rscale>  0 0.13666929E+04</rscale>
<asrwt>0</asrwt>
<pdfrwt beam="1">  1        3 0.12142786E+00 0.13666929E+04</pdfrwt>
<pdfrwt beam="2">  1       -3 0.91019994E-01 0.13666929E+04</pdfrwt>
<totfact> 0.15285555E+00</totfact>
</mgrwt>
</event>
<event>
12    1  0.1532786E-007  0.1738832E+04  0.7818608E-02  0.8739522E-01
          1   -1    0    0  501    0  0.00000000000E+00  0.00000000000E+00  0.25072333343E+04  0.25072333343E+04  0.00000000000E+00 0. -1.
         -1   -1    0    0    0  501 -0.00000000000E+00 -0.00000000000E+00 -0.30148135421E+03  0.30148135421E+03  0.00000000000E+00 0.  1.
         23    2    1    2    0    0 -0.47011392230E+03  0.40068746762E+03  0.49361184467E+03  0.79525893170E+03  0.85009226558E+02 0.  0.
        254    2    1    2    0    0  0.47011392230E+03 -0.40068746762E+03  0.17121401355E+04  0.20134557569E+04  0.86082675069E+03 0.  0.
        -24    2    4    4    0    0  0.59778337208E+03 -0.50424865757E+03  0.96692621623E+03  0.12462404002E+04  0.80976285844E+02 0.  0.
         24    2    4    4    0    0 -0.12766944978E+03  0.10356118995E+03  0.74521391923E+03  0.76721535665E+03  0.79064591280E+02 0.  0.
         13    1    3    3    0    0 -0.45723918398E+03  0.39720953222E+03  0.46465592571E+03  0.76337946865E+03  0.00000000000E+00 0.  1.
        -13    1    3    3    0    0 -0.12874738313E+02  0.34779353963E+01  0.28955918963E+02  0.31879463048E+02  0.00000000000E+00 0. -1.
          2    1    6    6  502    0 -0.13321072369E+03  0.91803200196E+02  0.60023896443E+03  0.62165886055E+03  0.00000000000E+00 0. -1.
          3    1    5    5  503    0  0.44464466852E+03 -0.33110060235E+03  0.70608454777E+03  0.89771480924E+03  0.00000000000E+00 0. -1.
         -4    1    5    5    0  503  0.15313870356E+03 -0.17314805522E+03  0.26084166845E+03  0.34852559096E+03  0.00000000000E+00 0.  1.
         -1    1    6    6    0  502  0.55412739089E+01  0.11757989755E+02  0.14497495480E+03  0.14555649610E+03  0.00000000000E+00 0.  1.
<mgrwt>
<rscale>  0 0.17388319E+04</rscale>
<asrwt>0</asrwt>
<pdfrwt beam="1">  1        1 0.38572819E+00 0.17388319E+04</pdfrwt>
<pdfrwt beam="2">  1       -1 0.46381748E-01 0.17388319E+04</pdfrwt>
<totfact> 0.58858859E+00</totfact>
</mgrwt>
</event>
<event>
12    1  0.1532786E-007  0.1250570E+04  0.7818608E-02  0.9069709E-01
         -1   -1    0    0    0  501 -0.00000000000E+00  0.00000000000E+00  0.17609109947E+03  0.17609109947E+03  0.00000000000E+00 0.  1.
          1   -1    0    0  501    0  0.00000000000E+00 -0.00000000000E+00 -0.22203349932E+04  0.22203349932E+04  0.00000000000E+00 0. -1.
         23    2    1    2    0    0  0.21248429721E+03  0.13747494655E+03 -0.80966642186E+03  0.85402953304E+03  0.98781532262E+02 0.  0.
        254    2    1    2    0    0 -0.21248429721E+03 -0.13747494655E+03 -0.12345774718E+04  0.15423965596E+04  0.88924500314E+03 0.  0.
        -24    2    4    4    0    0 -0.21534950503E+03  0.38798432201E+02 -0.13127323135E+04  0.13332721465E+04  0.80422397803E+02 0.  0.
         24    2    4    4    0    0  0.28652078157E+01 -0.17627337875E+03  0.78154841694E+02  0.20912441307E+03  0.80897017179E+02 0.  0.
         11    1    3    3    0    0  0.16454001664E+03  0.14529697805E+03 -0.70993134612E+03  0.74309295859E+03  0.00000000000E+00 0. -1.
        -11    1    3    3    0    0  0.47944280572E+02 -0.78220314928E+01 -0.99735075743E+02  0.11093657445E+03  0.00000000000E+00 0.  1.
          4    1    6    6  502    0  0.30701713348E+02 -0.24555749522E+02  0.10516008403E+02  0.40696025234E+02  0.00000000000E+00 0. -1.
          1    1    5    5  503    0  0.41001163052E+01 -0.44872372815E+01 -0.93116774671E+02  0.93314950448E+02  0.00000000000E+00 0. -1.
         -2    1    5    5    0  503 -0.21944962133E+03  0.43285669482E+02 -0.12196155389E+04  0.12399571961E+04  0.00000000000E+00 0.  1.
         -3    1    6    6    0  502 -0.27836505533E+02 -0.15171762923E+03  0.67638833291E+02  0.16842838784E+03  0.00000000000E+00 0.  1.
<mgrwt>
<rscale>  0 0.12505698E+04</rscale>
<asrwt>0</asrwt>
<pdfrwt beam="1">  1        1 0.34159001E+00 0.12505698E+04</pdfrwt>
<pdfrwt beam="2">  1       -1 0.27090938E-01 0.12505698E+04</pdfrwt>
<totfact> 0.25446985E+01</totfact>
</mgrwt>
</event>
<event>
12    1  0.1532786E-007  0.1802664E+04  0.7818608E-02  0.8704884E-01
         -1   -1    0    0    0  501 -0.00000000000E+00  0.00000000000E+00  0.81827764628E+03  0.81827764628E+03  0.00000000000E+00 0.  1.
          1   -1    0    0  501    0  0.00000000000E+00 -0.00000000000E+00 -0.99281654286E+03  0.99281654286E+03  0.00000000000E+00 0. -1.
         23    2    1    2    0    0  0.38065163274E+03 -0.53607560190E+02 -0.62679791135E+03  0.74146206051E+03  0.95503557422E+02 0.  0.
        254    2    1    2    0    0 -0.38065163274E+03  0.53607560190E+02  0.45225901477E+03  0.10696321286E+04  0.88983438804E+03 0.  0.
        -24    2    4    4    0    0  0.10312856405E+03 -0.89355567290E+02 -0.19111612888E+03  0.24828269502E+03  0.80616399071E+02 0.  0.
         24    2    4    4    0    0 -0.48378019678E+03  0.14296312748E+03  0.64337514365E+03  0.82134943362E+03  0.78750123916E+02 0.  0.
         11    1    3    3    0    0  0.57424829142E+02 -0.43329783346E+02 -0.97026432285E+02  0.12078580086E+03  0.00000000000E+00 0.  1.
        -11    1    3    3    0    0  0.32322680359E+03 -0.10277776844E+02 -0.52977147907E+03  0.62067625965E+03  0.00000000000E+00 0. -1.
          4    1    6    6  502    0 -0.46446318559E+03  0.14485279904E+03  0.59103519626E+03  0.76552660788E+03  0.00000000000E+00 0. -1.
          1    1    5    5  503    0  0.87800820440E+02 -0.10101116220E+03 -0.18448124347E+03  0.22791570405E+03  0.00000000000E+00 0. -1.
         -2    1    5    5    0  503  0.15327743608E+02  0.11655594908E+02 -0.66348854053E+01  0.20366990969E+02  0.00000000000E+00 0.  1.
         -3    1    6    6    0  502 -0.19317011194E+02 -0.18896715643E+01  0.52339947389E+02  0.55822825733E+02  0.00000000000E+00 0.  1.
<mgrwt>
<rscale>  0 0.18026642E+04</rscale>
<asrwt>0</asrwt>
<pdfrwt beam="1">  1        1 0.15274101E+00 0.18026642E+04</pdfrwt>
<pdfrwt beam="2">  1       -1 0.12588887E+00 0.18026642E+04</pdfrwt>
<totfact> 0.79521512E+00</totfact>
</mgrwt>
</event>
<event>
12    1  0.1532786E-007  0.1591855E+04  0.7818608E-02  0.8825567E-01
         -1   -1    0    0    0  501 -0.00000000000E+00  0.00000000000E+00  0.45077199008E+03  0.45077199008E+03  0.00000000000E+00 0.  1.
          1   -1    0    0  501    0  0.00000000000E+00 -0.00000000000E+00 -0.14053688471E+04  0.14053688471E+04  0.00000000000E+00 0. -1.
         23    2    1    2    0    0  0.20397121304E+03  0.49811924621E+03 -0.38914771955E+03  0.67117256240E+03  0.96486380858E+02 0.  0.
        254    2    1    2    0    0 -0.20397121304E+03 -0.49811924621E+03 -0.56544913751E+03  0.11849682748E+04  0.89145389451E+03 0.  0.
        -24    2    4    4    0    0  0.27836050533E+03 -0.19723105707E+03  0.37107849077E+02  0.35225854440E+03  0.79526277646E+02 0.  0.
         24    2    4    4    0    0 -0.48233171837E+03 -0.30088818914E+03 -0.60255698658E+03  0.83270973043E+03  0.84575316498E+02 0.  0.
         11    1    3    3    0    0 -0.69830829666E+01  0.59841146283E+02 -0.37441511611E+02  0.70933722783E+02  0.00000000000E+00 0. -1.
        -11    1    3    3    0    0  0.21095429601E+03  0.43827809993E+03 -0.35170620794E+03  0.60023883962E+03  0.00000000000E+00 0.  1.
          2    1    6    6  502    0 -0.35303539186E+03 -0.17644437496E+03 -0.43185735017E+03  0.58503621790E+03  0.00000000000E+00 0. -1.
          1    1    5    5  503    0  0.27052934672E+03 -0.16526921447E+03  0.38345283715E+02  0.31932804679E+03  0.00000000000E+00 0. -1.
         -2    1    5    5    0  503  0.78311586151E+01 -0.31961842608E+02 -0.12374346379E+01  0.32930497607E+02  0.00000000000E+00 0.  1.
         -1    1    6    6    0  502 -0.12929632651E+03 -0.12444381417E+03 -0.17069963642E+03  0.24767351253E+03  0.00000000000E+00 0.  1.
<mgrwt>
<rscale>  0 0.15918554E+04</rscale>
<asrwt>0</asrwt>
<pdfrwt beam="1">  1        1 0.21621059E+00 0.15918554E+04</pdfrwt>
<pdfrwt beam="2">  1       -1 0.69349537E-01 0.15918554E+04</pdfrwt>
<totfact> 0.15380319E+01</totfact>
</mgrwt>
</event>
<event>
12    1  0.1532786E-007  0.1608612E+04  0.7818608E-02  0.8815275E-01
         -1   -1    0    0    0  501 -0.00000000000E+00  0.00000000000E+00  0.42403449751E+03  0.42403449751E+03  0.00000000000E+00 0.  1.
          1   -1    0    0  501    0  0.00000000000E+00 -0.00000000000E+00 -0.15256027090E+04  0.15256027090E+04  0.00000000000E+00 0. -1.
         23    2    1    2    0    0  0.94300837503E+02 -0.45689963277E+03 -0.69370649520E+03  0.84125578377E+03  0.93982284887E+02 0.  0.
        254    2    1    2    0    0 -0.94300837503E+02  0.45689963277E+03 -0.40786171631E+03  0.11083814228E+04  0.91897131420E+03 0.  0.
        -24    2    4    4    0    0 -0.32488014886E+03  0.21176706100E+02  0.14333978587E+03  0.36446825143E+03  0.79342599421E+02 0.  0.
         24    2    4    4    0    0  0.23057931136E+03  0.43572292667E+03 -0.55120150219E+03  0.74391317133E+03  0.81008782358E+02 0.  0.
         13    1    3    3    0    0  0.45963240439E+02 -0.22541315545E+03 -0.42531404338E+03  0.48354497786E+03  0.00000000000E+00 0.  1.
        -13    1    3    3    0    0  0.48337597065E+02 -0.23148647731E+03 -0.26839245182E+03  0.35771080591E+03  0.00000000000E+00 0. -1.
          4    1    6    6  502    0  0.21249144731E+03  0.33318792124E+03 -0.44630174334E+03  0.59611412678E+03  0.00000000000E+00 0. -1.
          1    1    5    5  503    0 -0.98122281080E+02  0.29442803109E+02  0.76703066679E+02  0.12797742433E+03  0.00000000000E+00 0. -1.
         -2    1    5    5    0  503 -0.22675786778E+03 -0.82660970084E+01  0.66636719193E+02  0.23649082711E+03  0.00000000000E+00 0.  1.
         -3    1    6    6    0  502  0.18087864046E+02  0.10253500543E+03 -0.10489975885E+03  0.14779904455E+03  0.00000000000E+00 0.  1.
<mgrwt>
<rscale>  0 0.16086120E+04</rscale>
<asrwt>0</asrwt>
<pdfrwt beam="1">  1        1 0.23470811E+00 0.16086120E+04</pdfrwt>
<pdfrwt beam="2">  1       -1 0.65236077E-01 0.16086120E+04</pdfrwt>
<totfact> 0.14343371E+01</totfact>
</mgrwt>
</event>
<event>
12    1  0.1532786E-007  0.1219924E+04  0.7818608E-02  0.9095593E-01
          2   -1    0    0  501    0  0.00000000000E+00  0.00000000000E+00  0.76960924232E+03  0.76960924232E+03  0.00000000000E+00 0. -1.
         -2   -1    0    0    0  501 -0.00000000000E+00 -0.00000000000E+00 -0.48343207487E+03  0.48343207487E+03  0.00000000000E+00 0.  1.
         23    2    1    2    0    0  0.11434088787E+03 -0.15178828053E+03 -0.85260752569E+02  0.23128523112E+03  0.10054820466E+03 0.  0.
        254    2    1    2    0    0 -0.11434088787E+03  0.15178828053E+03  0.37143792002E+03  0.10217560861E+04  0.93268743438E+03 0.  0.
        -24    2    4    4    0    0  0.37891664305E+03  0.14825058847E+03  0.30974450298E+03  0.51826054203E+03  0.84239378774E+02 0.  0.
         24    2    4    4    0    0 -0.49325753092E+03  0.35376920554E+01  0.61693417047E+02  0.50349554405E+03  0.79913566378E+02 0.  0.
         11    1    3    3    0    0  0.44018337008E+01 -0.45556410389E+02 -0.61360610719E+02  0.76549900165E+02  0.00000000000E+00 0.  1.
        -11    1    3    3    0    0  0.10993905417E+03 -0.10623187014E+03 -0.23900141849E+02  0.15473533095E+03  0.00000000000E+00 0. -1.
          4    1    6    6  502    0 -0.13392128731E+01 -0.36244566110E+01  0.76438431715E+01  0.85649585682E+01  0.00000000000E+00 0. -1.
          3    1    5    5  503    0  0.13700729726E+03  0.19193199803E+02  0.13391798039E+03  0.19254455041E+03  0.00000000000E+00 0. -1.
         -4    1    5    5    0  503  0.24190934579E+03  0.12905738867E+03  0.17582652259E+03  0.32571599162E+03  0.00000000000E+00 0.  1.
         -3    1    6    6    0  502 -0.49191831805E+03  0.71621486664E+01  0.54049573875E+02  0.49493058548E+03  0.00000000000E+00 0.  1.
<mgrwt>
<rscale>  0 0.12199242E+04</rscale>
<asrwt>0</asrwt>
<pdfrwt beam="1">  1        2 0.11840142E+00 0.12199242E+04</pdfrwt>
<pdfrwt beam="2">  1       -2 0.74374165E-01 0.12199242E+04</pdfrwt>
<totfact> 0.58151552E+01</totfact>
</mgrwt>
</event>
<event>
12    1  0.1532786E-007  0.1783903E+04  0.7818608E-02  0.8714907E-01
         -4   -1    0    0    0  501 -0.00000000000E+00  0.00000000000E+00  0.44121387915E+03  0.44121387915E+03  0.00000000000E+00 0. -1.
          4   -1    0    0  501    0  0.00000000000E+00 -0.00000000000E+00 -0.18031554144E+04  0.18031554144E+04  0.00000000000E+00 0.  1.
         23    2    1    2    0    0 -0.55301176003E+03 -0.19959798572E+03 -0.14290619551E+03  0.61190200984E+03  0.91326481891E+02 0.  0.
        254    2    1    2    0    0  0.55301176003E+03  0.19959798572E+03 -0.12190353398E+04  0.16324672837E+04  0.91282030555E+03 0.  0.
        -24    2    4    4    0    0  0.99259531477E+02  0.82398981684E+02  0.13170245603E+03  0.20066612070E+03  0.79242086657E+02 0.  0.
         24    2    4    4    0    0  0.45375222856E+03  0.11719900404E+03 -0.13507377958E+04  0.14318011630E+04  0.77040807425E+02 0.  0.
         11    1    3    3    0    0 -0.52963013172E+03 -0.19256523871E+03 -0.11562461598E+03  0.57528992639E+03  0.00000000000E+00 0. -1.
        -11    1    3    3    0    0 -0.23381628314E+02 -0.70327470081E+01 -0.27281579529E+02  0.36612083452E+02  0.00000000000E+00 0.  1.
          2    1    6    6  502    0  0.17260453531E+03  0.77820787074E+02 -0.60078364570E+03  0.62991220774E+03  0.00000000000E+00 0. -1.
          3    1    5    5  503    0 -0.79030101284E+00  0.20292275935E+02 -0.43088930055E+01  0.20759759085E+02  0.00000000000E+00 0. -1.
         -4    1    5    5    0  503  0.10004983249E+03  0.62106705749E+02  0.13601134904E+03  0.17990636161E+03  0.00000000000E+00 0.  1.
         -1    1    6    6    0  502  0.28114769324E+03  0.39378216961E+02 -0.74995415009E+03  0.80188895530E+03  0.00000000000E+00 0.  1.
<mgrwt>
<rscale>  0 0.17839027E+04</rscale>
<asrwt>0</asrwt>
<pdfrwt beam="1">  1        4 0.27740853E+00 0.17839027E+04</pdfrwt>
<pdfrwt beam="2">  1       -4 0.67879056E-01 0.17839027E+04</pdfrwt>
<totfact> 0.16213856E-01</totfact>
</mgrwt>
</event>
<event>
12    1  0.1973794E-007  0.1833669E+04  0.7818608E-02  0.8688597E-01
          2   -1    0    0  501    0  0.00000000000E+00  0.00000000000E+00  0.14482410018E+04  0.14482410018E+04  0.00000000000E+00 0.  1.
         -2   -1    0    0    0  501 -0.00000000000E+00 -0.00000000000E+00 -0.58041797646E+03  0.58041797646E+03  0.00000000000E+00 0. -1.
         23    2    1    2    0    0  0.11158556425E+03  0.60591476832E+03 -0.32807290532E+02  0.62102019362E+03  0.70751098622E+02 0.  0.
        254    2    1    2    0    0 -0.11158556425E+03 -0.60591476832E+03  0.90063031585E+03  0.14076387846E+04  0.88922884429E+03 0.  0.
        -24    2    4    4    0    0  0.92832194949E+02 -0.39649825736E+03  0.10042839165E+04  0.10868957026E+04  0.83230997094E+02 0.  0.
         24    2    4    4    0    0 -0.20441775920E+03 -0.20941651096E+03 -0.10365360070E+03  0.32074308198E+03  0.80561531524E+02 0.  0.
         11    1    3    3    0    0  0.99087707169E+02  0.55997086654E+03 -0.11319955544E+02  0.56878281134E+03  0.00000000000E+00 0.  1.
        -11    1    3    3    0    0  0.12497857080E+02  0.45943901778E+02 -0.21487334988E+02  0.52237382276E+02  0.00000000000E+00 0. -1.
          2    1    6    6  502    0 -0.16352684527E+03 -0.17910115576E+03 -0.11528099207E+03  0.26852925399E+03  0.00000000000E+00 0. -1.
          1    1    5    5  503    0  0.66604029875E+02 -0.37053265677E+03  0.87749855371E+03  0.95484776707E+03  0.00000000000E+00 0. -1.
         -2    1    5    5    0  503  0.26228165075E+02 -0.25965600589E+02  0.12678536284E+03  0.13204793556E+03  0.00000000000E+00 0.  1.
         -1    1    6    6    0  502 -0.40890913930E+02 -0.30315355207E+02  0.11627391370E+02  0.52213827990E+02  0.00000000000E+00 0.  1.
<mgrwt>
<rscale>  0 0.18336686E+04</rscale>
<asrwt>0</asrwt>
<pdfrwt beam="1">  1        2 0.22280631E+00 0.18336686E+04</pdfrwt>
<pdfrwt beam="2">  1       -2 0.89295074E-01 0.18336686E+04</pdfrwt>
<totfact> 0.13762070E+01</totfact>
</mgrwt>
</event>
<event>
12    1  0.1532786E-007  0.2176406E+04  0.7818608E-02  0.8528313E-01
          1   -1    0    0  501    0  0.00000000000E+00  0.00000000000E+00  0.12384180874E+04  0.12384180874E+04  0.00000000000E+00 0. -1.
         -1   -1    0    0    0  501 -0.00000000000E+00 -0.00000000000E+00 -0.95620852092E+03  0.95620852092E+03  0.00000000000E+00 0.  1.
         23    2    1    2    0    0  0.21204286533E+03 -0.61508839530E+03  0.74953364709E+03  0.99663019246E+03  0.90416489806E+02 0.  0.
        254    2    1    2    0    0 -0.21204286533E+03  0.61508839530E+03 -0.46732408058E+03  0.11979964159E+04  0.89079049470E+03 0.  0.
        -24    2    4    4    0    0 -0.52192053912E+03  0.32097962612E+03 -0.93628607788E+02  0.62487030102E+03  0.79168221980E+02 0.  0.
         24    2    4    4    0    0  0.30987767379E+03  0.29410876918E+03 -0.37369547279E+03  0.57312611487E+03  0.79379445335E+02 0.  0.
         11    1    3    3    0    0  0.89932330044E+02 -0.18029899281E+03  0.18358327864E+03  0.27257727527E+03  0.00000000000E+00 0.  1.
        -11    1    3    3    0    0  0.12211053528E+03 -0.43478940249E+03  0.56595036845E+03  0.72405291719E+03  0.00000000000E+00 0. -1.
          2    1    6    6  502    0  0.53364999215E+02  0.61008899968E+02 -0.11468034342E+03  0.14043322322E+03  0.00000000000E+00 0. -1.
          1    1    5    5  503    0 -0.72080015199E+02  0.49874817098E+02 -0.41773996060E+02  0.97098366199E+02  0.00000000000E+00 0. -1.
         -2    1    5    5    0  503 -0.44984052392E+03  0.27110480902E+03 -0.51854611728E+02  0.52777193483E+03  0.00000000000E+00 0.  1.
         -1    1    6    6    0  502  0.25651267457E+03  0.23309986921E+03 -0.25901512937E+03  0.43269289165E+03  0.00000000000E+00 0.  1.
<mgrwt>
<rscale>  0 0.21764061E+04</rscale>
<asrwt>0</asrwt>
<pdfrwt beam="1">  1        1 0.19052586E+00 0.21764061E+04</pdfrwt>
<pdfrwt beam="2">  1       -1 0.14710900E+00 0.21764061E+04</pdfrwt>
<totfact> 0.33652398E+00</totfact>
</mgrwt>
</event>
<event>
12    1  0.1532786E-007  0.2974677E+04  0.7818608E-02  0.8250999E-01
         -1   -1    0    0    0  501 -0.00000000000E+00  0.00000000000E+00  0.26205771153E+04  0.26205771153E+04  0.00000000000E+00 0.  1.
          1   -1    0    0  501    0  0.00000000000E+00 -0.00000000000E+00 -0.84415572288E+03  0.84415572288E+03  0.00000000000E+00 0. -1.
         23    2    1    2    0    0  0.84380469308E+03 -0.88468830944E+03  0.14614310739E+04  0.19073683215E+04  0.87139916878E+02 0.  0.
        254    2    1    2    0    0 -0.84380469308E+03  0.88468830944E+03  0.31499031857E+03  0.15573645167E+04  0.91185830713E+03 0.  0.
        -24    2    4    4    0    0 -0.55081225567E+03  0.29019114039E+03 -0.25682386417E+03  0.67818946152E+03  0.79858684848E+02 0.  0.
         24    2    4    4    0    0 -0.29299243741E+03  0.59449716905E+03  0.57181418274E+03  0.87917505523E+03  0.81889350716E+02 0.  0.
         11    1    3    3    0    0  0.36997983434E+02 -0.68026472697E+02  0.10196979464E+03  0.12804019207E+03  0.00000000000E+00 0. -1.
        -11    1    3    3    0    0  0.80680670965E+03 -0.81666183675E+03  0.13594612792E+04  0.17793281294E+04  0.00000000000E+00 0.  1.
          2    1    6    6  502    0 -0.96523539015E+02  0.22779371921E+03  0.26292070875E+03  0.36101810368E+03  0.00000000000E+00 0. -1.
          3    1    5    5  503    0 -0.32865921357E+03  0.13791521051E+03 -0.17245222943E+03  0.39595107702E+03  0.00000000000E+00 0. -1.
         -4    1    5    5    0  503 -0.22215304210E+03  0.15227592989E+03 -0.84371634736E+02  0.28223838450E+03  0.00000000000E+00 0.  1.
         -1    1    6    6    0  502 -0.19646889840E+03  0.36670344984E+03  0.30889347399E+03  0.51815695154E+03  0.00000000000E+00 0.  1.
<mgrwt>
<rscale>  0 0.29746766E+04</rscale>
<asrwt>0</asrwt>
<pdfrwt beam="1">  1        1 0.12987011E+00 0.29746766E+04</pdfrwt>
<pdfrwt beam="2">  1       -1 0.40316571E+00 0.29746766E+04</pdfrwt>
<totfact> 0.11750157E-01</totfact>
</mgrwt>
</event>
<event>
12    1  0.1532786E-007  0.1561560E+04  0.7818608E-02  0.8844518E-01
         -2   -1    0    0    0  501 -0.00000000000E+00  0.00000000000E+00  0.12409199864E+03  0.12409199864E+03  0.00000000000E+00 0.  1.
          2   -1    0    0  501    0  0.00000000000E+00 -0.00000000000E+00 -0.49126237038E+04  0.49126237038E+04  0.00000000000E+00 0. -1.
         23    2    1    2    0    0 -0.39141521672E+03  0.13803433499E+03 -0.61872087538E+03  0.75054567351E+03  0.90796128090E+02 0.  0.
        254    2    1    2    0    0  0.39141521672E+03 -0.13803433499E+03 -0.41698108298E+04  0.42861700290E+04  0.90092830527E+03 0.  0.
        -24    2    4    4    0    0  0.50405833798E+03  0.14869748134E+02 -0.11370762259E+04  0.12464767375E+04  0.80411417864E+02 0.  0.
         24    2    4    4    0    0 -0.11264312126E+03 -0.15290408312E+03 -0.30327346039E+04  0.30396932914E+04  0.78663822828E+02 0.  0.
         13    1    3    3    0    0 -0.37155437779E+03  0.15008649772E+03 -0.57242932016E+03  0.69875170056E+03  0.00000000000E+00 0.  1.
        -13    1    3    3    0    0 -0.19860838926E+02 -0.12052162729E+02 -0.46291555218E+02  0.51793972948E+02  0.00000000000E+00 0. -1.
          4    1    6    6  502    0 -0.10896481999E+03 -0.12365548243E+03 -0.20864010183E+04  0.20929006712E+04  0.00000000000E+00 0. -1.
          1    1    5    5  503    0  0.48211735750E+03  0.19119356476E+02 -0.10344016629E+04  0.11413980447E+04  0.00000000000E+00 0. -1.
         -2    1    5    5    0  503  0.21940980474E+02 -0.42496083420E+01 -0.10267456308E+03  0.10507869288E+03  0.00000000000E+00 0.  1.
         -3    1    6    6    0  502 -0.36783012736E+01 -0.29248600697E+02 -0.94633358557E+03  0.94679262023E+03  0.00000000000E+00 0.  1.
<mgrwt>
<rscale>  0 0.15615599E+04</rscale>
<asrwt>0</asrwt>
<pdfrwt beam="1">  1        2 0.75578805E+00 0.15615599E+04</pdfrwt>
<pdfrwt beam="2">  1       -2 0.19091082E-01 0.15615599E+04</pdfrwt>
<totfact> 0.10258737E+00</totfact>
</mgrwt>
</event>
<event>
12    1  0.1532786E-007  0.3429251E+04  0.7818608E-02  0.8130764E-01
          2   -1    0    0  501    0  0.00000000000E+00  0.00000000000E+00  0.34297111841E+04  0.34297111841E+04  0.00000000000E+00 0. -1.
         -2   -1    0    0    0  501 -0.00000000000E+00 -0.00000000000E+00 -0.85719778063E+03  0.85719778063E+03  0.00000000000E+00 0.  1.
         23    2    1    2    0    0  0.89757971976E+03  0.10055256447E+04  0.12834392563E+03  0.13570908519E+04  0.92153358901E+02 0.  0.
        254    2    1    2    0    0 -0.89757971976E+03 -0.10055256447E+04  0.24441694778E+04  0.29298181128E+04  0.89058327085E+03 0.  0.
        -24    2    4    4    0    0 -0.97252791725E+03 -0.10138731597E+04  0.24442682248E+04  0.28204415272E+04  0.81816377006E+02 0.  0.
         24    2    4    4    0    0  0.74948197493E+02  0.83475150113E+01 -0.98746988678E-01  0.10937658563E+03  0.79223193696E+02 0.  0.
         11    1    3    3    0    0  0.81400051645E+03  0.93018466726E+03  0.14001285350E+03  0.12439630039E+04  0.00000000000E+00 0. -1.
        -11    1    3    3    0    0  0.83579203306E+02  0.75340977460E+02 -0.11668927871E+02  0.11312784798E+03  0.00000000000E+00 0.  1.
          2    1    6    6  502    0  0.21868214205E+02 -0.10176000239E+01  0.37664357118E+02  0.43564413223E+02  0.00000000000E+00 0. -1.
          3    1    5    5  503    0 -0.43805243974E+03 -0.40988420925E+03  0.99421604618E+03  0.11611892832E+04  0.00000000000E+00 0. -1.
         -4    1    5    5    0  503 -0.53447547751E+03 -0.60398895049E+03  0.14500521786E+04  0.16592522440E+04  0.00000000000E+00 0.  1.
         -1    1    6    6    0  502  0.53079983288E+02  0.93651150352E+01 -0.37763104107E+02  0.65812172410E+02  0.00000000000E+00 0.  1.
<mgrwt>
<rscale>  0 0.34292511E+04</rscale>
<asrwt>0</asrwt>
<pdfrwt beam="1">  1        2 0.52764787E+00 0.34292511E+04</pdfrwt>
<pdfrwt beam="2">  1       -2 0.13187658E+00 0.34292511E+04</pdfrwt>
<totfact> 0.31440413E-01</totfact>
</mgrwt>
</event>
<event>
12    1  0.1532786E-007  0.1213479E+04  0.7818608E-02  0.9101140E-01
          2   -1    0    0  501    0  0.00000000000E+00  0.00000000000E+00  0.24953179716E+04  0.24953179716E+04  0.00000000000E+00 0.  1.
         -2   -1    0    0    0  501 -0.00000000000E+00 -0.00000000000E+00 -0.14752935034E+03  0.14752935034E+03  0.00000000000E+00 0. -1.
         23    2    1    2    0    0 -0.18781540581E+03 -0.21535896534E+03  0.36877720654E+03  0.47533917485E+03  0.91085632624E+02 0.  0.
        254    2    1    2    0    0  0.18781540581E+03  0.21535896534E+03  0.19790114147E+04  0.21675081471E+04  0.83663090878E+03 0.  0.
        -24    2    4    4    0    0  0.11811193652E+03 -0.30333188200E+03  0.99660523742E+03  0.10514832093E+04  0.80213964364E+02 0.  0.
         24    2    4    4    0    0  0.69703469292E+02  0.51869084734E+03  0.98240617729E+03  0.11160249378E+04  0.80566716190E+02 0.  0.
         11    1    3    3    0    0 -0.13985201322E+03 -0.17319324105E+03  0.33731190452E+03  0.40414577231E+03  0.00000000000E+00 0.  1.
        -11    1    3    3    0    0 -0.47963392588E+02 -0.42165724291E+02  0.31465302022E+02  0.71193402537E+02  0.00000000000E+00 0. -1.
          4    1    6    6  502    0  0.79009447497E+02  0.38418506315E+03  0.68185752386E+03  0.78661956394E+03  0.00000000000E+00 0. -1.
          3    1    5    5  503    0  0.74462790151E+01 -0.45782318576E+02  0.74951456232E+02  0.88143000611E+02  0.00000000000E+00 0. -1.
         -4    1    5    5    0  503  0.11066565750E+03 -0.25754956342E+03  0.92165378119E+03  0.96334020873E+03  0.00000000000E+00 0.  1.
         -3    1    6    6    0  502 -0.93059782052E+01  0.13450578419E+03  0.30054865344E+03  0.32940537381E+03  0.00000000000E+00 0.  1.
<mgrwt>
<rscale>  0 0.12134787E+04</rscale>
<asrwt>0</asrwt>
<pdfrwt beam="1">  1        2 0.38389504E+00 0.12134787E+04</pdfrwt>
<pdfrwt beam="2">  1       -2 0.22696825E-01 0.12134787E+04</pdfrwt>
<totfact> 0.59335981E+01</totfact>
</mgrwt>
</event>
<event>
12    1  0.1532786E-007  0.1559564E+04  0.7818608E-02  0.8845782E-01
         -1   -1    0    0    0  501 -0.00000000000E+00  0.00000000000E+00  0.30734192106E+03  0.30734192106E+03  0.00000000000E+00 0.  1.
          1   -1    0    0  501    0  0.00000000000E+00 -0.00000000000E+00 -0.19784487028E+04  0.19784487028E+04  0.00000000000E+00 0. -1.
         23    2    1    2    0    0  0.48084796315E+03 -0.61905781939E+02 -0.73562925784E+03  0.88568756086E+03  0.90801767464E+02 0.  0.
        254    2    1    2    0    0 -0.48084796315E+03  0.61905781939E+02 -0.93547752387E+03  0.14001030630E+04  0.92202131199E+03 0.  0.
        -24    2    4    4    0    0  0.26586846502E+03  0.66720963805E+02 -0.19842278583E+03  0.34760276907E+03  0.79488083564E+02 0.  0.
         24    2    4    4    0    0 -0.74671642818E+03 -0.48151818657E+01 -0.73705473804E+03  0.10525002939E+04  0.83057640801E+02 0.  0.
         11    1    3    3    0    0  0.38923731144E+03 -0.82426482291E+02 -0.56666561840E+03  0.69239420324E+03  0.00000000000E+00 0. -1.
        -11    1    3    3    0    0  0.91610651712E+02  0.20520700351E+02 -0.16896363944E+03  0.19329335762E+03  0.00000000000E+00 0.  1.
          4    1    6    6  502    0 -0.20603054330E+03 -0.94956775666E+01 -0.25625198308E+03  0.32894350806E+03  0.00000000000E+00 0. -1.
          3    1    5    5  503    0  0.20106597573E+02 -0.13647148688E+02 -0.31702413165E+02  0.39944498166E+02  0.00000000000E+00 0. -1.
         -4    1    5    5    0  503  0.24576186745E+03  0.80368112492E+02 -0.16672037266E+03  0.30765827091E+03  0.00000000000E+00 0.  1.
         -3    1    6    6    0  502 -0.54068588488E+03  0.46804957008E+01 -0.48080275497E+03  0.72355678584E+03  0.00000000000E+00 0.  1.
<mgrwt>
<rscale>  0 0.15595643E+04</rscale>
<asrwt>0</asrwt>
<pdfrwt beam="1">  1        1 0.30437672E+00 0.15595643E+04</pdfrwt>
<pdfrwt beam="2">  1       -1 0.47283373E-01 0.15595643E+04</pdfrwt>
<totfact> 0.13247020E+01</totfact>
</mgrwt>
</event>
<event>
12    1  0.1532786E-007  0.2285561E+04  0.7818608E-02  0.8483636E-01
          1   -1    0    0  501    0  0.00000000000E+00  0.00000000000E+00  0.95483320425E+03  0.95483320425E+03  0.00000000000E+00 0. -1.
         -1   -1    0    0    0  501 -0.00000000000E+00 -0.00000000000E+00 -0.13677223588E+04  0.13677223588E+04  0.00000000000E+00 0.  1.
         23    2    1    2    0    0 -0.27979997856E+03  0.23320765828E+03 -0.10877014556E+04  0.11506093912E+04  0.90186886936E+02 0.  0.
        254    2    1    2    0    0  0.27979997856E+03 -0.23320765828E+03  0.67481230107E+03  0.11719461719E+04  0.88623492838E+03 0.  0.
        -24    2    4    4    0    0  0.15268879601E+03 -0.30726691856E+03 -0.11043668007E+03  0.36916597749E+03  0.79752310104E+02 0.  0.
         24    2    4    4    0    0  0.12711118255E+03  0.74059260282E+02  0.78524898114E+03  0.80278019440E+03  0.78727704085E+02 0.  0.
         11    1    3    3    0    0 -0.18783193812E+03  0.98608004755E+02 -0.60311182325E+03  0.63933422162E+03  0.00000000000E+00 0.  1.
        -11    1    3    3    0    0 -0.91968040436E+02  0.13459965352E+03 -0.48458963238E+03  0.51127516955E+03  0.00000000000E+00 0. -1.
          4    1    6    6  502    0  0.10129771815E+03  0.90172324937E+02  0.60836733376E+03  0.62330015937E+03  0.00000000000E+00 0. -1.
          3    1    5    5  503    0  0.15495420233E+03 -0.26280955045E+03 -0.80533912255E+02  0.31553981626E+03  0.00000000000E+00 0. -1.
         -4    1    5    5    0  503 -0.22654063203E+01 -0.44457368114E+02 -0.29902767813E+02  0.53626161230E+02  0.00000000000E+00 0.  1.
         -3    1    6    6    0  502  0.25813464402E+02 -0.16113064655E+02  0.17688164737E+03  0.17948003503E+03  0.00000000000E+00 0.  1.
<mgrwt>
<rscale>  0 0.22855605E+04</rscale>
<asrwt>0</asrwt>
<pdfrwt beam="1">  1        1 0.14689742E+00 0.22855605E+04</pdfrwt>
<pdfrwt beam="2">  1       -1 0.21041882E+00 0.22855605E+04</pdfrwt>
<totfact> 0.18987782E+00</totfact>
</mgrwt>
</event>
<event>
12    1  0.1532786E-007  0.1267286E+04  0.7818608E-02  0.9055918E-01
         -2   -1    0    0    0  501 -0.00000000000E+00  0.00000000000E+00  0.14207077527E+03  0.14207077527E+03  0.00000000000E+00 0.  1.
          2   -1    0    0  501    0  0.00000000000E+00 -0.00000000000E+00 -0.28260811816E+04  0.28260811816E+04  0.00000000000E+00 0. -1.
         23    2    1    2    0    0 -0.15632888898E+02 -0.19842893861E+03 -0.11604371901E+04  0.11810876037E+04  0.93461353203E+02 0.  0.
        254    2    1    2    0    0  0.15632888898E+02  0.19842893861E+03 -0.15235732163E+04  0.17870643532E+04  0.91252683594E+03 0.  0.
        -24    2    4    4    0    0  0.44248307656E+03  0.67436219040E+02 -0.55561296619E+03  0.71797038085E+03  0.80229563800E+02 0.  0.
         24    2    4    4    0    0 -0.42685018766E+03  0.13099271957E+03 -0.96796025009E+03  0.10690939724E+04  0.81576349046E+02 0.  0.
         11    1    3    3    0    0 -0.35394101594E+02 -0.31380566976E+02 -0.36548060243E+03  0.36852890411E+03  0.00000000000E+00 0.  1.
        -11    1    3    3    0    0  0.19761212696E+02 -0.16704837164E+03 -0.79495658763E+03  0.81255869955E+03  0.00000000000E+00 0. -1.
          2    1    6    6  502    0 -0.23861560399E+03  0.59954512491E+02 -0.62190014297E+03  0.66879872746E+03  0.00000000000E+00 0. -1.
          3    1    5    5  503    0  0.10478765874E+03  0.12937287276E+02 -0.18946993163E+03  0.21690247075E+03  0.00000000000E+00 0. -1.
         -4    1    5    5    0  503  0.33769541781E+03  0.54498931764E+02 -0.36614303456E+03  0.50106791010E+03  0.00000000000E+00 0.  1.
         -1    1    6    6    0  502 -0.18823458367E+03  0.71038207082E+02 -0.34606010712E+03  0.40029524490E+03  0.00000000000E+00 0.  1.
<mgrwt>
<rscale>  0 0.12672861E+04</rscale>
<asrwt>0</asrwt>
<pdfrwt beam="1">  1        2 0.43478169E+00 0.12672861E+04</pdfrwt>
<pdfrwt beam="2">  1       -2 0.21857044E-01 0.12672861E+04</pdfrwt>
<totfact> 0.40391700E+01</totfact>
</mgrwt>
</event>
<event>
12    1  0.1532786E-007  0.3454570E+04  0.7818608E-02  0.8124641E-01
         -1   -1    0    0    0  501 -0.00000000000E+00  0.00000000000E+00  0.85490556226E+03  0.85490556226E+03  0.00000000000E+00 0.  1.
          1   -1    0    0  501    0  0.00000000000E+00 -0.00000000000E+00 -0.34898753316E+04  0.34898753316E+04  0.00000000000E+00 0. -1.
         23    2    1    2    0    0 -0.15778303525E+04  0.25534875314E+02 -0.85349331077E+03  0.17966309258E+04  0.96079138403E+02 0.  0.
        254    2    1    2    0    0  0.15778303525E+04 -0.25534875314E+02 -0.17814764586E+04  0.25481499681E+04  0.91060926645E+03 0.  0.
        -24    2    4    4    0    0  0.82554371995E+03 -0.26833009587E+03 -0.14401074367E+04  0.16833558522E+04  0.79082375498E+02 0.  0.
         24    2    4    4    0    0  0.75228663255E+03  0.24279522056E+03 -0.34136902192E+03  0.86479411586E+03  0.80320340281E+02 0.  0.
         11    1    3    3    0    0 -0.19938878283E+03 -0.48174403120E+00 -0.72886854176E+02  0.21229369352E+03  0.00000000000E+00 0. -1.
        -11    1    3    3    0    0 -0.13784415697E+04  0.26016619345E+02 -0.78060645659E+03  0.15843372323E+04  0.00000000000E+00 0.  1.
          4    1    6    6  502    0  0.63684480225E+03  0.23070836787E+03 -0.27463583371E+03  0.73090525673E+03  0.00000000000E+00 0. -1.
          3    1    5    5  503    0  0.48205073336E+03 -0.18613402725E+03 -0.90684498152E+03  0.10437368472E+04  0.00000000000E+00 0. -1.
         -4    1    5    5    0  503  0.34349298659E+03 -0.82196068619E+02 -0.53326245514E+03  0.63961900503E+03  0.00000000000E+00 0.  1.
         -3    1    6    6    0  502  0.11544183030E+03  0.12086852687E+02 -0.66733188205E+02  0.13388885913E+03  0.00000000000E+00 0.  1.
<mgrwt>
<rscale>  0 0.34545702E+04</rscale>
<asrwt>0</asrwt>
<pdfrwt beam="1">  1        1 0.53690390E+00 0.34545702E+04</pdfrwt>
<pdfrwt beam="2">  1       -1 0.13152393E+00 0.34545702E+04</pdfrwt>
<totfact> 0.10248191E-01</totfact>
</mgrwt>
</event>
<event>
12    1  0.1532786E-007  0.2391084E+04  0.7818608E-02  0.8442849E-01
         -2   -1    0    0    0  501 -0.00000000000E+00  0.00000000000E+00  0.11583632999E+04  0.11583632999E+04  0.00000000000E+00 0.  1.
          2   -1    0    0  501    0  0.00000000000E+00 -0.00000000000E+00 -0.12339135022E+04  0.12339135022E+04  0.00000000000E+00 0. -1.
         23    2    1    2    0    0 -0.22951688649E+03 -0.25459676156E+03 -0.99044036607E+03  0.10520362658E+04  0.91162895769E+02 0.  0.
        254    2    1    2    0    0  0.22951688649E+03  0.25459676156E+03  0.91489016378E+03  0.13402405363E+04  0.91745472426E+03 0.  0.
        -24    2    4    4    0    0 -0.30043269626E+03  0.28367317941E+03  0.26668946601E+03  0.49868224920E+03  0.82646455969E+02 0.  0.
         24    2    4    4    0    0  0.52994958275E+03 -0.29076417852E+02  0.64820069777E+03  0.84155828706E+03  0.79775983783E+02 0.  0.
         11    1    3    3    0    0 -0.11299025062E+03 -0.11057699993E+03 -0.59008186381E+03  0.61089334228E+03  0.00000000000E+00 0. -1.
        -11    1    3    3    0    0 -0.11652663587E+03 -0.14401976163E+03 -0.40035850226E+03  0.44114292348E+03  0.00000000000E+00 0.  1.
          2    1    6    6  502    0  0.11773310302E+03  0.26671269616E+02  0.14908841796E+03  0.19183273063E+03  0.00000000000E+00 0. -1.
          3    1    5    5  503    0 -0.17872037146E+03  0.16186776470E+03  0.20262137106E+03  0.31495644847E+03  0.00000000000E+00 0. -1.
         -4    1    5    5    0  503 -0.12171232480E+03  0.12180541471E+03  0.64068094946E+02  0.18372580073E+03  0.00000000000E+00 0.  1.
         -1    1    6    6    0  502  0.41221647973E+03 -0.55747687469E+02  0.49911227981E+03  0.64972555643E+03  0.00000000000E+00 0.  1.
<mgrwt>
<rscale>  0 0.23910835E+04</rscale>
<asrwt>0</asrwt>
<pdfrwt beam="1">  1        2 0.18983285E+00 0.23910835E+04</pdfrwt>
<pdfrwt beam="2">  1       -2 0.17820974E+00 0.23910835E+04</pdfrwt>
<totfact> 0.30358046E+00</totfact>
</mgrwt>
</event>
<event>
12    1  0.1532786E-007  0.2564861E+04  0.7818608E-02  0.8380236E-01
          1   -1    0    0  501    0  0.00000000000E+00  0.00000000000E+00  0.12685811385E+04  0.12685811385E+04  0.00000000000E+00 0. -1.
         -1   -1    0    0    0  501 -0.00000000000E+00 -0.00000000000E+00 -0.12964315025E+04  0.12964315025E+04  0.00000000000E+00 0.  1.
         23    2    1    2    0    0 -0.68343680372E+03 -0.34499565720E+03 -0.82766900048E+03  0.11312302948E+04  0.92402041552E+02 0.  0.
        254    2    1    2    0    0  0.68343680372E+03  0.34499565720E+03  0.79981863647E+03  0.14337823463E+04  0.91099621134E+03 0.  0.
        -24    2    4    4    0    0  0.33408639111E+03  0.45289098365E+03  0.21754454090E+02  0.56941151419E+03  0.83858550088E+02 0.  0.
         24    2    4    4    0    0  0.34935041261E+03 -0.10789532645E+03  0.77806418238E+03  0.86437083208E+03  0.89810640720E+02 0.  0.
         13    1    3    3    0    0 -0.33329650147E+02 -0.15792597740E+02 -0.75135556565E+02  0.83699603241E+02  0.00000000000E+00 0.  1.
        -13    1    3    3    0    0 -0.65010715357E+03 -0.32920305946E+03 -0.75253344391E+03  0.10475306915E+04  0.00000000000E+00 0. -1.
          2    1    6    6  502    0  0.33555077674E+03 -0.79467611339E+02  0.71720623252E+03  0.79579784179E+03  0.00000000000E+00 0. -1.
          3    1    5    5  503    0  0.30408297919E+03  0.44293699367E+03  0.23151950573E+02  0.53776914323E+03  0.00000000000E+00 0. -1.
         -4    1    5    5    0  503  0.30003411926E+02  0.99539899777E+01 -0.13974964827E+01  0.31642370962E+02  0.00000000000E+00 0.  1.
         -3    1    6    6    0  502  0.13799635865E+02 -0.28427715115E+02  0.60857949860E+02  0.68572990294E+02  0.00000000000E+00 0.  1.
<mgrwt>
<rscale>  0 0.25648614E+04</rscale>
<asrwt>0</asrwt>
<pdfrwt beam="1">  1        1 0.19516633E+00 0.25648614E+04</pdfrwt>
<pdfrwt beam="2">  1       -1 0.19945100E+00 0.25648614E+04</pdfrwt>
<totfact> 0.12779850E+00</totfact>
</mgrwt>
</event>
<event>
12    1  0.1532786E-007  0.1671397E+04  0.7818608E-02  0.8777848E-01
         -1   -1    0    0    0  501 -0.00000000000E+00  0.00000000000E+00  0.49313404755E+03  0.49313404755E+03  0.00000000000E+00 0.  1.
          1   -1    0    0  501    0  0.00000000000E+00 -0.00000000000E+00 -0.14162322781E+04  0.14162322781E+04  0.00000000000E+00 0. -1.
         23    2    1    2    0    0 -0.35114526066E+02 -0.38051872603E+03  0.18211025229E+03  0.43296551718E+03  0.90925597459E+02 0.  0.
        254    2    1    2    0    0  0.35114526066E+02  0.38051872603E+03 -0.11052084829E+04  0.14764008085E+04  0.90124692838E+03 0.  0.
        -24    2    4    4    0    0  0.11053768130E+03  0.29687978363E+03 -0.12405081019E+04  0.12827896390E+04  0.79578402220E+02 0.  0.
         24    2    4    4    0    0 -0.75423155233E+02  0.83638942403E+02  0.13529961905E+03  0.19361116949E+03  0.80592636175E+02 0.  0.
         13    1    3    3    0    0 -0.10581886215E+02 -0.61400329092E+01  0.21740091885E+02  0.24946100199E+02  0.00000000000E+00 0. -1.
        -13    1    3    3    0    0 -0.24532639851E+02 -0.37437869312E+03  0.16037016040E+03  0.40801941698E+03  0.00000000000E+00 0.  1.
          4    1    6    6  502    0 -0.33107799822E+02  0.14179708818E+02  0.31644493425E+00  0.36017921769E+02  0.00000000000E+00 0. -1.
          1    1    5    5  503    0  0.11913006171E+03  0.27692503742E+03 -0.10978904339E+04  0.11385266149E+04  0.00000000000E+00 0. -1.
         -2    1    5    5    0  503 -0.85923804138E+01  0.19954746209E+02 -0.14261766798E+03  0.14426302408E+03  0.00000000000E+00 0.  1.
         -3    1    6    6    0  502 -0.42315355411E+02  0.69459233584E+02  0.13498317411E+03  0.15759324772E+03  0.00000000000E+00 0.  1.
<mgrwt>
<rscale>  0 0.16713974E+04</rscale>
<asrwt>0</asrwt>
<pdfrwt beam="1">  1        1 0.21788188E+00 0.16713974E+04</pdfrwt>
<pdfrwt beam="2">  1       -1 0.75866778E-01 0.16713974E+04</pdfrwt>
<totfact> 0.12459036E+01</totfact>
</mgrwt>
</event>
<event>
12    1  0.1532786E-007  0.1278673E+04  0.7818608E-02  0.9046650E-01
         -2   -1    0    0    0  501 -0.00000000000E+00  0.00000000000E+00  0.17617199502E+03  0.17617199502E+03  0.00000000000E+00 0.  1.
          2   -1    0    0  501    0  0.00000000000E+00 -0.00000000000E+00 -0.23201834239E+04  0.23201834239E+04  0.00000000000E+00 0. -1.
         23    2    1    2    0    0 -0.17913071021E+02 -0.77279396772E+02 -0.14250103820E+04  0.14294326303E+04  0.79561752999E+02 0.  0.
        254    2    1    2    0    0  0.17913071021E+02  0.77279396772E+02 -0.71900104696E+03  0.10669227887E+04  0.78426318808E+03 0.  0.
        -24    2    4    4    0    0 -0.24488738561E+03 -0.21865076012E+03 -0.15080607279E+03  0.36987810698E+03  0.79305459467E+02 0.  0.
         24    2    4    4    0    0  0.26280045663E+03  0.29593015690E+03 -0.56819497417E+03  0.69704468169E+03  0.79918845325E+02 0.  0.
         11    1    3    3    0    0 -0.32945976836E+02 -0.73733256353E+02 -0.13675519564E+04  0.13699344452E+04  0.00000000000E+00 0. -1.
        -11    1    3    3    0    0  0.15032905814E+02 -0.35461404194E+01 -0.57458425520E+02  0.59498185118E+02  0.00000000000E+00 0.  1.
          4    1    6    6  502    0  0.26360510365E+02  0.24242692586E+01 -0.30089032261E+02  0.40076220513E+02  0.00000000000E+00 0. -1.
          3    1    5    5  503    0 -0.12531856335E+03 -0.72248344898E+02 -0.37272261010E+02  0.14937800073E+03  0.00000000000E+00 0. -1.
         -4    1    5    5    0  503 -0.11956882225E+03 -0.14640241522E+03 -0.11353381178E+03  0.22050010625E+03  0.00000000000E+00 0.  1.
         -3    1    6    6    0  502  0.23643994627E+03  0.29350588764E+03 -0.53810594191E+03  0.65696846118E+03  0.00000000000E+00 0.  1.
<mgrwt>
<rscale>  0 0.12786733E+04</rscale>
<asrwt>0</asrwt>
<pdfrwt beam="1">  1        2 0.35695129E+00 0.12786733E+04</pdfrwt>
<pdfrwt beam="2">  1       -2 0.27103384E-01 0.12786733E+04</pdfrwt>
<totfact> 0.53822923E+01</totfact>
</mgrwt>
</event>
<event>
12    1  0.1532786E-007  0.1447682E+04  0.7818608E-02  0.8920009E-01
          1   -1    0    0  501    0  0.00000000000E+00  0.00000000000E+00  0.17948137325E+04  0.17948137325E+04  0.00000000000E+00 0. -1.
         -1   -1    0    0    0  501 -0.00000000000E+00 -0.00000000000E+00 -0.29192204583E+03  0.29192204583E+03  0.00000000000E+00 0.  1.
         23    2    1    2    0    0  0.49392529117E+02 -0.29404151079E+03 -0.19192617134E+02  0.32301493997E+03  0.12276099905E+03 0.  0.
        254    2    1    2    0    0 -0.49392529117E+02  0.29404151079E+03  0.15220843038E+04  0.17637208384E+04  0.83968478359E+03 0.  0.
        -24    2    4    4    0    0  0.36127194423E+02 -0.15185410241E+03  0.11713852111E+04  0.11844363553E+04  0.79883192803E+02 0.  0.
         24    2    4    4    0    0 -0.85519723540E+02  0.44589561320E+03  0.35069909276E+03  0.57928448307E+03  0.80275386464E+02 0.  0.
         11    1    3    3    0    0  0.49242478780E+02 -0.82528231739E+02 -0.51526364452E+02  0.10904447251E+03  0.00000000000E+00 0. -1.
        -11    1    3    3    0    0  0.15005033726E+00 -0.21151327905E+03  0.32333747317E+02  0.21397046746E+03  0.00000000000E+00 0.  1.
          4    1    6    6  502    0 -0.52214083233E+02  0.11660201022E+03  0.72338034819E+02  0.14681665626E+03  0.00000000000E+00 0. -1.
          3    1    5    5  503    0 -0.13319267415E+02 -0.10003711277E+03  0.57801316148E+03  0.58675722549E+03  0.00000000000E+00 0. -1.
         -4    1    5    5    0  503  0.49446461838E+02 -0.51816989641E+02  0.59337204960E+03  0.59767912984E+03  0.00000000000E+00 0.  1.
         -3    1    6    6    0  502 -0.33305640307E+02  0.32929360299E+03  0.27836105794E+03  0.43246782681E+03  0.00000000000E+00 0.  1.
<mgrwt>
<rscale>  0 0.14476819E+04</rscale>
<asrwt>0</asrwt>
<pdfrwt beam="1">  1        1 0.27612518E+00 0.14476819E+04</pdfrwt>
<pdfrwt beam="2">  1       -1 0.44911085E-01 0.14476819E+04</pdfrwt>
<totfact> 0.19617410E+01</totfact>
</mgrwt>
</event>
<event>
12    1  0.1532786E-007  0.3135651E+04  0.7818608E-02  0.8206021E-01
          1   -1    0    0  501    0  0.00000000000E+00  0.00000000000E+00  0.16635165909E+04  0.16635165909E+04  0.00000000000E+00 0. -1.
         -1   -1    0    0    0  501 -0.00000000000E+00 -0.00000000000E+00 -0.14776388023E+04  0.14776388023E+04  0.00000000000E+00 0.  1.
         23    2    1    2    0    0  0.58487762926E+03  0.11889866037E+04  0.63222641732E+03  0.14709437710E+04  0.90522648166E+02 0.  0.
        254    2    1    2    0    0 -0.58487762926E+03 -0.11889866037E+04 -0.44634862868E+03  0.16702116222E+04  0.91356925286E+03 0.  0.
        -24    2    4    4    0    0  0.14676413509E+03 -0.57004210037E+03  0.35652814720E+02  0.59461720464E+03  0.76228533459E+02 0.  0.
         24    2    4    4    0    0 -0.73164176435E+03 -0.61894450329E+03 -0.48200144340E+03  0.10755944176E+04  0.78651066035E+02 0.  0.
         13    1    3    3    0    0  0.32640213259E+03  0.62763680033E+03  0.38419050661E+03  0.80502711175E+03  0.00000000000E+00 0.  1.
        -13    1    3    3    0    0  0.25847549666E+03  0.56134980334E+03  0.24803591071E+03  0.66591665926E+03  0.00000000000E+00 0. -1.
          2    1    6    6  502    0 -0.22279185901E+03 -0.22225796199E+03 -0.12875325145E+03  0.34001796109E+03  0.00000000000E+00 0. -1.
          3    1    5    5  503    0  0.66486107539E+02 -0.13770540630E+03 -0.51434887282E+01  0.15300208135E+03  0.00000000000E+00 0. -1.
         -4    1    5    5    0  503  0.80278027552E+02 -0.43233669407E+03  0.40796303448E+02  0.44161512329E+03  0.00000000000E+00 0.  1.
         -1    1    6    6    0  502 -0.50884990534E+03 -0.39668654131E+03 -0.35324819196E+03  0.73557645649E+03  0.00000000000E+00 0.  1.
<mgrwt>
<rscale>  0 0.31356509E+04</rscale>
<asrwt>0</asrwt>
<pdfrwt beam="1">  1        1 0.25592563E+00 0.31356509E+04</pdfrwt>
<pdfrwt beam="2">  1       -1 0.22732905E+00 0.31356509E+04</pdfrwt>
<totfact> 0.41755926E-01</totfact>
</mgrwt>
</event>
<event>
12    1  0.1532786E-007  0.2068854E+04  0.7818608E-02  0.8575089E-01
          2   -1    0    0  501    0  0.00000000000E+00  0.00000000000E+00  0.78655095033E+03  0.78655095033E+03  0.00000000000E+00 0. -1.
         -2   -1    0    0    0  501 -0.00000000000E+00 -0.00000000000E+00 -0.13604193635E+04  0.13604193635E+04  0.00000000000E+00 0.  1.
         23    2    1    2    0    0  0.20098507502E+03  0.26900823652E+01 -0.10859978744E+04  0.11082677401E+04  0.91998715575E+02 0.  0.
        254    2    1    2    0    0 -0.20098507502E+03 -0.26900823652E+01  0.51212946118E+03  0.10387025738E+04  0.88103587601E+03 0.  0.
        -24    2    4    4    0    0 -0.10576528565E+03 -0.33286125460E+03 -0.63462165240E+02  0.36386283422E+03  0.79911233536E+02 0.  0.
         24    2    4    4    0    0 -0.95219789361E+02  0.33017117224E+03  0.57559162642E+03  0.67483973954E+03  0.77608906746E+02 0.  0.
         11    1    3    3    0    0  0.18207304126E+03  0.24398944047E+01 -0.10630394578E+04  0.10785218747E+04  0.00000000000E+00 0.  1.
        -11    1    3    3    0    0  0.18912033750E+02  0.25018796049E+00 -0.22958416585E+02  0.29745865371E+02  0.00000000000E+00 0. -1.
          2    1    6    6  502    0 -0.89899539826E+02  0.22606802900E+03  0.34908485794E+03  0.42549843600E+03  0.00000000000E+00 0. -1.
          1    1    5    5  503    0 -0.21889567708E+02 -0.19500004737E+03 -0.23586062806E+02  0.19763722830E+03  0.00000000000E+00 0. -1.
         -2    1    5    5    0  503 -0.83875717946E+02 -0.13786120723E+03 -0.39876102434E+02  0.16622560592E+03  0.00000000000E+00 0.  1.
         -1    1    6    6    0  502 -0.53202495356E+01  0.10410314323E+03  0.22650676848E+03  0.24934130354E+03  0.00000000000E+00 0.  1.
<mgrwt>
<rscale>  0 0.20688539E+04</rscale>
<asrwt>0</asrwt>
<pdfrwt beam="1">  1        2 0.12100784E+00 0.20688539E+04</pdfrwt>
<pdfrwt beam="2">  1       -2 0.20929529E+00 0.20688539E+04</pdfrwt>
<totfact> 0.37645162E+00</totfact>
</mgrwt>
</event>
<event>
12    1  0.1532786E-007  0.1774774E+04  0.7818608E-02  0.8719830E-01
         -2   -1    0    0    0  501 -0.00000000000E+00  0.00000000000E+00  0.17076650050E+04  0.17076650050E+04  0.00000000000E+00 0. -1.
          2   -1    0    0  501    0  0.00000000000E+00 -0.00000000000E+00 -0.46113032576E+03  0.46113032576E+03  0.00000000000E+00 0.  1.
         23    2    1    2    0    0  0.88225541868E+02 -0.42997522911E+03 -0.12594502078E+03  0.46742724850E+03  0.99818036904E+02 0.  0.
        254    2    1    2    0    0 -0.88225541868E+02  0.42997522911E+03  0.13724797000E+04  0.17013680822E+04  0.90459404181E+03 0.  0.
        -24    2    4    4    0    0 -0.69433372961E+02  0.44877404467E+03  0.16343734863E+03  0.48939437257E+03  0.81092222330E+02 0.  0.
         24    2    4    4    0    0 -0.18792168907E+02 -0.18798815560E+02  0.12090423514E+04  0.12119737097E+04  0.79939505002E+02 0.  0.
         11    1    3    3    0    0  0.52948881437E+02 -0.38737134870E+03 -0.12986098856E+03  0.41197575437E+03  0.00000000000E+00 0.  1.
        -11    1    3    3    0    0  0.35276660431E+02 -0.42603880412E+02  0.39159677817E+01  0.55451494127E+02  0.00000000000E+00 0. -1.
          2    1    6    6  502    0  0.12562384538E+02  0.29681266067E+01  0.34892730314E+02  0.37203842672E+02  0.00000000000E+00 0. -1.
          1    1    5    5  503    0 -0.25780283785E+02  0.27965798323E+02  0.17459151547E+02  0.41851294850E+02  0.00000000000E+00 0. -1.
         -2    1    5    5    0  503 -0.43653089176E+02  0.42080824635E+03  0.14597819708E+03  0.44754307772E+03  0.00000000000E+00 0.  1.
         -1    1    6    6    0  502 -0.31354553444E+02 -0.21766942167E+02  0.11741496211E+04  0.11747698670E+04  0.00000000000E+00 0.  1.
<mgrwt>
<rscale>  0 0.17747745E+04</rscale>
<asrwt>0</asrwt>
<pdfrwt beam="1">  1        2 0.70943128E-01 0.17747745E+04</pdfrwt>
<pdfrwt beam="2">  1       -2 0.26271769E+00 0.17747745E+04</pdfrwt>
<totfact> 0.34363024E+00</totfact>
</mgrwt>
</event>
<event>
12    1  0.1532786E-007  0.2316758E+04  0.7818608E-02  0.8471343E-01
         -2   -1    0    0    0  501 -0.00000000000E+00  0.00000000000E+00  0.90576552328E+03  0.90576552328E+03  0.00000000000E+00 0.  1.
          2   -1    0    0  501    0  0.00000000000E+00 -0.00000000000E+00 -0.14814451081E+04  0.14814451081E+04  0.00000000000E+00 0. -1.
         23    2    1    2    0    0  0.41119501956E+03 -0.15221608464E+03 -0.11420700228E+04  0.12266034790E+04  0.89336874808E+02 0.  0.
        254    2    1    2    0    0 -0.41119501956E+03  0.15221608464E+03  0.56639043806E+03  0.11606071523E+04  0.91321396897E+03 0.  0.
        -24    2    4    4    0    0 -0.28384605526E+03 -0.29063360277E+03  0.55644669367E+03  0.69297759137E+03  0.74488556892E+02 0.  0.
         24    2    4    4    0    0 -0.12734896430E+03  0.44284968741E+03  0.99437443933E+01  0.46762956093E+03  0.79024830662E+02 0.  0.
         11    1    3    3    0    0  0.24931616540E+03 -0.47375518082E+02 -0.68566338685E+03  0.73112055785E+03  0.00000000000E+00 0. -1.
        -11    1    3    3    0    0  0.16187885416E+03 -0.10484056656E+03 -0.45640663598E+03  0.49548292119E+03  0.00000000000E+00 0.  1.
          2    1    6    6  502    0 -0.13606460819E+03  0.39087698510E+03  0.18231297246E+02  0.41428344799E+03  0.00000000000E+00 0. -1.
          3    1    5    5  503    0 -0.22236269612E+03 -0.26595230884E+03  0.46138222322E+03  0.57710428443E+03  0.00000000000E+00 0. -1.
         -4    1    5    5    0  503 -0.61483359133E+02 -0.24681293930E+02  0.95064470444E+02  0.11587330694E+03  0.00000000000E+00 0.  1.
         -1    1    6    6    0  502  0.87156438875E+01  0.51972702307E+02 -0.82875528528E+01  0.53346112940E+02  0.00000000000E+00 0.  1.
<mgrwt>
<rscale>  0 0.23167580E+04</rscale>
<asrwt>0</asrwt>
<pdfrwt beam="1">  1        2 0.22791463E+00 0.23167580E+04</pdfrwt>
<pdfrwt beam="2">  1       -2 0.13934854E+00 0.23167580E+04</pdfrwt>
<totfact> 0.42810581E+00</totfact>
</mgrwt>
</event>
<event>
12    1  0.1532786E-007  0.1884552E+04  0.7818608E-02  0.8662584E-01
          1   -1    0    0  501    0  0.00000000000E+00  0.00000000000E+00  0.33213073531E+04  0.33213073531E+04  0.00000000000E+00 0. -1.
         -1   -1    0    0    0  501 -0.00000000000E+00 -0.00000000000E+00 -0.26732972070E+03  0.26732972070E+03  0.00000000000E+00 0.  1.
         23    2    1    2    0    0  0.24240908353E+03  0.11514195395E+03 -0.75789029946E+02  0.29374145432E+03  0.92305100564E+02 0.  0.
        254    2    1    2    0    0 -0.24240908353E+03 -0.11514195395E+03  0.31297666624E+04  0.32948956195E+04  0.99442342552E+03 0.  0.
        -24    2    4    4    0    0  0.24723219894E+03 -0.32785596213E+03  0.79324909495E+03  0.89693600402E+03  0.81466413704E+02 0.  0.
         24    2    4    4    0    0 -0.48964128247E+03  0.21271400817E+03  0.23365175674E+04  0.23979596155E+04  0.76812368085E+02 0.  0.
         13    1    3    3    0    0  0.53580627504E+02  0.50719012487E+02 -0.57212994893E+02  0.93362886930E+02  0.00000000000E+00 0.  1.
        -13    1    3    3    0    0  0.18882845602E+03  0.64422941467E+02 -0.18576035053E+02  0.20037856739E+03  0.00000000000E+00 0. -1.
          4    1    6    6  502    0 -0.32522958602E+03  0.14799375696E+03  0.17141835640E+04  0.17510287624E+04  0.00000000000E+00 0. -1.
          1    1    5    5  503    0  0.74722859123E+02 -0.15434646519E+03  0.27976831570E+03  0.32814120049E+03  0.00000000000E+00 0. -1.
         -2    1    5    5    0  503  0.17250933982E+03 -0.17350949694E+03  0.51348077926E+03  0.56879480353E+03  0.00000000000E+00 0.  1.
         -3    1    6    6    0  502 -0.16441169645E+03  0.64720251211E+02  0.62233400341E+03  0.64693085306E+03  0.00000000000E+00 0.  1.
<mgrwt>
<rscale>  0 0.18845521E+04</rscale>
<asrwt>0</asrwt>
<pdfrwt beam="1">  1        1 0.51097033E+00 0.18845521E+04</pdfrwt>
<pdfrwt beam="2">  1       -1 0.41127652E-01 0.18845521E+04</pdfrwt>
<totfact> 0.18732359E+00</totfact>
</mgrwt>
</event>
<event>
12    1  0.1532786E-007  0.1109923E+04  0.7818608E-02  0.9195574E-01
          2   -1    0    0  501    0  0.00000000000E+00  0.00000000000E+00  0.20352814079E+04  0.20352814079E+04  0.00000000000E+00 0. -1.
         -2   -1    0    0    0  501 -0.00000000000E+00 -0.00000000000E+00 -0.15132180537E+03  0.15132180537E+03  0.00000000000E+00 0.  1.
         23    2    1    2    0    0  0.82177040169E+02  0.40760001801E+02  0.54730903198E+02  0.14170787977E+03  0.93119319944E+02 0.  0.
        254    2    1    2    0    0 -0.82177040169E+02 -0.40760001801E+02  0.18292286993E+04  0.20448953335E+04  0.90945304815E+03 0.  0.
        -24    2    4    4    0    0 -0.56869831363E+02 -0.45555811966E+03  0.11879108268E+04  0.12767058211E+04  0.89879046892E+02 0.  0.
         24    2    4    4    0    0 -0.25307208806E+02  0.41479811786E+03  0.64131787251E+03  0.76818951238E+03  0.78285247243E+02 0.  0.
         13    1    3    3    0    0  0.67833327532E+01  0.36032494132E+02  0.55077160231E+02  0.66165306738E+02  0.00000000000E+00 0. -1.
        -13    1    3    3    0    0  0.75393707416E+02  0.47275076684E+01 -0.34625703323E+00  0.75542573034E+02  0.00000000000E+00 0.  1.
          4    1    6    6  502    0 -0.16672259268E+02  0.19011498759E+03  0.22503685287E+03  0.29506483675E+03  0.00000000000E+00 0. -1.
          1    1    5    5  503    0 -0.19378733623E+02 -0.36369953735E+03  0.85545439741E+03  0.92976078366E+03  0.00000000000E+00 0. -1.
         -2    1    5    5    0  503 -0.37491097740E+02 -0.91858582308E+02  0.33245642942E+03  0.34694503745E+03  0.00000000000E+00 0.  1.
         -3    1    6    6    0  502 -0.86349495379E+01  0.22468313026E+03  0.41628101963E+03  0.47312467563E+03  0.00000000000E+00 0.  1.
<mgrwt>
<rscale>  0 0.11099233E+04</rscale>
<asrwt>0</asrwt>
<pdfrwt beam="1">  1        2 0.31312020E+00 0.11099233E+04</pdfrwt>
<pdfrwt beam="2">  1       -2 0.23280279E-01 0.11099233E+04</pdfrwt>
<totfact> 0.10364095E+02</totfact>
</mgrwt>
</event>
<event>
12    1  0.1532786E-007  0.1808926E+04  0.7818608E-02  0.8701567E-01
         -2   -1    0    0    0  501 -0.00000000000E+00  0.00000000000E+00  0.21116940235E+04  0.21116940235E+04  0.00000000000E+00 0.  1.
          2   -1    0    0  501    0  0.00000000000E+00 -0.00000000000E+00 -0.38739178474E+03  0.38739178474E+03  0.00000000000E+00 0. -1.
         23    2    1    2    0    0 -0.50656168721E+03 -0.44760634873E+03  0.70928516512E+03  0.98400818363E+03  0.90721957688E+02 0.  0.
        254    2    1    2    0    0  0.50656168721E+03  0.44760634873E+03  0.10150170736E+04  0.15150776246E+04  0.89902411673E+03 0.  0.
        -24    2    4    4    0    0  0.31189440450E+03 -0.22524652493E+03  0.21535936397E+03  0.44871493696E+03  0.83374591132E+02 0.  0.
         24    2    4    4    0    0  0.19466728271E+03  0.67285287366E+03  0.79965770966E+03  0.10663626876E+04  0.83967782191E+02 0.  0.
         13    1    3    3    0    0 -0.33759430644E+02 -0.57330008003E+02  0.96361790547E+02  0.11709835034E+03  0.00000000000E+00 0. -1.
        -13    1    3    3    0    0 -0.47280225657E+03 -0.39027634072E+03  0.61292337458E+03  0.86690983329E+03  0.00000000000E+00 0.  1.
          2    1    6    6  502    0  0.13924547449E+03  0.45592086333E+03  0.48384859272E+03  0.67923677496E+03  0.00000000000E+00 0. -1.
          3    1    5    5  503    0  0.30513365849E+03 -0.22844891552E+03  0.19739554280E+03  0.42925570103E+03  0.00000000000E+00 0. -1.
         -4    1    5    5    0  503  0.67607460167E+01  0.32023905921E+01  0.17963821164E+02  0.19459235931E+02  0.00000000000E+00 0.  1.
         -1    1    6    6    0  502  0.55421808222E+02  0.21693201033E+03  0.31580911694E+03  0.38712591269E+03  0.00000000000E+00 0.  1.
<mgrwt>
<rscale>  0 0.18089256E+04</rscale>
<asrwt>0</asrwt>
<pdfrwt beam="1">  1        2 0.59598737E-01 0.18089256E+04</pdfrwt>
<pdfrwt beam="2">  1       -2 0.32487600E+00 0.18089256E+04</pdfrwt>
<totfact> 0.17420053E+00</totfact>
</mgrwt>
</event>
<event>
12    1  0.1532786E-007  0.1929761E+04  0.7818608E-02  0.8640182E-01
          2   -1    0    0  501    0  0.00000000000E+00  0.00000000000E+00  0.98466610924E+03  0.98466610924E+03  0.00000000000E+00 0. -1.
         -2   -1    0    0    0  501 -0.00000000000E+00 -0.00000000000E+00 -0.94549277902E+03  0.94549277902E+03  0.00000000000E+00 0.  1.
         23    2    1    2    0    0  0.31118136788E+03 -0.57184036906E+03  0.38379109674E+03  0.76129873700E+03  0.91896189294E+02 0.  0.
        254    2    1    2    0    0 -0.31118136788E+03  0.57184036906E+03 -0.34461776653E+03  0.11688601513E+04  0.90754470788E+03 0.  0.
        -24    2    4    4    0    0  0.17345925000E+03  0.25479191843E+03  0.19455307652E+03  0.37362479069E+03  0.82082589666E+02 0.  0.
         24    2    4    4    0    0 -0.48464061789E+03  0.31704845063E+03 -0.53917084305E+03  0.79523536058E+03  0.79358882063E+02 0.  0.
         11    1    3    3    0    0  0.20893675190E+03 -0.43876429740E+03  0.24899259979E+03  0.54604577621E+03  0.00000000000E+00 0. -1.
        -11    1    3    3    0    0  0.10224461598E+03 -0.13307607166E+03  0.13479849695E+03  0.21525296079E+03  0.00000000000E+00 0.  1.
          2    1    6    6  502    0 -0.46906043834E+03  0.28595759674E+03 -0.51385030625E+03  0.75221777377E+03  0.00000000000E+00 0. -1.
          3    1    5    5  503    0  0.15571872179E+03  0.18515514216E+03  0.11992767580E+03  0.27002480332E+03  0.00000000000E+00 0. -1.
         -4    1    5    5    0  503  0.17740528213E+02  0.69636776266E+02  0.74625400726E+02  0.10359998737E+03  0.00000000000E+00 0.  1.
         -1    1    6    6    0  502 -0.15580179547E+02  0.31090853892E+02 -0.25320536800E+02  0.43017586802E+02  0.00000000000E+00 0.  1.
<mgrwt>
<rscale>  0 0.19297613E+04</rscale>
<asrwt>0</asrwt>
<pdfrwt beam="1">  1        2 0.15148709E+00 0.19297613E+04</pdfrwt>
<pdfrwt beam="2">  1       -2 0.14546043E+00 0.19297613E+04</pdfrwt>
<totfact> 0.78233051E+00</totfact>
</mgrwt>
</event>
<event>
12    1  0.1532786E-007  0.2248787E+04  0.7818608E-02  0.8498392E-01
         -2   -1    0    0    0  501 -0.00000000000E+00  0.00000000000E+00  0.32928777582E+04  0.32928777582E+04  0.00000000000E+00 0.  1.
          2   -1    0    0  501    0  0.00000000000E+00 -0.00000000000E+00 -0.38393809253E+03  0.38393809253E+03  0.00000000000E+00 0. -1.
         23    2    1    2    0    0  0.95735336668E+02  0.91590825401E+03  0.15244845663E+04  0.17833556598E+04  0.90835191706E+02 0.  0.
        254    2    1    2    0    0 -0.95735336668E+02 -0.91590825401E+03  0.13844550994E+04  0.18934601909E+04  0.90577170854E+03 0.  0.
        -24    2    4    4    0    0 -0.34461801564E+03 -0.70238135174E+03  0.13394008460E+04  0.15530900657E+04  0.77414378781E+02 0.  0.
         24    2    4    4    0    0  0.24888267897E+03 -0.21352690227E+03  0.45054253390E+02  0.34037012521E+03  0.79281842192E+02 0.  0.
         11    1    3    3    0    0  0.47465120856E+02  0.14632248708E+03  0.23353317630E+03  0.27964433189E+03  0.00000000000E+00 0. -1.
        -11    1    3    3    0    0  0.48270215812E+02  0.76958576693E+03  0.12909513900E+04  0.15037113279E+04  0.00000000000E+00 0.  1.
          2    1    6    6  502    0  0.22695063606E+03 -0.15510141911E+03  0.39615116100E+02  0.27772720220E+03  0.00000000000E+00 0. -1.
          3    1    5    5  503    0 -0.31452791870E+03 -0.59889132612E+03  0.11151435087E+04  0.13042789874E+04  0.00000000000E+00 0. -1.
         -4    1    5    5    0  503 -0.30090096934E+02 -0.10349002562E+03  0.22425733732E+03  0.24881107829E+03  0.00000000000E+00 0.  1.
         -1    1    6    6    0  502  0.21932042911E+02 -0.58425483161E+02  0.54391372902E+01  0.62642923011E+02  0.00000000000E+00 0.  1.
<mgrwt>
<rscale>  0 0.22487874E+04</rscale>
<asrwt>0</asrwt>
<pdfrwt beam="1">  1        2 0.59067401E-01 0.22487874E+04</pdfrwt>
<pdfrwt beam="2">  1       -2 0.50659656E+00 0.22487874E+04</pdfrwt>
<totfact> 0.11335545E-01</totfact>
</mgrwt>
</event>
<event>
12    1  0.1532786E-007  0.1736613E+04  0.7818608E-02  0.8740754E-01
         -2   -1    0    0    0  501 -0.00000000000E+00  0.00000000000E+00  0.24510886977E+03  0.24510886977E+03  0.00000000000E+00 0.  1.
          2   -1    0    0  501    0  0.00000000000E+00 -0.00000000000E+00 -0.30760047563E+04  0.30760047563E+04  0.00000000000E+00 0. -1.
         23    2    1    2    0    0 -0.55685959905E+03 -0.13452244409E+03 -0.15454137454E+04  0.16506250195E+04  0.89835458937E+02 0.  0.
        254    2    1    2    0    0  0.55685959905E+03  0.13452244409E+03 -0.12854821411E+04  0.16704886065E+04  0.89993274657E+03 0.  0.
        -24    2    4    4    0    0  0.76976243883E+03  0.58733567612E+01 -0.77306409346E+03  0.10939805525E+04  0.81219751367E+02 0.  0.
         24    2    4    4    0    0 -0.21290283978E+03  0.12864908732E+03 -0.51241804766E+03  0.57650805405E+03  0.88944218275E+02 0.  0.
         11    1    3    3    0    0 -0.70645693727E+02 -0.26003444464E+02 -0.29923265050E+03  0.30855659496E+03  0.00000000000E+00 0. -1.
        -11    1    3    3    0    0 -0.48621390532E+03 -0.10851899962E+03 -0.12461810949E+04  0.13420684246E+04  0.00000000000E+00 0.  1.
          4    1    6    6  502    0 -0.19923344635E+03  0.11916512360E+03 -0.39698269342E+03  0.45987993183E+03  0.00000000000E+00 0. -1.
          3    1    5    5  503    0  0.71149371446E+03 -0.16102628460E+02 -0.70582833842E+03  0.10023353948E+04  0.00000000000E+00 0. -1.
         -4    1    5    5    0  503  0.58268724367E+02  0.21975985221E+02 -0.67235755048E+02  0.91645157661E+02  0.00000000000E+00 0.  1.
         -3    1    6    6    0  502 -0.13669393434E+02  0.94839637267E+01 -0.11543535424E+03  0.11662812222E+03  0.00000000000E+00 0.  1.
<mgrwt>
<rscale>  0 0.17366129E+04</rscale>
<asrwt>0</asrwt>
<pdfrwt beam="1">  1        2 0.47323147E+00 0.17366129E+04</pdfrwt>
<pdfrwt beam="2">  1       -2 0.37709059E-01 0.17366129E+04</pdfrwt>
<totfact> 0.98640184E+00</totfact>
</mgrwt>
</event>
<event>
12    1  0.1532786E-007  0.1666865E+04  0.7818608E-02  0.8780491E-01
         -1   -1    0    0    0  501 -0.00000000000E+00  0.00000000000E+00  0.27910822885E+03  0.27910822885E+03  0.00000000000E+00 0.  1.
          1   -1    0    0  501    0  0.00000000000E+00 -0.00000000000E+00 -0.24886752877E+04  0.24886752877E+04  0.00000000000E+00 0. -1.
         23    2    1    2    0    0  0.29431901515E+03 -0.32540145111E+03 -0.13347286956E+03  0.46705282748E+03  0.88394285364E+02 0.  0.
        254    2    1    2    0    0 -0.29431901515E+03  0.32540145111E+03 -0.20760941892E+04  0.23007306890E+04  0.88920460734E+03 0.  0.
        -24    2    4    4    0    0 -0.23057084668E+03  0.59839136521E+03 -0.10400505727E+04  0.12245263913E+04  0.80774673346E+02 0.  0.
         24    2    4    4    0    0 -0.63748168470E+02 -0.27298991409E+03 -0.10360436166E+04  0.10762042978E+04  0.79006284088E+02 0.  0.
         13    1    3    3    0    0  0.63052912195E+02 -0.44986570043E+02 -0.55547463678E+02  0.95315171623E+02  0.00000000000E+00 0. -1.
        -13    1    3    3    0    0  0.23126610295E+03 -0.28041488107E+03 -0.77925405880E+02  0.37173765586E+03  0.00000000000E+00 0.  1.
          2    1    6    6  502    0 -0.35918041948E+02 -0.13585737808E+03 -0.37386009812E+03  0.39939792924E+03  0.00000000000E+00 0. -1.
          3    1    5    5  503    0 -0.14536783465E+03  0.29933340336E+03 -0.48245622783E+03  0.58608557864E+03  0.00000000000E+00 0. -1.
         -4    1    5    5    0  503 -0.85203012028E+02  0.29905796185E+03 -0.55759434485E+03  0.63844081262E+03  0.00000000000E+00 0.  1.
         -1    1    6    6    0  502 -0.27830126522E+02 -0.13713253602E+03 -0.66218351844E+03  0.67680636852E+03  0.00000000000E+00 0.  1.
<mgrwt>
<rscale>  0 0.16668650E+04</rscale>
<asrwt>0</asrwt>
<pdfrwt beam="1">  1        1 0.38287312E+00 0.16668650E+04</pdfrwt>
<pdfrwt beam="2">  1       -1 0.42939728E-01 0.16668650E+04</pdfrwt>
<totfact> 0.70464765E+00</totfact>
</mgrwt>
</event>
<event>
12    1  0.1532786E-007  0.3256319E+04  0.7818608E-02  0.8174100E-01
          2   -1    0    0  501    0  0.00000000000E+00  0.00000000000E+00  0.27694682197E+04  0.27694682197E+04  0.00000000000E+00 0. -1.
         -2   -1    0    0    0  501 -0.00000000000E+00 -0.00000000000E+00 -0.95718881335E+03  0.95718881335E+03  0.00000000000E+00 0.  1.
         23    2    1    2    0    0 -0.12174101966E+04 -0.85579829484E+03  0.10847644120E+04  0.18435989449E+04  0.87549595004E+02 0.  0.
        254    2    1    2    0    0  0.12174101966E+04  0.85579829484E+03  0.72751499435E+03  0.18830580882E+04  0.89562904610E+03 0.  0.
        -24    2    4    4    0    0  0.66446916834E+03  0.62008048001E+03  0.86940542912E+03  0.12602769748E+04  0.80082305833E+02 0.  0.
         24    2    4    4    0    0  0.55294102829E+03  0.23571781483E+03 -0.14189043477E+03  0.62278111338E+03  0.80104623538E+02 0.  0.
         11    1    3    3    0    0 -0.12123917320E+04 -0.85791687086E+03  0.10804847242E+04  0.18366715298E+04  0.00000000000E+00 0.  1.
        -11    1    3    3    0    0 -0.50184646717E+01  0.21185760182E+01  0.42796878376E+01  0.69274151018E+01  0.00000000000E+00 0. -1.
          2    1    6    6  502    0  0.15965892999E+03  0.29674083046E+02 -0.40323360298E+02  0.16732453052E+03  0.00000000000E+00 0. -1.
          1    1    5    5  503    0  0.12671039092E+03  0.14157349789E+03  0.14462548422E+03  0.23877836828E+03  0.00000000000E+00 0. -1.
         -2    1    5    5    0  503  0.53775877743E+03  0.47850698212E+03  0.72477994490E+03  0.10214986065E+04  0.00000000000E+00 0.  1.
         -1    1    6    6    0  502  0.39328209831E+03  0.20604373178E+03 -0.10156707447E+03  0.45545658286E+03  0.00000000000E+00 0.  1.
<mgrwt>
<rscale>  0 0.32563194E+04</rscale>
<asrwt>0</asrwt>
<pdfrwt beam="1">  1        2 0.42607203E+00 0.32563194E+04</pdfrwt>
<pdfrwt beam="2">  1       -2 0.14725982E+00 0.32563194E+04</pdfrwt>
<totfact> 0.63593320E-01</totfact>
</mgrwt>
</event>
<event>
12    1  0.1532786E-007  0.1864957E+04  0.7818608E-02  0.8672499E-01
         -2   -1    0    0    0  501 -0.00000000000E+00  0.00000000000E+00  0.51078185368E+03  0.51078185368E+03  0.00000000000E+00 0.  1.
          2   -1    0    0  501    0  0.00000000000E+00 -0.00000000000E+00 -0.17023237548E+04  0.17023237548E+04  0.00000000000E+00 0. -1.
         23    2    1    2    0    0 -0.16589940621E+03  0.24387234869E+03 -0.12260296989E+04  0.12642103895E+04  0.89904119885E+02 0.  0.
        254    2    1    2    0    0  0.16589940621E+03 -0.24387234869E+03  0.34487797748E+02  0.94889521906E+03  0.90123048834E+03 0.  0.
        -24    2    4    4    0    0 -0.91404735168E+02 -0.10940379921E+03 -0.39375409687E+03  0.42562517305E+03  0.76095218240E+02 0.  0.
         24    2    4    4    0    0  0.25730414138E+03 -0.13446854948E+03  0.42824189462E+03  0.52327004601E+03  0.78314805581E+02 0.  0.
         11    1    3    3    0    0 -0.12122264159E+03  0.18620054959E+03 -0.73679388189E+03  0.76956533049E+03  0.00000000000E+00 0. -1.
        -11    1    3    3    0    0 -0.44676764621E+02  0.57671799104E+02 -0.48923581702E+03  0.49464505897E+03  0.00000000000E+00 0.  1.
          2    1    6    6  502    0  0.20607979278E+03 -0.12196140712E+03  0.39175999074E+03  0.45915069004E+03  0.00000000000E+00 0. -1.
          3    1    5    5  503    0 -0.73174835701E+02 -0.11984208454E+03 -0.34890122900E+03  0.37609672879E+03  0.00000000000E+00 0. -1.
         -4    1    5    5    0  503 -0.18229899467E+02  0.10438285323E+02 -0.44852867867E+02  0.49528444262E+02  0.00000000000E+00 0.  1.
         -1    1    6    6    0  502  0.51224348596E+02 -0.12507142353E+02  0.36481903879E+02  0.64119355966E+02  0.00000000000E+00 0.  1.
<mgrwt>
<rscale>  0 0.18649569E+04</rscale>
<asrwt>0</asrwt>
<pdfrwt beam="1">  1        2 0.26189596E+00 0.18649569E+04</pdfrwt>
<pdfrwt beam="2">  1       -2 0.78581826E-01 0.18649569E+04</pdfrwt>
<totfact> 0.13213317E+01</totfact>
</mgrwt>
</event>
<event>
12    1  0.1532786E-007  0.1477201E+04  0.7818608E-02  0.8899757E-01
          2   -1    0    0  501    0  0.00000000000E+00  0.00000000000E+00  0.23736250061E+04  0.23736250061E+04  0.00000000000E+00 0.  1.
         -2   -1    0    0    0  501 -0.00000000000E+00 -0.00000000000E+00 -0.22983013814E+03  0.22983013814E+03  0.00000000000E+00 0. -1.
         23    2    1    2    0    0 -0.34052371646E+03  0.15076772646E+03  0.11472099204E+04  0.12094804970E+04  0.89806248967E+02 0.  0.
        254    2    1    2    0    0  0.34052371646E+03 -0.15076772646E+03  0.99658494762E+03  0.13939746473E+04  0.90071996241E+03 0.  0.
        -24    2    4    4    0    0  0.14612474904E+03 -0.48638647847E+03  0.80085761135E+03  0.95184616837E+03  0.81938793368E+02 0.  0.
         24    2    4    4    0    0  0.19439896742E+03  0.33561875202E+03  0.19572733628E+03  0.44212847894E+03  0.82082254362E+02 0.  0.
         13    1    3    3    0    0  0.40074685431E+01 -0.52111102957E+00  0.31354509325E+01  0.51149206620E+01  0.00000000000E+00 0. -1.
        -13    1    3    3    0    0 -0.34453118500E+03  0.15128883749E+03  0.11440744694E+04  0.12043655763E+04  0.00000000000E+00 0.  1.
          4    1    6    6  502    0  0.22244151850E+02  0.41739258379E+01  0.71595688051E+01  0.23737804740E+02  0.00000000000E+00 0. -1.
          3    1    5    5  503    0 -0.59962119693E+01 -0.29076898965E+02  0.26698764970E+02  0.39927993467E+02  0.00000000000E+00 0. -1.
         -2    1    5    5    0  503  0.15212096101E+03 -0.45730957951E+03  0.77415884638E+03  0.91191817490E+03  0.00000000000E+00 0.  1.
         -3    1    6    6    0  502  0.17215481557E+03  0.33144482618E+03  0.18856776747E+03  0.41839067420E+03  0.00000000000E+00 0.  1.
<mgrwt>
<rscale>  0 0.14772008E+04</rscale>
<asrwt>0</asrwt>
<pdfrwt beam="1">  1        2 0.36517306E+00 0.14772008E+04</pdfrwt>
<pdfrwt beam="2">  1       -2 0.35358484E-01 0.14772008E+04</pdfrwt>
<totfact> 0.29992279E+01</totfact>
</mgrwt>
</event>
<event>
12    1  0.1532786E-007  0.1640075E+04  0.7818608E-02  0.8796299E-01
          2   -1    0    0  501    0  0.00000000000E+00  0.00000000000E+00  0.17163574755E+04  0.17163574755E+04  0.00000000000E+00 0. -1.
         -2   -1    0    0    0  501 -0.00000000000E+00 -0.00000000000E+00 -0.39179590976E+03  0.39179590976E+03  0.00000000000E+00 0.  1.
         23    2    1    2    0    0  0.52103036687E+03 -0.43192281525E+02  0.76780424741E+03  0.93319642844E+03  0.89409145633E+02 0.  0.
        254    2    1    2    0    0 -0.52103036687E+03  0.43192281525E+02  0.55675731833E+03  0.11749569568E+04  0.89286444799E+03 0.  0.
        -24    2    4    4    0    0 -0.11501933367E+03  0.25960002549E+03 -0.14759368376E+03  0.32974941338E+03  0.79556016663E+02 0.  0.
         24    2    4    4    0    0 -0.40601103320E+03 -0.21640774396E+03  0.70435100209E+03  0.84520754344E+03  0.81167645181E+02 0.  0.
         11    1    3    3    0    0  0.47582010605E+03 -0.58972913128E+02  0.66536560920E+03  0.82011826690E+03  0.00000000000E+00 0.  1.
        -11    1    3    3    0    0  0.45210260820E+02  0.15780631603E+02  0.10243863821E+03  0.11307816154E+03  0.00000000000E+00 0. -1.
          2    1    6    6  502    0 -0.21610887509E+03 -0.12446486228E+03  0.30904132336E+03  0.39711596213E+03  0.00000000000E+00 0. -1.
          1    1    5    5  503    0 -0.19169122994E+02  0.30352373228E+02  0.77256519703E+01  0.36720669048E+02  0.00000000000E+00 0. -1.
         -2    1    5    5    0  503 -0.95850210675E+02  0.22924765226E+03 -0.15531933573E+03  0.29302874433E+03  0.00000000000E+00 0.  1.
         -1    1    6    6    0  502 -0.18990215811E+03 -0.91942881679E+02  0.39530967873E+03  0.44809158131E+03  0.00000000000E+00 0.  1.
<mgrwt>
<rscale>  0 0.16400754E+04</rscale>
<asrwt>0</asrwt>
<pdfrwt beam="1">  1        2 0.26405499E+00 0.16400754E+04</pdfrwt>
<pdfrwt beam="2">  1       -2 0.60276295E-01 0.16400754E+04</pdfrwt>
<totfact> 0.23544898E+01</totfact>
</mgrwt>
</event>
<event>
12    1  0.2504811E-007  0.1791199E+04  0.7818608E-02  0.8710994E-01
          2   -1    0    0  501    0  0.00000000000E+00  0.00000000000E+00  0.10576878325E+04  0.10576878325E+04  0.00000000000E+00 0. -1.
         -2   -1    0    0    0  501 -0.00000000000E+00 -0.00000000000E+00 -0.75835066484E+03  0.75835066484E+03  0.00000000000E+00 0.  1.
         23    2    1    2    0    0 -0.25173972772E+03 -0.16364575807E+03 -0.45002695944E+03  0.54877503058E+03  0.92070328088E+02 0.  0.
        254    2    1    2    0    0  0.25173972772E+03  0.16364575807E+03  0.74936412714E+03  0.12672634668E+04  0.97686092900E+03 0.  0.
        -24    2    4    4    0    0 -0.12142787930E+03 -0.13112273985E+03  0.76003872669E+03  0.78487226912E+03  0.80173000380E+02 0.  0.
         24    2    4    4    0    0  0.37316760702E+03  0.29476849792E+03 -0.10674599544E+02  0.48239119769E+03  0.80279450916E+02 0.  0.
         11    1    3    3    0    0 -0.30660160250E+01 -0.38117357748E+01  0.44529223345E+01  0.66150057596E+01  0.00000000000E+00 0. -1.
        -11    1    3    3    0    0 -0.24867371169E+03 -0.15983402229E+03 -0.45447988178E+03  0.54216002482E+03  0.00000000000E+00 0.  1.
          4    1    6    6  502    0  0.37671906749E+03  0.28774293323E+03 -0.80993356585E+01  0.47410847986E+03  0.00000000000E+00 0. -1.
          1    1    5    5  503    0 -0.10467034233E+03 -0.13640830831E+03  0.73084941574E+03  0.75080222138E+03  0.00000000000E+00 0. -1.
         -2    1    5    5    0  503 -0.16757536976E+02  0.52855684605E+01  0.29189310944E+02  0.34070047738E+02  0.00000000000E+00 0.  1.
         -3    1    6    6    0  502 -0.35514604685E+01  0.70255646856E+01 -0.25752638856E+01  0.82827178324E+01  0.00000000000E+00 0.  1.
<mgrwt>
<rscale>  0 0.17911988E+04</rscale>
<asrwt>0</asrwt>
<pdfrwt beam="1">  1        2 0.16272120E+00 0.17911988E+04</pdfrwt>
<pdfrwt beam="2">  1       -2 0.11666933E+00 0.17911988E+04</pdfrwt>
<totfact> 0.12450013E+01</totfact>
</mgrwt>
</event>
<event>
12    1  0.1532786E-007  0.1128502E+04  0.7818608E-02  0.9177848E-01
         -2   -1    0    0    0  501 -0.00000000000E+00  0.00000000000E+00  0.33796719651E+03  0.33796719651E+03  0.00000000000E+00 0.  1.
          2   -1    0    0  501    0  0.00000000000E+00 -0.00000000000E+00 -0.94204204214E+03  0.94204204214E+03  0.00000000000E+00 0. -1.
         23    2    1    2    0    0 -0.59380867558E+02 -0.17857926716E+03 -0.29949836061E+02  0.21149720484E+03  0.91746568767E+02 0.  0.
        254    2    1    2    0    0  0.59380867558E+02  0.17857926716E+03 -0.57412500957E+03  0.10685120338E+04  0.88129552235E+03 0.  0.
        -24    2    4    4    0    0 -0.23204319592E+02 -0.22667622659E+03  0.10976468466E+03  0.26525108928E+03  0.79933110891E+02 0.  0.
         24    2    4    4    0    0  0.82585187150E+02  0.40525549375E+03 -0.68388969423E+03  0.80326094454E+03  0.80440678773E+02 0.  0.
         13    1    3    3    0    0 -0.21086225962E+02 -0.11783004718E+02 -0.32314910938E+02  0.40345031843E+02  0.00000000000E+00 0. -1.
        -13    1    3    3    0    0 -0.38294641596E+02 -0.16679626245E+03  0.23650748771E+01  0.17115217299E+03  0.00000000000E+00 0.  1.
          4    1    6    6  502    0  0.39024215867E+02  0.33282878072E+03 -0.51544540463E+03  0.61480228680E+03  0.00000000000E+00 0. -1.
          1    1    5    5  503    0  0.14503998169E+02 -0.12105040154E+03  0.24471266604E+02  0.12434793349E+03  0.00000000000E+00 0. -1.
         -2    1    5    5    0  503 -0.37708317762E+02 -0.10562582505E+03  0.85293418057E+02  0.14090315579E+03  0.00000000000E+00 0.  1.
         -3    1    6    6    0  502  0.43560971283E+02  0.72426713035E+02 -0.16844428960E+03  0.18845865775E+03  0.00000000000E+00 0.  1.
<mgrwt>
<rscale>  0 0.11285022E+04</rscale>
<asrwt>0</asrwt>
<pdfrwt beam="1">  1        2 0.14492955E+00 0.11285022E+04</pdfrwt>
<pdfrwt beam="2">  1       -2 0.51994953E-01 0.11285022E+04</pdfrwt>
<totfact> 0.95122147E+01</totfact>
</mgrwt>
</event>
<event>
12    1  0.1532786E-007  0.3741352E+04  0.7818608E-02  0.8058859E-01
          2   -1    0    0  501    0  0.00000000000E+00  0.00000000000E+00  0.22971438914E+04  0.22971438914E+04  0.00000000000E+00 0. -1.
         -2   -1    0    0    0  501 -0.00000000000E+00 -0.00000000000E+00 -0.15233827162E+04  0.15233827162E+04  0.00000000000E+00 0.  1.
         23    2    1    2    0    0  0.17361034996E+04 -0.18912814129E+03  0.63204311584E+03  0.18594734995E+04  0.91314729597E+02 0.  0.
        254    2    1    2    0    0 -0.17361034996E+04  0.18912814129E+03  0.14171805935E+03  0.19610531080E+04  0.88080671483E+03 0.  0.
        -24    2    4    4    0    0 -0.13060226007E+04 -0.15571992491E+03  0.35315047223E+03  0.13641868870E+04  0.79667295912E+02 0.  0.
         24    2    4    4    0    0 -0.43008089890E+03  0.34484806620E+03 -0.21143241288E+03  0.59686622101E+03  0.87497726834E+02 0.  0.
         11    1    3    3    0    0  0.50011637430E+03 -0.73066223181E+02  0.14375159982E+03  0.52547082056E+03  0.00000000000E+00 0.  1.
        -11    1    3    3    0    0  0.12359871253E+04 -0.11606191811E+03  0.48829151603E+03  0.13340026790E+04  0.00000000000E+00 0. -1.
          2    1    6    6  502    0 -0.82520107525E+02  0.48143457305E+02 -0.56928892979E+01  0.95706685325E+02  0.00000000000E+00 0. -1.
          1    1    5    5  503    0 -0.33236865878E+03 -0.53128969801E+01  0.95211559479E+02  0.34577795371E+03  0.00000000000E+00 0. -1.
         -2    1    5    5    0  503 -0.97365394194E+03 -0.15040702793E+03  0.25793891275E+03  0.10184089333E+04  0.00000000000E+00 0.  1.
         -1    1    6    6    0  502 -0.34756079138E+03  0.29670460890E+03 -0.20573952358E+03  0.50115953568E+03  0.00000000000E+00 0.  1.
<mgrwt>
<rscale>  0 0.37413523E+04</rscale>
<asrwt>0</asrwt>
<pdfrwt beam="1">  1        2 0.35340675E+00 0.37413523E+04</pdfrwt>
<pdfrwt beam="2">  1       -2 0.23436657E+00 0.37413523E+04</pdfrwt>
<totfact> 0.29438742E-01</totfact>
</mgrwt>
</event>
<event>
12    1  0.1532786E-007  0.1688974E+04  0.7818608E-02  0.8767678E-01
         -1   -1    0    0    0  501 -0.00000000000E+00  0.00000000000E+00  0.46753037105E+03  0.46753037105E+03  0.00000000000E+00 0.  1.
          1   -1    0    0  501    0  0.00000000000E+00 -0.00000000000E+00 -0.15253732754E+04  0.15253732754E+04  0.00000000000E+00 0. -1.
         23    2    1    2    0    0  0.26483061590E+03 -0.51830492005E+03 -0.21246754316E+03  0.62634213010E+03  0.91579264988E+02 0.  0.
        254    2    1    2    0    0 -0.26483061590E+03  0.51830492005E+03 -0.84537536118E+03  0.13665615163E+04  0.90225031526E+03 0.  0.
        -24    2    4    4    0    0  0.16364062635E+03  0.25801508694E+03 -0.79603827857E+03  0.85642439301E+03  0.80223190622E+02 0.  0.
         24    2    4    4    0    0 -0.42847124225E+03  0.26028983311E+03 -0.49337082613E+02  0.51013712333E+03  0.80419737789E+02 0.  0.
         11    1    3    3    0    0  0.15774767219E+03 -0.26629018884E+03 -0.68567297859E+02  0.31701146208E+03  0.00000000000E+00 0.  1.
        -11    1    3    3    0    0  0.10708294371E+03 -0.25201473121E+03 -0.14390024530E+03  0.30933066802E+03  0.00000000000E+00 0. -1.
          2    1    6    6  502    0 -0.24603085122E+03  0.14924267803E+03  0.11738366143E+02  0.28799712835E+03  0.00000000000E+00 0. -1.
          3    1    5    5  503    0  0.99949492988E+02  0.21999055244E+03 -0.61708413377E+03  0.66270549451E+03  0.00000000000E+00 0. -1.
         -4    1    5    5    0  503  0.63691133365E+02  0.38024534508E+02 -0.17895414480E+03  0.19371889850E+03  0.00000000000E+00 0.  1.
         -1    1    6    6    0  502 -0.18244039103E+03  0.11104715507E+03 -0.61075448756E+02  0.22213999498E+03  0.00000000000E+00 0.  1.
<mgrwt>
<rscale>  0 0.16889740E+04</rscale>
<asrwt>0</asrwt>
<pdfrwt beam="1">  1        1 0.23467281E+00 0.16889740E+04</pdfrwt>
<pdfrwt beam="2">  1       -1 0.71927750E-01 0.16889740E+04</pdfrwt>
<totfact> 0.11671712E+01</totfact>
</mgrwt>
</event>
<event>
12    1  0.1532786E-007  0.2677270E+04  0.7818608E-02  0.8342418E-01
          3   -1    0    0  501    0  0.00000000000E+00  0.00000000000E+00  0.22202526906E+04  0.22202526906E+04  0.00000000000E+00 0. -1.
         -3   -1    0    0    0  501 -0.00000000000E+00 -0.00000000000E+00 -0.80709019501E+03  0.80709019501E+03  0.00000000000E+00 0.  1.
         23    2    1    2    0    0  0.84019722472E+03  0.82797982666E+03  0.55347266769E+03  0.13061682831E+04  0.90893455313E+02 0.  0.
        254    2    1    2    0    0 -0.84019722472E+03 -0.82797982666E+03  0.85968982790E+03  0.17211746025E+04  0.91208192736E+03 0.  0.
        -24    2    4    4    0    0 -0.20988402921E+03  0.17851327833E+03  0.26559403043E+03  0.39082496988E+03  0.79282228936E+02 0.  0.
         24    2    4    4    0    0 -0.63031319551E+03 -0.10064931050E+04  0.59409579747E+03  0.13303496326E+04  0.80976746853E+02 0.  0.
         13    1    3    3    0    0  0.78182839439E+03  0.74740158203E+03  0.48486403366E+03  0.11853091977E+04  0.00000000000E+00 0.  1.
        -13    1    3    3    0    0  0.58368830334E+02  0.80578244632E+02  0.68608634036E+02  0.12085908541E+03  0.00000000000E+00 0. -1.
          4    1    6    6  502    0 -0.11975372561E+03 -0.17906709423E+03  0.14276548630E+03  0.25843367256E+03  0.00000000000E+00 0. -1.
          1    1    5    5  503    0 -0.46775813460E+02  0.89071806937E+02  0.88740248829E+02  0.13415138940E+03  0.00000000000E+00 0. -1.
         -2    1    5    5    0  503 -0.16310821575E+03  0.89441471395E+02  0.17685378160E+03  0.25667358048E+03  0.00000000000E+00 0.  1.
         -3    1    6    6    0  502 -0.51055946990E+03 -0.82742601076E+03  0.45133031117E+03  0.10719159600E+04  0.00000000000E+00 0.  1.
<mgrwt>
<rscale>  0 0.26772704E+04</rscale>
<asrwt>0</asrwt>
<pdfrwt beam="1">  1        3 0.34157734E+00 0.26772704E+04</pdfrwt>
<pdfrwt beam="2">  1       -3 0.12416772E+00 0.26772704E+04</pdfrwt>
<totfact> 0.27245722E-02</totfact>
</mgrwt>
</event>
<event>
12    1  0.1532786E-007  0.2463665E+04  0.7818608E-02  0.8416046E-01
         -2   -1    0    0    0  501 -0.00000000000E+00  0.00000000000E+00  0.54609263061E+03  0.54609263061E+03  0.00000000000E+00 0.  1.
          2   -1    0    0  501    0  0.00000000000E+00 -0.00000000000E+00 -0.27786702278E+04  0.27786702278E+04  0.00000000000E+00 0. -1.
         23    2    1    2    0    0  0.38221974529E+02  0.71064268198E+03 -0.20540734542E+04  0.21758258099E+04  0.92337744836E+02 0.  0.
        254    2    1    2    0    0 -0.38221974529E+02 -0.71064268198E+03 -0.17850414299E+03  0.11489370485E+04  0.88414855739E+03 0.  0.
        -24    2    4    4    0    0  0.16884667634E+03 -0.16575182919E+03  0.30051529550E+03  0.39035603454E+03  0.78009755073E+02 0.  0.
         24    2    4    4    0    0 -0.20706865087E+03 -0.54489085278E+03 -0.47901943849E+03  0.75858101394E+03  0.78753188142E+02 0.  0.
         13    1    3    3    0    0  0.31447639134E+02  0.70484046680E+03 -0.19950397028E+04  0.21161220318E+04  0.00000000000E+00 0. -1.
        -13    1    3    3    0    0  0.67743353946E+01  0.58022151764E+01 -0.59033751339E+02  0.59703778089E+02  0.00000000000E+00 0.  1.
          2    1    6    6  502    0 -0.76135341671E+02 -0.20167415766E+03 -0.12920584663E+03  0.25132291364E+03  0.00000000000E+00 0. -1.
          3    1    5    5  503    0  0.16960811097E+03 -0.14782454035E+03  0.24794099867E+03  0.33480403948E+03  0.00000000000E+00 0. -1.
         -4    1    5    5    0  503 -0.76143462967E+00 -0.17927288847E+02  0.52574296830E+02  0.55551995061E+02  0.00000000000E+00 0.  1.
         -1    1    6    6    0  502 -0.13093330920E+03 -0.34321669513E+03 -0.34981359185E+03  0.50725810030E+03  0.00000000000E+00 0.  1.
<mgrwt>
<rscale>  0 0.24636650E+04</rscale>
<asrwt>0</asrwt>
<pdfrwt beam="1">  1        2 0.42748773E+00 0.24636650E+04</pdfrwt>
<pdfrwt beam="2">  1       -2 0.84014250E-01 0.24636650E+04</pdfrwt>
<totfact> 0.26366300E+00</totfact>
</mgrwt>
</event>
<event>
12    1  0.1532786E-007  0.2351484E+04  0.7818608E-02  0.8457894E-01
          1   -1    0    0  501    0  0.00000000000E+00  0.00000000000E+00  0.59119650695E+03  0.59119650695E+03  0.00000000000E+00 0. -1.
         -1   -1    0    0    0  501 -0.00000000000E+00 -0.00000000000E+00 -0.23382563259E+04  0.23382563259E+04  0.00000000000E+00 0.  1.
         23    2    1    2    0    0  0.65453016306E+03  0.30240000503E+03  0.12011445256E+03  0.73635397816E+03  0.89074137903E+02 0.  0.
        254    2    1    2    0    0 -0.65453016306E+03 -0.30240000503E+03 -0.18671742715E+04  0.21930988547E+04  0.89637454719E+03 0.  0.
        -24    2    4    4    0    0 -0.16874557953E+03 -0.46898311844E+03 -0.14233413296E+04  0.15102110228E+04  0.80103413776E+02 0.  0.
         24    2    4    4    0    0 -0.48578458353E+03  0.16658311341E+03 -0.44383294190E+03  0.68288783186E+03  0.74910048202E+02 0.  0.
         11    1    3    3    0    0  0.36159570146E+03  0.14761163246E+03  0.10620270913E+03  0.40474641540E+03  0.00000000000E+00 0. -1.
        -11    1    3    3    0    0  0.29293446160E+03  0.15478837258E+03  0.13911743431E+02  0.33160756276E+03  0.00000000000E+00 0.  1.
          2    1    6    6  502    0 -0.32321159140E+02 -0.62497915164E+01 -0.37976095447E+02  0.50258343065E+02  0.00000000000E+00 0. -1.
          3    1    5    5  503    0 -0.22147633424E+02 -0.17322850872E+02 -0.54171256959E+02  0.61033793173E+02  0.00000000000E+00 0. -1.
         -4    1    5    5    0  503 -0.14659794611E+03 -0.45166026757E+03 -0.13691700726E+04  0.14491772296E+04  0.00000000000E+00 0.  1.
         -1    1    6    6    0  502 -0.45346342439E+03  0.17283290492E+03 -0.40585684646E+03  0.63262948880E+03  0.00000000000E+00 0.  1.
<mgrwt>
<rscale>  0 0.23514838E+04</rscale>
<asrwt>0</asrwt>
<pdfrwt beam="1">  1        1 0.90953311E-01 0.23514838E+04</pdfrwt>
<pdfrwt beam="2">  1       -1 0.35973174E+00 0.23514838E+04</pdfrwt>
<totfact> 0.42170828E-01</totfact>
</mgrwt>
</event>
<event>
12    1  0.1532786E-007  0.1597431E+04  0.7818608E-02  0.8822128E-01
         -1   -1    0    0    0  501 -0.00000000000E+00  0.00000000000E+00  0.52640382497E+03  0.52640382497E+03  0.00000000000E+00 0.  1.
          1   -1    0    0  501    0  0.00000000000E+00 -0.00000000000E+00 -0.12118950770E+04  0.12118950770E+04  0.00000000000E+00 0. -1.
         23    2    1    2    0    0 -0.52494632304E+03 -0.68527069399E+02 -0.21152402877E+03  0.57715843637E+03  0.90026910443E+02 0.  0.
        254    2    1    2    0    0  0.52494632304E+03  0.68527069399E+02 -0.47396722322E+03  0.11611404656E+04  0.91833417163E+03 0.  0.
        -24    2    4    4    0    0  0.72888527718E+03 -0.15313669663E+03 -0.35841454497E+03  0.83021369895E+03  0.77905100788E+02 0.  0.
         24    2    4    4    0    0 -0.20393895414E+03  0.22166376603E+03 -0.11555267826E+03  0.33092676662E+03  0.73716899204E+02 0.  0.
         13    1    3    3    0    0 -0.35748091554E+02 -0.22096224730E+01 -0.41981301636E+02  0.55183676647E+02  0.00000000000E+00 0.  1.
        -13    1    3    3    0    0 -0.48919823149E+03 -0.66317446926E+02 -0.16954272713E+03  0.52197475972E+03  0.00000000000E+00 0. -1.
          2    1    6    6  502    0 -0.20580875566E+02  0.62596143403E+02 -0.38175052842E+02  0.76152375324E+02  0.00000000000E+00 0. -1.
          3    1    5    5  503    0  0.31691886622E+03 -0.10614328568E+03 -0.15896314888E+03  0.37009896995E+03  0.00000000000E+00 0. -1.
         -4    1    5    5    0  503  0.41196641097E+03 -0.46993410954E+02 -0.19945139609E+03  0.46011472900E+03  0.00000000000E+00 0.  1.
         -1    1    6    6    0  502 -0.18335807857E+03  0.15906762263E+03 -0.77377625414E+02  0.25477439130E+03  0.00000000000E+00 0.  1.
<mgrwt>
<rscale>  0 0.15974307E+04</rscale>
<asrwt>0</asrwt>
<pdfrwt beam="1">  1        1 0.18644539E+00 0.15974307E+04</pdfrwt>
<pdfrwt beam="2">  1       -1 0.80985206E-01 0.15974307E+04</pdfrwt>
<totfact> 0.15276713E+01</totfact>
</mgrwt>
</event>
<event>
12    1  0.1532786E-007  0.3915911E+04  0.7818608E-02  0.8021728E-01
         -1   -1    0    0    0  501 -0.00000000000E+00  0.00000000000E+00  0.19964981906E+04  0.19964981906E+04  0.00000000000E+00 0.  1.
          1   -1    0    0  501    0  0.00000000000E+00 -0.00000000000E+00 -0.19201569558E+04  0.19201569558E+04  0.00000000000E+00 0. -1.
         23    2    1    2    0    0 -0.11979445120E+04 -0.74393683912E+03  0.12410564533E+04  0.18807291821E+04  0.91695483360E+02 0.  0.
        254    2    1    2    0    0  0.11979445120E+04  0.74393683912E+03 -0.11647152185E+04  0.20359259643E+04  0.89438242241E+03 0.  0.
        -24    2    4    4    0    0  0.39038887376E+03 -0.12591244354E+03 -0.79182206941E+02  0.42553132491E+03  0.80930033931E+02 0.  0.
         24    2    4    4    0    0  0.80755563826E+03  0.86984928265E+03 -0.10855330116E+04  0.16103946394E+04  0.78772406588E+02 0.  0.
         13    1    3    3    0    0 -0.11986677745E+04 -0.73984034425E+03  0.12394360235E+04  0.18762648600E+04  0.00000000000E+00 0.  1.
        -13    1    3    3    0    0  0.72326250329E+00 -0.40964948721E+01  0.16204298305E+01  0.44643220898E+01  0.00000000000E+00 0. -1.
          4    1    6    6  502    0  0.58324854555E+03  0.65962696858E+03 -0.76721057926E+03  0.11678607265E+04  0.00000000000E+00 0. -1.
          1    1    5    5  503    0  0.33346778242E+03 -0.12949322939E+03 -0.86480107235E+02  0.36803269871E+03  0.00000000000E+00 0. -1.
         -2    1    5    5    0  503  0.56921091344E+02  0.35807858548E+01  0.72979002940E+01  0.57498626209E+02  0.00000000000E+00 0.  1.
         -3    1    6    6    0  502  0.22430709271E+03  0.21022231407E+03 -0.31832243229E+03  0.44253391291E+03  0.00000000000E+00 0.  1.
<mgrwt>
<rscale>  0 0.39159111E+04</rscale>
<asrwt>0</asrwt>
<pdfrwt beam="1">  1        1 0.29540876E+00 0.39159111E+04</pdfrwt>
<pdfrwt beam="2">  1       -1 0.30715357E+00 0.39159111E+04</pdfrwt>
<totfact> 0.78943221E-02</totfact>
</mgrwt>
</event>
<event>
12    1  0.1532786E-007  0.1979870E+04  0.7818608E-02  0.8616091E-01
          2   -1    0    0  501    0  0.00000000000E+00  0.00000000000E+00  0.12016459288E+04  0.12016459288E+04  0.00000000000E+00 0. -1.
         -2   -1    0    0    0  501 -0.00000000000E+00 -0.00000000000E+00 -0.81552383282E+03  0.81552383282E+03  0.00000000000E+00 0.  1.
         23    2    1    2    0    0 -0.60151864335E+03 -0.25520675038E+03  0.59497073253E+03  0.88844912563E+03  0.91632486222E+02 0.  0.
        254    2    1    2    0    0  0.60151864335E+03  0.25520675038E+03 -0.20884863655E+03  0.11287206360E+04  0.89634667255E+03 0.  0.
        -24    2    4    4    0    0 -0.20765165536E+03 -0.69943064405E+02 -0.38947120943E+02  0.23665788279E+03  0.80491198431E+02 0.  0.
         24    2    4    4    0    0  0.80917029871E+03  0.32514981478E+03 -0.16990151561E+03  0.89206275320E+03  0.80190125755E+02 0.  0.
         11    1    3    3    0    0 -0.47386089721E+03 -0.22581697440E+03  0.51272024138E+03  0.73377074196E+03  0.00000000000E+00 0. -1.
        -11    1    3    3    0    0 -0.12765774614E+03 -0.29389775978E+02  0.82250491148E+02  0.15467838367E+03  0.00000000000E+00 0.  1.
          4    1    6    6  502    0  0.46344033626E+03  0.22593964033E+03 -0.85721616653E+02  0.52266036956E+03  0.00000000000E+00 0. -1.
          3    1    5    5  503    0 -0.19850873350E+03 -0.56369190817E+02 -0.55179653156E+02  0.21360710913E+03  0.00000000000E+00 0. -1.
         -4    1    5    5    0  503 -0.91429218656E+01 -0.13573873588E+02  0.16232532213E+02  0.23050773663E+02  0.00000000000E+00 0.  1.
         -3    1    6    6    0  502  0.34572996245E+03  0.99210174458E+02 -0.84179898958E+02  0.36940238364E+03  0.00000000000E+00 0.  1.
<mgrwt>
<rscale>  0 0.19798696E+04</rscale>
<asrwt>0</asrwt>
<pdfrwt beam="1">  1        2 0.18486860E+00 0.19798696E+04</pdfrwt>
<pdfrwt beam="2">  1       -2 0.12546521E+00 0.19798696E+04</pdfrwt>
<totfact> 0.83550026E+00</totfact>
</mgrwt>
</event>
<event>
12    1  0.1532786E-007  0.1617459E+04  0.7818608E-02  0.8809893E-01
         -2   -1    0    0    0  501 -0.00000000000E+00  0.00000000000E+00  0.38612613980E+03  0.38612613980E+03  0.00000000000E+00 0.  1.
          2   -1    0    0  501    0  0.00000000000E+00 -0.00000000000E+00 -0.16938604722E+04  0.16938604722E+04  0.00000000000E+00 0. -1.
         23    2    1    2    0    0 -0.23401650850E+03  0.10191699286E+03  0.17686549699E+03  0.32402234380E+03  0.92510948402E+02 0.  0.
        254    2    1    2    0    0  0.23401650850E+03 -0.10191699286E+03 -0.14845998294E+04  0.17559642682E+04  0.90234309333E+03 0.  0.
        -24    2    4    4    0    0 -0.75321180547E+01  0.31690764420E+03 -0.10541211210E+04  0.11036559170E+04  0.79986609042E+02 0.  0.
         24    2    4    4    0    0  0.24154862655E+03 -0.41882463706E+03 -0.43047870843E+03  0.65230835124E+03  0.80215030276E+02 0.  0.
         13    1    3    3    0    0 -0.34071978382E+02  0.18133403032E+02 -0.76420188591E+01  0.39346162057E+02  0.00000000000E+00 0. -1.
        -13    1    3    3    0    0 -0.19994453012E+03  0.83783589824E+02  0.18450751585E+03  0.28467618175E+03  0.00000000000E+00 0.  1.
          2    1    6    6  502    0  0.68081572220E+02 -0.69315645897E+02 -0.11491941840E+03  0.15048665046E+03  0.00000000000E+00 0. -1.
          3    1    5    5  503    0 -0.25449621518E+02  0.29474545736E+02 -0.12501431209E+03  0.13093895643E+03  0.00000000000E+00 0. -1.
         -2    1    5    5    0  503  0.17917503463E+02  0.28743309847E+03 -0.92910680889E+03  0.97271696055E+03  0.00000000000E+00 0.  1.
         -3    1    6    6    0  502  0.17346705434E+03 -0.34950899116E+03 -0.31555929003E+03  0.50182170077E+03  0.00000000000E+00 0.  1.
<mgrwt>
<rscale>  0 0.16174595E+04</rscale>
<asrwt>0</asrwt>
<pdfrwt beam="1">  1        2 0.26059392E+00 0.16174595E+04</pdfrwt>
<pdfrwt beam="2">  1       -2 0.59404022E-01 0.16174595E+04</pdfrwt>
<totfact> 0.25036118E+01</totfact>
</mgrwt>
</event>
<event>
12    1  0.1532786E-007  0.1471114E+04  0.7818608E-02  0.8903892E-01
         -2   -1    0    0    0  501 -0.00000000000E+00  0.00000000000E+00  0.35471997614E+03  0.35471997614E+03  0.00000000000E+00 0.  1.
          2   -1    0    0  501    0  0.00000000000E+00 -0.00000000000E+00 -0.15252708666E+04  0.15252708666E+04  0.00000000000E+00 0. -1.
         23    2    1    2    0    0 -0.42404436495E+03 -0.65823006600E+02 -0.56346029476E+03  0.71426761759E+03  0.92436108329E+02 0.  0.
        254    2    1    2    0    0  0.42404436495E+03  0.65823006600E+02 -0.60709059567E+03  0.11657232251E+04  0.89788938884E+03 0.  0.
        -24    2    4    4    0    0 -0.23481297568E+03 -0.15673310154E+03 -0.15719611063E+03  0.33286075506E+03  0.79895346531E+02 0.  0.
         24    2    4    4    0    0  0.65885734063E+03  0.22255610814E+03 -0.44989448504E+03  0.83286247006E+03  0.87353476106E+02 0.  0.
         13    1    3    3    0    0 -0.27472459536E+03 -0.58084696891E+02 -0.29701467461E+03  0.40873604226E+03  0.00000000000E+00 0.  1.
        -13    1    3    3    0    0 -0.14931976960E+03 -0.77383097099E+01 -0.26644562015E+03  0.30553157533E+03  0.00000000000E+00 0. -1.
          4    1    6    6  502    0  0.16164051652E+03  0.53051481247E+02 -0.67130418958E+02  0.18288960985E+03  0.00000000000E+00 0. -1.
          3    1    5    5  503    0 -0.44944005916E+02 -0.69374626149E+01 -0.52133320097E+02  0.69180742405E+02  0.00000000000E+00 0. -1.
         -4    1    5    5    0  503 -0.18986896976E+03 -0.14979563893E+03 -0.10506279053E+03  0.26368001266E+03  0.00000000000E+00 0.  1.
         -3    1    6    6    0  502  0.49721682411E+03  0.16950462690E+03 -0.38276406608E+03  0.64997286020E+03  0.00000000000E+00 0.  1.
<mgrwt>
<rscale>  0 0.14711139E+04</rscale>
<asrwt>0</asrwt>
<pdfrwt beam="1">  1        2 0.23465705E+00 0.14711139E+04</pdfrwt>
<pdfrwt beam="2">  1       -2 0.54572304E-01 0.14711139E+04</pdfrwt>
<totfact> 0.37576714E+01</totfact>
</mgrwt>
</event>
<event>
12    1  0.1532786E-007  0.1911471E+04  0.7818608E-02  0.8649167E-01
          1   -1    0    0  501    0  0.00000000000E+00  0.00000000000E+00  0.12437024608E+04  0.12437024608E+04  0.00000000000E+00 0. -1.
         -1   -1    0    0    0  501 -0.00000000000E+00 -0.00000000000E+00 -0.73444455580E+03  0.73444455580E+03  0.00000000000E+00 0.  1.
         23    2    1    2    0    0 -0.45486742437E+03  0.32762399751E+03 -0.30186217018E+03  0.64323061663E+03  0.91558718220E+02 0.  0.
        254    2    1    2    0    0  0.45486742437E+03 -0.32762399751E+03  0.81112007516E+03  0.13349163999E+04  0.89991341862E+03 0.  0.
        -24    2    4    4    0    0  0.57062037146E+03 -0.21310964273E+03  0.93290698806E+03  0.11168861217E+04  0.78075811101E+02 0.  0.
         24    2    4    4    0    0 -0.11575294709E+03 -0.11451435479E+03 -0.12178691291E+03  0.21803027826E+03  0.78694776632E+02 0.  0.
         13    1    3    3    0    0 -0.18653123091E+03  0.14436549871E+03 -0.77195067901E+02  0.24818214245E+03  0.00000000000E+00 0. -1.
        -13    1    3    3    0    0 -0.26833619346E+03  0.18325849880E+03 -0.22466710228E+03  0.39504847418E+03  0.00000000000E+00 0.  1.
          2    1    6    6  502    0 -0.30711089873E+02 -0.12481714105E+01  0.74572205143E+00  0.30745488684E+02  0.00000000000E+00 0. -1.
          1    1    5    5  503    0  0.77693534557E+02 -0.23394759267E+01  0.10735055671E+03  0.13253641193E+03  0.00000000000E+00 0. -1.
         -2    1    5    5    0  503  0.49292683690E+03 -0.21077016680E+03  0.82555643135E+03  0.98434970976E+03  0.00000000000E+00 0.  1.
         -1    1    6    6    0  502 -0.85041857219E+02 -0.11326618338E+03 -0.12253263496E+03  0.18728478957E+03  0.00000000000E+00 0.  1.
<mgrwt>
<rscale>  0 0.19114712E+04</rscale>
<asrwt>0</asrwt>
<pdfrwt beam="1">  1        1 0.19133884E+00 0.19114712E+04</pdfrwt>
<pdfrwt beam="2">  1       -1 0.11299147E+00 0.19114712E+04</pdfrwt>
<totfact> 0.66465217E+00</totfact>
</mgrwt>
</event>
<event>
12    1  0.1532786E-007  0.1712047E+04  0.7818608E-02  0.8754523E-01
         -2   -1    0    0    0  501 -0.00000000000E+00  0.00000000000E+00  0.38383560929E+03  0.38383560929E+03  0.00000000000E+00 0.  1.
          2   -1    0    0  501    0  0.00000000000E+00 -0.00000000000E+00 -0.19090884073E+04  0.19090884073E+04  0.00000000000E+00 0. -1.
         23    2    1    2    0    0 -0.55248998768E+03 -0.25600520120E+03 -0.71201788409E+03  0.94135608122E+03  0.91640356042E+02 0.  0.
        254    2    1    2    0    0  0.55248998768E+03  0.25600520120E+03 -0.81323491392E+03  0.13515679354E+04  0.89140395399E+03 0.  0.
        -24    2    4    4    0    0 -0.58853283974E+02 -0.18954562472E+03  0.30464372894E+02  0.21590372085E+03  0.79341576595E+02 0.  0.
         24    2    4    4    0    0  0.61134327165E+03  0.44555082593E+03 -0.84369928681E+03  0.11356642145E+04  0.75157084121E+02 0.  0.
         13    1    3    3    0    0 -0.74965235512E+02 -0.35091724858E+02 -0.15113276033E+03  0.17231461614E+03  0.00000000000E+00 0. -1.
        -13    1    3    3    0    0 -0.47752475216E+03 -0.22091347634E+03 -0.56088512376E+03  0.76904146508E+03  0.00000000000E+00 0.  1.
          2    1    6    6  502    0  0.57826429072E+03  0.40642734473E+03 -0.76293552274E+03  0.10400208596E+04  0.00000000000E+00 0. -1.
          3    1    5    5  503    0 -0.31036860762E+02 -0.13969218589E+02  0.15827936035E+02  0.37535974119E+02  0.00000000000E+00 0. -1.
         -4    1    5    5    0  503 -0.27816423212E+02 -0.17557640613E+03  0.14636436859E+02  0.17836774674E+03  0.00000000000E+00 0.  1.
         -1    1    6    6    0  502  0.33078980934E+02  0.39123481200E+02 -0.80763764067E+02  0.95643354955E+02  0.00000000000E+00 0.  1.
<mgrwt>
<rscale>  0 0.17120469E+04</rscale>
<asrwt>0</asrwt>
<pdfrwt beam="1">  1        2 0.29370590E+00 0.17120469E+04</pdfrwt>
<pdfrwt beam="2">  1       -2 0.59051633E-01 0.17120469E+04</pdfrwt>
<totfact> 0.19112761E+01</totfact>
</mgrwt>
</event>
<event>
12    1  0.1532786E-007  0.3217742E+04  0.7818608E-02  0.8184147E-01
          2   -1    0    0  501    0  0.00000000000E+00  0.00000000000E+00  0.17314618031E+04  0.17314618031E+04  0.00000000000E+00 0. -1.
         -2   -1    0    0    0  501 -0.00000000000E+00 -0.00000000000E+00 -0.14949595554E+04  0.14949595554E+04  0.00000000000E+00 0.  1.
         23    2    1    2    0    0 -0.65351309971E+03  0.23706510230E+03 -0.11997907113E+04  0.13897175777E+04  0.92401086212E+02 0.  0.
        254    2    1    2    0    0  0.65351309971E+03 -0.23706510230E+03  0.14362929589E+04  0.18367037808E+04  0.90954058759E+03 0.  0.
        -24    2    4    4    0    0  0.56150012760E+03  0.26538400799E+03  0.73890024786E+03  0.96864883010E+03  0.81215237427E+02 0.  0.
         24    2    4    4    0    0  0.92012972113E+02 -0.50244911029E+03  0.69739271105E+03  0.86805495072E+03  0.79001952990E+02 0.  0.
         11    1    3    3    0    0 -0.41082357090E+02  0.31385171753E+02 -0.56987814646E+02  0.76944136152E+02  0.00000000000E+00 0. -1.
        -11    1    3    3    0    0 -0.61243074262E+03  0.20567993055E+03 -0.11428028966E+04  0.13127734416E+04  0.00000000000E+00 0.  1.
          2    1    6    6  502    0  0.56690273768E+02 -0.34765317051E+03  0.41731272977E+03  0.54610111567E+03  0.00000000000E+00 0. -1.
          1    1    5    5  503    0  0.38430482474E+03  0.19793389165E+03  0.45837127250E+03  0.63005733646E+03  0.00000000000E+00 0. -1.
         -2    1    5    5    0  503  0.17719530286E+03  0.67450116340E+02  0.28052897536E+03  0.33859149364E+03  0.00000000000E+00 0.  1.
         -1    1    6    6    0  502  0.35322698345E+02 -0.15479593978E+03  0.28007998128E+03  0.32195383505E+03  0.00000000000E+00 0.  1.
<mgrwt>
<rscale>  0 0.32177417E+04</rscale>
<asrwt>0</asrwt>
<pdfrwt beam="1">  1        2 0.26637874E+00 0.32177417E+04</pdfrwt>
<pdfrwt beam="2">  1       -2 0.22999378E+00 0.32177417E+04</pdfrwt>
<totfact> 0.67727874E-01</totfact>
</mgrwt>
</event>
<event>
12    1  0.1532786E-007  0.1732729E+04  0.7818608E-02  0.8742915E-01
         -2   -1    0    0    0  501 -0.00000000000E+00  0.00000000000E+00  0.17856427538E+03  0.17856427538E+03  0.00000000000E+00 0.  1.
          2   -1    0    0  501    0  0.00000000000E+00 -0.00000000000E+00 -0.42034564269E+04  0.42034564269E+04  0.00000000000E+00 0. -1.
         23    2    1    2    0    0 -0.34718406800E+02  0.61125046990E+03 -0.18521683736E+04  0.19529015960E+04  0.92002472795E+02 0.  0.
        254    2    1    2    0    0  0.34718406800E+02 -0.61125046990E+03 -0.21727237780E+04  0.24291191063E+04  0.89725052931E+03 0.  0.
        -24    2    4    4    0    0  0.16314190744E+03 -0.15921117275E+03 -0.18200275214E+04  0.18360109180E+04  0.80451432325E+02 0.  0.
         24    2    4    4    0    0 -0.12842350064E+03 -0.45203929715E+03 -0.35269625665E+03  0.59310818832E+03  0.80935479926E+02 0.  0.
         13    1    3    3    0    0 -0.57041405799E+01  0.36112284198E+03 -0.95306148228E+03  0.10191998986E+04  0.00000000000E+00 0. -1.
        -13    1    3    3    0    0 -0.29014266220E+02  0.25012762792E+03 -0.89910689128E+03  0.93370169746E+03  0.00000000000E+00 0.  1.
          4    1    6    6  502    0 -0.11817356692E+03 -0.27272057701E+03 -0.22189624311E+03  0.37091703621E+03  0.00000000000E+00 0. -1.
          3    1    5    5  503    0  0.11452158119E+03 -0.11911690915E+03 -0.15472459500E+04  0.15560443633E+04  0.00000000000E+00 0. -1.
         -4    1    5    5    0  503  0.48620326244E+02 -0.40094263598E+02 -0.27278157134E+03  0.27996655471E+03  0.00000000000E+00 0.  1.
         -3    1    6    6    0  502 -0.10249933718E+02 -0.17931872013E+03 -0.13080001354E+03  0.22219115211E+03  0.00000000000E+00 0.  1.
<mgrwt>
<rscale>  0 0.17327287E+04</rscale>
<asrwt>0</asrwt>
<pdfrwt beam="1">  1        2 0.64668561E+00 0.17327287E+04</pdfrwt>
<pdfrwt beam="2">  1       -2 0.27471427E-01 0.17327287E+04</pdfrwt>
<totfact> 0.26991252E+00</totfact>
</mgrwt>
</event>
<event>
12    1  0.1532786E-007  0.1913905E+04  0.7818608E-02  0.8647966E-01
          1   -1    0    0  501    0  0.00000000000E+00  0.00000000000E+00  0.43225651090E+03  0.43225651090E+03  0.00000000000E+00 0. -1.
         -1   -1    0    0    0  501 -0.00000000000E+00 -0.00000000000E+00 -0.21185534172E+04  0.21185534172E+04  0.00000000000E+00 0.  1.
         23    2    1    2    0    0  0.17375228511E+03 -0.19479049049E+03  0.26309945891E+03  0.38860272085E+03  0.11686555355E+03 0.  0.
        254    2    1    2    0    0 -0.17375228511E+03  0.19479049049E+03 -0.19493963652E+04  0.21622072072E+04  0.89825421047E+03 0.  0.
        -24    2    4    4    0    0 -0.48509057413E+03 -0.14363742369E+02 -0.70221759129E+03  0.85733927884E+03  0.80011944796E+02 0.  0.
         24    2    4    4    0    0  0.31133828902E+03  0.20915423285E+03 -0.12471787739E+04  0.13048679284E+04  0.80922142597E+02 0.  0.
         11    1    3    3    0    0  0.14340453429E+02  0.14035003310E+02  0.36547397054E+02  0.41693430584E+02  0.00000000000E+00 0.  1.
        -11    1    3    3    0    0  0.15941183168E+03 -0.20882549380E+03  0.22655206186E+03  0.34690929026E+03  0.00000000000E+00 0. -1.
          4    1    6    6  502    0  0.21921228062E+03  0.15210277451E+03 -0.99994834323E+03  0.10349328322E+04  0.00000000000E+00 0. -1.
          3    1    5    5  503    0 -0.24134829162E+03 -0.22513196558E+02 -0.41445099214E+03  0.48013067677E+03  0.00000000000E+00 0. -1.
         -4    1    5    5    0  503 -0.24374228251E+03  0.81494541894E+01 -0.28776659915E+03  0.37720860207E+03  0.00000000000E+00 0.  1.
         -3    1    6    6    0  502  0.92126008400E+02  0.57051458344E+02 -0.24723043068E+03  0.26993509623E+03  0.00000000000E+00 0.  1.
<mgrwt>
<rscale>  0 0.19139054E+04</rscale>
<asrwt>0</asrwt>
<pdfrwt beam="1">  1        1 0.66501002E-01 0.19139054E+04</pdfrwt>
<pdfrwt beam="2">  1       -1 0.32593129E+00 0.19139054E+04</pdfrwt>
<totfact> 0.11326199E+00</totfact>
</mgrwt>
</event>
<event>
12    1  0.1532786E-007  0.2504469E+04  0.7818608E-02  0.8401395E-01
         -1   -1    0    0    0  501 -0.00000000000E+00  0.00000000000E+00  0.14749484833E+04  0.14749484833E+04  0.00000000000E+00 0.  1.
          1   -1    0    0  501    0  0.00000000000E+00 -0.00000000000E+00 -0.10631495333E+04  0.10631495333E+04  0.00000000000E+00 0. -1.
         23    2    1    2    0    0  0.86303810429E+03 -0.65056885987E+03  0.43663806947E+02  0.10853782765E+04  0.89804588481E+02 0.  0.
        254    2    1    2    0    0 -0.86303810429E+03  0.65056885987E+03  0.36813514298E+03  0.14527197401E+04  0.89821854188E+03 0.  0.
        -24    2    4    4    0    0 -0.12652316897E+03  0.64619783464E+03  0.15071301337E+03  0.68070992842E+03  0.84094235646E+02 0.  0.
         24    2    4    4    0    0 -0.73651493531E+03  0.43710252302E+01  0.21742212961E+03  0.77200981171E+03  0.79078512451E+02 0.  0.
         13    1    3    3    0    0  0.66919658985E+03 -0.47510379463E+03  0.63579669948E+02  0.82315859102E+03  0.00000000000E+00 0. -1.
        -13    1    3    3    0    0  0.19384151444E+03 -0.17546506524E+03 -0.19915863001E+02  0.26221968545E+03  0.00000000000E+00 0.  1.
          2    1    6    6  502    0 -0.20669600233E+02  0.74765375692E+01  0.19289869968E+02  0.29244316904E+02  0.00000000000E+00 0. -1.
          3    1    5    5  503    0 -0.96815648419E+02  0.27720388060E+03  0.67792131188E+02  0.30134869213E+03  0.00000000000E+00 0. -1.
         -4    1    5    5    0  503 -0.29707520555E+02  0.36899395404E+03  0.82920882180E+02  0.37936123629E+03  0.00000000000E+00 0.  1.
         -1    1    6    6    0  502 -0.71584533508E+03 -0.31055123390E+01  0.19813225964E+03  0.74276549480E+03  0.00000000000E+00 0.  1.
<mgrwt>
<rscale>  0 0.25044686E+04</rscale>
<asrwt>0</asrwt>
<pdfrwt beam="1">  1        1 0.16356147E+00 0.25044686E+04</pdfrwt>
<pdfrwt beam="2">  1       -1 0.22691515E+00 0.25044686E+04</pdfrwt>
<totfact> 0.11882227E+00</totfact>
</mgrwt>
</event>
<event>
12    1  0.1532786E-007  0.2151754E+04  0.7818608E-02  0.8538782E-01
         -1   -1    0    0    0  501 -0.00000000000E+00  0.00000000000E+00  0.52494907976E+03  0.52494907976E+03  0.00000000000E+00 0.  1.
          1   -1    0    0  501    0  0.00000000000E+00 -0.00000000000E+00 -0.22049978727E+04  0.22049978727E+04  0.00000000000E+00 0. -1.
         23    2    1    2    0    0 -0.93168784606E+02  0.78529288160E+03 -0.19698735254E+03  0.81995586653E+03  0.90323162465E+02 0.  0.
        254    2    1    2    0    0  0.93168784606E+02 -0.78529288160E+03 -0.14830614404E+04  0.19099910859E+04  0.90731988850E+03 0.  0.
        -24    2    4    4    0    0 -0.19109634753E+03 -0.30351352918E+02  0.11637390246E+02  0.20982819201E+03  0.80333197670E+02 0.  0.
         24    2    4    4    0    0  0.28426513213E+03 -0.75494152868E+03 -0.14946988307E+04  0.17001628939E+04  0.75404870481E+02 0.  0.
         13    1    3    3    0    0  0.13815770124E+02  0.29196299171E+02 -0.89502793358E+01  0.33517262561E+02  0.00000000000E+00 0. -1.
        -13    1    3    3    0    0 -0.10698455473E+03  0.75609658243E+03 -0.18803707320E+03  0.78643860397E+03  0.00000000000E+00 0.  1.
          2    1    6    6  502    0  0.20243852195E+03 -0.58388554860E+03 -0.10834579048E+04  0.12473109959E+04  0.00000000000E+00 0. -1.
          1    1    5    5  503    0 -0.13502892704E+03  0.15271708119E+02  0.18824578222E+02  0.13718746645E+03  0.00000000000E+00 0. -1.
         -2    1    5    5    0  503 -0.56067420491E+02 -0.45623061037E+02 -0.71871879756E+01  0.72640725561E+02  0.00000000000E+00 0.  1.
         -1    1    6    6    0  502  0.81826610181E+02 -0.17105598008E+03 -0.41124092583E+03  0.45285189801E+03  0.00000000000E+00 0.  1.
<mgrwt>
<rscale>  0 0.21517543E+04</rscale>
<asrwt>0</asrwt>
<pdfrwt beam="1">  1        1 0.33923044E+00 0.21517543E+04</pdfrwt>
<pdfrwt beam="2">  1       -1 0.80761398E-01 0.21517543E+04</pdfrwt>
<totfact> 0.30248489E+00</totfact>
</mgrwt>
</event>
<event>
12    1  0.1532786E-007  0.1168661E+04  0.7818608E-02  0.9140738E-01
         -2   -1    0    0    0  501 -0.00000000000E+00  0.00000000000E+00  0.48950662935E+03  0.48950662935E+03  0.00000000000E+00 0.  1.
          2   -1    0    0  501    0  0.00000000000E+00 -0.00000000000E+00 -0.69752348861E+03  0.69752348861E+03  0.00000000000E+00 0. -1.
         23    2    1    2    0    0 -0.11846788531E+03 -0.11399283235E+02  0.14941426147E+03  0.21159624619E+03  0.91015198535E+02 0.  0.
        254    2    1    2    0    0  0.11846788531E+03  0.11399283235E+02 -0.35743112073E+03  0.97543387177E+03  0.89974977000E+03 0.  0.
        -24    2    4    4    0    0 -0.19307516718E+03  0.10231702540E+03  0.21223443221E+03  0.31484899388E+03  0.79621861714E+02 0.  0.
         24    2    4    4    0    0  0.31154305249E+03 -0.90917742162E+02 -0.56966555294E+03  0.66058487789E+03  0.80798696089E+02 0.  0.
         13    1    3    3    0    0 -0.11378582079E+03 -0.27183544660E+02  0.83688896933E+02  0.14384015289E+03  0.00000000000E+00 0.  1.
        -13    1    3    3    0    0 -0.46820645241E+01  0.15784261425E+02  0.65725364533E+02  0.67756093305E+02  0.00000000000E+00 0. -1.
          4    1    6    6  502    0  0.22545715823E+03 -0.75147897227E+02 -0.34012134133E+03  0.41492247889E+03  0.00000000000E+00 0. -1.
          3    1    5    5  503    0 -0.14424208437E+03  0.66822943465E+02  0.19594490140E+03  0.25232021137E+03  0.00000000000E+00 0. -1.
         -4    1    5    5    0  503 -0.48833082807E+02  0.35494081932E+02  0.16289530807E+02  0.62528782513E+02  0.00000000000E+00 0.  1.
         -1    1    6    6    0  502  0.86085894262E+02 -0.15769844935E+02 -0.22954421161E+03  0.24566239900E+03  0.00000000000E+00 0.  1.
<mgrwt>
<rscale>  0 0.11686614E+04</rscale>
<asrwt>0</asrwt>
<pdfrwt beam="1">  1        2 0.10731131E+00 0.11686614E+04</pdfrwt>
<pdfrwt beam="2">  1       -2 0.75308712E-01 0.11686614E+04</pdfrwt>
<totfact> 0.64424608E+01</totfact>
</mgrwt>
</event>
<event>
12    1  0.1532786E-007  0.2311067E+04  0.7818608E-02  0.8473570E-01
         -2   -1    0    0    0  501 -0.00000000000E+00  0.00000000000E+00  0.13440598585E+04  0.13440598585E+04  0.00000000000E+00 0. -1.
          2   -1    0    0  501    0  0.00000000000E+00 -0.00000000000E+00 -0.99345132888E+03  0.99345132888E+03  0.00000000000E+00 0.  1.
         23    2    1    2    0    0  0.91235057037E+03  0.10128741966E+03 -0.19115843847E+03  0.94237279173E+03  0.94245558785E+02 0.  0.
        254    2    1    2    0    0 -0.91235057037E+03 -0.10128741966E+03  0.54176696808E+03  0.13951383956E+04  0.90014276125E+03 0.  0.
        -24    2    4    4    0    0 -0.38688992916E+03 -0.48774665079E+03  0.23593675880E+03  0.67043699481E+03  0.78987323138E+02 0.  0.
         24    2    4    4    0    0 -0.52546064121E+03  0.38645923113E+03  0.30583020928E+03  0.72470140082E+03  0.78742495871E+02 0.  0.
         13    1    3    3    0    0  0.47062978135E+03  0.36180329454E+02 -0.52955011733E+02  0.47497962125E+03  0.00000000000E+00 0. -1.
        -13    1    3    3    0    0  0.44172078902E+03  0.65107090203E+02 -0.13820342674E+03  0.46739317048E+03  0.00000000000E+00 0.  1.
          2    1    6    6  502    0 -0.19118568926E+03  0.18392018252E+03  0.14204084084E+03  0.30092225206E+03  0.00000000000E+00 0. -1.
          3    1    5    5  503    0 -0.36549537522E+03 -0.42814589627E+03  0.22469864703E+03  0.60612313912E+03  0.00000000000E+00 0. -1.
         -4    1    5    5    0  503 -0.21394553938E+02 -0.59600754523E+02  0.11238111775E+02  0.64313855693E+02  0.00000000000E+00 0.  1.
         -1    1    6    6    0  502 -0.33427495195E+03  0.20253904861E+03  0.16378936844E+03  0.42377914877E+03  0.00000000000E+00 0.  1.
<mgrwt>
<rscale>  0 0.23110673E+04</rscale>
<asrwt>0</asrwt>
<pdfrwt beam="1">  1        2 0.15283867E+00 0.23110673E+04</pdfrwt>
<pdfrwt beam="2">  1       -2 0.20677844E+00 0.23110673E+04</pdfrwt>
<totfact> 0.27668691E+00</totfact>
</mgrwt>
</event>
<event>
12    1  0.1532786E-007  0.1495423E+04  0.7818608E-02  0.8887502E-01
          2   -1    0    0  501    0  0.00000000000E+00  0.00000000000E+00  0.17821734051E+03  0.17821734051E+03  0.00000000000E+00 0. -1.
         -2   -1    0    0    0  501 -0.00000000000E+00 -0.00000000000E+00 -0.31370259625E+04  0.31370259625E+04  0.00000000000E+00 0.  1.
         23    2    1    2    0    0 -0.84246603230E+02 -0.23016209309E+02 -0.19718874325E+04  0.19759492663E+04  0.91696348904E+02 0.  0.
        254    2    1    2    0    0  0.84246603230E+02  0.23016209309E+02 -0.98692118949E+03  0.13392940367E+04  0.90114807135E+03 0.  0.
        -24    2    4    4    0    0 -0.32039273345E+03 -0.10934556280E+03 -0.79252576881E+03  0.86554734979E+03  0.80418684116E+02 0.  0.
         24    2    4    4    0    0  0.40463933668E+03  0.13236177211E+03 -0.19439542068E+03  0.47374668693E+03  0.73441897409E+02 0.  0.
         13    1    3    3    0    0 -0.18989286142E+00 -0.13098187858E+02 -0.10743374768E+04  0.10744173363E+04  0.00000000000E+00 0. -1.
        -13    1    3    3    0    0 -0.84056710368E+02 -0.99180214515E+01 -0.89754995570E+03  0.90153192993E+03  0.00000000000E+00 0.  1.
          2    1    6    6  502    0  0.62987673934E+02  0.43707204823E+02 -0.54517479355E+02  0.94074026045E+02  0.00000000000E+00 0. -1.
          1    1    5    5  503    0 -0.36436347943E+02 -0.34145888419E+02 -0.73752060652E+02  0.89066916404E+02  0.00000000000E+00 0. -1.
         -4    1    5    5    0  503 -0.28395638550E+03 -0.75199674386E+02 -0.71877370816E+03  0.77648043339E+03  0.00000000000E+00 0.  1.
         -1    1    6    6    0  502  0.34165166274E+03  0.88654567291E+02 -0.13987794132E+03  0.37967266089E+03  0.00000000000E+00 0.  1.
<mgrwt>
<rscale>  0 0.14954229E+04</rscale>
<asrwt>0</asrwt>
<pdfrwt beam="1">  1        2 0.27418052E-01 0.14954229E+04</pdfrwt>
<pdfrwt beam="2">  1       -2 0.48261938E+00 0.14954229E+04</pdfrwt>
<totfact> 0.40742943E-01</totfact>
</mgrwt>
</event>
<event>
12    1  0.1532786E-007  0.1665262E+04  0.7818608E-02  0.8781428E-01
          1   -1    0    0  501    0  0.00000000000E+00  0.00000000000E+00  0.22553949297E+04  0.22553949297E+04  0.00000000000E+00 0. -1.
         -1   -1    0    0    0  501 -0.00000000000E+00 -0.00000000000E+00 -0.30738504886E+03  0.30738504886E+03  0.00000000000E+00 0.  1.
         23    2    1    2    0    0  0.49581827171E+02  0.30224052473E+03 -0.77368573443E+02  0.32156067280E+03  0.60063947262E+02 0.  0.
        254    2    1    2    0    0 -0.49581827171E+02 -0.30224052473E+03  0.20253784543E+04  0.22412193057E+04  0.90944950440E+03 0.  0.
        -24    2    4    4    0    0  0.20251986921E+03  0.18866861526E+03  0.25697859642E+03  0.38699097928E+03  0.84343791802E+02 0.  0.
         24    2    4    4    0    0 -0.25210169638E+03 -0.49090913998E+03  0.17683998578E+04  0.18542283265E+04  0.79859754637E+02 0.  0.
         11    1    3    3    0    0  0.46725948183E+02  0.29848711045E+03 -0.65992483813E+02  0.30924565843E+03  0.00000000000E+00 0. -1.
        -11    1    3    3    0    0  0.28558789881E+01  0.37534142736E+01 -0.11376089630E+02  0.12315014364E+02  0.00000000000E+00 0.  1.
          2    1    6    6  502    0 -0.40755003581E+02 -0.30178396973E+02  0.15962238035E+03  0.16748435828E+03  0.00000000000E+00 0. -1.
          3    1    5    5  503    0 -0.45030626810E+01  0.22165820537E+01 -0.30643047601E+01  0.58805419114E+01  0.00000000000E+00 0. -1.
         -2    1    5    5    0  503  0.20702293189E+03  0.18645203320E+03  0.26004290118E+03  0.38111043737E+03  0.00000000000E+00 0.  1.
         -1    1    6    6    0  502 -0.21134669280E+03 -0.46073074301E+03  0.16087774775E+04  0.16867439682E+04  0.00000000000E+00 0.  1.
<mgrwt>
<rscale>  0 0.16652624E+04</rscale>
<asrwt>0</asrwt>
<pdfrwt beam="1">  1        1 0.34698382E+00 0.16652624E+04</pdfrwt>
<pdfrwt beam="2">  1       -1 0.47290009E-01 0.16652624E+04</pdfrwt>
<totfact> 0.85093787E+00</totfact>
</mgrwt>
</event>
<event>
12    1  0.1532786E-007  0.2283754E+04  0.7818608E-02  0.8484354E-01
          1   -1    0    0  501    0  0.00000000000E+00  0.00000000000E+00  0.47011276298E+03  0.47011276298E+03  0.00000000000E+00 0. -1.
         -1   -1    0    0    0  501 -0.00000000000E+00 -0.00000000000E+00 -0.27735531935E+04  0.27735531935E+04  0.00000000000E+00 0.  1.
         23    2    1    2    0    0 -0.40833488068E+03  0.22494587992E+03 -0.21993061117E+04  0.22503390397E+04  0.98693450375E+02 0.  0.
        254    2    1    2    0    0  0.40833488068E+03 -0.22494587992E+03 -0.10413431884E+03  0.99332691676E+03  0.87092846063E+03 0.  0.
        -24    2    4    4    0    0  0.51713134617E+03  0.14124352722E+03 -0.22186774947E+03  0.58566005066E+03  0.79986458275E+02 0.  0.
         24    2    4    4    0    0 -0.10879646549E+03 -0.36618940714E+03  0.11773343063E+03  0.40766686610E+03  0.79998501386E+02 0.  0.
         13    1    3    3    0    0 -0.96339167421E+02  0.10054506129E+03 -0.56885191980E+03  0.58564754861E+03  0.00000000000E+00 0. -1.
        -13    1    3    3    0    0 -0.31199571326E+03  0.12440081863E+03 -0.16304541919E+04  0.16646914911E+04  0.00000000000E+00 0.  1.
          4    1    6    6  502    0  0.65112262022E+01 -0.94165438192E+02  0.36983504252E+02  0.10137704574E+03  0.00000000000E+00 0. -1.
          1    1    5    5  503    0  0.67223850014E+01  0.10591021908E+02 -0.15206363297E+02  0.19712779862E+02  0.00000000000E+00 0. -1.
         -2    1    5    5    0  503  0.51040896117E+03  0.13065250531E+03 -0.20666138618E+03  0.56594727080E+03  0.00000000000E+00 0.  1.
         -3    1    6    6    0  502 -0.11530769169E+03 -0.27202396895E+03  0.80749926380E+02  0.30628982036E+03  0.00000000000E+00 0.  1.
<mgrwt>
<rscale>  0 0.22837537E+04</rscale>
<asrwt>0</asrwt>
<pdfrwt beam="1">  1        1 0.72325040E-01 0.22837537E+04</pdfrwt>
<pdfrwt beam="2">  1       -1 0.42670049E+00 0.22837537E+04</pdfrwt>
<totfact> 0.20473228E-01</totfact>
</mgrwt>
</event>
<event>
12    1  0.1532786E-007  0.2092855E+04  0.7818608E-02  0.8564397E-01
         -2   -1    0    0    0  501 -0.00000000000E+00  0.00000000000E+00  0.88132277068E+03  0.88132277068E+03  0.00000000000E+00 0.  1.
          2   -1    0    0  501    0  0.00000000000E+00 -0.00000000000E+00 -0.12424624373E+04  0.12424624373E+04  0.00000000000E+00 0. -1.
         23    2    1    2    0    0  0.16998774538E+03  0.10107233359E+03 -0.98589598517E+03  0.10097928898E+04  0.92624707527E+02 0.  0.
        254    2    1    2    0    0 -0.16998774538E+03 -0.10107233359E+03  0.62475631852E+03  0.11139923183E+04  0.90085902194E+03 0.  0.
        -24    2    4    4    0    0 -0.60787251103E+02  0.15030502555E+03 -0.18389818107E+03  0.25652228435E+03  0.75488083591E+02 0.  0.
         24    2    4    4    0    0 -0.10920049428E+03 -0.25137735915E+03  0.80865449958E+03  0.85747003391E+03  0.78850711599E+02 0.  0.
         11    1    3    3    0    0  0.41075374096E+02  0.86221502610E+01 -0.82370797594E+02  0.92447153166E+02  0.00000000000E+00 0. -1.
        -11    1    3    3    0    0  0.12891237128E+03  0.92450183332E+02 -0.90352518758E+03  0.91734573660E+03  0.00000000000E+00 0.  1.
          4    1    6    6  502    0 -0.95940333230E+02 -0.19059740170E+03  0.70495809613E+03  0.73654452301E+03  0.00000000000E+00 0. -1.
          1    1    5    5  503    0 -0.20708082398E+02  0.41030650759E+02 -0.10852518428E+03  0.11785607579E+03  0.00000000000E+00 0. -1.
         -2    1    5    5    0  503 -0.40079168705E+02  0.10927437479E+03 -0.75372996789E+02  0.13866620856E+03  0.00000000000E+00 0.  1.
         -3    1    6    6    0  502 -0.13260161046E+02 -0.60779957447E+02  0.10369640346E+03  0.12092551091E+03  0.00000000000E+00 0.  1.
<mgrwt>
<rscale>  0 0.20928549E+04</rscale>
<asrwt>0</asrwt>
<pdfrwt beam="1">  1        2 0.19114807E+00 0.20928549E+04</pdfrwt>
<pdfrwt beam="2">  1       -2 0.13558812E+00 0.20928549E+04</pdfrwt>
<totfact> 0.64297204E+00</totfact>
</mgrwt>
</event>
<event>
12    1  0.1532786E-007  0.1662380E+04  0.7818608E-02  0.8783116E-01
         -1   -1    0    0    0  501 -0.00000000000E+00  0.00000000000E+00  0.65628467126E+03  0.65628467126E+03  0.00000000000E+00 0.  1.
          1   -1    0    0  501    0  0.00000000000E+00 -0.00000000000E+00 -0.10527096651E+04  0.10527096651E+04  0.00000000000E+00 0. -1.
         23    2    1    2    0    0 -0.35683111983E+02  0.40787795084E+03 -0.57937210360E+03  0.71548692474E+03  0.92799772534E+02 0.  0.
        254    2    1    2    0    0  0.35683111983E+02 -0.40787795084E+03  0.18294710973E+03  0.99350741165E+03  0.88653799963E+03 0.  0.
        -24    2    4    4    0    0  0.26261344483E+03 -0.17218233959E+03  0.45632368409E+03  0.55986694753E+03  0.81284160858E+02 0.  0.
         24    2    4    4    0    0 -0.22693033284E+03 -0.23569561126E+03 -0.27337657436E+03  0.43364046412E+03  0.79117024623E+02 0.  0.
         11    1    3    3    0    0 -0.33599117922E+02  0.38062279356E+03 -0.57070860875E+03  0.68681214884E+03  0.00000000000E+00 0. -1.
        -11    1    3    3    0    0 -0.20839940612E+01  0.27255157284E+02 -0.86634948560E+01  0.28674775901E+02  0.00000000000E+00 0.  1.
          4    1    6    6  502    0 -0.71398644282E+02 -0.27441154330E+02 -0.55965901941E+02  0.94778507777E+02  0.00000000000E+00 0. -1.
          1    1    5    5  503    0  0.24255711667E+03 -0.15265522032E+03  0.44576987373E+03  0.52995127272E+03  0.00000000000E+00 0. -1.
         -2    1    5    5    0  503  0.20056328156E+02 -0.19527119267E+02  0.10553810362E+02  0.29915674807E+02  0.00000000000E+00 0.  1.
         -3    1    6    6    0  502 -0.15553168856E+03 -0.20825445693E+03 -0.21741067242E+03  0.33886195634E+03  0.00000000000E+00 0.  1.
<mgrwt>
<rscale>  0 0.16623805E+04</rscale>
<asrwt>0</asrwt>
<pdfrwt beam="1">  1        1 0.16195533E+00 0.16623805E+04</pdfrwt>
<pdfrwt beam="2">  1       -1 0.10096687E+00 0.16623805E+04</pdfrwt>
<totfact> 0.12259824E+01</totfact>
</mgrwt>
</event>
<event>
12    1  0.1532786E-007  0.1075000E+04  0.7818608E-02  0.9229907E-01
          2   -1    0    0  501    0  0.00000000000E+00  0.00000000000E+00  0.15995990162E+04  0.15995990162E+04  0.00000000000E+00 0. -1.
         -2   -1    0    0    0  501 -0.00000000000E+00 -0.00000000000E+00 -0.18061156578E+03  0.18061156578E+03  0.00000000000E+00 0.  1.
         23    2    1    2    0    0  0.10462262717E+02  0.22964191241E+02  0.25073314151E+01  0.94260885315E+02  0.90785542731E+02 0.  0.
        254    2    1    2    0    0 -0.10462262717E+02 -0.22964191241E+02  0.14164801190E+04  0.16859496966E+04  0.91398776749E+03 0.  0.
        -24    2    4    4    0    0 -0.16928787658E+03  0.34761189142E+03  0.29963234250E+03  0.49586193530E+03  0.81284106672E+02 0.  0.
         24    2    4    4    0    0  0.15882561386E+03 -0.37057608266E+03  0.11168477765E+04  0.11900877613E+04  0.80048205433E+02 0.  0.
         11    1    3    3    0    0 -0.36668411608E-01  0.32612879550E+02 -0.38727484865E+02  0.50630221618E+02  0.00000000000E+00 0.  1.
        -11    1    3    3    0    0  0.10498931128E+02 -0.96486883094E+01  0.41234816280E+02  0.43630663697E+02  0.00000000000E+00 0. -1.
          2    1    6    6  502    0  0.27824855355E+02 -0.13958757655E+02  0.84909400827E+02  0.90436031755E+02  0.00000000000E+00 0. -1.
          1    1    5    5  503    0 -0.10344390980E+02  0.26764547125E+00  0.19817610606E+02  0.22356559417E+02  0.00000000000E+00 0. -1.
         -2    1    5    5    0  503 -0.15894348560E+03  0.34734424595E+03  0.27981473189E+03  0.47350537588E+03  0.00000000000E+00 0.  1.
         -1    1    6    6    0  502  0.13100075850E+03 -0.35661732501E+03  0.10319383757E+04  0.10996517296E+04  0.00000000000E+00 0.  1.
<mgrwt>
<rscale>  0 0.10749997E+04</rscale>
<asrwt>0</asrwt>
<pdfrwt beam="1">  1        2 0.24609215E+00 0.10749997E+04</pdfrwt>
<pdfrwt beam="2">  1       -2 0.27786396E-01 0.10749997E+04</pdfrwt>
<totfact> 0.13110642E+02</totfact>
</mgrwt>
</event>
<event>
12    1  0.1532786E-007  0.1704909E+04  0.7818608E-02  0.8758569E-01
          2   -1    0    0  501    0  0.00000000000E+00  0.00000000000E+00  0.99006582109E+03  0.99006582109E+03  0.00000000000E+00 0. -1.
         -2   -1    0    0    0  501 -0.00000000000E+00 -0.00000000000E+00 -0.73397012210E+03  0.73397012210E+03  0.00000000000E+00 0.  1.
         23    2    1    2    0    0  0.57243046181E+03 -0.17609012254E+03  0.20069158684E+03  0.63807854206E+03  0.90458542703E+02 0.  0.
        254    2    1    2    0    0 -0.57243046181E+03  0.17609012254E+03  0.55404112151E+02  0.10859574011E+04  0.90418443725E+03 0.  0.
        -24    2    4    4    0    0 -0.53867111028E+03 -0.15290161911E+03 -0.25966500041E+03  0.62233109776E+03  0.79527433170E+02 0.  0.
         24    2    4    4    0    0 -0.33759351533E+02  0.32899174165E+03  0.31506911256E+03  0.46362630337E+03  0.79407453020E+02 0.  0.
         13    1    3    3    0    0  0.49364002462E+03 -0.13512116978E+03  0.14028896815E+03  0.53067805590E+03  0.00000000000E+00 0. -1.
        -13    1    3    3    0    0  0.78790437189E+02 -0.40968952765E+02  0.60402618695E+02  0.10740048616E+03  0.00000000000E+00 0.  1.
          4    1    6    6  502    0 -0.36444111587E+02  0.16569706766E+03  0.11315396391E+03  0.20393016219E+03  0.00000000000E+00 0. -1.
          1    1    5    5  503    0 -0.42912283688E+03 -0.15403585145E+03 -0.21360009529E+03  0.50348629909E+03  0.00000000000E+00 0. -1.
         -2    1    5    5    0  503 -0.10954827339E+03  0.11342323364E+01 -0.46064905126E+02  0.11884479867E+03  0.00000000000E+00 0.  1.
         -3    1    6    6    0  502  0.26847600537E+01  0.16329467399E+03  0.20191514865E+03  0.25969614119E+03  0.00000000000E+00 0.  1.
<mgrwt>
<rscale>  0 0.17049091E+04</rscale>
<asrwt>0</asrwt>
<pdfrwt beam="1">  1        2 0.15231782E+00 0.17049091E+04</pdfrwt>
<pdfrwt beam="2">  1       -2 0.11291848E+00 0.17049091E+04</pdfrwt>
<totfact> 0.14992347E+01</totfact>
</mgrwt>
</event>
<event>
12    1  0.1532786E-007  0.2893052E+04  0.7818608E-02  0.8274948E-01
         -2   -1    0    0    0  501 -0.00000000000E+00  0.00000000000E+00  0.22192537717E+04  0.22192537717E+04  0.00000000000E+00 0.  1.
          2   -1    0    0  501    0  0.00000000000E+00 -0.00000000000E+00 -0.94285620761E+03  0.94285620761E+03  0.00000000000E+00 0. -1.
         23    2    1    2    0    0 -0.89077271551E+03  0.60156669821E+03 -0.23353501319E+03  0.11037888985E+04  0.91939148709E+02 0.  0.
        254    2    1    2    0    0  0.89077271551E+03 -0.60156669821E+03  0.15099325772E+04  0.20583210807E+04  0.89522665313E+03 0.  0.
        -24    2    4    4    0    0  0.82325928576E+03 -0.25844521503E+03  0.53344135227E+03  0.10176673815E+04  0.80854451428E+02 0.  0.
         24    2    4    4    0    0  0.67513429746E+02 -0.34312148317E+03  0.97649122496E+03  0.10406536992E+04  0.84466525001E+02 0.  0.
         11    1    3    3    0    0 -0.80933356044E+03  0.52402165447E+03 -0.23029498830E+03  0.99128970944E+03  0.00000000000E+00 0. -1.
        -11    1    3    3    0    0 -0.81439155072E+02  0.77545043735E+02 -0.32400248897E+01  0.11249918910E+03  0.00000000000E+00 0.  1.
          4    1    6    6  502    0  0.45259537206E+02 -0.13738313369E+03  0.29701718543E+03  0.33036609930E+03  0.00000000000E+00 0. -1.
          1    1    5    5  503    0  0.21464248839E+03 -0.60983215206E+02  0.18001681911E+03  0.28669915508E+03  0.00000000000E+00 0. -1.
         -2    1    5    5    0  503  0.60861679737E+03 -0.19746199983E+03  0.35342453316E+03  0.73096822643E+03  0.00000000000E+00 0.  1.
         -3    1    6    6    0  502  0.22253892540E+02 -0.20573834948E+03  0.67947403953E+03  0.71028759990E+03  0.00000000000E+00 0.  1.
<mgrwt>
<rscale>  0 0.28930518E+04</rscale>
<asrwt>0</asrwt>
<pdfrwt beam="1">  1        2 0.14505480E+00 0.28930518E+04</pdfrwt>
<pdfrwt beam="2">  1       -2 0.34142366E+00 0.28930518E+04</pdfrwt>
<totfact> 0.41746059E-01</totfact>
</mgrwt>
</event>
<event>
12    1  0.1532786E-007  0.1766508E+04  0.7818608E-02  0.8724316E-01
         -2   -1    0    0    0  501 -0.00000000000E+00  0.00000000000E+00  0.20287341621E+04  0.20287341621E+04  0.00000000000E+00 0.  1.
          2   -1    0    0  501    0  0.00000000000E+00 -0.00000000000E+00 -0.38454393093E+03  0.38454393093E+03  0.00000000000E+00 0. -1.
         23    2    1    2    0    0 -0.32251188188E+03  0.22270663584E+03 -0.96661768553E+02  0.41379791524E+03  0.90956349751E+02 0.  0.
        254    2    1    2    0    0  0.32251188188E+03 -0.22270663584E+03  0.17408519997E+04  0.19994801778E+04  0.90207712354E+03 0.  0.
        -24    2    4    4    0    0 -0.12531057654E+02 -0.38856267735E+03  0.27045699639E+03  0.48022894266E+03  0.79591889261E+02 0.  0.
         24    2    4    4    0    0  0.33504293953E+03  0.16585604151E+03  0.14703950033E+04  0.15192512351E+04  0.79377904700E+02 0.  0.
         13    1    3    3    0    0 -0.36535155185E+02  0.52123854969E+02 -0.42236191814E+02  0.76391162579E+02  0.00000000000E+00 0.  1.
        -13    1    3    3    0    0 -0.28597672669E+03  0.17058278087E+03 -0.54425576739E+02  0.33740675266E+03  0.00000000000E+00 0. -1.
          2    1    6    6  502    0  0.28143791109E+03  0.11901913773E+03  0.12804394336E+04  0.13163958356E+04  0.00000000000E+00 0. -1.
          1    1    5    5  503    0 -0.33371604439E+02 -0.34763945984E+03  0.22398005488E+03  0.41489025417E+03  0.00000000000E+00 0. -1.
         -2    1    5    5    0  503  0.20840546785E+02 -0.40923217514E+02  0.46476941506E+02  0.65338688491E+02  0.00000000000E+00 0.  1.
         -1    1    6    6    0  502  0.53605028445E+02  0.46836903783E+02  0.18995556972E+03  0.20285539948E+03  0.00000000000E+00 0.  1.
<mgrwt>
<rscale>  0 0.17665078E+04</rscale>
<asrwt>0</asrwt>
<pdfrwt beam="1">  1        2 0.59160606E-01 0.17665078E+04</pdfrwt>
<pdfrwt beam="2">  1       -2 0.31211294E+00 0.17665078E+04</pdfrwt>
<totfact> 0.21126418E+00</totfact>
</mgrwt>
</event>
<event>
12    1  0.1532786E-007  0.1767148E+04  0.7818608E-02  0.8723968E-01
         -2   -1    0    0    0  501 -0.00000000000E+00  0.00000000000E+00  0.38655058268E+03  0.38655058268E+03  0.00000000000E+00 0.  1.
          2   -1    0    0  501    0  0.00000000000E+00 -0.00000000000E+00 -0.20196655728E+04  0.20196655728E+04  0.00000000000E+00 0. -1.
         23    2    1    2    0    0  0.16177293160E+03  0.50716238999E+03 -0.25441477701E+03  0.59679534440E+03  0.89742036519E+02 0.  0.
        254    2    1    2    0    0 -0.16177293160E+03 -0.50716238999E+03 -0.13787002131E+04  0.18094208111E+04  0.10439373653E+04 0.  0.
        -24    2    4    4    0    0 -0.27418795232E+03 -0.75862901316E+03 -0.69286478637E+03  0.10663342075E+04  0.79435615579E+02 0.  0.
         24    2    4    4    0    0  0.11241502072E+03  0.25146662317E+03 -0.68583542674E+03  0.74308660361E+03  0.77038097368E+02 0.  0.
         11    1    3    3    0    0  0.54179972598E+01  0.61636678708E+00  0.42639396720E+01  0.69221227849E+01  0.00000000000E+00 0. -1.
        -11    1    3    3    0    0  0.15635493434E+03  0.50654602320E+03 -0.25867871668E+03  0.58987322161E+03  0.00000000000E+00 0.  1.
          2    1    6    6  502    0  0.12379670006E+03  0.23884384250E+03 -0.64424132747E+03  0.69815391718E+03  0.00000000000E+00 0. -1.
          1    1    5    5  503    0 -0.27391302623E+03 -0.74754435971E+03 -0.69259406375E+03  0.10552428407E+04  0.00000000000E+00 0. -1.
         -2    1    5    5    0  503 -0.27492608604E+00 -0.11084653447E+02 -0.27072262163E+00  0.11091366783E+02  0.00000000000E+00 0.  1.
         -1    1    6    6    0  502 -0.11381679342E+02  0.12622780669E+02 -0.41594099266E+02  0.44932686435E+02  0.00000000000E+00 0.  1.
<mgrwt>
<rscale>  0 0.17671479E+04</rscale>
<asrwt>0</asrwt>
<pdfrwt beam="1">  1        2 0.31071778E+00 0.17671479E+04</pdfrwt>
<pdfrwt beam="2">  1       -2 0.59469320E-01 0.17671479E+04</pdfrwt>
<totfact> 0.16274838E+01</totfact>
</mgrwt>
</event>
<event>
12    1  0.1532786E-007  0.1473568E+04  0.7818608E-02  0.8902223E-01
         -1   -1    0    0    0  501 -0.00000000000E+00  0.00000000000E+00  0.41348795021E+03  0.41348795021E+03  0.00000000000E+00 0.  1.
          1   -1    0    0  501    0  0.00000000000E+00 -0.00000000000E+00 -0.13128575049E+04  0.13128575049E+04  0.00000000000E+00 0. -1.
         23    2    1    2    0    0  0.10932911099E+03 -0.60286228299E+02  0.22575213644E+03  0.27617081369E+03  0.98585026208E+02 0.  0.
        254    2    1    2    0    0 -0.10932911099E+03  0.60286228299E+02 -0.11251216912E+04  0.14501746415E+04  0.90637761829E+03 0.  0.
        -24    2    4    4    0    0 -0.96506362250E+02 -0.40061346628E+03 -0.35839754700E+03  0.55180151280E+03  0.78939727059E+02 0.  0.
         24    2    4    4    0    0 -0.12822748736E+02  0.46089969458E+03 -0.76672414418E+03  0.89837312866E+03  0.81335193369E+02 0.  0.
         11    1    3    3    0    0  0.19008910097E+02 -0.25972785819E+02  0.17656773794E+01  0.32234172595E+02  0.00000000000E+00 0. -1.
        -11    1    3    3    0    0  0.90320200889E+02 -0.34313442480E+02  0.22398645906E+03  0.24393664109E+03  0.00000000000E+00 0.  1.
          2    1    6    6  502    0 -0.20248406968E+02  0.24622177513E+03 -0.33592567446E+03  0.41699067051E+03  0.00000000000E+00 0. -1.
          3    1    5    5  503    0 -0.21618309802E+02 -0.22094459546E+03 -0.22319861256E+03  0.31480388535E+03  0.00000000000E+00 0. -1.
         -4    1    5    5    0  503 -0.74888052449E+02 -0.17966887083E+03 -0.13519893443E+03  0.23699762745E+03  0.00000000000E+00 0.  1.
         -1    1    6    6    0  502  0.74256582318E+01  0.21467791945E+03 -0.43079846972E+03  0.48138245815E+03  0.00000000000E+00 0.  1.
<mgrwt>
<rscale>  0 0.14735681E+04</rscale>
<asrwt>0</asrwt>
<pdfrwt beam="1">  1        1 0.20197807E+00 0.14735681E+04</pdfrwt>
<pdfrwt beam="2">  1       -1 0.63613532E-01 0.14735681E+04</pdfrwt>
<totfact> 0.21516023E+01</totfact>
</mgrwt>
</event>
<event>
12    1  0.1532786E-007  0.1989978E+04  0.7818608E-02  0.8611321E-01
         -2   -1    0    0    0  501 -0.00000000000E+00  0.00000000000E+00  0.12306556405E+04  0.12306556405E+04  0.00000000000E+00 0.  1.
          2   -1    0    0  501    0  0.00000000000E+00 -0.00000000000E+00 -0.80445156537E+03  0.80445156537E+03  0.00000000000E+00 0. -1.
         23    2    1    2    0    0  0.31763839185E+03  0.55634047529E+03 -0.29696727417E+03  0.71217763809E+03  0.92728387488E+02 0.  0.
        254    2    1    2    0    0 -0.31763839185E+03 -0.55634047529E+03  0.72317134927E+03  0.13229295678E+04  0.90374607519E+03 0.  0.
        -24    2    4    4    0    0  0.24187835273E+03 -0.40100341281E+03  0.13825616903E+03  0.49513034000E+03  0.82039080387E+02 0.  0.
         24    2    4    4    0    0 -0.55951674458E+03 -0.15533706247E+03  0.58491518024E+03  0.82779922775E+03  0.77053247488E+02 0.  0.
         13    1    3    3    0    0  0.15322111841E+03  0.35098155666E+03 -0.19784570922E+03  0.43105416005E+03  0.00000000000E+00 0. -1.
        -13    1    3    3    0    0  0.16441727344E+03  0.20535891863E+03 -0.99121564952E+02  0.28112347804E+03  0.00000000000E+00 0.  1.
          2    1    6    6  502    0 -0.33765464552E+03 -0.79183089022E+02  0.29845949691E+03  0.45755731064E+03  0.00000000000E+00 0. -1.
          1    1    5    5  503    0  0.23679448480E+03 -0.40374322801E+03  0.13137673570E+03  0.48614819642E+03  0.00000000000E+00 0. -1.
         -2    1    5    5    0  503  0.50838679359E+01  0.27398152012E+01  0.68794333249E+01  0.89821435860E+01  0.00000000000E+00 0.  1.
         -1    1    6    6    0  502 -0.22186209907E+03 -0.76153973452E+02  0.28645568333E+03  0.37024191711E+03  0.00000000000E+00 0.  1.
<mgrwt>
<rscale>  0 0.19899777E+04</rscale>
<asrwt>0</asrwt>
<pdfrwt beam="1">  1        2 0.12376178E+00 0.19899777E+04</pdfrwt>
<pdfrwt beam="2">  1       -2 0.18933164E+00 0.19899777E+04</pdfrwt>
<totfact> 0.49764745E+00</totfact>
</mgrwt>
</event>
<event>
12    1  0.1532786E-007  0.1051644E+04  0.7818608E-02  0.9253649E-01
         -2   -1    0    0    0  501 -0.00000000000E+00  0.00000000000E+00  0.13385740582E+03  0.13385740582E+03  0.00000000000E+00 0.  1.
          2   -1    0    0  501    0  0.00000000000E+00 -0.00000000000E+00 -0.20655454058E+04  0.20655454058E+04  0.00000000000E+00 0. -1.
         23    2    1    2    0    0  0.32595585533E+02 -0.24857357123E+02 -0.50970273121E+02  0.11215768742E+03  0.91109921012E+02 0.  0.
        254    2    1    2    0    0 -0.32595585533E+02  0.24857357123E+02 -0.18807177269E+04  0.20872451242E+04  0.90432996189E+03 0.  0.
        -24    2    4    4    0    0 -0.44701793176E+03  0.12598977425E+03 -0.97267406912E+03  0.10808505774E+04  0.80278710641E+02 0.  0.
         24    2    4    4    0    0  0.41442234623E+03 -0.10113241712E+03 -0.90804365779E+03  0.10063945468E+04  0.79454720622E+02 0.  0.
         13    1    3    3    0    0  0.75950392800E+01 -0.39042970083E+02  0.13147466173E+02  0.41891454991E+02  0.00000000000E+00 0.  1.
        -13    1    3    3    0    0  0.25000546253E+02  0.14185612960E+02 -0.64117739294E+02  0.70266232432E+02  0.00000000000E+00 0. -1.
          2    1    6    6  502    0  0.16315462215E+03 -0.55651172007E+02 -0.28535607466E+03  0.33338352242E+03  0.00000000000E+00 0. -1.
          1    1    5    5  503    0 -0.52905477960E+02  0.20067390708E+02 -0.68519761953E+02  0.88863083146E+02  0.00000000000E+00 0. -1.
         -2    1    5    5    0  503 -0.39411245380E+03  0.10592238354E+03 -0.90415430717E+03  0.99198749425E+03  0.00000000000E+00 0.  1.
         -1    1    6    6    0  502  0.25126772408E+03 -0.45481245118E+02 -0.62268758313E+03  0.67301102443E+03  0.00000000000E+00 0.  1.
<mgrwt>
<rscale>  0 0.10516436E+04</rscale>
<asrwt>0</asrwt>
<pdfrwt beam="1">  1        2 0.31777620E+00 0.10516436E+04</pdfrwt>
<pdfrwt beam="2">  1       -2 0.20593448E-01 0.10516436E+04</pdfrwt>
<totfact> 0.12458882E+02</totfact>
</mgrwt>
</event>
<event>
12    1  0.1532786E-007  0.1307965E+04  0.7818608E-02  0.9023273E-01
         -1   -1    0    0    0  501 -0.00000000000E+00  0.00000000000E+00  0.36533296618E+03  0.36533296618E+03  0.00000000000E+00 0.  1.
          1   -1    0    0  501    0  0.00000000000E+00 -0.00000000000E+00 -0.11706933043E+04  0.11706933043E+04  0.00000000000E+00 0. -1.
         23    2    1    2    0    0 -0.10134099301E+03 -0.30080263748E+03 -0.34036597244E+03  0.47350637954E+03  0.87218534109E+02 0.  0.
        254    2    1    2    0    0  0.10134099301E+03  0.30080263748E+03 -0.46499436573E+03  0.10625198910E+04  0.90109740594E+03 0.  0.
        -24    2    4    4    0    0  0.15765209531E+03  0.23751211086E+02  0.23938647107E+03  0.29876349839E+03  0.80842082219E+02 0.  0.
         24    2    4    4    0    0 -0.56311102293E+02  0.27705142640E+03 -0.70438083680E+03  0.76375639259E+03  0.85105997839E+02 0.  0.
         11    1    3    3    0    0 -0.18731660808E+02 -0.90804772906E+02 -0.48680727590E+02  0.10471960245E+03  0.00000000000E+00 0. -1.
        -11    1    3    3    0    0 -0.82609332207E+02 -0.20999786458E+03 -0.29168524485E+03  0.36878677709E+03  0.00000000000E+00 0.  1.
          2    1    6    6  502    0 -0.27285913920E+02  0.21448950714E+03 -0.43617529604E+03  0.48682559366E+03  0.00000000000E+00 0. -1.
          3    1    5    5  503    0  0.33772362748E+02 -0.36493039043E+01  0.11940339179E+03  0.12414128997E+03  0.00000000000E+00 0. -1.
         -4    1    5    5    0  503  0.12387973256E+03  0.27400514991E+02  0.11998307928E+03  0.17462220842E+03  0.00000000000E+00 0.  1.
         -1    1    6    6    0  502 -0.29025188373E+02  0.62561919255E+02 -0.26820554076E+03  0.27693079893E+03  0.00000000000E+00 0.  1.
<mgrwt>
<rscale>  0 0.13079646E+04</rscale>
<asrwt>0</asrwt>
<pdfrwt beam="1">  1        1 0.18010666E+00 0.13079646E+04</pdfrwt>
<pdfrwt beam="2">  1       -1 0.56205072E-01 0.13079646E+04</pdfrwt>
<totfact> 0.35313269E+01</totfact>
</mgrwt>
</event>
<event>
12    1  0.1532786E-007  0.1531514E+04  0.7818608E-02  0.8863763E-01
          2   -1    0    0  501    0  0.00000000000E+00  0.00000000000E+00  0.29172828858E+04  0.29172828858E+04  0.00000000000E+00 0. -1.
         -2   -1    0    0    0  501 -0.00000000000E+00 -0.00000000000E+00 -0.20100328611E+03  0.20100328611E+03  0.00000000000E+00 0.  1.
         23    2    1    2    0    0  0.16260438053E+03  0.37562947123E+02  0.18347121047E+04  0.18445236308E+04  0.90817167739E+02 0.  0.
        254    2    1    2    0    0 -0.16260438053E+03 -0.37562947123E+02  0.88156749498E+03  0.12737625411E+04  0.90413417328E+03 0.  0.
        -24    2    4    4    0    0 -0.50509268995E+03 -0.62837854374E+02  0.72006376348E+03  0.88540692368E+03  0.79914802349E+02 0.  0.
         24    2    4    4    0    0  0.34248830942E+03  0.25274907251E+02  0.16150373150E+03  0.38835561741E+03  0.82459488577E+02 0.  0.
         13    1    3    3    0    0  0.45795002874E+02  0.39215690831E+02  0.98164935050E+03  0.98349911034E+03  0.00000000000E+00 0. -1.
        -13    1    3    3    0    0  0.11680937766E+03 -0.16527437077E+01  0.85306275421E+03  0.86102452049E+03  0.00000000000E+00 0.  1.
          2    1    6    6  502    0  0.31960129865E+03  0.37339590522E+02  0.12865588779E+03  0.34654230994E+03  0.00000000000E+00 0. -1.
          1    1    5    5  503    0 -0.18769815110E+03 -0.40222276628E+02  0.21265900978E+03  0.28648260315E+03  0.00000000000E+00 0. -1.
         -2    1    5    5    0  503 -0.31739453885E+03 -0.22615577746E+02  0.50740475370E+03  0.59892432053E+03  0.00000000000E+00 0.  1.
         -1    1    6    6    0  502  0.22887010772E+02 -0.12064683272E+02  0.32847843711E+02  0.41813307463E+02  0.00000000000E+00 0.  1.
<mgrwt>
<rscale>  0 0.15315136E+04</rscale>
<asrwt>0</asrwt>
<pdfrwt beam="1">  1        2 0.44881272E+00 0.15315136E+04</pdfrwt>
<pdfrwt beam="2">  1       -2 0.30923585E-01 0.15315136E+04</pdfrwt>
<totfact> 0.18417215E+01</totfact>
</mgrwt>
</event>
<event>
12    1  0.1532786E-007  0.1358262E+04  0.7818608E-02  0.8984598E-01
          2   -1    0    0  501    0  0.00000000000E+00  0.00000000000E+00  0.39255208584E+03  0.39255208584E+03  0.00000000000E+00 0. -1.
         -2   -1    0    0    0  501 -0.00000000000E+00 -0.00000000000E+00 -0.11749236697E+04  0.11749236697E+04  0.00000000000E+00 0.  1.
         23    2    1    2    0    0 -0.25517718725E+03 -0.20703809547E+03  0.19407302567E+02  0.34172873100E+03  0.91769887936E+02 0.  0.
        254    2    1    2    0    0  0.25517718725E+03  0.20703809547E+03 -0.80177888640E+03  0.12257470245E+04  0.86696379137E+03 0.  0.
        -24    2    4    4    0    0 -0.23388983031E+03  0.33078281131E+03 -0.41136861934E+03  0.58282825758E+03  0.79642425100E+02 0.  0.
         24    2    4    4    0    0  0.48906701756E+03 -0.12374471584E+03 -0.39041026706E+03  0.64291876693E+03  0.80156483700E+02 0.  0.
         11    1    3    3    0    0 -0.20416556201E+03 -0.17693201844E+03  0.50481107151E+02  0.27483969517E+03  0.00000000000E+00 0. -1.
        -11    1    3    3    0    0 -0.51011625241E+02 -0.30106077026E+02 -0.31073804584E+02  0.66889035835E+02  0.00000000000E+00 0.  1.
          2    1    6    6  502    0  0.33389428000E+03 -0.77682454201E+02 -0.21708940768E+03  0.40576811707E+03  0.00000000000E+00 0. -1.
          3    1    5    5  503    0  0.58897093746E+01  0.66708282027E+01 -0.42424645872E+01  0.98583533716E+01  0.00000000000E+00 0. -1.
         -4    1    5    5    0  503 -0.23977953968E+03  0.32411198311E+03 -0.40712615475E+03  0.57296990421E+03  0.00000000000E+00 0.  1.
         -1    1    6    6    0  502  0.15517273756E+03 -0.46062261642E+02 -0.17332085939E+03  0.23715064986E+03  0.00000000000E+00 0.  1.
<mgrwt>
<rscale>  0 0.13582617E+04</rscale>
<asrwt>0</asrwt>
<pdfrwt beam="1">  1        2 0.60392629E-01 0.13582617E+04</pdfrwt>
<pdfrwt beam="2">  1       -2 0.18075749E+00 0.13582617E+04</pdfrwt>
<totfact> 0.14189004E+01</totfact>
</mgrwt>
</event>
<event>
12    1  0.1532786E-007  0.1923953E+04  0.7818608E-02  0.8643024E-01
         -1   -1    0    0    0  501 -0.00000000000E+00  0.00000000000E+00  0.20971632933E+04  0.20971632933E+04  0.00000000000E+00 0.  1.
          1   -1    0    0  501    0  0.00000000000E+00 -0.00000000000E+00 -0.44126214261E+03  0.44126214261E+03  0.00000000000E+00 0. -1.
         23    2    1    2    0    0 -0.15868344243E+02 -0.60469323517E+03  0.91796940813E+03  0.11029977605E+04  0.89613125911E+02 0.  0.
        254    2    1    2    0    0  0.15868344243E+02  0.60469323517E+03  0.73793174255E+03  0.14354276754E+04  0.10723822274E+04 0.  0.
        -24    2    4    4    0    0  0.73442941473E+02  0.32858554610E+03 -0.23564869126E+03  0.41867775802E+03  0.79990203230E+02 0.  0.
         24    2    4    4    0    0 -0.57574597231E+02  0.27610768907E+03  0.97358043381E+03  0.10167499174E+04  0.79820067926E+02 0.  0.
         11    1    3    3    0    0 -0.44310240277E+01 -0.58873492408E+03  0.86363017370E+03  0.10452203221E+04  0.00000000000E+00 0. -1.
        -11    1    3    3    0    0 -0.11437320215E+02 -0.15958311093E+02  0.54339234433E+02  0.57777438377E+02  0.00000000000E+00 0.  1.
          4    1    6    6  502    0 -0.51771608271E+02  0.27916511597E+03  0.92124583865E+03  0.96400589035E+03  0.00000000000E+00 0. -1.
          3    1    5    5  503    0  0.41767025229E+02  0.28140196610E+03 -0.16823708927E+03  0.33050759314E+03  0.00000000000E+00 0. -1.
         -2    1    5    5    0  503  0.31675916245E+02  0.47183579998E+02 -0.67411601988E+02  0.88170164874E+02  0.00000000000E+00 0.  1.
         -3    1    6    6    0  502 -0.58029889595E+01 -0.30574268952E+01  0.52334595162E+02  0.52744027063E+02  0.00000000000E+00 0.  1.
<mgrwt>
<rscale>  0 0.19239530E+04</rscale>
<asrwt>0</asrwt>
<pdfrwt beam="1">  1        1 0.67886485E-01 0.19239530E+04</pdfrwt>
<pdfrwt beam="2">  1       -1 0.32264050E+00 0.19239530E+04</pdfrwt>
<totfact> 0.11563853E+00</totfact>
</mgrwt>
</event>
<event>
12    1  0.1665364E-007  0.3869440E+04  0.7818608E-02  0.8031415E-01
          2   -1    0    0  501    0  0.00000000000E+00  0.00000000000E+00  0.24020277657E+04  0.24020277657E+04  0.00000000000E+00 0. -1.
         -2   -1    0    0    0  501 -0.00000000000E+00 -0.00000000000E+00 -0.15583254597E+04  0.15583254597E+04  0.00000000000E+00 0.  1.
         23    2    1    2    0    0  0.56888650118E+01 -0.15547059034E+04 -0.58627161338E+03  0.16641072584E+04  0.91628345035E+02 0.  0.
        254    2    1    2    0    0 -0.56888650118E+01  0.15547059034E+04  0.14299739194E+04  0.22962459669E+04  0.90043174150E+03 0.  0.
        -24    2    4    4    0    0 -0.90418939685E+02 -0.76570262390E+02  0.36896364999E+02  0.14819846060E+03  0.81011432769E+02 0.  0.
         24    2    4    4    0    0  0.84730074673E+02  0.16312761658E+04  0.13930775544E+04  0.21480475063E+04  0.72124212958E+02 0.  0.
         13    1    3    3    0    0 -0.90319581487E+01 -0.18157058975E+03 -0.99000956350E+02  0.20700397264E+03  0.00000000000E+00 0. -1.
        -13    1    3    3    0    0  0.14720823161E+02 -0.13731353137E+04 -0.48727065703E+03  0.14571032858E+04  0.00000000000E+00 0.  1.
          2    1    6    6  502    0  0.70430323981E+01  0.10986483392E+03  0.71295789859E+02  0.13116011471E+03  0.00000000000E+00 0. -1.
          1    1    5    5  503    0 -0.15708084379E+02  0.74884791233E+01  0.31039334211E+02  0.35584568322E+02  0.00000000000E+00 0. -1.
         -2    1    5    5    0  503 -0.74710855306E+02 -0.84058741513E+02  0.58570307886E+01  0.11261389228E+03  0.00000000000E+00 0.  1.
         -1    1    6    6    0  502  0.77687042275E+02  0.15214113319E+04  0.13217817646E+04  0.20168873916E+04  0.00000000000E+00 0.  1.
<mgrwt>
<rscale>  0 0.38694398E+04</rscale>
<asrwt>0</asrwt>
<pdfrwt beam="1">  1        2 0.36954273E+00 0.38694398E+04</pdfrwt>
<pdfrwt beam="2">  1       -2 0.23974238E+00 0.38694398E+04</pdfrwt>
<totfact> 0.23502642E-01</totfact>
</mgrwt>
</event>
<event>
12    1  0.1532786E-007  0.2557680E+04  0.7818608E-02  0.8382720E-01
          2   -1    0    0  501    0  0.00000000000E+00  0.00000000000E+00  0.19946080049E+04  0.19946080049E+04  0.00000000000E+00 0. -1.
         -2   -1    0    0    0  501 -0.00000000000E+00 -0.00000000000E+00 -0.81992609601E+03  0.81992609601E+03  0.00000000000E+00 0.  1.
         23    2    1    2    0    0 -0.98160096152E+03  0.47478297242E+03  0.23581950116E+03  0.11198063821E+04  0.96933882761E+02 0.  0.
        254    2    1    2    0    0  0.98160096152E+03 -0.47478297242E+03  0.93886240777E+03  0.16947277189E+04  0.89536590392E+03 0.  0.
        -24    2    4    4    0    0  0.10246905050E+04 -0.47230257501E+03  0.10557604455E+04  0.15472959462E+04  0.80213923017E+02 0.  0.
         24    2    4    4    0    0 -0.43089543447E+02 -0.24803974094E+01 -0.11689803777E+03  0.14743177269E+03  0.78791593705E+02 0.  0.
         13    1    3    3    0    0 -0.85702017384E+03  0.43478994677E+03  0.23340805461E+03  0.98894145233E+03  0.00000000000E+00 0. -1.
        -13    1    3    3    0    0 -0.12458078768E+03  0.39993025647E+02  0.24114465494E+01  0.13086492973E+03  0.00000000000E+00 0.  1.
          2    1    6    6  502    0 -0.54861270066E+02  0.19294118304E+02 -0.52147902053E+02  0.78111622969E+02  0.00000000000E+00 0. -1.
          1    1    5    5  503    0  0.87084869224E+03 -0.36914910017E+03  0.87669922123E+03  0.12896705112E+04  0.00000000000E+00 0. -1.
         -2    1    5    5    0  503  0.15384181272E+03 -0.10315347483E+03  0.17906122431E+03  0.25762543501E+03  0.00000000000E+00 0.  1.
         -1    1    6    6    0  502  0.11771726619E+02 -0.21774515714E+02 -0.64750135715E+02  0.69320149721E+02  0.00000000000E+00 0.  1.
<mgrwt>
<rscale>  0 0.25576795E+04</rscale>
<asrwt>0</asrwt>
<pdfrwt beam="1">  1        2 0.30686277E+00 0.25576795E+04</pdfrwt>
<pdfrwt beam="2">  1       -2 0.12614248E+00 0.25576795E+04</pdfrwt>
<totfact> 0.27986254E+00</totfact>
</mgrwt>
</event>
<event>
12    1  0.1532786E-007  0.2387222E+04  0.7818608E-02  0.8444303E-01
          1   -1    0    0  501    0  0.00000000000E+00  0.00000000000E+00  0.11971518794E+04  0.11971518794E+04  0.00000000000E+00 0. -1.
         -1   -1    0    0    0  501 -0.00000000000E+00 -0.00000000000E+00 -0.11900807363E+04  0.11900807363E+04  0.00000000000E+00 0.  1.
         23    2    1    2    0    0  0.27121182524E+03  0.64766834418E+02 -0.94887074964E+03  0.99308918903E+03  0.90110159459E+02 0.  0.
        254    2    1    2    0    0 -0.27121182524E+03 -0.64766834418E+02  0.95594189279E+03  0.13941434267E+04  0.97573582225E+03 0.  0.
        -24    2    4    4    0    0  0.13452245910E+03 -0.17490576101E+03 -0.10150567530E+03  0.25301499030E+03  0.70886288957E+02 0.  0.
         24    2    4    4    0    0 -0.40573428434E+03  0.11013892659E+03  0.10574475681E+04  0.11411284364E+04  0.85016800962E+02 0.  0.
         11    1    3    3    0    0  0.37856218156E+02  0.33138629849E+02 -0.97039096499E+02  0.10930621341E+03  0.00000000000E+00 0. -1.
        -11    1    3    3    0    0  0.23335560708E+03  0.31628204569E+02 -0.85183165315E+03  0.88378297561E+03  0.00000000000E+00 0.  1.
          2    1    6    6  502    0 -0.20284399473E+03  0.80857355416E+02  0.63659611244E+03  0.67300684135E+03  0.00000000000E+00 0. -1.
          1    1    5    5  503    0  0.10238287778E+03 -0.17086339718E+03 -0.83804567463E+02  0.21610127183E+03  0.00000000000E+00 0. -1.
         -2    1    5    5    0  503  0.32139581321E+02 -0.40423638297E+01 -0.17701107839E+02  0.36913718474E+02  0.00000000000E+00 0.  1.
         -1    1    6    6    0  502 -0.20289028961E+03  0.29281571171E+02  0.42085145566E+03  0.46812159505E+03  0.00000000000E+00 0.  1.
<mgrwt>
<rscale>  0 0.23872221E+04</rscale>
<asrwt>0</asrwt>
<pdfrwt beam="1">  1        1 0.18417721E+00 0.23872221E+04</pdfrwt>
<pdfrwt beam="2">  1       -1 0.18308934E+00 0.23872221E+04</pdfrwt>
<totfact> 0.19050990E+00</totfact>
</mgrwt>
</event>
<event>
12    1  0.1532786E-007  0.1082200E+04  0.7818608E-02  0.9222717E-01
          1   -1    0    0  501    0  0.00000000000E+00  0.00000000000E+00  0.18540952154E+04  0.18540952154E+04  0.00000000000E+00 0. -1.
         -1   -1    0    0    0  501 -0.00000000000E+00 -0.00000000000E+00 -0.15791480313E+03  0.15791480313E+03  0.00000000000E+00 0.  1.
         23    2    1    2    0    0  0.36436847494E+02 -0.63397343324E+02  0.52472558079E+03  0.53749219811E+03  0.90631456422E+02 0.  0.
        254    2    1    2    0    0 -0.36436847494E+02  0.63397343324E+02  0.11714548315E+04  0.14745178204E+04  0.89249622606E+03 0.  0.
        -24    2    4    4    0    0  0.14284781953E+03  0.40497722149E+03  0.88513283528E+03  0.98710889925E+03  0.80695683919E+02 0.  0.
         24    2    4    4    0    0 -0.17928466703E+03 -0.34157987816E+03  0.28632199617E+03  0.48740892115E+03  0.82264001429E+02 0.  0.
         13    1    3    3    0    0  0.49772924574E+01 -0.75239904198E+02  0.43868463477E+03  0.44511799043E+03  0.00000000000E+00 0. -1.
        -13    1    3    3    0    0  0.31459555036E+02  0.11842560874E+02  0.86040946024E+02  0.92374207677E+02  0.00000000000E+00 0.  1.
          4    1    6    6  502    0 -0.15095153623E+03 -0.32232348286E+03  0.23794827572E+03  0.42813336218E+03  0.00000000000E+00 0. -1.
          3    1    5    5  503    0  0.11297946257E+03  0.20594373685E+03  0.50611286027E+03  0.55796721144E+03  0.00000000000E+00 0. -1.
         -4    1    5    5    0  503  0.29868356967E+02  0.19903348464E+03  0.37901997502E+03  0.42914168781E+03  0.00000000000E+00 0.  1.
         -3    1    6    6    0  502 -0.28333130800E+02 -0.19256395298E+02  0.48373720457E+02  0.59275558974E+02  0.00000000000E+00 0.  1.
<mgrwt>
<rscale>  0 0.10821998E+04</rscale>
<asrwt>0</asrwt>
<pdfrwt beam="1">  1        1 0.28524540E+00 0.10821998E+04</pdfrwt>
<pdfrwt beam="2">  1       -1 0.24294586E-01 0.10821998E+04</pdfrwt>
<totfact> 0.55044187E+01</totfact>
</mgrwt>
</event>
<event>
12    1  0.1532786E-007  0.2863797E+04  0.7818608E-02  0.8283731E-01
         -1   -1    0    0    0  501 -0.00000000000E+00  0.00000000000E+00  0.13828561145E+04  0.13828561145E+04  0.00000000000E+00 0.  1.
          1   -1    0    0  501    0  0.00000000000E+00 -0.00000000000E+00 -0.14826801599E+04  0.14826801599E+04  0.00000000000E+00 0. -1.
         23    2    1    2    0    0  0.10286270855E+04  0.54875790165E+03  0.49583216049E+03  0.12701656367E+04  0.90897181537E+02 0.  0.
        254    2    1    2    0    0 -0.10286270855E+04 -0.54875790165E+03 -0.59565620588E+03  0.15953706378E+04  0.91169745027E+03 0.  0.
        -24    2    4    4    0    0 -0.47099490990E+03 -0.42937463915E+03  0.14398042934E+03  0.65821573829E+03  0.79490931541E+02 0.  0.
         24    2    4    4    0    0 -0.55763217556E+03 -0.11938326250E+03 -0.73963663522E+03  0.93715489953E+03  0.77401207755E+02 0.  0.
         13    1    3    3    0    0  0.45386290219E+02  0.47105633828E+02  0.23016083423E+02  0.69344042097E+02  0.00000000000E+00 0. -1.
        -13    1    3    3    0    0  0.98324079525E+03  0.50165226782E+03  0.47281607706E+03  0.12008215946E+04  0.00000000000E+00 0.  1.
          2    1    6    6  502    0 -0.19739115679E+03 -0.16417553766E+02 -0.30048382170E+03  0.35989350085E+03  0.00000000000E+00 0. -1.
          1    1    5    5  503    0 -0.18131594543E+03 -0.17788837540E+03  0.18832346461E+02  0.25470454147E+03  0.00000000000E+00 0. -1.
         -2    1    5    5    0  503 -0.28967896447E+03 -0.25148626375E+03  0.12514808288E+03  0.40351119682E+03  0.00000000000E+00 0.  1.
         -1    1    6    6    0  502 -0.36024101877E+03 -0.10296570873E+03 -0.43915281352E+03  0.57726139867E+03  0.00000000000E+00 0.  1.
<mgrwt>
<rscale>  0 0.28637970E+04</rscale>
<asrwt>0</asrwt>
<pdfrwt beam="1">  1        1 0.22810464E+00 0.28637970E+04</pdfrwt>
<pdfrwt beam="2">  1       -1 0.21274709E+00 0.28637970E+04</pdfrwt>
<totfact> 0.71320650E-01</totfact>
</mgrwt>
</event>
<event>
12    1  0.1532786E-007  0.1895106E+04  0.7818608E-02  0.8657296E-01
         -1   -1    0    0    0  501 -0.00000000000E+00  0.00000000000E+00  0.16879043341E+04  0.16879043341E+04  0.00000000000E+00 0.  1.
          1   -1    0    0  501    0  0.00000000000E+00 -0.00000000000E+00 -0.53193576059E+03  0.53193576059E+03  0.00000000000E+00 0. -1.
         23    2    1    2    0    0 -0.47293514148E+03  0.46572862013E+03  0.77714176142E+02  0.67434434431E+03  0.90166545224E+02 0.  0.
        254    2    1    2    0    0  0.47293514148E+03 -0.46572862013E+03  0.10782543974E+04  0.15454957504E+04  0.88620188068E+03 0.  0.
        -24    2    4    4    0    0  0.50419714499E+03 -0.53158312709E+03  0.11812943312E+04  0.13924270567E+04  0.81249179082E+02 0.  0.
         24    2    4    4    0    0 -0.31262003513E+02  0.65854506956E+02 -0.10303993385E+03  0.15306869372E+03  0.86594850193E+02 0.  0.
         11    1    3    3    0    0 -0.47302427321E+03  0.46471694177E+03  0.83611963473E+02  0.66835975302E+03  0.00000000000E+00 0. -1.
        -11    1    3    3    0    0  0.89131733212E-01  0.10116783607E+01 -0.58977873315E+01  0.59845912959E+01  0.00000000000E+00 0.  1.
          4    1    6    6  502    0  0.22581019165E+02  0.49015725044E+02 -0.33484618882E+02  0.63511128393E+02  0.00000000000E+00 0. -1.
          1    1    5    5  503    0  0.47459974121E+03 -0.50854476229E+03  0.10822377906E+04  0.12865074135E+04  0.00000000000E+00 0. -1.
         -2    1    5    5    0  503  0.29597403787E+02 -0.23038364801E+02  0.99056540676E+02  0.10591964319E+03  0.00000000000E+00 0.  1.
         -3    1    6    6    0  502 -0.53843022678E+02  0.16838781912E+02 -0.69555314968E+02  0.89557565329E+02  0.00000000000E+00 0.  1.
<mgrwt>
<rscale>  0 0.18951060E+04</rscale>
<asrwt>0</asrwt>
<pdfrwt beam="1">  1        1 0.81836272E-01 0.18951060E+04</pdfrwt>
<pdfrwt beam="2">  1       -1 0.25967759E+00 0.18951060E+04</pdfrwt>
<totfact> 0.22949585E+00</totfact>
</mgrwt>
</event>
<event>
12    1  0.1532786E-007  0.1532839E+04  0.7818608E-02  0.8862904E-01
          2   -1    0    0  501    0  0.00000000000E+00  0.00000000000E+00  0.77097921202E+03  0.77097921202E+03  0.00000000000E+00 0. -1.
         -2   -1    0    0    0  501 -0.00000000000E+00 -0.00000000000E+00 -0.76188705590E+03  0.76188705590E+03  0.00000000000E+00 0.  1.
         23    2    1    2    0    0 -0.35326787286E+03  0.88753298965E+02  0.34437640725E+03  0.50947691763E+03  0.91083926450E+02 0.  0.
        254    2    1    2    0    0  0.35326787286E+03 -0.88753298965E+02 -0.33528425113E+03  0.10233893503E+04  0.89567566404E+03 0.  0.
        -24    2    4    4    0    0  0.20544775706E+03  0.10462698139E+03 -0.60448081968E+03  0.65186926359E+03  0.79880469045E+02 0.  0.
         24    2    4    4    0    0  0.14782011580E+03 -0.19338028035E+03  0.26919656855E+03  0.37152008670E+03  0.79458560515E+02 0.  0.
         11    1    3    3    0    0 -0.32766203414E+03  0.10422091383E+03  0.32881764958E+03  0.47575776837E+03  0.00000000000E+00 0. -1.
        -11    1    3    3    0    0 -0.25605838724E+02 -0.15467614867E+02  0.15558757672E+02  0.33719149259E+02  0.00000000000E+00 0.  1.
          4    1    6    6  502    0  0.15655108657E+03 -0.19096460562E+03  0.25817812289E+03  0.35725574375E+03  0.00000000000E+00 0. -1.
          3    1    5    5  503    0  0.87930127925E+02  0.11571849591E+02 -0.29419688973E+03  0.30727418543E+03  0.00000000000E+00 0. -1.
         -4    1    5    5    0  503  0.11751762913E+03  0.93055131796E+02 -0.31028392994E+03  0.34459507816E+03  0.00000000000E+00 0.  1.
         -3    1    6    6    0  502 -0.87309707702E+01 -0.24156747357E+01  0.11018445659E+02  0.14264342949E+02  0.00000000000E+00 0.  1.
<mgrwt>
<rscale>  0 0.15328393E+04</rscale>
<asrwt>0</asrwt>
<pdfrwt beam="1">  1        2 0.11861219E+00 0.15328393E+04</pdfrwt>
<pdfrwt beam="2">  1       -2 0.11721339E+00 0.15328393E+04</pdfrwt>
<totfact> 0.19619066E+01</totfact>
</mgrwt>
</event>
<event>
12    1  0.1532786E-007  0.3097916E+04  0.7818608E-02  0.8216310E-01
          1   -1    0    0  501    0  0.00000000000E+00  0.00000000000E+00  0.29484447311E+04  0.29484447311E+04  0.00000000000E+00 0. -1.
         -1   -1    0    0    0  501 -0.00000000000E+00 -0.00000000000E+00 -0.81374119943E+03  0.81374119943E+03  0.00000000000E+00 0.  1.
         23    2    1    2    0    0 -0.22078335836E+03  0.88040529326E+03  0.22897039355E+04  0.24647922811E+04  0.92725966952E+02 0.  0.
        254    2    1    2    0    0  0.22078335836E+03 -0.88040529326E+03 -0.15500040380E+03  0.12973936495E+04  0.91397285777E+03 0.  0.
        -24    2    4    4    0    0  0.66536697943E+02 -0.71038954951E+03 -0.50051140501E+03  0.87525601183E+03  0.80504505927E+02 0.  0.
         24    2    4    4    0    0  0.15424666041E+03 -0.17001574375E+03  0.34551100121E+03  0.42213763762E+03  0.78262045545E+02 0.  0.
         13    1    3    3    0    0 -0.21706720040E+03  0.84837646153E+03  0.22443700168E+04  0.24091611740E+04  0.00000000000E+00 0. -1.
        -13    1    3    3    0    0 -0.37161579560E+01  0.32028831729E+02  0.45333918692E+02  0.55631107088E+02  0.00000000000E+00 0.  1.
          4    1    6    6  502    0  0.24221907892E+02 -0.76468364507E+02  0.89882525052E+02  0.12046982984E+03  0.00000000000E+00 0. -1.
          3    1    5    5  503    0  0.55585136187E+02 -0.24138749765E+03 -0.14923774380E+03  0.28918771682E+03  0.00000000000E+00 0. -1.
         -4    1    5    5    0  503  0.10951561755E+02 -0.46900205187E+03 -0.35127366121E+03  0.58606829501E+03  0.00000000000E+00 0.  1.
         -3    1    6    6    0  502  0.13002475252E+03 -0.93547379242E+02  0.25562847616E+03  0.30166780778E+03  0.00000000000E+00 0.  1.
<mgrwt>
<rscale>  0 0.30979160E+04</rscale>
<asrwt>0</asrwt>
<pdfrwt beam="1">  1        1 0.45360688E+00 0.30979160E+04</pdfrwt>
<pdfrwt beam="2">  1       -1 0.12519096E+00 0.30979160E+04</pdfrwt>
<totfact> 0.30640197E-01</totfact>
</mgrwt>
</event>
<event>
12    1  0.1532786E-007  0.2858851E+04  0.7818608E-02  0.8285227E-01
         -1   -1    0    0    0  501 -0.00000000000E+00  0.00000000000E+00  0.19243166520E+04  0.19243166520E+04  0.00000000000E+00 0.  1.
          1   -1    0    0  501    0  0.00000000000E+00 -0.00000000000E+00 -0.10618094844E+04  0.10618094844E+04  0.00000000000E+00 0. -1.
         23    2    1    2    0    0  0.11245880341E+04  0.54451348905E+03  0.67301407253E+02  0.12546106946E+04  0.91243243010E+02 0.  0.
        254    2    1    2    0    0 -0.11245880341E+04 -0.54451348905E+03  0.79520576040E+03  0.17315154418E+04  0.89699517141E+03 0.  0.
        -24    2    4    4    0    0 -0.26057676955E+03  0.24172888642E+03  0.14420699330E+03  0.39193078518E+03  0.80504509788E+02 0.  0.
         24    2    4    4    0    0 -0.86401126458E+03 -0.78624237547E+03  0.65099876711E+03  0.13395846566E+04  0.77428154835E+02 0.  0.
         11    1    3    3    0    0  0.45763565465E+03  0.25971758584E+03 -0.89504595597E+00  0.52619807859E+03  0.00000000000E+00 0. -1.
        -11    1    3    3    0    0  0.66695237948E+03  0.28479590321E+03  0.68196453209E+02  0.72841261605E+03  0.00000000000E+00 0.  1.
          4    1    6    6  502    0 -0.11021764185E+03 -0.13764072867E+03  0.96969300141E+02  0.20123604035E+03  0.00000000000E+00 0. -1.
          3    1    5    5  503    0 -0.13410334909E+03  0.94508855879E+02  0.10239692009E+03  0.19339276440E+03  0.00000000000E+00 0. -1.
         -4    1    5    5    0  503 -0.12647342046E+03  0.14722003054E+03  0.41810073211E+02  0.19853802078E+03  0.00000000000E+00 0.  1.
         -3    1    6    6    0  502 -0.75379362273E+03 -0.64860164680E+03  0.55402946697E+03  0.11383486163E+04  0.00000000000E+00 0.  1.
<mgrwt>
<rscale>  0 0.28588513E+04</rscale>
<asrwt>0</asrwt>
<pdfrwt beam="1">  1        1 0.16335531E+00 0.28588513E+04</pdfrwt>
<pdfrwt beam="2">  1       -1 0.29604872E+00 0.28588513E+04</pdfrwt>
<totfact> 0.40896443E-01</totfact>
</mgrwt>
</event>
<event>
12    1  0.1532786E-007  0.2161670E+04  0.7818608E-02  0.8534554E-01
          1   -1    0    0  501    0  0.00000000000E+00  0.00000000000E+00  0.24755825362E+04  0.24755825362E+04  0.00000000000E+00 0. -1.
         -1   -1    0    0    0  501 -0.00000000000E+00 -0.00000000000E+00 -0.47189049987E+03  0.47189049987E+03  0.00000000000E+00 0.  1.
         23    2    1    2    0    0 -0.52848948757E+03 -0.32728177118E+03  0.16653935950E+04  0.17797585442E+04  0.87121486160E+02 0.  0.
        254    2    1    2    0    0  0.52848948757E+03  0.32728177118E+03  0.33829844140E+03  0.11677144919E+04  0.92881473012E+03 0.  0.
        -24    2    4    4    0    0  0.75675529540E+03  0.11563607506E+03  0.11933758959E+03  0.77876399727E+03  0.78623305581E+02 0.  0.
         24    2    4    4    0    0 -0.22826580783E+03  0.21164569612E+03  0.21896085181E+03  0.38895049462E+03  0.80246201944E+02 0.  0.
         13    1    3    3    0    0 -0.87357889430E+02 -0.19503910451E+02  0.25743242111E+03  0.27254954560E+03  0.00000000000E+00 0.  1.
        -13    1    3    3    0    0 -0.44113159814E+03 -0.30777786073E+03  0.14079611739E+04  0.15072089986E+04  0.00000000000E+00 0. -1.
          4    1    6    6  502    0 -0.23277820537E+03  0.21312765843E+03  0.21088255002E+03  0.37957942724E+03  0.00000000000E+00 0. -1.
          3    1    5    5  503    0  0.42044769213E+03  0.27188558510E+02  0.51451464892E+02  0.42445580779E+03  0.00000000000E+00 0. -1.
         -4    1    5    5    0  503  0.33630760328E+03  0.88447516553E+02  0.67886124699E+02  0.35430818948E+03  0.00000000000E+00 0.  1.
         -3    1    6    6    0  502  0.45123975402E+01 -0.14819623112E+01  0.80783017964E+01  0.93710673760E+01  0.00000000000E+00 0.  1.
<mgrwt>
<rscale>  0 0.21616696E+04</rscale>
<asrwt>0</asrwt>
<pdfrwt beam="1">  1        1 0.38085884E+00 0.21616696E+04</pdfrwt>
<pdfrwt beam="2">  1       -1 0.72598540E-01 0.21616696E+04</pdfrwt>
<totfact> 0.24658536E+00</totfact>
</mgrwt>
</event>
<event>
12    1  0.1532786E-007  0.2419436E+04  0.7818608E-02  0.8432263E-01
          2   -1    0    0  501    0  0.00000000000E+00  0.00000000000E+00  0.14751439109E+04  0.14751439109E+04  0.00000000000E+00 0. -1.
         -2   -1    0    0    0  501 -0.00000000000E+00 -0.00000000000E+00 -0.99205097095E+03  0.99205097095E+03  0.00000000000E+00 0.  1.
         23    2    1    2    0    0  0.53837296454E+03  0.92372444034E+02 -0.70970073248E+03  0.90045607646E+03  0.93637057796E+02 0.  0.
        254    2    1    2    0    0 -0.53837296454E+03 -0.92372444034E+02  0.11927936724E+04  0.15667388054E+04  0.85646694155E+03 0.  0.
        -24    2    4    4    0    0  0.14833725321E+03 -0.13272848948E+03  0.34992266343E+02  0.21757652395E+03  0.80587173052E+02 0.  0.
         24    2    4    4    0    0 -0.68671021775E+03  0.40356045449E+02  0.11578014060E+04  0.13491622814E+04  0.80840782815E+02 0.  0.
         13    1    3    3    0    0  0.31435526348E+03  0.26703549732E+02 -0.34558946712E+03  0.46793631088E+03  0.00000000000E+00 0.  1.
        -13    1    3    3    0    0  0.22401770105E+03  0.65668894302E+02 -0.36411126535E+03  0.43251976558E+03  0.00000000000E+00 0. -1.
          4    1    6    6  502    0 -0.65984287844E+03  0.27287849619E+02  0.11270685270E+04  0.13063003925E+04  0.00000000000E+00 0. -1.
          3    1    5    5  503    0  0.15721441606E+03 -0.12317244074E+03  0.39853687443E+02  0.20365691537E+03  0.00000000000E+00 0. -1.
         -4    1    5    5    0  503 -0.88771628531E+01 -0.95560487455E+01 -0.48614210992E+01  0.13919608581E+02  0.00000000000E+00 0.  1.
         -3    1    6    6    0  502 -0.26867339307E+02  0.13068195829E+02  0.30732879036E+02  0.42861888870E+02  0.00000000000E+00 0.  1.
<mgrwt>
<rscale>  0 0.24194363E+04</rscale>
<asrwt>0</asrwt>
<pdfrwt beam="1">  1        2 0.22694522E+00 0.24194363E+04</pdfrwt>
<pdfrwt beam="2">  1       -2 0.15262323E+00 0.24194363E+04</pdfrwt>
<totfact> 0.33685817E+00</totfact>
</mgrwt>
</event>
<event>
12    1  0.1532786E-007  0.1257933E+04  0.7818608E-02  0.9063606E-01
         -2   -1    0    0    0  501 -0.00000000000E+00  0.00000000000E+00  0.25796809760E+03  0.25796809760E+03  0.00000000000E+00 0.  1.
          2   -1    0    0  501    0  0.00000000000E+00 -0.00000000000E+00 -0.15335183601E+04  0.15335183601E+04  0.00000000000E+00 0. -1.
         23    2    1    2    0    0 -0.15313670968E+03 -0.18647192728E+03 -0.66745892272E+02  0.26724128795E+03  0.93489359476E+02 0.  0.
        254    2    1    2    0    0  0.15313670968E+03  0.18647192728E+03 -0.12088043703E+04  0.15242451698E+04  0.89660063602E+03 0.  0.
        -24    2    4    4    0    0  0.50833995586E+03  0.19311623342E+02 -0.80460307089E+03  0.95496035561E+03  0.76031109317E+02 0.  0.
         24    2    4    4    0    0 -0.35520324619E+03  0.16716030394E+03 -0.40420129936E+03  0.56928481416E+03  0.81207117330E+02 0.  0.
         13    1    3    3    0    0 -0.10574265743E+03 -0.15968849562E+03 -0.14964475998E+02  0.19210898151E+03  0.00000000000E+00 0.  1.
        -13    1    3    3    0    0 -0.47394052246E+02 -0.26783431659E+02 -0.51781416274E+02  0.75132306441E+02  0.00000000000E+00 0. -1.
          2    1    6    6  502    0 -0.57509922561E+02  0.52798650865E+02 -0.11356178734E+03  0.13780917339E+03  0.00000000000E+00 0. -1.
          1    1    5    5  503    0  0.48868505078E+03  0.61386066793E+01 -0.78249881482E+03  0.92258070462E+03  0.00000000000E+00 0. -1.
         -2    1    5    5    0  503  0.19654905088E+02  0.13173016663E+02 -0.22104256071E+02  0.32379650994E+02  0.00000000000E+00 0.  1.
         -1    1    6    6    0  502 -0.29769332363E+03  0.11436165307E+03 -0.29063951202E+03  0.43147564077E+03  0.00000000000E+00 0.  1.
<mgrwt>
<rscale>  0 0.12579329E+04</rscale>
<asrwt>0</asrwt>
<pdfrwt beam="1">  1        2 0.23592590E+00 0.12579329E+04</pdfrwt>
<pdfrwt beam="2">  1       -2 0.39687400E-01 0.12579329E+04</pdfrwt>
<totfact> 0.71715069E+01</totfact>
</mgrwt>
</event>
<event>
12    1  0.1532786E-007  0.1915841E+04  0.7818608E-02  0.8647011E-01
          1   -1    0    0  501    0  0.00000000000E+00  0.00000000000E+00  0.16136573308E+04  0.16136573308E+04  0.00000000000E+00 0. -1.
         -1   -1    0    0    0  501 -0.00000000000E+00 -0.00000000000E+00 -0.56865332148E+03  0.56865332148E+03  0.00000000000E+00 0.  1.
         23    2    1    2    0    0  0.47468534867E+03  0.21487044451E+03 -0.20621353677E+03  0.56771551356E+03  0.91002161614E+02 0.  0.
        254    2    1    2    0    0 -0.47468534867E+03 -0.21487044451E+03  0.12512175461E+04  0.16145951387E+04  0.87742613717E+03 0.  0.
        -24    2    4    4    0    0 -0.27131301373E+03 -0.51877042042E+03  0.10073316671E+04  0.11678773615E+04  0.80541562627E+02 0.  0.
         24    2    4    4    0    0 -0.20337233494E+03  0.30389997591E+03  0.24388587897E+03  0.44671777726E+03  0.79755555210E+02 0.  0.
         11    1    3    3    0    0  0.21089565441E+03  0.55740895796E+02 -0.57274947745E+02  0.22553147043E+03  0.00000000000E+00 0. -1.
        -11    1    3    3    0    0  0.26378969426E+03  0.15912954871E+03 -0.14893858903E+03  0.34218404313E+03  0.00000000000E+00 0.  1.
          4    1    6    6  502    0 -0.12899928377E+03  0.25315007689E+03  0.18060048544E+03  0.33666349963E+03  0.00000000000E+00 0. -1.
          1    1    5    5  503    0 -0.26281569368E+03 -0.45702300728E+03  0.92388044738E+03  0.10637185714E+04  0.00000000000E+00 0. -1.
         -2    1    5    5    0  503 -0.84973200531E+01 -0.61747413138E+02  0.83451219754E+02  0.10415879010E+03  0.00000000000E+00 0.  1.
         -3    1    6    6    0  502 -0.74373051174E+02  0.50749899015E+02  0.63285393528E+02  0.11005427763E+03  0.00000000000E+00 0.  1.
<mgrwt>
<rscale>  0 0.19158409E+04</rscale>
<asrwt>0</asrwt>
<pdfrwt beam="1">  1        1 0.24825497E+00 0.19158409E+04</pdfrwt>
<pdfrwt beam="2">  1       -1 0.87485127E-01 0.19158409E+04</pdfrwt>
<totfact> 0.65595098E+00</totfact>
</mgrwt>
</event>
<event>
12    1  0.1532786E-007  0.1119214E+04  0.7818608E-02  0.9186664E-01
         -1   -1    0    0    0  501 -0.00000000000E+00  0.00000000000E+00  0.12620738450E+03  0.12620738450E+03  0.00000000000E+00 0.  1.
          1   -1    0    0  501    0  0.00000000000E+00 -0.00000000000E+00 -0.24813134807E+04  0.24813134807E+04  0.00000000000E+00 0. -1.
         23    2    1    2    0    0  0.39866918325E+02  0.63961030028E+02 -0.38223263688E+02  0.12249224232E+03  0.88673259798E+02 0.  0.
        254    2    1    2    0    0 -0.39866918325E+02 -0.63961030028E+02 -0.23168828325E+04  0.24850286229E+04  0.89539980591E+03 0.  0.
        -24    2    4    4    0    0  0.56479933361E+02 -0.35804263504E+03 -0.41530294360E+03  0.55676406616E+03  0.78263522918E+02 0.  0.
         24    2    4    4    0    0 -0.96346851686E+02  0.29408160502E+03 -0.19015798889E+04  0.19282645567E+04  0.80196138200E+02 0.  0.
         13    1    3    3    0    0  0.35805130999E+02 -0.13768907275E+02 -0.94488722233E+01  0.39507865036E+02  0.00000000000E+00 0. -1.
        -13    1    3    3    0    0  0.40617873258E+01  0.77729937303E+02 -0.28774391464E+02  0.82984377286E+02  0.00000000000E+00 0.  1.
          2    1    6    6  502    0 -0.10277349843E+03  0.20282994353E+03 -0.14166059225E+04  0.14347385538E+04  0.00000000000E+00 0. -1.
          3    1    5    5  503    0  0.66352832873E+02 -0.18274169377E+03 -0.23675763846E+03  0.30635176586E+03  0.00000000000E+00 0. -1.
         -4    1    5    5    0  503 -0.98728995112E+01 -0.17530094127E+03 -0.17854530514E+03  0.25041230030E+03  0.00000000000E+00 0.  1.
         -1    1    6    6    0  502  0.64266467429E+01  0.91251661489E+02 -0.48497396637E+03  0.49352600293E+03  0.00000000000E+00 0.  1.
<mgrwt>
<rscale>  0 0.11192142E+04</rscale>
<asrwt>0</asrwt>
<pdfrwt beam="1">  1        1 0.38174050E+00 0.11192142E+04</pdfrwt>
<pdfrwt beam="2">  1       -1 0.19416522E-01 0.11192142E+04</pdfrwt>
<totfact> 0.30099732E+01</totfact>
</mgrwt>
</event>
<event>
12    1  0.1532786E-007  0.1617836E+04  0.7818608E-02  0.8809665E-01
         -1   -1    0    0    0  501 -0.00000000000E+00  0.00000000000E+00  0.51808577554E+03  0.51808577554E+03  0.00000000000E+00 0.  1.
          1   -1    0    0  501    0  0.00000000000E+00 -0.00000000000E+00 -0.12630112786E+04  0.12630112786E+04  0.00000000000E+00 0. -1.
         23    2    1    2    0    0 -0.24228913394E+03 -0.31780759568E+03  0.16476847736E+03  0.44175388428E+03  0.91061247791E+02 0.  0.
        254    2    1    2    0    0  0.24228913394E+03  0.31780759568E+03 -0.90969398038E+03  0.13393431698E+04  0.89810427920E+03 0.  0.
        -24    2    4    4    0    0  0.22740568545E+03  0.57044029801E+03 -0.87470629313E+03  0.10721133744E+04  0.84855813010E+02 0.  0.
         24    2    4    4    0    0  0.14883448494E+02 -0.25263270233E+03 -0.34987687254E+02  0.26722979541E+03  0.78376182415E+02 0.  0.
         13    1    3    3    0    0 -0.61581460283E+01  0.60794321899E+01  0.64603482234E+01  0.10798997982E+02  0.00000000000E+00 0. -1.
        -13    1    3    3    0    0 -0.23613098791E+03 -0.32388702787E+03  0.15830812914E+03  0.43095488630E+03  0.00000000000E+00 0.  1.
          4    1    6    6  502    0 -0.19840682399E+02 -0.29935488572E+02 -0.20555353576E+02  0.41380052135E+02  0.00000000000E+00 0. -1.
          1    1    5    5  503    0  0.74972176678E+02  0.10863789531E+03 -0.15620798392E+03  0.20450905558E+03  0.00000000000E+00 0. -1.
         -2    1    5    5    0  503  0.15243350877E+03  0.46180240269E+03 -0.71849830921E+03  0.86760431884E+03  0.00000000000E+00 0.  1.
         -3    1    6    6    0  502  0.34724130894E+02 -0.22269721375E+03 -0.14432333678E+02  0.22584974327E+03  0.00000000000E+00 0.  1.
<mgrwt>
<rscale>  0 0.16178358E+04</rscale>
<asrwt>0</asrwt>
<pdfrwt beam="1">  1        1 0.19430943E+00 0.16178358E+04</pdfrwt>
<pdfrwt beam="2">  1       -1 0.79705505E-01 0.16178358E+04</pdfrwt>
<totfact> 0.14486789E+01</totfact>
</mgrwt>
</event>
<event>
12    1  0.1532786E-007  0.2631497E+04  0.7818608E-02  0.8357580E-01
          2   -1    0    0  501    0  0.00000000000E+00  0.00000000000E+00  0.25337558733E+04  0.25337558733E+04  0.00000000000E+00 0. -1.
         -2   -1    0    0    0  501 -0.00000000000E+00 -0.00000000000E+00 -0.68325237554E+03  0.68325237554E+03  0.00000000000E+00 0.  1.
         23    2    1    2    0    0 -0.42071968136E+01 -0.18386258316E+03  0.22048250867E+04  0.22143606636E+04  0.91193947013E+02 0.  0.
        254    2    1    2    0    0  0.42071968136E+01  0.18386258316E+03 -0.35432158891E+03  0.10026475852E+04  0.91974737929E+03 0.  0.
        -24    2    4    4    0    0 -0.34011549807E+03 -0.17253769794E+03 -0.46288123062E+01  0.38991143705E+03  0.81004281382E+02 0.  0.
         24    2    4    4    0    0  0.34432269489E+03  0.35640028109E+03 -0.34969277660E+03  0.61273614812E+03  0.87070492337E+02 0.  0.
         11    1    3    3    0    0 -0.12752706183E+02 -0.55164160909E-01  0.39496025324E+03  0.39516608685E+03  0.00000000000E+00 0.  1.
        -11    1    3    3    0    0  0.85455093698E+01 -0.18380741900E+03  0.18098648334E+04  0.18191945768E+04  0.00000000000E+00 0. -1.
          4    1    6    6  502    0  0.29103911622E+03  0.30093075181E+03 -0.33071890977E+03  0.53351483750E+03  0.00000000000E+00 0. -1.
          3    1    5    5  503    0 -0.29826736755E+03 -0.16481140692E+03 -0.26987421505E+02  0.34183993815E+03  0.00000000000E+00 0. -1.
         -4    1    5    5    0  503 -0.41848130522E+02 -0.77262910127E+01  0.22358609199E+02  0.48071498898E+02  0.00000000000E+00 0.  1.
         -3    1    6    6    0  502  0.53283578667E+02  0.55469529287E+02 -0.18973866832E+02  0.79221310627E+02  0.00000000000E+00 0.  1.
<mgrwt>
<rscale>  0 0.26314975E+04</rscale>
<asrwt>0</asrwt>
<pdfrwt beam="1">  1        2 0.38980859E+00 0.26314975E+04</pdfrwt>
<pdfrwt beam="2">  1       -2 0.10511575E+00 0.26314975E+04</pdfrwt>
<totfact> 0.21516759E+00</totfact>
</mgrwt>
</event>
<event>
12    1  0.1532786E-007  0.1840726E+04  0.7818608E-02  0.8684937E-01
         -2   -1    0    0    0  501 -0.00000000000E+00  0.00000000000E+00  0.58790886629E+03  0.58790886629E+03  0.00000000000E+00 0.  1.
          2   -1    0    0  501    0  0.00000000000E+00 -0.00000000000E+00 -0.14408151717E+04  0.14408151717E+04  0.00000000000E+00 0. -1.
         23    2    1    2    0    0 -0.92766398456E+02  0.53885833805E+03 -0.79666445397E+03  0.97052298839E+03  0.90921425444E+02 0.  0.
        254    2    1    2    0    0  0.92766398456E+02 -0.53885833805E+03 -0.56241851449E+02  0.10582010496E+04  0.90424134078E+03 0.  0.
        -24    2    4    4    0    0 -0.53729728530E+02 -0.66680745234E+03 -0.29933179237E+03  0.73739014686E+03  0.81398062299E+02 0.  0.
         24    2    4    4    0    0  0.14649612699E+03  0.12794911429E+03  0.24308994092E+03  0.32081090275E+03  0.77426254449E+02 0.  0.
         11    1    3    3    0    0 -0.57938187620E+02  0.45415006753E+03 -0.61101723314E+03  0.76351239454E+03  0.00000000000E+00 0. -1.
        -11    1    3    3    0    0 -0.34828210836E+02  0.84708270526E+02 -0.18564722083E+03  0.20701059385E+03  0.00000000000E+00 0.  1.
          2    1    6    6  502    0  0.15607616653E+03  0.12034296724E+03  0.23017113056E+03  0.30301971696E+03  0.00000000000E+00 0. -1.
          1    1    5    5  503    0 -0.38105285003E+02 -0.15595888536E+03 -0.46260869233E+02  0.16707858837E+03  0.00000000000E+00 0. -1.
         -2    1    5    5    0  503 -0.15624443527E+02 -0.51084856698E+03 -0.25307092314E+03  0.57031155850E+03  0.00000000000E+00 0.  1.
         -3    1    6    6    0  502 -0.95800395482E+01  0.76061470462E+01  0.12918810364E+02  0.17791185791E+02  0.00000000000E+00 0.  1.
<mgrwt>
<rscale>  0 0.18407260E+04</rscale>
<asrwt>0</asrwt>
<pdfrwt beam="1">  1        2 0.22166388E+00 0.18407260E+04</pdfrwt>
<pdfrwt beam="2">  1       -2 0.90447517E-01 0.18407260E+04</pdfrwt>
<totfact> 0.13483766E+01</totfact>
</mgrwt>
</event>
<event>
12    1  0.1532786E-007  0.1559001E+04  0.7818608E-02  0.8846139E-01
          1   -1    0    0  501    0  0.00000000000E+00  0.00000000000E+00  0.20460969036E+04  0.20460969036E+04  0.00000000000E+00 0. -1.
         -1   -1    0    0    0  501 -0.00000000000E+00 -0.00000000000E+00 -0.29696585945E+03  0.29696585945E+03  0.00000000000E+00 0.  1.
         23    2    1    2    0    0  0.36462178395E+03  0.25799154666E+03  0.94783105920E+03  0.10517127579E+04  0.90594287457E+02 0.  0.
        254    2    1    2    0    0 -0.36462178395E+03 -0.25799154666E+03  0.80129998495E+03  0.12913500051E+04  0.90884238807E+03 0.  0.
        -24    2    4    4    0    0 -0.52206893738E+03  0.16571074408E+03  0.45083093149E+03  0.71388528312E+03  0.79797509878E+02 0.  0.
         24    2    4    4    0    0  0.15744715343E+03 -0.42370229074E+03  0.35046905346E+03  0.57746472200E+03  0.79521760672E+02 0.  0.
         13    1    3    3    0    0  0.79591424789E+02  0.81631142459E+02  0.16947003463E+03  0.20425114677E+03  0.00000000000E+00 0.  1.
        -13    1    3    3    0    0  0.28503035916E+03  0.17636040420E+03  0.77836102457E+03  0.84746161115E+03  0.00000000000E+00 0. -1.
          2    1    6    6  502    0  0.35022429713E+02 -0.20744680662E+03  0.16554617399E+03  0.26770559180E+03  0.00000000000E+00 0. -1.
          1    1    5    5  503    0 -0.50074695684E+03  0.14232148177E+03  0.41264359904E+03  0.66428733150E+03  0.00000000000E+00 0. -1.
         -2    1    5    5    0  503 -0.21321980539E+02  0.23389262303E+02  0.38187332447E+02  0.49597951617E+02  0.00000000000E+00 0.  1.
         -1    1    6    6    0  502  0.12242472372E+03 -0.21625548412E+03  0.18492287947E+03  0.30975913020E+03  0.00000000000E+00 0.  1.
<mgrwt>
<rscale>  0 0.15590009E+04</rscale>
<asrwt>0</asrwt>
<pdfrwt beam="1">  1        1 0.31478413E+00 0.15590009E+04</pdfrwt>
<pdfrwt beam="2">  1       -1 0.45687056E-01 0.15590009E+04</pdfrwt>
<totfact> 0.12715460E+01</totfact>
</mgrwt>
</event>
<event>
12    1  0.1532786E-007  0.1686234E+04  0.7818608E-02  0.8769255E-01
         -1   -1    0    0    0  501 -0.00000000000E+00  0.00000000000E+00  0.76070393780E+03  0.76070393780E+03  0.00000000000E+00 0.  1.
          1   -1    0    0  501    0  0.00000000000E+00 -0.00000000000E+00 -0.93445835954E+03  0.93445835954E+03  0.00000000000E+00 0. -1.
         23    2    1    2    0    0  0.33352330549E+03 -0.95271018658E+02  0.37303342251E+03  0.51764019132E+03  0.92103588731E+02 0.  0.
        254    2    1    2    0    0 -0.33352330549E+03  0.95271018658E+02 -0.54678784425E+03  0.11775221060E+04  0.98349733160E+03 0.  0.
        -24    2    4    4    0    0 -0.46261021193E+03 -0.69778804568E+02  0.10678097350E+03  0.48644160597E+03  0.79661596539E+02 0.  0.
         24    2    4    4    0    0  0.12908690644E+03  0.16504982323E+03 -0.65356881775E+03  0.69108050006E+03  0.80840487764E+02 0.  0.
         11    1    3    3    0    0  0.28507013072E+02  0.12901603820E+01  0.75591552148E+02  0.80798496671E+02  0.00000000000E+00 0. -1.
        -11    1    3    3    0    0  0.30501629242E+03 -0.96561179040E+02  0.29744187036E+03  0.43684169465E+03  0.00000000000E+00 0.  1.
          2    1    6    6  502    0  0.12800712264E+03  0.10788899151E+03 -0.48458150737E+03  0.51268420613E+03  0.00000000000E+00 0. -1.
          1    1    5    5  503    0 -0.89061386017E+02 -0.12187063892E+02 -0.10978474818E+02  0.90559272937E+02  0.00000000000E+00 0. -1.
         -2    1    5    5    0  503 -0.37354882591E+03 -0.57591740677E+02  0.11775944832E+03  0.39588233303E+03  0.00000000000E+00 0.  1.
         -1    1    6    6    0  502  0.10797838025E+01  0.57160831717E+02 -0.16898731038E+03  0.17839629392E+03  0.00000000000E+00 0.  1.
<mgrwt>
<rscale>  0 0.16862339E+04</rscale>
<asrwt>0</asrwt>
<pdfrwt beam="1">  1        1 0.14376282E+00 0.16862339E+04</pdfrwt>
<pdfrwt beam="2">  1       -1 0.11703138E+00 0.16862339E+04</pdfrwt>
<totfact> 0.10696626E+01</totfact>
</mgrwt>
</event>
<event>
12    1  0.1532786E-007  0.1484939E+04  0.7818608E-02  0.8894530E-01
          2   -1    0    0  501    0  0.00000000000E+00  0.00000000000E+00  0.67377830024E+03  0.67377830024E+03  0.00000000000E+00 0.  1.
         -2   -1    0    0    0  501 -0.00000000000E+00 -0.00000000000E+00 -0.81816388558E+03  0.81816388558E+03  0.00000000000E+00 0. -1.
         23    2    1    2    0    0 -0.29340150288E+03  0.56349751240E+02  0.24222644994E+03  0.39626918911E+03  0.95372327386E+02 0.  0.
        254    2    1    2    0    0  0.29340150288E+03 -0.56349751240E+02 -0.38661203529E+03  0.10956729967E+04  0.98069909429E+03 0.  0.
        -24    2    4    4    0    0 -0.42460801274E+02  0.30764308293E+03  0.15639709217E+03  0.35644012006E+03  0.78372971304E+02 0.  0.
         24    2    4    4    0    0  0.33586230415E+03 -0.36399283417E+03 -0.54300912746E+03  0.73923287665E+03  0.79448491121E+02 0.  0.
         11    1    3    3    0    0 -0.21377008327E+03  0.83293196923E+02  0.18221716041E+03  0.29298207915E+03  0.00000000000E+00 0.  1.
        -11    1    3    3    0    0 -0.79631419610E+02 -0.26943445683E+02  0.60009289539E+02  0.10328710997E+03  0.00000000000E+00 0. -1.
          2    1    6    6  502    0  0.20197657325E+03 -0.26237854057E+03 -0.39354398364E+03  0.51430914998E+03  0.00000000000E+00 0. -1.
          1    1    5    5  503    0 -0.44862408411E+02  0.30471704982E+03  0.16326505030E+03  0.34859803899E+03  0.00000000000E+00 0. -1.
         -2    1    5    5    0  503  0.24016071372E+01  0.29260331031E+01 -0.68679581290E+01  0.78420810646E+01  0.00000000000E+00 0.  1.
         -1    1    6    6    0  502  0.13388573090E+03 -0.10161429360E+03 -0.14946514382E+03  0.22492372667E+03  0.00000000000E+00 0.  1.
<mgrwt>
<rscale>  0 0.14849392E+04</rscale>
<asrwt>0</asrwt>
<pdfrwt beam="1">  1        2 0.10365820E+00 0.14849392E+04</pdfrwt>
<pdfrwt beam="2">  1       -2 0.12587137E+00 0.14849392E+04</pdfrwt>
<totfact> 0.19589912E+01</totfact>
</mgrwt>
</event>
<event>
12    1  0.1532786E-007  0.1194879E+04  0.7818608E-02  0.9117351E-01
         -3   -1    0    0    0  501 -0.00000000000E+00  0.00000000000E+00  0.78491799394E+03  0.78491799394E+03  0.00000000000E+00 0.  1.
          3   -1    0    0  501    0  0.00000000000E+00 -0.00000000000E+00 -0.45474054222E+03  0.45474054222E+03  0.00000000000E+00 0. -1.
         23    2    1    2    0    0 -0.21452520763E+03 -0.68847002374E+01  0.43460257515E+02  0.23772279253E+03  0.92492531058E+02 0.  0.
        254    2    1    2    0    0  0.21452520763E+03  0.68847002374E+01  0.28671719421E+03  0.10019357436E+04  0.93573501650E+03 0.  0.
        -24    2    4    4    0    0 -0.18982135332E+03 -0.35553724262E+03  0.11883464726E+03  0.42784271844E+03  0.80553344220E+02 0.  0.
         24    2    4    4    0    0  0.40434656095E+03  0.36242194286E+03  0.16788254695E+03  0.57409302519E+03  0.80947180226E+02 0.  0.
         13    1    3    3    0    0 -0.50001038947E+01  0.38713101997E+01 -0.18021502363E+02  0.19098759882E+02  0.00000000000E+00 0. -1.
        -13    1    3    3    0    0 -0.20952510373E+03 -0.10756010437E+02  0.61481759878E+02  0.21862403265E+03  0.00000000000E+00 0.  1.
          2    1    6    6  502    0  0.39642181421E+03  0.33065684419E+03  0.15945404961E+03  0.54028677323E+03  0.00000000000E+00 0. -1.
          1    1    5    5  503    0 -0.16818512122E+03 -0.24397094250E+03  0.72142289797E+02  0.30497961532E+03  0.00000000000E+00 0. -1.
         -2    1    5    5    0  503 -0.21636232097E+02 -0.11156630012E+03  0.46692357460E+02  0.12286310311E+03  0.00000000000E+00 0.  1.
         -1    1    6    6    0  502  0.79247467384E+01  0.31765098664E+02  0.84284973377E+01  0.33806251957E+02  0.00000000000E+00 0.  1.
<mgrwt>
<rscale>  0 0.11948791E+04</rscale>
<asrwt>0</asrwt>
<pdfrwt beam="1">  1        3 0.69960083E-01 0.11948791E+04</pdfrwt>
<pdfrwt beam="2">  1       -3 0.12075661E+00 0.11948791E+04</pdfrwt>
<totfact> 0.28150670E+00</totfact>
</mgrwt>
</event>
<event>
12    1  0.1532786E-007  0.1994859E+04  0.7818608E-02  0.8609028E-01
         -2   -1    0    0    0  501 -0.00000000000E+00  0.00000000000E+00  0.51096225384E+03  0.51096225384E+03  0.00000000000E+00 0.  1.
          2   -1    0    0  501    0  0.00000000000E+00 -0.00000000000E+00 -0.19470439621E+04  0.19470439621E+04  0.00000000000E+00 0. -1.
         23    2    1    2    0    0 -0.18749104963E+03  0.75209482496E+03 -0.49582976493E+03  0.92873773697E+03  0.12612338744E+03 0.  0.
        254    2    1    2    0    0  0.18749104963E+03 -0.75209482496E+03 -0.94025194331E+03  0.15292684789E+04  0.92400695038E+03 0.  0.
        -24    2    4    4    0    0  0.44269860021E+03 -0.72950446169E+03 -0.92427407557E+03  0.12602448414E+04  0.75997915515E+02 0.  0.
         24    2    4    4    0    0 -0.25520755058E+03 -0.22590363274E+02 -0.15977867738E+02  0.26902363757E+03  0.80481096727E+02 0.  0.
         11    1    3    3    0    0 -0.14526591325E+03  0.38403844525E+03 -0.30865002177E+03  0.51366579497E+03  0.00000000000E+00 0. -1.
        -11    1    3    3    0    0 -0.42225136380E+02  0.36805637971E+03 -0.18717974316E+03  0.41507194200E+03  0.00000000000E+00 0.  1.
          4    1    6    6  502    0 -0.12728271368E+03 -0.17202513334E+02 -0.47874489290E+02  0.13707217950E+03  0.00000000000E+00 0. -1.
          3    1    5    5  503    0  0.30669400684E+03 -0.54957181808E+03 -0.71543821541E+03  0.95286003019E+03  0.00000000000E+00 0. -1.
         -4    1    5    5    0  503  0.13600459337E+03 -0.17993264361E+03 -0.20883586016E+03  0.30738481117E+03  0.00000000000E+00 0.  1.
         -3    1    6    6    0  502 -0.12792483690E+03 -0.53878499400E+01  0.31896621551E+02  0.13195145808E+03  0.00000000000E+00 0.  1.
<mgrwt>
<rscale>  0 0.19948594E+04</rscale>
<asrwt>0</asrwt>
<pdfrwt beam="1">  1        2 0.29954523E+00 0.19948594E+04</pdfrwt>
<pdfrwt beam="2">  1       -2 0.78609577E-01 0.19948594E+04</pdfrwt>
<totfact> 0.95544059E+00</totfact>
</mgrwt>
</event>
<event>
12    1  0.1532786E-007  0.3001516E+04  0.7818608E-02  0.8243298E-01
         -2   -1    0    0    0  501 -0.00000000000E+00  0.00000000000E+00  0.77987466199E+03  0.77987466199E+03  0.00000000000E+00 0.  1.
          2   -1    0    0  501    0  0.00000000000E+00 -0.00000000000E+00 -0.28879946214E+04  0.28879946214E+04  0.00000000000E+00 0. -1.
         23    2    1    2    0    0  0.40999525657E+02 -0.13572404284E+04 -0.10951710284E+04  0.17467989706E+04  0.90136122878E+02 0.  0.
        254    2    1    2    0    0 -0.40999525657E+02  0.13572404284E+04 -0.10129489310E+04  0.19210703128E+04  0.90590455800E+03 0.  0.
        -24    2    4    4    0    0 -0.13039412777E+03  0.10909241986E+04 -0.11553759793E+04  0.15963961721E+04  0.80429154128E+02 0.  0.
         24    2    4    4    0    0  0.89394602113E+02  0.26631622978E+03  0.14242704836E+03  0.32467414070E+03  0.78816904324E+02 0.  0.
         11    1    3    3    0    0  0.29896423377E+02 -0.43996346383E+03 -0.30643571649E+03  0.53699580443E+03  0.00000000000E+00 0.  1.
        -11    1    3    3    0    0  0.11103102280E+02 -0.91727696458E+03 -0.78873531196E+03  0.12098031662E+04  0.00000000000E+00 0. -1.
          4    1    6    6  502    0  0.10043224673E+03  0.19957347796E+03  0.99652567224E+02  0.24463614500E+03  0.00000000000E+00 0. -1.
          3    1    5    5  503    0 -0.83927775511E+02  0.89339389030E+03 -0.91036952570E+03  0.12782680423E+04  0.00000000000E+00 0. -1.
         -4    1    5    5    0  503 -0.46466352259E+02  0.19753030833E+03 -0.24500645364E+03  0.31812812973E+03  0.00000000000E+00 0.  1.
         -3    1    6    6    0  502 -0.11037644620E+02  0.66742751821E+02  0.42774481133E+02  0.80037995699E+02  0.00000000000E+00 0.  1.
<mgrwt>
<rscale>  0 0.30015155E+04</rscale>
<asrwt>0</asrwt>
<pdfrwt beam="1">  1        2 0.44430686E+00 0.30015155E+04</pdfrwt>
<pdfrwt beam="2">  1       -2 0.11998072E+00 0.30015155E+04</pdfrwt>
<totfact> 0.92865912E-01</totfact>
</mgrwt>
</event>
<event>
12    1  0.1532786E-007  0.1631688E+04  0.7818608E-02  0.8801314E-01
          2   -1    0    0  501    0  0.00000000000E+00  0.00000000000E+00  0.18478442449E+04  0.18478442449E+04  0.00000000000E+00 0. -1.
         -2   -1    0    0    0  501 -0.00000000000E+00 -0.00000000000E+00 -0.36020431104E+03  0.36020431104E+03  0.00000000000E+00 0.  1.
         23    2    1    2    0    0 -0.10847975485E+03  0.55304341113E+03  0.54649662133E+03  0.79034808767E+03  0.91469507218E+02 0.  0.
        254    2    1    2    0    0  0.10847975485E+03 -0.55304341113E+03  0.94114331251E+03  0.14177004682E+04  0.89805290000E+03 0.  0.
        -24    2    4    4    0    0  0.23746930992E+03 -0.72004916274E+03  0.47206207868E+03  0.89671478735E+03  0.79952071944E+02 0.  0.
         24    2    4    4    0    0 -0.12898955507E+03  0.16700575160E+03  0.46908123382E+03  0.52098568090E+03  0.82823000386E+02 0.  0.
         13    1    3    3    0    0 -0.70755299482E+02  0.22415819771E+03  0.27839660206E+03  0.36435954502E+03  0.00000000000E+00 0.  1.
        -13    1    3    3    0    0 -0.37724455364E+02  0.32888521342E+03  0.26810001927E+03  0.42598854266E+03  0.00000000000E+00 0. -1.
          2    1    6    6  502    0 -0.13718017957E+03  0.14877873521E+03  0.44975269575E+03  0.49318455070E+03  0.00000000000E+00 0. -1.
          3    1    5    5  503    0  0.19786706813E+03 -0.66452899216E+03  0.44142063592E+03  0.82195032447E+03  0.00000000000E+00 0. -1.
         -4    1    5    5    0  503  0.39602241790E+02 -0.55520170573E+02  0.30641442759E+02  0.74764462880E+02  0.00000000000E+00 0.  1.
         -1    1    6    6    0  502  0.81906244958E+01  0.18227016396E+02  0.19328538071E+02  0.27801130198E+02  0.00000000000E+00 0.  1.
<mgrwt>
<rscale>  0 0.16316880E+04</rscale>
<asrwt>0</asrwt>
<pdfrwt beam="1">  1        2 0.28428372E+00 0.16316880E+04</pdfrwt>
<pdfrwt beam="2">  1       -2 0.55416049E-01 0.16316880E+04</pdfrwt>
<totfact> 0.23763547E+01</totfact>
</mgrwt>
</event>
<event>
12    1  0.1532786E-007  0.1152654E+04  0.7818608E-02  0.9155338E-01
         -2   -1    0    0    0  501 -0.00000000000E+00  0.00000000000E+00  0.16376377117E+03  0.16376377117E+03  0.00000000000E+00 0.  1.
          2   -1    0    0  501    0  0.00000000000E+00 -0.00000000000E+00 -0.20282449721E+04  0.20282449721E+04  0.00000000000E+00 0. -1.
         23    2    1    2    0    0  0.21316032372E+03 -0.30714850179E+02 -0.39480690367E+03  0.45890296254E+03  0.91316549517E+02 0.  0.
        254    2    1    2    0    0 -0.21316032372E+03  0.30714850179E+02 -0.14696742973E+04  0.17331057808E+04  0.89293470173E+03 0.  0.
        -24    2    4    4    0    0 -0.68958890245E+02  0.16691742149E+03 -0.15036311445E+04  0.15165173528E+04  0.79382041213E+02 0.  0.
         24    2    4    4    0    0 -0.14420143347E+03 -0.13620257131E+03  0.33956847228E+02  0.21658842795E+03  0.80076749453E+02 0.  0.
         11    1    3    3    0    0  0.28161516543E+02 -0.15663855522E+02 -0.13731083327E+02  0.35028132025E+02  0.00000000000E+00 0.  1.
        -11    1    3    3    0    0  0.18499880717E+03 -0.15050994657E+02 -0.38107582034E+03  0.42387483052E+03  0.00000000000E+00 0. -1.
          2    1    6    6  502    0 -0.74147119260E+02 -0.11781360448E+03  0.72473500178E+01  0.13939284335E+03  0.00000000000E+00 0. -1.
          3    1    5    5  503    0 -0.86581317622E+02  0.13558494405E+03 -0.11868434600E+04  0.11976965393E+04  0.00000000000E+00 0. -1.
         -4    1    5    5    0  503  0.17622427376E+02  0.31332477432E+02 -0.31678768447E+03  0.31882081350E+03  0.00000000000E+00 0.  1.
         -1    1    6    6    0  502 -0.70054314212E+02 -0.18388966827E+02  0.26709497211E+02  0.77195584601E+02  0.00000000000E+00 0.  1.
<mgrwt>
<rscale>  0 0.11526544E+04</rscale>
<asrwt>0</asrwt>
<pdfrwt beam="1">  1        2 0.31203769E+00 0.11526544E+04</pdfrwt>
<pdfrwt beam="2">  1       -2 0.25194426E-01 0.11526544E+04</pdfrwt>
<totfact> 0.90383813E+01</totfact>
</mgrwt>
</event>
<event>
12    1  0.1532786E-007  0.2735355E+04  0.7818608E-02  0.8323624E-01
         -2   -1    0    0    0  501 -0.00000000000E+00  0.00000000000E+00  0.19074554394E+04  0.19074554394E+04  0.00000000000E+00 0.  1.
          2   -1    0    0  501    0  0.00000000000E+00 -0.00000000000E+00 -0.98064743444E+03  0.98064743444E+03  0.00000000000E+00 0. -1.
         23    2    1    2    0    0  0.81624349726E+03 -0.51119875936E+03  0.11954746329E+04  0.15379487620E+04  0.92461766059E+02 0.  0.
        254    2    1    2    0    0 -0.81624349726E+03  0.51119875936E+03 -0.26866662794E+03  0.13501541119E+04  0.90727986334E+03 0.  0.
        -24    2    4    4    0    0  0.72110073880E+02  0.38199733746E+02  0.20304039471E+03  0.23530291370E+03  0.86504201606E+02 0.  0.
         24    2    4    4    0    0 -0.88835357114E+03  0.47299902562E+03 -0.47170702265E+03  0.11148511982E+04  0.86518976192E+02 0.  0.
         11    1    3    3    0    0  0.23746986765E+01 -0.13159218333E+02  0.16130774487E+02  0.20952472563E+02  0.00000000000E+00 0. -1.
        -11    1    3    3    0    0  0.81386879858E+03 -0.49803954103E+03  0.11793438585E+04  0.15169962895E+04  0.00000000000E+00 0.  1.
          2    1    6    6  502    0 -0.85427167037E+03  0.43653430092E+03 -0.45815684998E+03  0.10631321563E+04  0.00000000000E+00 0. -1.
          3    1    5    5  503    0  0.80077696444E+02  0.55742420964E+02  0.15068694470E+03  0.17951660165E+03  0.00000000000E+00 0. -1.
         -4    1    5    5    0  503 -0.79676225643E+01 -0.17542687218E+02  0.52353450010E+02  0.55786312050E+02  0.00000000000E+00 0.  1.
         -1    1    6    6    0  502 -0.34081900773E+02  0.36464724694E+02 -0.13550172672E+02  0.51719041819E+02  0.00000000000E+00 0.  1.
<mgrwt>
<rscale>  0 0.27353547E+04</rscale>
<asrwt>0</asrwt>
<pdfrwt beam="1">  1        2 0.15086884E+00 0.27353547E+04</pdfrwt>
<pdfrwt beam="2">  1       -2 0.29345468E+00 0.27353547E+04</pdfrwt>
<totfact> 0.79040787E-01</totfact>
</mgrwt>
</event>
<event>
12    1  0.1532786E-007  0.2130813E+04  0.7818608E-02  0.8547790E-01
         -2   -1    0    0    0  501 -0.00000000000E+00  0.00000000000E+00  0.44852435401E+03  0.44852435401E+03  0.00000000000E+00 0.  1.
          2   -1    0    0  501    0  0.00000000000E+00 -0.00000000000E+00 -0.25307228950E+04  0.25307228950E+04  0.00000000000E+00 0. -1.
         23    2    1    2    0    0  0.83514176185E+03 -0.21534342020E+03 -0.10325899336E+04  0.13480175180E+04  0.84111276304E+02 0.  0.
        254    2    1    2    0    0 -0.83514176185E+03  0.21534342020E+03 -0.10496086074E+04  0.16312297311E+04  0.90299371853E+03 0.  0.
        -24    2    4    4    0    0 -0.22742629277E+03  0.50640557140E+03 -0.57425475330E+03  0.80270915978E+03  0.80025946510E+02 0.  0.
         24    2    4    4    0    0 -0.60771546908E+03 -0.29106215120E+03 -0.47535385415E+03  0.82852057129E+03  0.80310542191E+02 0.  0.
         13    1    3    3    0    0  0.50503650015E+03 -0.12226720343E+03 -0.55814791495E+03  0.76258785099E+03  0.00000000000E+00 0. -1.
        -13    1    3    3    0    0  0.33010526170E+03 -0.93076216777E+02 -0.47444201863E+03  0.58542966698E+03  0.00000000000E+00 0.  1.
          2    1    6    6  502    0 -0.13132135657E+03 -0.64183882616E+02 -0.64475449401E+02  0.15975591712E+03  0.00000000000E+00 0. -1.
          3    1    5    5  503    0 -0.48927455356E+02  0.14144388470E+03 -0.20411585329E+03  0.25310778331E+03  0.00000000000E+00 0. -1.
         -4    1    5    5    0  503 -0.17849883741E+03  0.36496168670E+03 -0.37013890001E+03  0.54960137647E+03  0.00000000000E+00 0.  1.
         -1    1    6    6    0  502 -0.47639411251E+03 -0.22687826858E+03 -0.41087840474E+03  0.66876465418E+03  0.00000000000E+00 0.  1.
<mgrwt>
<rscale>  0 0.21308129E+04</rscale>
<asrwt>0</asrwt>
<pdfrwt beam="1">  1        2 0.38934199E+00 0.21308129E+04</pdfrwt>
<pdfrwt beam="2">  1       -2 0.69003745E-01 0.21308129E+04</pdfrwt>
<totfact> 0.58920541E+00</totfact>
</mgrwt>
</event>
<event>
12    1  0.1532786E-007  0.2245961E+04  0.7818608E-02  0.8499538E-01
         -1   -1    0    0    0  501 -0.00000000000E+00  0.00000000000E+00  0.35189182194E+03  0.35189182194E+03  0.00000000000E+00 0.  1.
          1   -1    0    0  501    0  0.00000000000E+00 -0.00000000000E+00 -0.35837293712E+04  0.35837293712E+04  0.00000000000E+00 0. -1.
         23    2    1    2    0    0  0.10365298593E+03  0.78287544848E+03 -0.22295369589E+04  0.23669614605E+04  0.89630323936E+02 0.  0.
        254    2    1    2    0    0 -0.10365298593E+03 -0.78287544848E+03 -0.10023005903E+04  0.15686597326E+04  0.91238641710E+03 0.  0.
        -24    2    4    4    0    0 -0.35941633206E+03 -0.89074188817E+02 -0.86403285152E+02  0.38928029286E+03  0.83422466161E+02 0.  0.
         24    2    4    4    0    0  0.25576334613E+03 -0.69380125966E+03 -0.91589730518E+03  0.11793794398E+04  0.72752403402E+02 0.  0.
         11    1    3    3    0    0  0.66794229883E+02  0.64150050544E+03 -0.19001190568E+04  0.20065983150E+04  0.00000000000E+00 0. -1.
        -11    1    3    3    0    0  0.36858756047E+02  0.14137494303E+03 -0.32941790206E+03  0.36036314547E+03  0.00000000000E+00 0.  1.
          2    1    6    6  502    0  0.14906005036E+03 -0.31206541639E+03 -0.39943001268E+03  0.52834463918E+03  0.00000000000E+00 0. -1.
          1    1    5    5  503    0 -0.14525685273E+03 -0.42235744699E+02  0.59732249019E+01  0.15139052418E+03  0.00000000000E+00 0. -1.
         -2    1    5    5    0  503 -0.21415947933E+03 -0.46838444118E+02 -0.92376510054E+02  0.23788976868E+03  0.00000000000E+00 0.  1.
         -1    1    6    6    0  502  0.10670329577E+03 -0.38173584327E+03 -0.51646729250E+03  0.65103480060E+03  0.00000000000E+00 0.  1.
<mgrwt>
<rscale>  0 0.22459609E+04</rscale>
<asrwt>0</asrwt>
<pdfrwt beam="1">  1        1 0.55134300E+00 0.22459609E+04</pdfrwt>
<pdfrwt beam="2">  1       -1 0.54137201E-01 0.22459609E+04</pdfrwt>
<totfact> 0.67252938E-01</totfact>
</mgrwt>
</event>
<event>
12    1  0.1532786E-007  0.1286211E+04  0.7818608E-02  0.9040572E-01
          2   -1    0    0  501    0  0.00000000000E+00  0.00000000000E+00  0.34713021464E+04  0.34713021464E+04  0.00000000000E+00 0. -1.
         -2   -1    0    0    0  501 -0.00000000000E+00 -0.00000000000E+00 -0.11914402882E+03  0.11914402882E+03  0.00000000000E+00 0.  1.
         23    2    1    2    0    0 -0.26987889992E+03  0.15961263347E+03  0.10148858985E+04  0.10662006003E+04  0.92084307503E+02 0.  0.
        254    2    1    2    0    0  0.26987889992E+03 -0.15961263347E+03  0.23372722191E+04  0.25242455750E+04  0.90036852627E+03 0.  0.
        -24    2    4    4    0    0  0.13430738453E+03  0.36517178103E+03  0.82250820450E+03  0.91343097959E+03  0.80296356124E+02 0.  0.
         24    2    4    4    0    0  0.13557151539E+03 -0.52478441450E+03  0.15147640146E+04  0.16108145954E+04  0.80220466260E+02 0.  0.
         11    1    3    3    0    0 -0.16533371044E+03  0.73905629020E+02  0.70917611168E+03  0.73193444733E+03  0.00000000000E+00 0. -1.
        -11    1    3    3    0    0 -0.10454518947E+03  0.85707004449E+02  0.30570978683E+03  0.33426615296E+03  0.00000000000E+00 0.  1.
          2    1    6    6  502    0  0.12398296433E+03 -0.44333053458E+03  0.11940168685E+04  0.12796835627E+04  0.00000000000E+00 0. -1.
          1    1    5    5  503    0  0.48188554068E+02  0.23732740938E+03  0.47102979684E+03  0.52963714513E+03  0.00000000000E+00 0. -1.
         -2    1    5    5    0  503  0.86118830461E+02  0.12784437166E+03  0.35147840765E+03  0.38379383446E+03  0.00000000000E+00 0.  1.
         -1    1    6    6    0  502  0.11588551064E+02 -0.81453879919E+02  0.32074714614E+03  0.33113103272E+03  0.00000000000E+00 0.  1.
<mgrwt>
<rscale>  0 0.12862114E+04</rscale>
<asrwt>0</asrwt>
<pdfrwt beam="1">  1        2 0.53404641E+00 0.12862114E+04</pdfrwt>
<pdfrwt beam="2">  1       -2 0.18329853E-01 0.12862114E+04</pdfrwt>
<totfact> 0.21232642E+01</totfact>
</mgrwt>
</event>
<event>
12    1  0.1532786E-007  0.3055846E+04  0.7818608E-02  0.8227961E-01
          2   -1    0    0  501    0  0.00000000000E+00  0.00000000000E+00  0.15194729888E+04  0.15194729888E+04  0.00000000000E+00 0. -1.
         -2   -1    0    0    0  501 -0.00000000000E+00 -0.00000000000E+00 -0.15364198607E+04  0.15364198607E+04  0.00000000000E+00 0.  1.
         23    2    1    2    0    0 -0.13642402745E+04  0.14459171360E+03 -0.25556528681E+03  0.13986188491E+04  0.93609716927E+02 0.  0.
        254    2    1    2    0    0  0.13642402745E+04 -0.14459171360E+03  0.23861841490E+03  0.16572740004E+04  0.89864346342E+03 0.  0.
        -24    2    4    4    0    0  0.10363019226E+04  0.15873082700E+03  0.46557849950E+03  0.11499566406E+04  0.80745191112E+02 0.  0.
         24    2    4    4    0    0  0.32793835188E+03 -0.30332254060E+03 -0.22696008460E+03  0.50731735978E+03  0.79447449695E+02 0.  0.
         11    1    3    3    0    0 -0.11684332631E+04  0.14490696852E+03 -0.24447083434E+03  0.12024975296E+04  0.00000000000E+00 0. -1.
        -11    1    3    3    0    0 -0.19580701136E+03 -0.31525492026E+00 -0.11094452468E+02  0.19612131949E+03  0.00000000000E+00 0.  1.
          2    1    6    6  502    0  0.22644757117E+03 -0.19639454478E+03 -0.19146558654E+03  0.35568018013E+03  0.00000000000E+00 0. -1.
          1    1    5    5  503    0  0.34387207916E+03  0.19966089020E+02  0.17439502305E+03  0.38608324958E+03  0.00000000000E+00 0. -1.
         -2    1    5    5    0  503  0.69242984345E+03  0.13876473798E+03  0.29118347645E+03  0.76387339105E+03  0.00000000000E+00 0.  1.
         -1    1    6    6    0  502  0.10149078071E+03 -0.10692799583E+03 -0.35494498058E+02  0.15163717965E+03  0.00000000000E+00 0.  1.
<mgrwt>
<rscale>  0 0.30558459E+04</rscale>
<asrwt>0</asrwt>
<pdfrwt beam="1">  1        2 0.23376508E+00 0.30558459E+04</pdfrwt>
<pdfrwt beam="2">  1       -2 0.23637228E+00 0.30558459E+04</pdfrwt>
<totfact> 0.82281417E-01</totfact>
</mgrwt>
</event>
<event>
12    1  0.1532786E-007  0.1109770E+04  0.7818608E-02  0.9195722E-01
         -1   -1    0    0    0  501 -0.00000000000E+00  0.00000000000E+00  0.33439634351E+03  0.33439634351E+03  0.00000000000E+00 0.  1.
          1   -1    0    0  501    0  0.00000000000E+00 -0.00000000000E+00 -0.92075494236E+03  0.92075494236E+03  0.00000000000E+00 0. -1.
         23    2    1    2    0    0 -0.13374980225E+03  0.45123379387E+02  0.43383719256E-01  0.16635346609E+03  0.88024683062E+02 0.  0.
        254    2    1    2    0    0  0.13374980225E+03 -0.45123379387E+02 -0.58640198256E+03  0.10887978198E+04  0.90647023019E+03 0.  0.
        -24    2    4    4    0    0 -0.44311163981E+02  0.62912267098E+02 -0.78324689878E+03  0.79116907265E+03  0.80940499461E+02 0.  0.
         24    2    4    4    0    0  0.17806096623E+03 -0.10803564649E+03  0.19684491622E+03  0.29762874713E+03  0.80358829430E+02 0.  0.
         13    1    3    3    0    0 -0.13935956874E+03  0.44011384773E+02 -0.18164477740E+02  0.14726859693E+03  0.00000000000E+00 0.  1.
        -13    1    3    3    0    0  0.56097664883E+01  0.11119946143E+01  0.18207861459E+02  0.19084869163E+02  0.00000000000E+00 0. -1.
          4    1    6    6  502    0  0.34350628521E+02  0.15501416999E+01  0.62064236771E+01  0.34941212256E+02  0.00000000000E+00 0. -1.
          3    1    5    5  503    0 -0.13437558549E+02  0.49415754700E+02 -0.18450930026E+03  0.19148411598E+03  0.00000000000E+00 0. -1.
         -4    1    5    5    0  503 -0.30873605432E+02  0.13496512398E+02 -0.59873759853E+03  0.59968495666E+03  0.00000000000E+00 0.  1.
         -3    1    6    6    0  502  0.14371033771E+03 -0.10958578819E+03  0.19063849254E+03  0.26268753487E+03  0.00000000000E+00 0.  1.
<mgrwt>
<rscale>  0 0.11097695E+04</rscale>
<asrwt>0</asrwt>
<pdfrwt beam="1">  1        1 0.14165461E+00 0.11097695E+04</pdfrwt>
<pdfrwt beam="2">  1       -1 0.51445592E-01 0.11097695E+04</pdfrwt>
<totfact> 0.66222094E+01</totfact>
</mgrwt>
</event>
<event>
12    1  0.1532786E-007  0.1514230E+04  0.7818608E-02  0.8875045E-01
         -1   -1    0    0    0  501 -0.00000000000E+00  0.00000000000E+00  0.42463750296E+03  0.42463750296E+03  0.00000000000E+00 0. -1.
          1   -1    0    0  501    0  0.00000000000E+00 -0.00000000000E+00 -0.13499113124E+04  0.13499113124E+04  0.00000000000E+00 0.  1.
         23    2    1    2    0    0  0.20436485060E+03 -0.40551785049E+03 -0.47069289946E+03  0.65991501833E+03  0.87899411744E+02 0.  0.
        254    2    1    2    0    0 -0.20436485060E+03  0.40551785049E+03 -0.45458091002E+03  0.11146337971E+04  0.91079908794E+03 0.  0.
        -24    2    4    4    0    0 -0.35215526861E+03  0.44907716776E+03 -0.64030317066E+03  0.86136992307E+03  0.79286557552E+02 0.  0.
         24    2    4    4    0    0  0.14779041800E+03 -0.43559317267E+02  0.18572226064E+03  0.25326387400E+03  0.76879190951E+02 0.  0.
         13    1    3    3    0    0  0.22762630645E+02 -0.18981578119E+02 -0.89716710525E+01  0.30966571384E+02  0.00000000000E+00 0. -1.
        -13    1    3    3    0    0  0.18160221996E+03 -0.38653627237E+03 -0.46172122840E+03  0.62894844694E+03  0.00000000000E+00 0.  1.
          2    1    6    6  502    0  0.11480308153E+03  0.28065609035E+01  0.11539932158E+03  0.16280241931E+03  0.00000000000E+00 0. -1.
          1    1    5    5  503    0 -0.32988305862E+03  0.44312787633E+03 -0.62221409697E+03  0.83206702231E+03  0.00000000000E+00 0. -1.
         -2    1    5    5    0  503 -0.22272209988E+02  0.59492914283E+01 -0.18089073686E+02  0.29302900762E+02  0.00000000000E+00 0.  1.
         -1    1    6    6    0  502  0.32987336477E+02 -0.46365878170E+02  0.70322939064E+02  0.90461454692E+02  0.00000000000E+00 0.  1.
<mgrwt>
<rscale>  0 0.15142298E+04</rscale>
<asrwt>0</asrwt>
<pdfrwt beam="1">  1        1 0.20767866E+00 0.15142298E+04</pdfrwt>
<pdfrwt beam="2">  1       -1 0.65328847E-01 0.15142298E+04</pdfrwt>
<totfact> 0.19128550E+01</totfact>
</mgrwt>
</event>
<event>
12    1  0.1532786E-007  0.1459429E+04  0.7818608E-02  0.8911890E-01
         -2   -1    0    0    0  501 -0.00000000000E+00  0.00000000000E+00  0.23371037883E+03  0.23371037883E+03  0.00000000000E+00 0.  1.
          2   -1    0    0  501    0  0.00000000000E+00 -0.00000000000E+00 -0.22783885762E+04  0.22783885762E+04  0.00000000000E+00 0. -1.
         23    2    1    2    0    0 -0.55917223494E+02 -0.26147556800E+03 -0.24555816687E+02  0.28523316338E+03  0.96222454830E+02 0.  0.
        254    2    1    2    0    0  0.55917223494E+02  0.26147556800E+03 -0.20201223807E+04  0.22268657917E+04  0.89807606165E+03 0.  0.
        -24    2    4    4    0    0 -0.14076454974E+03 -0.19515334313E+03 -0.15983450557E+03  0.29958081637E+03  0.79385833561E+02 0.  0.
         24    2    4    4    0    0  0.19668177324E+03  0.45662891113E+03 -0.18602878751E+04  0.19272849753E+04  0.81010586954E+02 0.  0.
         13    1    3    3    0    0  0.63720230083E+01 -0.58106910984E+02 -0.41767475234E+02  0.71843842943E+02  0.00000000000E+00 0.  1.
        -13    1    3    3    0    0 -0.62289246502E+02 -0.20336865702E+03  0.17211658547E+02  0.21338932044E+03  0.00000000000E+00 0. -1.
          4    1    6    6  502    0  0.16269578606E+03  0.29261314407E+03 -0.11694884454E+04  0.12164684931E+04  0.00000000000E+00 0. -1.
          3    1    5    5  503    0 -0.11078857204E+03 -0.86535289538E+02 -0.84077912566E+02  0.16380341697E+03  0.00000000000E+00 0. -1.
         -4    1    5    5    0  503 -0.29975977703E+02 -0.10861805359E+03 -0.75756593001E+02  0.13577739940E+03  0.00000000000E+00 0.  1.
         -3    1    6    6    0  502  0.33985987172E+02  0.16401576706E+03 -0.69079942976E+03  0.71081648217E+03  0.00000000000E+00 0.  1.
<mgrwt>
<rscale>  0 0.14594287E+04</rscale>
<asrwt>0</asrwt>
<pdfrwt beam="1">  1        2 0.35052131E+00 0.14594287E+04</pdfrwt>
<pdfrwt beam="2">  1       -2 0.35955444E-01 0.14594287E+04</pdfrwt>
<totfact> 0.32931786E+01</totfact>
</mgrwt>
</event>
<event>
12    1  0.1532786E-007  0.2433697E+04  0.7818608E-02  0.8426995E-01
         -1   -1    0    0    0  501 -0.00000000000E+00  0.00000000000E+00  0.43615267713E+03  0.43615267713E+03  0.00000000000E+00 0.  1.
          1   -1    0    0  501    0  0.00000000000E+00 -0.00000000000E+00 -0.33949576964E+04  0.33949576964E+04  0.00000000000E+00 0. -1.
         23    2    1    2    0    0 -0.49606792229E+03  0.78122734962E+03 -0.18088116342E+04  0.20338144626E+04  0.90565916511E+02 0.  0.
        254    2    1    2    0    0  0.49606792229E+03 -0.78122734962E+03 -0.11499933851E+04  0.17972959109E+04  0.10253722496E+04 0.  0.
        -24    2    4    4    0    0  0.52380834312E+03 -0.91769308547E+03 -0.12255615966E+04  0.16201248400E+04  0.79167483761E+02 0.  0.
         24    2    4    4    0    0 -0.27740420829E+02  0.13646573585E+03  0.75568211475E+02  0.17717107097E+03  0.79288118880E+02 0.  0.
         13    1    3    3    0    0 -0.17243391736E+02  0.41967766949E+02 -0.55353473350E+02  0.71572585766E+02  0.00000000000E+00 0.  1.
        -13    1    3    3    0    0 -0.47882453056E+03  0.73925958267E+03 -0.17534581608E+04  0.19622418769E+04  0.00000000000E+00 0. -1.
          2    1    6    6  502    0  0.10060843756E+02  0.81639962581E+02  0.85639036314E+01  0.82702143339E+02  0.00000000000E+00 0. -1.
          3    1    5    5  503    0  0.38541545544E+03 -0.73591161599E+03 -0.97987217344E+03  0.12846246363E+04  0.00000000000E+00 0. -1.
         -2    1    5    5    0  503  0.13839288768E+03 -0.18178146948E+03 -0.24568942318E+03  0.33550020368E+03  0.00000000000E+00 0.  1.
         -1    1    6    6    0  502 -0.37801264586E+02  0.54825773265E+02  0.67004307844E+02  0.94468927632E+02  0.00000000000E+00 0.  1.
<mgrwt>
<rscale>  0 0.24336967E+04</rscale>
<asrwt>0</asrwt>
<pdfrwt beam="1">  1        1 0.52230118E+00 0.24336967E+04</pdfrwt>
<pdfrwt beam="2">  1       -1 0.67100412E-01 0.24336967E+04</pdfrwt>
<totfact> 0.60748773E-01</totfact>
</mgrwt>
</event>
<event>
12    1  0.1532786E-007  0.1283391E+04  0.7818608E-02  0.9042841E-01
         -2   -1    0    0    0  501 -0.00000000000E+00  0.00000000000E+00  0.26475111197E+03  0.26475111197E+03  0.00000000000E+00 0.  1.
          2   -1    0    0  501    0  0.00000000000E+00 -0.00000000000E+00 -0.15553221151E+04  0.15553221151E+04  0.00000000000E+00 0. -1.
         23    2    1    2    0    0 -0.22728772848E+03 -0.12268029473E+03 -0.57812740374E+03  0.63987885472E+03  0.92214356374E+02 0.  0.
        254    2    1    2    0    0  0.22728772848E+03  0.12268029473E+03 -0.71244359939E+03  0.11801943724E+04  0.90475008041E+03 0.  0.
        -24    2    4    4    0    0  0.42337799301E+03  0.25638759088E+03 -0.89911888098E+02  0.50936482777E+03  0.79905309107E+02 0.  0.
         24    2    4    4    0    0 -0.19609026453E+03 -0.13370729615E+03 -0.62253171130E+03  0.67082954459E+03  0.78342283882E+02 0.  0.
         13    1    3    3    0    0 -0.14642064294E+02  0.79345002126E+01 -0.91386586328E+02  0.92891627723E+02  0.00000000000E+00 0.  1.
        -13    1    3    3    0    0 -0.21264566419E+03 -0.13061479495E+03 -0.48674081742E+03  0.54698722700E+03  0.00000000000E+00 0. -1.
          2    1    6    6  502    0 -0.17808261185E+03 -0.11880578479E+03 -0.46923709320E+03  0.51576320224E+03  0.00000000000E+00 0. -1.
          3    1    5    5  503    0  0.26024637869E+03  0.18000295306E+03 -0.23209168492E+02  0.31728206100E+03  0.00000000000E+00 0. -1.
         -4    1    5    5    0  503  0.16313161433E+03  0.76384637820E+02 -0.66702719607E+02  0.19208276677E+03  0.00000000000E+00 0.  1.
         -1    1    6    6    0  502 -0.18007652676E+02 -0.14901511359E+02 -0.15329461809E+03  0.15506634235E+03  0.00000000000E+00 0.  1.
<mgrwt>
<rscale>  0 0.12833912E+04</rscale>
<asrwt>0</asrwt>
<pdfrwt beam="1">  1        2 0.23928032E+00 0.12833912E+04</pdfrwt>
<pdfrwt beam="2">  1       -2 0.40730940E-01 0.12833912E+04</pdfrwt>
<totfact> 0.66145790E+01</totfact>
</mgrwt>
</event>
<event>
12    1  0.1532786E-007  0.1702229E+04  0.7818608E-02  0.8760094E-01
         -2   -1    0    0    0  501 -0.00000000000E+00  0.00000000000E+00  0.29428816654E+03  0.29428816654E+03  0.00000000000E+00 0. -1.
          2   -1    0    0  501    0  0.00000000000E+00 -0.00000000000E+00 -0.24615182425E+04  0.24615182425E+04  0.00000000000E+00 0.  1.
         23    2    1    2    0    0  0.38715953928E+03 -0.36266391011E+03 -0.13002832168E+04  0.14074609825E+04  0.93767546499E+02 0.  0.
        254    2    1    2    0    0 -0.38715953928E+03  0.36266391011E+03 -0.86694685918E+03  0.13483454266E+04  0.88601405869E+03 0.  0.
        -24    2    4    4    0    0 -0.51543464559E+03  0.57151506008E+03 -0.68184254858E+03  0.10311825284E+04  0.78267541852E+02 0.  0.
         24    2    4    4    0    0  0.12827510631E+03 -0.20885114997E+03 -0.18510431061E+03  0.31716289817E+03  0.79091038840E+02 0.  0.
         11    1    3    3    0    0  0.34485545073E+03 -0.35557227634E+03 -0.11795264708E+04  0.12793121671E+04  0.00000000000E+00 0.  1.
        -11    1    3    3    0    0  0.42304088548E+02 -0.70916337722E+01 -0.12075674602E+03  0.12814881540E+03  0.00000000000E+00 0. -1.
          2    1    6    6  502    0  0.73990332472E+01 -0.27427297511E+02  0.38505076294E+01  0.28667555716E+02  0.00000000000E+00 0. -1.
          1    1    5    5  503    0 -0.18257458792E+03  0.24825902062E+03 -0.30297990100E+03  0.43216066675E+03  0.00000000000E+00 0. -1.
         -2    1    5    5    0  503 -0.33286005767E+03  0.32325603945E+03 -0.37886264758E+03  0.59902186167E+03  0.00000000000E+00 0.  1.
         -1    1    6    6    0  502  0.12087607306E+03 -0.18142385246E+03 -0.18895481824E+03  0.28849534245E+03  0.00000000000E+00 0.  1.
<mgrwt>
<rscale>  0 0.17022288E+04</rscale>
<asrwt>0</asrwt>
<pdfrwt beam="1">  1        2 0.37869512E+00 0.17022288E+04</pdfrwt>
<pdfrwt beam="2">  1       -2 0.45275102E-01 0.17022288E+04</pdfrwt>
<totfact> 0.16151466E+01</totfact>
</mgrwt>
</event>
<event>
12    1  0.1532786E-007  0.1153316E+04  0.7818608E-02  0.9154730E-01
          1   -1    0    0  501    0  0.00000000000E+00  0.00000000000E+00  0.54688024105E+03  0.54688024105E+03  0.00000000000E+00 0. -1.
         -1   -1    0    0    0  501 -0.00000000000E+00 -0.00000000000E+00 -0.60805733782E+03  0.60805733782E+03  0.00000000000E+00 0.  1.
         23    2    1    2    0    0 -0.57401502980E+02 -0.38095004409E+02  0.20909349575E+03  0.23776667007E+03  0.89815018356E+02 0.  0.
        254    2    1    2    0    0  0.57401502980E+02  0.38095004409E+02 -0.27027059252E+03  0.91717090881E+03  0.87373343811E+03 0.  0.
        -24    2    4    4    0    0  0.38393165082E+03 -0.10722406453E+03 -0.35696172810E+03  0.54084638961E+03  0.78693260865E+02 0.  0.
         24    2    4    4    0    0 -0.32653014784E+03  0.14531906894E+03  0.86691135583E+02  0.37632451920E+03  0.79782338404E+02 0.  0.
         13    1    3    3    0    0 -0.45968409464E+00 -0.36800634383E+02  0.15467123812E+03  0.15898959054E+03  0.00000000000E+00 0. -1.
        -13    1    3    3    0    0 -0.56941818886E+02 -0.12943700257E+01  0.54422257635E+02  0.78777079521E+02  0.00000000000E+00 0.  1.
          2    1    6    6  502    0 -0.21498083404E+03  0.56081122437E+02  0.37994399836E+02  0.22540058943E+03  0.00000000000E+00 0. -1.
          3    1    5    5  503    0  0.52250684103E+02  0.12423878169E+02 -0.46074298983E+02  0.70762474269E+02  0.00000000000E+00 0. -1.
         -4    1    5    5    0  503  0.33168096671E+03 -0.11964794270E+03 -0.31088742912E+03  0.47008391534E+03  0.00000000000E+00 0.  1.
         -1    1    6    6    0  502 -0.11154931380E+03  0.89237946503E+02  0.48696735748E+02  0.15092392977E+03  0.00000000000E+00 0.  1.
<mgrwt>
<rscale>  0 0.11533162E+04</rscale>
<asrwt>0</asrwt>
<pdfrwt beam="1">  1        1 0.84135422E-01 0.11533162E+04</pdfrwt>
<pdfrwt beam="2">  1       -1 0.93547283E-01 0.11533162E+04</pdfrwt>
<totfact> 0.43063402E+01</totfact>
</mgrwt>
</event>
<event>
12    1  0.1532786E-007  0.1267702E+04  0.7818608E-02  0.9055577E-01
         -3   -1    0    0    0  501 -0.00000000000E+00  0.00000000000E+00  0.94719705919E+03  0.94719705919E+03  0.00000000000E+00 0.  1.
          3   -1    0    0  501    0  0.00000000000E+00 -0.00000000000E+00 -0.42416424414E+03  0.42416424414E+03  0.00000000000E+00 0. -1.
         23    2    1    2    0    0  0.16504512111E+03 -0.21560347222E+03 -0.53399688228E+01  0.28709325274E+03  0.93108921534E+02 0.  0.
        254    2    1    2    0    0 -0.16504512111E+03  0.21560347222E+03  0.52837278387E+03  0.10842680506E+04  0.90704721902E+03 0.  0.
        -24    2    4    4    0    0  0.22737046530E+03  0.24517172990E+03 -0.82784045872E+02  0.35304205611E+03  0.77323925752E+02 0.  0.
         24    2    4    4    0    0 -0.39241558641E+03 -0.29568257686E+02  0.61115682975E+03  0.73122599447E+03  0.79463891967E+02 0.  0.
         13    1    3    3    0    0  0.42264550506E+02 -0.40995721769E+02 -0.39527537452E+02  0.70918034730E+02  0.00000000000E+00 0.  1.
        -13    1    3    3    0    0  0.12278057060E+03 -0.17460775045E+03  0.34187568630E+02  0.21617521801E+03  0.00000000000E+00 0. -1.
          2    1    6    6  502    0 -0.31641394663E+03 -0.54728941189E+02  0.47761018767E+03  0.57552109778E+03  0.00000000000E+00 0. -1.
          3    1    5    5  503    0  0.49454638475E+02  0.99368099433E+02 -0.45744264834E+02  0.12005131493E+03  0.00000000000E+00 0. -1.
         -4    1    5    5    0  503  0.17791582683E+03  0.14580363047E+03 -0.37039781038E+02  0.23299074118E+03  0.00000000000E+00 0.  1.
         -1    1    6    6    0  502 -0.76001639780E+02  0.25160683503E+02  0.13354664208E+03  0.15570489670E+03  0.00000000000E+00 0.  1.
<mgrwt>
<rscale>  0 0.12677021E+04</rscale>
<asrwt>0</asrwt>
<pdfrwt beam="1">  1        3 0.65256038E-01 0.12677021E+04</pdfrwt>
<pdfrwt beam="2">  1       -3 0.14572262E+00 0.12677021E+04</pdfrwt>
<totfact> 0.20321871E+00</totfact>
</mgrwt>
</event>
<event>
12    1  0.1532786E-007  0.1309495E+04  0.7818608E-02  0.9022069E-01
         -1   -1    0    0    0  501 -0.00000000000E+00  0.00000000000E+00  0.23226400742E+03  0.23226400742E+03  0.00000000000E+00 0.  1.
          1   -1    0    0  501    0  0.00000000000E+00 -0.00000000000E+00 -0.18457197088E+04  0.18457197088E+04  0.00000000000E+00 0. -1.
         23    2    1    2    0    0  0.16421460177E+03 -0.18134888577E+03 -0.65941480874E+03  0.70833352087E+03  0.83991862671E+02 0.  0.
        254    2    1    2    0    0 -0.16421460177E+03  0.18134888577E+03 -0.95404089269E+03  0.13696501954E+04  0.95178452342E+03 0.  0.
        -24    2    4    4    0    0 -0.17294674099E+03  0.35499539822E+03 -0.64919254072E+01  0.40273779501E+03  0.78887758619E+02 0.  0.
         24    2    4    4    0    0  0.87321392251E+01 -0.17364651245E+03 -0.94754896728E+03  0.96691240039E+03  0.82711444706E+02 0.  0.
         11    1    3    3    0    0 -0.42346087065E+01 -0.15893939696E+02 -0.15933582099E+02  0.22900398872E+02  0.00000000000E+00 0.  1.
        -11    1    3    3    0    0  0.16844921047E+03 -0.16545494607E+03 -0.64348122664E+03  0.68543312199E+03  0.00000000000E+00 0. -1.
          4    1    6    6  502    0  0.24843713571E+02 -0.17271843907E+03 -0.89815794087E+03  0.91495166870E+03  0.00000000000E+00 0. -1.
          3    1    5    5  503    0 -0.17535882265E+03  0.33850293496E+03  0.70018037240E+01  0.38129251096E+03  0.00000000000E+00 0. -1.
         -4    1    5    5    0  503  0.24120816587E+01  0.16492463256E+02 -0.13493729131E+02  0.21445284051E+02  0.00000000000E+00 0.  1.
         -3    1    6    6    0  502 -0.16111574346E+02 -0.92807338123E+00 -0.49391026409E+02  0.51960731691E+02  0.00000000000E+00 0.  1.
<mgrwt>
<rscale>  0 0.13094950E+04</rscale>
<asrwt>0</asrwt>
<pdfrwt beam="1">  1        1 0.28395687E+00 0.13094950E+04</pdfrwt>
<pdfrwt beam="2">  1       -1 0.35732926E-01 0.13094950E+04</pdfrwt>
<totfact> 0.27856212E+01</totfact>
</mgrwt>
</event>
<event>
12    1  0.1532786E-007  0.1176087E+04  0.7818608E-02  0.9134049E-01
         -2   -1    0    0    0  501 -0.00000000000E+00  0.00000000000E+00  0.18145805810E+03  0.18145805810E+03  0.00000000000E+00 0. -1.
          2   -1    0    0  501    0  0.00000000000E+00 -0.00000000000E+00 -0.19056482424E+04  0.19056482424E+04  0.00000000000E+00 0.  1.
         23    2    1    2    0    0 -0.19634498936E+03  0.35321724795E+02 -0.16054089401E+03  0.27223367044E+03  0.92405701041E+02 0.  0.
        254    2    1    2    0    0  0.19634498936E+03 -0.35321724795E+02 -0.15636492903E+04  0.18148726301E+04  0.89942458341E+03 0.  0.
        -24    2    4    4    0    0  0.38225681977E+03  0.26970319322E+03 -0.12343864388E+04  0.13225560102E+04  0.81144507306E+02 0.  0.
         24    2    4    4    0    0 -0.18591183040E+03 -0.30502491801E+03 -0.32926285148E+03  0.49231661988E+03  0.79738444634E+02 0.  0.
         13    1    3    3    0    0 -0.89468447150E+02  0.15250545466E+02 -0.17303402754E+02  0.92393668177E+02  0.00000000000E+00 0.  1.
        -13    1    3    3    0    0 -0.10687654221E+03  0.20071179328E+02 -0.14323749125E+03  0.17984000227E+03  0.00000000000E+00 0. -1.
          4    1    6    6  502    0 -0.16269406715E+03 -0.26791942241E+03 -0.31927186362E+03  0.44742004793E+03  0.00000000000E+00 0. -1.
          3    1    5    5  503    0  0.20430206388E+03  0.18707075640E+03 -0.77525373992E+03  0.82325765254E+03  0.00000000000E+00 0. -1.
         -4    1    5    5    0  503  0.17795475588E+03  0.82632436819E+02 -0.45913269893E+03  0.49929835768E+03  0.00000000000E+00 0.  1.
         -3    1    6    6    0  502 -0.23217763255E+02 -0.37105495600E+02 -0.99909878594E+01  0.44896571948E+02  0.00000000000E+00 0.  1.
<mgrwt>
<rscale>  0 0.11760871E+04</rscale>
<asrwt>0</asrwt>
<pdfrwt beam="1">  1        2 0.29317662E+00 0.11760871E+04</pdfrwt>
<pdfrwt beam="2">  1       -2 0.27916627E-01 0.11760871E+04</pdfrwt>
<totfact> 0.87404320E+01</totfact>
</mgrwt>
</event>
<event>
12    1  0.1532786E-007  0.2165637E+04  0.7818608E-02  0.8532868E-01
          1   -1    0    0  501    0  0.00000000000E+00  0.00000000000E+00  0.16748098704E+04  0.16748098704E+04  0.00000000000E+00 0. -1.
         -1   -1    0    0    0  501 -0.00000000000E+00 -0.00000000000E+00 -0.70007698326E+03  0.70007698326E+03  0.00000000000E+00 0.  1.
         23    2    1    2    0    0  0.31749879042E+03 -0.32558049474E+03  0.12478978214E+04  0.13313993139E+04  0.92558197624E+02 0.  0.
        254    2    1    2    0    0 -0.31749879042E+03  0.32558049474E+03 -0.27316493427E+03  0.10434875397E+04  0.89857610907E+03 0.  0.
        -24    2    4    4    0    0 -0.42374714953E+03  0.56774560208E+03 -0.28856051205E+03  0.76927545242E+03  0.81368526824E+02 0.  0.
         24    2    4    4    0    0  0.10624835911E+03 -0.24216510734E+03  0.15395577781E+02  0.27421208732E+03  0.70870247557E+02 0.  0.
         11    1    3    3    0    0  0.27677218180E+03 -0.23577917761E+03  0.10280852923E+04  0.10904833926E+04  0.00000000000E+00 0. -1.
        -11    1    3    3    0    0  0.40726608622E+02 -0.89801317133E+02  0.21981252910E+03  0.24091592134E+03  0.00000000000E+00 0.  1.
          2    1    6    6  502    0  0.88564097864E+02 -0.14958407501E+03  0.36492179388E+02  0.17762509419E+03  0.00000000000E+00 0. -1.
          3    1    5    5  503    0 -0.35477378760E+03  0.46017099354E+03 -0.26786527037E+03  0.63982309019E+03  0.00000000000E+00 0. -1.
         -4    1    5    5    0  503 -0.68973361923E+02  0.10757460855E+03 -0.20695241680E+02  0.12945236223E+03  0.00000000000E+00 0.  1.
         -1    1    6    6    0  502  0.17684261243E+02 -0.92581032329E+02 -0.21096601607E+02  0.96586993132E+02  0.00000000000E+00 0.  1.
<mgrwt>
<rscale>  0 0.21656369E+04</rscale>
<asrwt>0</asrwt>
<pdfrwt beam="1">  1        1 0.25766306E+00 0.21656369E+04</pdfrwt>
<pdfrwt beam="2">  1       -1 0.10770415E+00 0.21656369E+04</pdfrwt>
<totfact> 0.36369224E+00</totfact>
</mgrwt>
</event>
<event>
12    1  0.1532786E-007  0.1805294E+04  0.7818608E-02  0.8703489E-01
          2   -1    0    0  501    0  0.00000000000E+00  0.00000000000E+00  0.12829390673E+04  0.12829390673E+04  0.00000000000E+00 0.  1.
         -2   -1    0    0    0  501 -0.00000000000E+00 -0.00000000000E+00 -0.63508214727E+03  0.63508214727E+03  0.00000000000E+00 0. -1.
         23    2    1    2    0    0 -0.51149566014E+03 -0.11664640933E+03  0.70617164841E+03  0.88466433995E+03  0.93372384614E+02 0.  0.
        254    2    1    2    0    0  0.51149566014E+03  0.11664640933E+03 -0.58314728363E+02  0.10333568746E+04  0.88836458038E+03 0.  0.
        -24    2    4    4    0    0  0.21051110593E+03  0.48694014131E+03  0.41417496716E+02  0.53879759547E+03  0.84627495028E+02 0.  0.
         24    2    4    4    0    0  0.30098455421E+03 -0.37029373198E+03 -0.99732225079E+02  0.49455927917E+03  0.83265923904E+02 0.  0.
         11    1    3    3    0    0 -0.38159022129E+03 -0.65016698167E+02  0.45650744285E+03  0.59852929202E+03  0.00000000000E+00 0. -1.
        -11    1    3    3    0    0 -0.12990543885E+03 -0.51629711164E+02  0.24966420555E+03  0.28613504792E+03  0.00000000000E+00 0.  1.
          2    1    6    6  502    0  0.44356073270E+02 -0.95151594329E+02 -0.45524183713E+02  0.11442787441E+03  0.00000000000E+00 0. -1.
          3    1    5    5  503    0  0.65996245320E+02  0.93667904025E+02  0.34838810900E+02  0.11976194465E+03  0.00000000000E+00 0. -1.
         -4    1    5    5    0  503  0.14451486061E+03  0.39327223728E+03  0.65786858160E+01  0.41903565082E+03  0.00000000000E+00 0.  1.
         -1    1    6    6    0  502  0.25662848094E+03 -0.27514213765E+03 -0.54208041366E+02  0.38013140476E+03  0.00000000000E+00 0.  1.
<mgrwt>
<rscale>  0 0.18052941E+04</rscale>
<asrwt>0</asrwt>
<pdfrwt beam="1">  1        2 0.19737524E+00 0.18052941E+04</pdfrwt>
<pdfrwt beam="2">  1       -2 0.97704946E-01 0.18052941E+04</pdfrwt>
<totfact> 0.13930962E+01</totfact>
</mgrwt>
</event>
<event>
12    1  0.1532786E-007  0.1572201E+04  0.7818608E-02  0.8837811E-01
          2   -1    0    0  501    0  0.00000000000E+00  0.00000000000E+00  0.15798483672E+04  0.15798483672E+04  0.00000000000E+00 0. -1.
         -2   -1    0    0    0  501 -0.00000000000E+00 -0.00000000000E+00 -0.39114745984E+03  0.39114745984E+03  0.00000000000E+00 0.  1.
         23    2    1    2    0    0 -0.14172787786E+03  0.52519686095E+03  0.40379097085E+03  0.68306859943E+03  0.87275593833E+02 0.  0.
        254    2    1    2    0    0  0.14172787786E+03 -0.52519686095E+03  0.78490993653E+03  0.12879272276E+04  0.86414952472E+03 0.  0.
        -24    2    4    4    0    0 -0.23991572190E+03  0.38090795153E+02  0.46845494033E+03  0.53336267644E+03  0.77558050573E+02 0.  0.
         24    2    4    4    0    0  0.38164359977E+03 -0.56328765610E+03  0.31645499620E+03  0.75456455118E+03  0.79240624183E+02 0.  0.
         13    1    3    3    0    0 -0.15092212348E+03  0.45475717229E+03  0.36326516746E+03  0.60128458736E+03  0.00000000000E+00 0. -1.
        -13    1    3    3    0    0  0.91942456163E+01  0.70439688658E+02  0.40525803387E+02  0.81784012074E+02  0.00000000000E+00 0.  1.
          4    1    6    6  502    0  0.35616302726E+03 -0.52988192153E+03  0.31638711727E+03  0.71255018120E+03  0.00000000000E+00 0. -1.
          3    1    5    5  503    0 -0.16110866294E+03  0.61968414598E+02  0.31265789533E+03  0.35714289184E+03  0.00000000000E+00 0. -1.
         -4    1    5    5    0  503 -0.78807058969E+02 -0.23877619445E+02  0.15579704500E+03  0.17621978460E+03  0.00000000000E+00 0.  1.
         -3    1    6    6    0  502  0.25480572507E+02 -0.33405734568E+02  0.67878929261E-01  0.42014369981E+02  0.00000000000E+00 0.  1.
<mgrwt>
<rscale>  0 0.15722006E+04</rscale>
<asrwt>0</asrwt>
<pdfrwt beam="1">  1        2 0.24305359E+00 0.15722006E+04</pdfrwt>
<pdfrwt beam="2">  1       -2 0.60176533E-01 0.15722006E+04</pdfrwt>
<totfact> 0.28305998E+01</totfact>
</mgrwt>
</event>
<event>
12    1  0.1532786E-007  0.1930862E+04  0.7818608E-02  0.8639645E-01
         -1   -1    0    0    0  501 -0.00000000000E+00  0.00000000000E+00  0.80124649576E+03  0.80124649576E+03  0.00000000000E+00 0.  1.
          1   -1    0    0  501    0  0.00000000000E+00 -0.00000000000E+00 -0.11632582274E+04  0.11632582274E+04  0.00000000000E+00 0. -1.
         23    2    1    2    0    0 -0.70289915365E+03  0.19105257196E+03 -0.33932254692E+03  0.80850645007E+03  0.89300523538E+02 0.  0.
        254    2    1    2    0    0  0.70289915365E+03 -0.19105257196E+03 -0.22689184678E+02  0.11559982730E+04  0.89735661959E+03 0.  0.
        -24    2    4    4    0    0 -0.81020740589E+02  0.27944724920E+02  0.26404899763E+03  0.28916860658E+03  0.80940359658E+02 0.  0.
         24    2    4    4    0    0  0.78391989424E+03 -0.21899729688E+03 -0.28673818231E+03  0.86682966647E+03  0.81759824131E+02 0.  0.
         11    1    3    3    0    0 -0.54425434122E+03  0.10830275306E+03 -0.25654260261E+03  0.61135618195E+03  0.00000000000E+00 0. -1.
        -11    1    3    3    0    0 -0.15864481243E+03  0.82749818906E+02 -0.82779944308E+02  0.19715026812E+03  0.00000000000E+00 0.  1.
          2    1    6    6  502    0  0.73419686666E+03 -0.18365713585E+03 -0.27044611116E+03  0.80368904535E+03  0.00000000000E+00 0. -1.
          3    1    5    5  503    0 -0.77414925283E+02  0.34287746393E+02  0.26786991143E+03  0.28093239339E+03  0.00000000000E+00 0. -1.
         -2    1    5    5    0  503 -0.36058153058E+01 -0.63430214723E+01 -0.38209137925E+01  0.82362131849E+01  0.00000000000E+00 0.  1.
         -1    1    6    6    0  502  0.49723027577E+02 -0.35340161028E+02 -0.16292071156E+02  0.63140621120E+02  0.00000000000E+00 0.  1.
<mgrwt>
<rscale>  0 0.19308615E+04</rscale>
<asrwt>0</asrwt>
<pdfrwt beam="1">  1        1 0.17896280E+00 0.19308615E+04</pdfrwt>
<pdfrwt beam="2">  1       -1 0.12326869E+00 0.19308615E+04</pdfrwt>
<totfact> 0.61489563E+00</totfact>
</mgrwt>
</event>
<event>
12    1  0.1532786E-007  0.1835676E+04  0.7818608E-02  0.8687554E-01
          1   -1    0    0  501    0  0.00000000000E+00  0.00000000000E+00  0.76212619742E+03  0.76212619742E+03  0.00000000000E+00 0. -1.
         -1   -1    0    0    0  501 -0.00000000000E+00 -0.00000000000E+00 -0.11053634029E+04  0.11053634029E+04  0.00000000000E+00 0.  1.
         23    2    1    2    0    0  0.56874233199E+03  0.87447578344E+02 -0.52012167965E+03  0.78256243621E+03  0.10374240107E+03 0.  0.
        254    2    1    2    0    0 -0.56874233199E+03 -0.87447578344E+02  0.17688447422E+03  0.10849271641E+04  0.90258734477E+03 0.  0.
        -24    2    4    4    0    0 -0.58444702554E+03 -0.27061139122E+03 -0.18204953631E+03  0.67398122641E+03  0.79371337149E+02 0.  0.
         24    2    4    4    0    0  0.15704693552E+02  0.18316381288E+03  0.35893401052E+03  0.41094593765E+03  0.79039989967E+02 0.  0.
         11    1    3    3    0    0  0.44093677686E+03  0.29310399883E+02 -0.42386824845E+03  0.61233049309E+03  0.00000000000E+00 0.  1.
        -11    1    3    3    0    0  0.12780555513E+03  0.58137178461E+02 -0.96253431203E+02  0.17023194312E+03  0.00000000000E+00 0. -1.
          4    1    6    6  502    0 -0.16779969401E+00  0.14453457987E+02  0.10292475590E+03  0.10393476792E+03  0.00000000000E+00 0. -1.
          1    1    5    5  503    0 -0.16057443343E+02 -0.13866436001E+02 -0.20967969588E+02  0.29829101273E+02  0.00000000000E+00 0. -1.
         -2    1    5    5    0  503 -0.56838958220E+03 -0.25674495522E+03 -0.16108156672E+03  0.64415212513E+03  0.00000000000E+00 0.  1.
         -3    1    6    6    0  502  0.15872493246E+02  0.16871035489E+03  0.25600925462E+03  0.30701116973E+03  0.00000000000E+00 0.  1.
<mgrwt>
<rscale>  0 0.18356758E+04</rscale>
<asrwt>0</asrwt>
<pdfrwt beam="1">  1        1 0.11725018E+00 0.18356758E+04</pdfrwt>
<pdfrwt beam="2">  1       -1 0.17005591E+00 0.18356758E+04</pdfrwt>
<totfact> 0.55232864E+00</totfact>
</mgrwt>
</event>
<event>
12    1  0.1532786E-007  0.3032368E+04  0.7818608E-02  0.8234548E-01
         -2   -1    0    0    0  501 -0.00000000000E+00  0.00000000000E+00  0.99238402215E+03  0.99238402215E+03  0.00000000000E+00 0.  1.
          2   -1    0    0  501    0  0.00000000000E+00 -0.00000000000E+00 -0.23164567087E+04  0.23164567087E+04  0.00000000000E+00 0. -1.
         23    2    1    2    0    0 -0.34328465323E+03  0.58029251674E+03 -0.18805028430E+04  0.19995328257E+04  0.85186972681E+02 0.  0.
        254    2    1    2    0    0  0.34328465323E+03 -0.58029251674E+03  0.55643015645E+03  0.13093079052E+04  0.97472504502E+03 0.  0.
        -24    2    4    4    0    0  0.10805567941E+03 -0.62687898802E+03 -0.59103436852E+02  0.64378647664E+03  0.79463927532E+02 0.  0.
         24    2    4    4    0    0  0.23522897382E+03  0.46586471282E+02  0.61553359331E+03  0.66552142853E+03  0.80834385689E+02 0.  0.
         11    1    3    3    0    0 -0.14944068653E+03  0.18722465782E+03 -0.73496914896E+03  0.77302344156E+03  0.00000000000E+00 0. -1.
        -11    1    3    3    0    0 -0.19384396670E+03  0.39306785892E+03 -0.11455336940E+04  0.12265093841E+04  0.00000000000E+00 0.  1.
          2    1    6    6  502    0  0.82367930317E+02 -0.19109866001E+02  0.24975244802E+03  0.26367773553E+03  0.00000000000E+00 0. -1.
          1    1    5    5  503    0  0.40196590052E+02 -0.26825638411E+03 -0.64279104742E+02  0.27876344232E+03  0.00000000000E+00 0. -1.
         -2    1    5    5    0  503  0.67859089356E+02 -0.35862260391E+03  0.51756678905E+01  0.36502303432E+03  0.00000000000E+00 0.  1.
         -1    1    6    6    0  502  0.15286104351E+03  0.65696337282E+02  0.36578114529E+03  0.40184369300E+03  0.00000000000E+00 0.  1.
<mgrwt>
<rscale>  0 0.30323685E+04</rscale>
<asrwt>0</asrwt>
<pdfrwt beam="1">  1        2 0.35637795E+00 0.30323685E+04</pdfrwt>
<pdfrwt beam="2">  1       -2 0.15267447E+00 0.30323685E+04</pdfrwt>
<totfact> 0.10827519E+00</totfact>
</mgrwt>
</event>
<event>
12    1  0.1532786E-007  0.3190775E+04  0.7818608E-02  0.8191258E-01
         -2   -1    0    0    0  501 -0.00000000000E+00  0.00000000000E+00  0.69155415062E+03  0.69155415062E+03  0.00000000000E+00 0.  1.
          2   -1    0    0  501    0  0.00000000000E+00 -0.00000000000E+00 -0.36804953466E+04  0.36804953466E+04  0.00000000000E+00 0. -1.
         23    2    1    2    0    0 -0.12701121814E+04  0.57860090512E+03 -0.17570500711E+04  0.22451557539E+04  0.74400578512E+02 0.  0.
        254    2    1    2    0    0  0.12701121814E+04 -0.57860090512E+03 -0.12318911248E+04  0.21268937433E+04  0.10286677263E+04 0.  0.
        -24    2    4    4    0    0  0.41537304572E+03 -0.73993135692E+03 -0.51232190504E+03  0.99506820315E+03  0.87486081589E+02 0.  0.
         24    2    4    4    0    0  0.85473913567E+03  0.16133045181E+03 -0.71956921981E+03  0.11318255402E+04  0.81502678096E+02 0.  0.
         11    1    3    3    0    0 -0.11738912005E+04  0.54894948313E+03 -0.16521521523E+04  0.20997554191E+04  0.00000000000E+00 0.  1.
        -11    1    3    3    0    0 -0.96220980860E+02  0.29651421987E+02 -0.10489791886E+03  0.14540033482E+03  0.00000000000E+00 0. -1.
          4    1    6    6  502    0  0.75743038388E+03  0.16184388238E+03 -0.66105869042E+03  0.10182793432E+04  0.00000000000E+00 0. -1.
          3    1    5    5  503    0  0.30175138995E+03 -0.55214803431E+03 -0.42254210686E+03  0.75793349655E+03  0.00000000000E+00 0. -1.
         -4    1    5    5    0  503  0.11362165577E+03 -0.18778332261E+03 -0.89779798173E+02  0.23713470659E+03  0.00000000000E+00 0.  1.
         -3    1    6    6    0  502  0.97308751794E+02 -0.51343057168E+00 -0.58510529392E+02  0.11354619693E+03  0.00000000000E+00 0.  1.
<mgrwt>
<rscale>  0 0.31907753E+04</rscale>
<asrwt>0</asrwt>
<pdfrwt beam="1">  1        2 0.56623005E+00 0.31907753E+04</pdfrwt>
<pdfrwt beam="2">  1       -2 0.10639295E+00 0.31907753E+04</pdfrwt>
<totfact> 0.36157077E-01</totfact>
</mgrwt>
</event>
<event>
12    1  0.1532786E-007  0.2804658E+04  0.7818608E-02  0.8301824E-01
          2   -1    0    0  501    0  0.00000000000E+00  0.00000000000E+00  0.48684950840E+04  0.48684950840E+04  0.00000000000E+00 0. -1.
         -2   -1    0    0    0  501 -0.00000000000E+00 -0.00000000000E+00 -0.40392899902E+03  0.40392899902E+03  0.00000000000E+00 0.  1.
         23    2    1    2    0    0  0.45616781121E+03 -0.23662355302E+02 -0.19514095057E+03  0.50519741106E+03  0.92170789943E+02 0.  0.
        254    2    1    2    0    0 -0.45616781121E+03  0.23662355302E+02  0.46597070356E+04  0.47672266720E+04  0.89717975100E+03 0.  0.
        -24    2    4    4    0    0 -0.48392436981E+03 -0.19033341947E+03  0.43480617212E+04  0.43797925356E+04  0.80822751381E+02 0.  0.
         24    2    4    4    0    0  0.27756558605E+02  0.21399577477E+03  0.31164531440E+03  0.38743413642E+03  0.80111109765E+02 0.  0.
         13    1    3    3    0    0  0.17247532565E+03  0.12392924956E+02 -0.31665282586E+02  0.17579537158E+03  0.00000000000E+00 0. -1.
        -13    1    3    3    0    0  0.28369248555E+03 -0.36055280258E+02 -0.16347566798E+03  0.32940203948E+03  0.00000000000E+00 0.  1.
          2    1    6    6  502    0  0.40435205567E+02  0.21324203712E+03  0.28840450427E+03  0.36094920741E+03  0.00000000000E+00 0. -1.
          1    1    5    5  503    0 -0.42265215728E+03 -0.18746720379E+03  0.39621499336E+04  0.39890363366E+04  0.00000000000E+00 0. -1.
         -2    1    5    5    0  503 -0.61272212535E+02 -0.28662156784E+01  0.38591178758E+03  0.39075619894E+03  0.00000000000E+00 0.  1.
         -1    1    6    6    0  502 -0.12678646963E+02  0.75373765455E+00  0.23240810128E+02  0.26484929010E+02  0.00000000000E+00 0.  1.
<mgrwt>
<rscale>  0 0.28046578E+04</rscale>
<asrwt>0</asrwt>
<pdfrwt beam="1">  1        2 0.74899920E+00 0.28046578E+04</pdfrwt>
<pdfrwt beam="2">  1       -2 0.62142927E-01 0.28046578E+04</pdfrwt>
<totfact> 0.10403915E-01</totfact>
</mgrwt>
</event>
<event>
12    1  0.2068614E-007  0.1749588E+04  0.7818608E-02  0.8733577E-01
          1   -1    0    0  501    0  0.00000000000E+00  0.00000000000E+00  0.10793132653E+04  0.10793132653E+04  0.00000000000E+00 0. -1.
         -1   -1    0    0    0  501 -0.00000000000E+00 -0.00000000000E+00 -0.70902929095E+03  0.70902929095E+03  0.00000000000E+00 0.  1.
         23    2    1    2    0    0  0.48392417544E+03 -0.35777320789E+03 -0.88192752597E+02  0.61494964172E+03  0.90558403116E+02 0.  0.
        254    2    1    2    0    0 -0.48392417544E+03  0.35777320789E+03  0.45847672699E+03  0.11733929146E+04  0.89692014522E+03 0.  0.
        -24    2    4    4    0    0 -0.13915713115E+03  0.14185801440E+03 -0.26466649826E+03  0.33954923363E+03  0.75874391982E+02 0.  0.
         24    2    4    4    0    0 -0.34476704429E+03  0.21591519350E+03  0.72314322525E+03  0.83384368094E+03  0.82918480424E+02 0.  0.
         11    1    3    3    0    0  0.52250542733E+02 -0.36443023513E+02 -0.38700155351E+02  0.74538011799E+02  0.00000000000E+00 0.  1.
        -11    1    3    3    0    0  0.43167363271E+03 -0.32133018438E+03 -0.49492597245E+02  0.54041162992E+03  0.00000000000E+00 0. -1.
          2    1    6    6  502    0 -0.21462030160E+03  0.17411844560E+03  0.44315810444E+03  0.52227216324E+03  0.00000000000E+00 0. -1.
          3    1    5    5  503    0 -0.34050134728E+02  0.19999003429E+02 -0.10785285283E+03  0.11485473293E+03  0.00000000000E+00 0. -1.
         -4    1    5    5    0  503 -0.10510699642E+03  0.12185901097E+03 -0.15681364543E+03  0.22469450070E+03  0.00000000000E+00 0.  1.
         -1    1    6    6    0  502 -0.13014674269E+03  0.41796747901E+02  0.27998512081E+03  0.31157151770E+03  0.00000000000E+00 0.  1.
<mgrwt>
<rscale>  0 0.17495882E+04</rscale>
<asrwt>0</asrwt>
<pdfrwt beam="1">  1        1 0.16604819E+00 0.17495882E+04</pdfrwt>
<pdfrwt beam="2">  1       -1 0.10908143E+00 0.17495882E+04</pdfrwt>
<totfact> 0.96982378E+00</totfact>
</mgrwt>
</event>
<event>
12    1  0.1532786E-007  0.1853741E+04  0.7818608E-02  0.8678231E-01
         -1   -1    0    0    0  501 -0.00000000000E+00  0.00000000000E+00  0.43377628711E+03  0.43377628711E+03  0.00000000000E+00 0.  1.
          1   -1    0    0  501    0  0.00000000000E+00 -0.00000000000E+00 -0.19804885889E+04  0.19804885889E+04  0.00000000000E+00 0. -1.
         23    2    1    2    0    0 -0.43377030366E+03  0.16870366099E+03  0.86398150473E+02  0.48210755939E+03  0.91353471988E+02 0.  0.
        254    2    1    2    0    0  0.43377030366E+03 -0.16870366099E+03 -0.16331104522E+04  0.19321573166E+04  0.92171825701E+03 0.  0.
        -24    2    4    4    0    0  0.44198686908E+03  0.93390774320E+02 -0.25077125704E+03  0.52289863634E+03  0.80389870995E+02 0.  0.
         24    2    4    4    0    0 -0.82165654193E+01 -0.26209443531E+03 -0.13823391952E+04  0.14092586803E+04  0.79921038107E+02 0.  0.
         13    1    3    3    0    0 -0.29181072531E+03  0.11540438051E+03  0.10128551026E+03  0.32974296814E+03  0.00000000000E+00 0. -1.
        -13    1    3    3    0    0 -0.14195957835E+03  0.53299280474E+02 -0.14887359791E+02  0.15236459125E+03  0.00000000000E+00 0.  1.
          2    1    6    6  502    0  0.11642198140E+02 -0.24111416071E+03 -0.11451155929E+04  0.11702825729E+04  0.00000000000E+00 0. -1.
          1    1    5    5  503    0  0.42687209266E+03  0.95797105611E+02 -0.25580497139E+03  0.50678698910E+03  0.00000000000E+00 0. -1.
         -2    1    5    5    0  503  0.15114776420E+02 -0.24063312909E+01  0.50337143484E+01  0.16111647236E+02  0.00000000000E+00 0.  1.
         -1    1    6    6    0  502 -0.19858763559E+02 -0.20980274598E+02 -0.23722360228E+03  0.23897610736E+03  0.00000000000E+00 0.  1.
<mgrwt>
<rscale>  0 0.18537411E+04</rscale>
<asrwt>0</asrwt>
<pdfrwt beam="1">  1        1 0.30469055E+00 0.18537411E+04</pdfrwt>
<pdfrwt beam="2">  1       -1 0.66734814E-01 0.18537411E+04</pdfrwt>
<totfact> 0.65652234E+00</totfact>
</mgrwt>
</event>
<event>
12    1  0.1532786E-007  0.2326767E+04  0.7818608E-02  0.8467441E-01
          2   -1    0    0  501    0  0.00000000000E+00  0.00000000000E+00  0.82939313791E+03  0.82939313791E+03  0.00000000000E+00 0.  1.
         -2   -1    0    0    0  501 -0.00000000000E+00 -0.00000000000E+00 -0.16318692168E+04  0.16318692168E+04  0.00000000000E+00 0. -1.
         23    2    1    2    0    0  0.56028560413E+03 -0.49478554822E+03 -0.10171493768E+04  0.12656081624E+04  0.91861140069E+02 0.  0.
        254    2    1    2    0    0 -0.56028560413E+03  0.49478554822E+03  0.21467329787E+03  0.11956541924E+04  0.90816938177E+03 0.  0.
        -24    2    4    4    0    0 -0.26456604902E+03  0.68639855337E+03  0.33754017955E+03  0.81326166388E+03  0.79517248179E+02 0.  0.
         24    2    4    4    0    0 -0.29571955511E+03 -0.19161300515E+03 -0.12286688169E+03  0.38239252848E+03  0.83439656086E+02 0.  0.
         13    1    3    3    0    0  0.24291465972E+03 -0.20446295877E+03 -0.35781407454E+03  0.47837594563E+03  0.00000000000E+00 0.  1.
        -13    1    3    3    0    0  0.31737094441E+03 -0.29032258945E+03 -0.65933530223E+03  0.78723221674E+03  0.00000000000E+00 0. -1.
          4    1    6    6  502    0 -0.24166822688E+03 -0.14490108896E+03 -0.13052808003E+03  0.31054377653E+03  0.00000000000E+00 0. -1.
          1    1    5    5  503    0 -0.15855907932E+03  0.42877350190E+03  0.25111796566E+03  0.52158214142E+03  0.00000000000E+00 0. -1.
         -2    1    5    5    0  503 -0.10600696970E+03  0.25762505147E+03  0.86422213896E+02  0.29167952247E+03  0.00000000000E+00 0.  1.
         -3    1    6    6    0  502 -0.54051328229E+02 -0.46711916190E+02  0.76611983397E+01  0.71848751955E+02  0.00000000000E+00 0.  1.
<mgrwt>
<rscale>  0 0.23267670E+04</rscale>
<asrwt>0</asrwt>
<pdfrwt beam="1">  1        2 0.12759894E+00 0.23267670E+04</pdfrwt>
<pdfrwt beam="2">  1       -2 0.25105680E+00 0.23267670E+04</pdfrwt>
<totfact> 0.18790656E+00</totfact>
</mgrwt>
</event>
<event>
12    1  0.1532786E-007  0.1148326E+04  0.7818608E-02  0.9159330E-01
         -2   -1    0    0    0  501 -0.00000000000E+00  0.00000000000E+00  0.11290033460E+04  0.11290033460E+04  0.00000000000E+00 0.  1.
          2   -1    0    0  501    0  0.00000000000E+00 -0.00000000000E+00 -0.29199468920E+03  0.29199468920E+03  0.00000000000E+00 0. -1.
         23    2    1    2    0    0  0.13847808103E+03  0.14805010785E+03  0.21860893461E+03  0.31293893834E+03  0.95109933668E+02 0.  0.
        254    2    1    2    0    0 -0.13847808103E+03 -0.14805010785E+03  0.61839972221E+03  0.11080590969E+04  0.89681755803E+03 0.  0.
        -24    2    4    4    0    0  0.36319363943E+03 -0.91223862281E+02  0.39531646917E+03  0.55030662200E+03  0.79566667983E+02 0.  0.
         24    2    4    4    0    0 -0.50167172045E+03 -0.56826245565E+02  0.22308325304E+03  0.55775247487E+03  0.80112097430E+02 0.  0.
         13    1    3    3    0    0 -0.12039954182E+02  0.11757373260E+02  0.36465710653E+02  0.40161478759E+02  0.00000000000E+00 0.  1.
        -13    1    3    3    0    0  0.15051803521E+03  0.13629273459E+03  0.18214322395E+03  0.27277745958E+03  0.00000000000E+00 0. -1.
          2    1    6    6  502    0 -0.28586744173E+03 -0.43055156279E+02  0.85574029578E+02  0.30149105337E+03  0.00000000000E+00 0. -1.
          1    1    5    5  503    0  0.31331509312E+03 -0.10597426096E+03  0.33797430851E+03  0.47288849085E+03  0.00000000000E+00 0. -1.
         -2    1    5    5    0  503  0.49878546311E+02  0.14750398674E+02  0.57342160657E+02  0.77418131158E+02  0.00000000000E+00 0.  1.
         -1    1    6    6    0  502 -0.21580427873E+03 -0.13771089286E+02  0.13750922346E+03  0.25626142151E+03  0.00000000000E+00 0.  1.
<mgrwt>
<rscale>  0 0.11483257E+04</rscale>
<asrwt>0</asrwt>
<pdfrwt beam="1">  1        2 0.44922260E-01 0.11483257E+04</pdfrwt>
<pdfrwt beam="2">  1       -2 0.17369282E+00 0.11483257E+04</pdfrwt>
<totfact> 0.22456361E+01</totfact>
</mgrwt>
</event>
<event>
12    1  0.1532786E-007  0.2452839E+04  0.7818608E-02  0.8419982E-01
         -1   -1    0    0    0  501 -0.00000000000E+00  0.00000000000E+00  0.13861374409E+04  0.13861374409E+04  0.00000000000E+00 0.  1.
          1   -1    0    0  501    0  0.00000000000E+00 -0.00000000000E+00 -0.10851047919E+04  0.10851047919E+04  0.00000000000E+00 0. -1.
         23    2    1    2    0    0 -0.75902238011E+03  0.25982801242E+03 -0.55981680796E+03  0.98247370616E+03  0.90742246404E+02 0.  0.
        254    2    1    2    0    0  0.75902238011E+03 -0.25982801242E+03  0.86084945700E+03  0.14887685267E+04  0.91200020223E+03 0.  0.
        -24    2    4    4    0    0 -0.72696241765E+02  0.24596460353E+02  0.53796889039E+03  0.54916502173E+03  0.79258845752E+02 0.  0.
         24    2    4    4    0    0  0.83171862188E+03 -0.28442447278E+03  0.32288056660E+03  0.93960350495E+03  0.77134554708E+02 0.  0.
         13    1    3    3    0    0 -0.53649831289E+03  0.16220365995E+03 -0.34511019335E+03  0.65821084205E+03  0.00000000000E+00 0. -1.
        -13    1    3    3    0    0 -0.22252406722E+03  0.97624352477E+02 -0.21470661461E+03  0.32426286412E+03  0.00000000000E+00 0.  1.
          4    1    6    6  502    0  0.67446676180E+03 -0.26178397455E+03  0.26216230337E+03  0.76952279720E+03  0.00000000000E+00 0. -1.
          3    1    5    5  503    0 -0.19501289668E+02  0.11548761672E+02  0.40115576293E+03  0.40179549565E+03  0.00000000000E+00 0. -1.
         -4    1    5    5    0  503 -0.53194952096E+02  0.13047698681E+02  0.13681312747E+03  0.14736952608E+03  0.00000000000E+00 0.  1.
         -3    1    6    6    0  502  0.15725186007E+03 -0.22640498225E+02  0.60718263238E+02  0.17008070774E+03  0.00000000000E+00 0.  1.
<mgrwt>
<rscale>  0 0.24528387E+04</rscale>
<asrwt>0</asrwt>
<pdfrwt beam="1">  1        1 0.16693920E+00 0.24528387E+04</pdfrwt>
<pdfrwt beam="2">  1       -1 0.21325192E+00 0.24528387E+04</pdfrwt>
<totfact> 0.14182722E+00</totfact>
</mgrwt>
</event>
<event>
12    1  0.1532786E-007  0.1288549E+04  0.7818608E-02  0.9038696E-01
         -2   -1    0    0    0  501 -0.00000000000E+00  0.00000000000E+00  0.11295122425E+04  0.11295122425E+04  0.00000000000E+00 0.  1.
          2   -1    0    0  501    0  0.00000000000E+00 -0.00000000000E+00 -0.36749439487E+03  0.36749439487E+03  0.00000000000E+00 0. -1.
         23    2    1    2    0    0  0.13002669810E+03  0.88348279425E+02  0.57416203339E+03  0.60186777852E+03  0.88715396324E+02 0.  0.
        254    2    1    2    0    0 -0.13002669810E+03 -0.88348279425E+02  0.18785581420E+03  0.89513885880E+03  0.86097120098E+03 0.  0.
        -24    2    4    4    0    0 -0.16655450203E+03 -0.27247478819E+03 -0.24938247703E+03  0.41266310981E+03  0.78206841129E+02 0.  0.
         24    2    4    4    0    0  0.36527803930E+02  0.18412650877E+03  0.43723829123E+03  0.48247574900E+03  0.79803968336E+02 0.  0.
         11    1    3    3    0    0  0.90820025343E+02  0.12470700158E+02  0.35517648008E+03  0.36681620380E+03  0.00000000000E+00 0. -1.
        -11    1    3    3    0    0  0.39206672754E+02  0.75877579267E+02  0.21898555331E+03  0.23505157473E+03  0.00000000000E+00 0.  1.
          4    1    6    6  502    0 -0.91487786655E+01  0.13180687086E+03  0.24990587108E+03  0.28268303054E+03  0.00000000000E+00 0. -1.
          3    1    5    5  503    0 -0.15099937065E+03 -0.27326398659E+03 -0.22990768777E+03  0.38772614201E+03  0.00000000000E+00 0. -1.
         -4    1    5    5    0  503 -0.15555131377E+02  0.78919839271E+00 -0.19474789256E+02  0.24936967795E+02  0.00000000000E+00 0.  1.
         -3    1    6    6    0  502  0.45676582596E+02  0.52319637913E+02  0.18733242015E+03  0.19979271846E+03  0.00000000000E+00 0.  1.
<mgrwt>
<rscale>  0 0.12885487E+04</rscale>
<asrwt>0</asrwt>
<pdfrwt beam="1">  1        2 0.56537600E-01 0.12885487E+04</pdfrwt>
<pdfrwt beam="2">  1       -2 0.17377111E+00 0.12885487E+04</pdfrwt>
<totfact> 0.17179974E+01</totfact>
</mgrwt>
</event>
<event>
12    1  0.1532786E-007  0.1404297E+04  0.7818608E-02  0.8950714E-01
         -1   -1    0    0    0  501 -0.00000000000E+00  0.00000000000E+00  0.22668766455E+03  0.22668766455E+03  0.00000000000E+00 0.  1.
          1   -1    0    0  501    0  0.00000000000E+00 -0.00000000000E+00 -0.21748522544E+04  0.21748522544E+04  0.00000000000E+00 0. -1.
         23    2    1    2    0    0  0.90784793770E+02 -0.13243826709E+03 -0.12279468465E+04  0.12417242141E+04  0.90795333916E+02 0.  0.
        254    2    1    2    0    0 -0.90784793770E+02  0.13243826709E+03 -0.72021774333E+03  0.11598157048E+04  0.89480562023E+03 0.  0.
        -24    2    4    4    0    0  0.33640912644E+03 -0.16371407808E+03 -0.28872266260E+03  0.47937256621E+03  0.80398268795E+02 0.  0.
         24    2    4    4    0    0 -0.42719392020E+03  0.29615234517E+03 -0.43149508073E+03  0.68044313862E+03  0.81326522067E+02 0.  0.
         13    1    3    3    0    0  0.29448998324E+02  0.23969447026E+01 -0.36156459539E+03  0.36276982438E+03  0.00000000000E+00 0. -1.
        -13    1    3    3    0    0  0.61335795446E+02 -0.13483521179E+03 -0.86638225114E+03  0.87895438973E+03  0.00000000000E+00 0.  1.
          2    1    6    6  502    0 -0.14113134992E+03  0.11020054941E+03 -0.19827741057E+03  0.26716315345E+03  0.00000000000E+00 0. -1.
          3    1    5    5  503    0  0.78238669237E+02 -0.31363767399E+02 -0.26629008200E+02  0.88397281333E+02  0.00000000000E+00 0. -1.
         -4    1    5    5    0  503  0.25817045720E+03 -0.13235031069E+03 -0.26209365440E+03  0.39097528488E+03  0.00000000000E+00 0.  1.
         -1    1    6    6    0  502 -0.28606257029E+03  0.18595179576E+03 -0.23321767016E+03  0.41327998517E+03  0.00000000000E+00 0.  1.
<mgrwt>
<rscale>  0 0.14042965E+04</rscale>
<asrwt>0</asrwt>
<pdfrwt beam="1">  1        1 0.33459266E+00 0.14042965E+04</pdfrwt>
<pdfrwt beam="2">  1       -1 0.34875025E-01 0.14042965E+04</pdfrwt>
<totfact> 0.17279970E+01</totfact>
</mgrwt>
</event>
<event>
12    1  0.1532786E-007  0.2185090E+04  0.7818608E-02  0.8524660E-01
         -2   -1    0    0    0  501 -0.00000000000E+00  0.00000000000E+00  0.66365209838E+03  0.66365209838E+03  0.00000000000E+00 0.  1.
          2   -1    0    0  501    0  0.00000000000E+00 -0.00000000000E+00 -0.17986146610E+04  0.17986146610E+04  0.00000000000E+00 0. -1.
         23    2    1    2    0    0 -0.20593540669E+03 -0.88683086281E+03 -0.41126424517E+03  0.10043963162E+04  0.10390047948E+03 0.  0.
        254    2    1    2    0    0  0.20593540669E+03  0.88683086281E+03 -0.72369831749E+03  0.14578704432E+04  0.87907258152E+03 0.  0.
        -24    2    4    4    0    0  0.11173568433E+03  0.97420786068E+03 -0.33097540042E+03  0.10380968952E+04  0.80837053586E+02 0.  0.
         24    2    4    4    0    0  0.94199722367E+02 -0.87376997864E+02 -0.39272291708E+03  0.41977354803E+03  0.73960898949E+02 0.  0.
         13    1    3    3    0    0 -0.37936004748E+02 -0.32247871123E+03 -0.18415860409E+03  0.37329083985E+03  0.00000000000E+00 0. -1.
        -13    1    3    3    0    0 -0.16799940195E+03 -0.56435215158E+03 -0.22710564108E+03  0.63110547633E+03  0.00000000000E+00 0.  1.
          4    1    6    6  502    0  0.11320639091E+02 -0.21600948837E+02 -0.18554165355E+03  0.18713755118E+03  0.00000000000E+00 0. -1.
          1    1    5    5  503    0  0.76168905169E+02  0.32775176996E+03 -0.11246833043E+03  0.35478451231E+03  0.00000000000E+00 0. -1.
         -2    1    5    5    0  503  0.35566779157E+02  0.64645609072E+03 -0.21850706999E+03  0.68331238291E+03  0.00000000000E+00 0.  1.
         -3    1    6    6    0  502  0.82879083275E+02 -0.65776049027E+02 -0.20718126353E+03  0.23263599684E+03  0.00000000000E+00 0.  1.
<mgrwt>
<rscale>  0 0.21850898E+04</rscale>
<asrwt>0</asrwt>
<pdfrwt beam="1">  1        2 0.27670994E+00 0.21850898E+04</pdfrwt>
<pdfrwt beam="2">  1       -2 0.10210032E+00 0.21850898E+04</pdfrwt>
<totfact> 0.62186734E+00</totfact>
</mgrwt>
</event>
<event>
12    1  0.1532786E-007  0.1822028E+04  0.7818608E-02  0.8694672E-01
         -2   -1    0    0    0  501 -0.00000000000E+00  0.00000000000E+00  0.62341244455E+03  0.62341244455E+03  0.00000000000E+00 0.  1.
          2   -1    0    0  501    0  0.00000000000E+00 -0.00000000000E+00 -0.13312954286E+04  0.13312954286E+04  0.00000000000E+00 0. -1.
         23    2    1    2    0    0  0.58472428878E+03  0.34937160761E+03 -0.33044023488E+03  0.76205608459E+03  0.87038572690E+02 0.  0.
        254    2    1    2    0    0 -0.58472428878E+03 -0.34937160761E+03 -0.37744274913E+03  0.11926517885E+04  0.90332289117E+03 0.  0.
        -24    2    4    4    0    0 -0.45844873920E+03  0.21994070962E+03 -0.30845667182E+03  0.59993112138E+03  0.78883900669E+02 0.  0.
         24    2    4    4    0    0 -0.12627554958E+03 -0.56931231723E+03 -0.68986077310E+02  0.59272066715E+03  0.80601993937E+02 0.  0.
         13    1    3    3    0    0  0.55231670466E+03  0.31316975219E+03 -0.32468975167E+03  0.71312864952E+03  0.00000000000E+00 0.  1.
        -13    1    3    3    0    0  0.32407584121E+02  0.36201855423E+02 -0.57504832022E+01  0.48927435062E+02  0.00000000000E+00 0. -1.
          2    1    6    6  502    0 -0.74990373024E+02 -0.47897065866E+03 -0.56057719734E+02  0.48803577312E+03  0.00000000000E+00 0. -1.
          3    1    5    5  503    0 -0.34874524100E+03  0.13119078935E+03 -0.20813244702E+03  0.42679430857E+03  0.00000000000E+00 0. -1.
         -4    1    5    5    0  503 -0.10970349820E+03  0.88749920271E+02 -0.10032422480E+03  0.17313681281E+03  0.00000000000E+00 0.  1.
         -1    1    6    6    0  502 -0.51285176552E+02 -0.90341658572E+02 -0.12928357576E+02  0.10468489403E+03  0.00000000000E+00 0.  1.
<mgrwt>
<rscale>  0 0.18220276E+04</rscale>
<asrwt>0</asrwt>
<pdfrwt beam="1">  1        2 0.20481468E+00 0.18220276E+04</pdfrwt>
<pdfrwt beam="2">  1       -2 0.95909607E-01 0.18220276E+04</pdfrwt>
<totfact> 0.13618299E+01</totfact>
</mgrwt>
</event>
<event>
12    1  0.1532786E-007  0.1599649E+04  0.7818608E-02  0.8820763E-01
          2   -1    0    0  501    0  0.00000000000E+00  0.00000000000E+00  0.30259958217E+03  0.30259958217E+03  0.00000000000E+00 0. -1.
         -2   -1    0    0    0  501 -0.00000000000E+00 -0.00000000000E+00 -0.21140794063E+04  0.21140794063E+04  0.00000000000E+00 0.  1.
         23    2    1    2    0    0  0.65488142059E+02 -0.36630496749E+03 -0.29570647762E+02  0.38536533246E+03  0.95728732861E+02 0.  0.
        254    2    1    2    0    0 -0.65488142059E+02  0.36630496749E+03 -0.17819091764E+04  0.20313136560E+04  0.90142488889E+03 0.  0.
        -24    2    4    4    0    0  0.34009895262E+03  0.27508621298E+03 -0.44562982113E+03  0.62978243357E+03  0.81855079332E+02 0.  0.
         24    2    4    4    0    0 -0.40558709468E+03  0.91218754515E+02 -0.13362793553E+04  0.14015312225E+04  0.76324961080E+02 0.  0.
         11    1    3    3    0    0  0.18683578647E+02 -0.26794152465E+03  0.11778207177E+02  0.26885026112E+03  0.00000000000E+00 0.  1.
        -11    1    3    3    0    0  0.46804563412E+02 -0.98363442841E+02 -0.41348854939E+02  0.11651507134E+03  0.00000000000E+00 0. -1.
          2    1    6    6  502    0 -0.10211291370E+03  0.18547365186E+02 -0.45340397431E+03  0.46513032133E+03  0.00000000000E+00 0. -1.
          3    1    5    5  503    0  0.67980210085E+02  0.70207768347E+02 -0.14852490660E+03  0.17779225962E+03  0.00000000000E+00 0. -1.
         -4    1    5    5    0  503  0.27211874253E+03  0.20487844463E+03 -0.29710491452E+03  0.45199017395E+03  0.00000000000E+00 0.  1.
         -1    1    6    6    0  502 -0.30347418097E+03  0.72671389329E+02 -0.88287538097E+03  0.93640090115E+03  0.00000000000E+00 0.  1.
<mgrwt>
<rscale>  0 0.15996494E+04</rscale>
<asrwt>0</asrwt>
<pdfrwt beam="1">  1        2 0.46553784E-01 0.15996494E+04</pdfrwt>
<pdfrwt beam="2">  1       -2 0.32524297E+00 0.15996494E+04</pdfrwt>
<totfact> 0.23271642E+00</totfact>
</mgrwt>
</event>
<event>
12    1  0.1532786E-007  0.1992175E+04  0.7818608E-02  0.8610288E-01
         -1   -1    0    0    0  501 -0.00000000000E+00  0.00000000000E+00  0.57529282350E+03  0.57529282350E+03  0.00000000000E+00 0.  1.
          1   -1    0    0  501    0  0.00000000000E+00 -0.00000000000E+00 -0.17246705196E+04  0.17246705196E+04  0.00000000000E+00 0. -1.
         23    2    1    2    0    0 -0.31231424651E+03  0.22533367737E+03 -0.12442833431E+04  0.13054646186E+04  0.87643469467E+02 0.  0.
        254    2    1    2    0    0  0.31231424651E+03 -0.22533367737E+03  0.94905646964E+02  0.99449872454E+03  0.91197871497E+03 0.  0.
        -24    2    4    4    0    0  0.24420127737E+03  0.23196556042E+03  0.32193096752E+03  0.47271664546E+03  0.79869856339E+02 0.  0.
         24    2    4    4    0    0  0.68112969137E+02 -0.45729923779E+03 -0.22702532056E+03  0.52178207909E+03  0.83391081261E+02 0.  0.
         11    1    3    3    0    0 -0.15485894408E+03  0.15813131786E+03 -0.77244942464E+03  0.80353277462E+03  0.00000000000E+00 0. -1.
        -11    1    3    3    0    0 -0.15745530243E+03  0.67202359503E+02 -0.47183391845E+03  0.50193184397E+03  0.00000000000E+00 0.  1.
          4    1    6    6  502    0 -0.99070359902E+01 -0.66526989323E+02 -0.99064578098E+01  0.67986230788E+02  0.00000000000E+00 0. -1.
          1    1    5    5  503    0  0.79670871554E+02  0.30296727156E+02  0.67279590718E+02  0.10859043594E+03  0.00000000000E+00 0. -1.
         -2    1    5    5    0  503  0.16453040582E+03  0.20166883327E+03  0.25465137680E+03  0.36412620952E+03  0.00000000000E+00 0.  1.
         -3    1    6    6    0  502  0.78020005127E+02 -0.39077224847E+03 -0.21711886275E+03  0.45379584830E+03  0.00000000000E+00 0.  1.
<mgrwt>
<rscale>  0 0.19921753E+04</rscale>
<asrwt>0</asrwt>
<pdfrwt beam="1">  1        1 0.26533393E+00 0.19921753E+04</pdfrwt>
<pdfrwt beam="2">  1       -1 0.88506588E-01 0.19921753E+04</pdfrwt>
<totfact> 0.53335428E+00</totfact>
</mgrwt>
</event>
<event>
12    1  0.1532786E-007  0.1714871E+04  0.7818608E-02  0.8752928E-01
          1   -1    0    0  501    0  0.00000000000E+00  0.00000000000E+00  0.64711178906E+03  0.64711178906E+03  0.00000000000E+00 0. -1.
         -1   -1    0    0    0  501 -0.00000000000E+00 -0.00000000000E+00 -0.11361178024E+04  0.11361178024E+04  0.00000000000E+00 0.  1.
         23    2    1    2    0    0 -0.55401685574E+03 -0.27192247897E+03 -0.13969945049E+03  0.63895439144E+03  0.88714524498E+02 0.  0.
        254    2    1    2    0    0  0.55401685574E+03  0.27192247897E+03 -0.34930656286E+03  0.11442752000E+04  0.89803905680E+03 0.  0.
        -24    2    4    4    0    0  0.38384095420E+03 -0.27093545888E+03 -0.31223812672E+03  0.56945595640E+03  0.77765914784E+02 0.  0.
         24    2    4    4    0    0  0.17017590154E+03  0.54285793785E+03 -0.37068436140E+02  0.57481924364E+03  0.73406510225E+02 0.  0.
         13    1    3    3    0    0 -0.52750932495E+03 -0.24006674492E+03 -0.14429122632E+03  0.59725881151E+03  0.00000000000E+00 0. -1.
        -13    1    3    3    0    0 -0.26507530784E+02 -0.31855734052E+02  0.45917758350E+01  0.41695579929E+02  0.00000000000E+00 0.  1.
          4    1    6    6  502    0  0.16668755952E+03  0.47049518098E+03 -0.48403255635E+02  0.50149110958E+03  0.00000000000E+00 0. -1.
          1    1    5    5  503    0  0.31237433997E+03 -0.21654036508E+03 -0.28667035039E+03  0.47607493924E+03  0.00000000000E+00 0. -1.
         -2    1    5    5    0  503  0.71466614233E+02 -0.54395093800E+02 -0.25567776328E+02  0.93381017160E+02  0.00000000000E+00 0.  1.
         -3    1    6    6    0  502  0.34883420132E+01  0.72362756868E+02  0.11334819494E+02  0.73328134059E+02  0.00000000000E+00 0.  1.
<mgrwt>
<rscale>  0 0.17148705E+04</rscale>
<asrwt>0</asrwt>
<pdfrwt beam="1">  1        1 0.99555661E-01 0.17148705E+04</pdfrwt>
<pdfrwt beam="2">  1       -1 0.17478735E+00 0.17148705E+04</pdfrwt>
<totfact> 0.66137393E+00</totfact>
</mgrwt>
</event>
<event>
12    1  0.1532786E-007  0.1908943E+04  0.7818608E-02  0.8650418E-01
         -1   -1    0    0    0  501 -0.00000000000E+00  0.00000000000E+00  0.40595520988E+03  0.40595520988E+03  0.00000000000E+00 0.  1.
          1   -1    0    0  501    0  0.00000000000E+00 -0.00000000000E+00 -0.22441293252E+04  0.22441293252E+04  0.00000000000E+00 0. -1.
         23    2    1    2    0    0 -0.21599689762E+03  0.35166403678E+03 -0.15733715168E+04  0.16292877046E+04  0.93585467858E+02 0.  0.
        254    2    1    2    0    0  0.21599689762E+03 -0.35166403678E+03 -0.26480259847E+03  0.10207968305E+04  0.89531195592E+03 0.  0.
        -24    2    4    4    0    0  0.13148679899E+03  0.28540693540E+03 -0.17016105924E+03  0.36608663286E+03  0.79490500025E+02 0.  0.
         24    2    4    4    0    0  0.84510098629E+02 -0.63707097218E+03 -0.94641539222E+02  0.65471019761E+03  0.81774333052E+02 0.  0.
         13    1    3    3    0    0 -0.45861387618E+02  0.55675551796E+02 -0.16411530728E+03  0.17926758777E+03  0.00000000000E+00 0.  1.
        -13    1    3    3    0    0 -0.17013551000E+03  0.29598848498E+03 -0.14092562095E+04  0.14500201168E+04  0.00000000000E+00 0. -1.
          2    1    6    6  502    0  0.76759096213E+02 -0.51420974783E+03 -0.10759853368E+03  0.53092472919E+03  0.00000000000E+00 0. -1.
          1    1    5    5  503    0  0.10570518029E+03  0.26638508228E+03 -0.12996315728E+03  0.31468241045E+03  0.00000000000E+00 0. -1.
         -2    1    5    5    0  503  0.25781618704E+02  0.19021853126E+02 -0.40197901962E+02  0.51404222409E+02  0.00000000000E+00 0.  1.
         -1    1    6    6    0  502  0.77510024169E+01 -0.12286122435E+03  0.12956994458E+02  0.12378546842E+03  0.00000000000E+00 0.  1.
<mgrwt>
<rscale>  0 0.19089432E+04</rscale>
<asrwt>0</asrwt>
<pdfrwt beam="1">  1        1 0.34525067E+00 0.19089432E+04</pdfrwt>
<pdfrwt beam="2">  1       -1 0.62454648E-01 0.19089432E+04</pdfrwt>
<totfact> 0.49423800E+00</totfact>
</mgrwt>
</event>
<event>
12    1  0.1532786E-007  0.1148965E+04  0.7818608E-02  0.9158739E-01
         -2   -1    0    0    0  501 -0.00000000000E+00  0.00000000000E+00  0.12496600812E+03  0.12496600812E+03  0.00000000000E+00 0.  1.
          2   -1    0    0  501    0  0.00000000000E+00 -0.00000000000E+00 -0.26409598012E+04  0.26409598012E+04  0.00000000000E+00 0. -1.
         23    2    1    2    0    0  0.14336680683E+03 -0.65323644515E+02 -0.16823126728E+03  0.24747594634E+03  0.90118615677E+02 0.  0.
        254    2    1    2    0    0 -0.14336680683E+03  0.65323644515E+02 -0.23477625258E+04  0.25184498630E+04  0.89765227953E+03 0.  0.
        -24    2    4    4    0    0  0.11025020778E+03  0.25498990447E+03 -0.20691660540E+04  0.20892303223E+04  0.79121557448E+02 0.  0.
         24    2    4    4    0    0 -0.25361701461E+03 -0.18966625995E+03 -0.27859647182E+03  0.42921954071E+03  0.79489242986E+02 0.  0.
         11    1    3    3    0    0  0.33449171797E+01 -0.20347483256E+02 -0.63939673469E+02  0.67182515502E+02  0.00000000000E+00 0. -1.
        -11    1    3    3    0    0  0.14002188965E+03 -0.44976161259E+02 -0.10429159381E+03  0.18029343084E+03  0.00000000000E+00 0.  1.
          2    1    6    6  502    0 -0.83990660424E+01 -0.35765426522E+02 -0.37035934884E+02  0.52166756823E+02  0.00000000000E+00 0. -1.
          1    1    5    5  503    0  0.81411591001E+01  0.23629929671E+02 -0.42449783570E+03  0.42523295329E+03  0.00000000000E+00 0. -1.
         -2    1    5    5    0  503  0.10210904868E+03  0.23135997479E+03 -0.16446682183E+04  0.16639973690E+04  0.00000000000E+00 0.  1.
         -1    1    6    6    0  502 -0.24521794856E+03 -0.15390083343E+03 -0.24156053694E+03  0.37705278388E+03  0.00000000000E+00 0.  1.
<mgrwt>
<rscale>  0 0.11489651E+04</rscale>
<asrwt>0</asrwt>
<pdfrwt beam="1">  1        2 0.40630146E+00 0.11489651E+04</pdfrwt>
<pdfrwt beam="2">  1       -2 0.19225542E-01 0.11489651E+04</pdfrwt>
<totfact> 0.65922156E+01</totfact>
</mgrwt>
</event>
<event>
12    1  0.1532786E-007  0.2622141E+04  0.7818608E-02  0.8360719E-01
          2   -1    0    0  501    0  0.00000000000E+00  0.00000000000E+00  0.12899288823E+04  0.12899288823E+04  0.00000000000E+00 0. -1.
         -2   -1    0    0    0  501 -0.00000000000E+00 -0.00000000000E+00 -0.13325587871E+04  0.13325587871E+04  0.00000000000E+00 0.  1.
         23    2    1    2    0    0  0.47026616882E+03  0.10062246833E+04 -0.32841963797E+03  0.11617929025E+04  0.90911533520E+02 0.  0.
        254    2    1    2    0    0 -0.47026616882E+03 -0.10062246833E+04  0.28578973316E+03  0.14606947670E+04  0.90460767624E+03 0.  0.
        -24    2    4    4    0    0 -0.22610545197E+03 -0.10595419016E+04  0.42226773449E+03  0.11653606729E+04  0.77477362993E+02 0.  0.
         24    2    4    4    0    0 -0.24416071685E+03  0.53317218280E+02 -0.13647800133E+03  0.29533409408E+03  0.78350500062E+02 0.  0.
         13    1    3    3    0    0  0.19658984602E+03  0.32633164007E+03 -0.95420956680E+02  0.39274045608E+03  0.00000000000E+00 0. -1.
        -13    1    3    3    0    0  0.27367632280E+03  0.67989304321E+03 -0.23299868129E+03  0.76905244642E+03  0.00000000000E+00 0.  1.
          4    1    6    6  502    0 -0.21506813296E+03  0.32968513570E+02 -0.86757735142E+02  0.23423947000E+03  0.00000000000E+00 0. -1.
          3    1    5    5  503    0 -0.20556692190E+03 -0.10033747390E+04  0.41506747701E+03  0.11051242630E+04  0.00000000000E+00 0. -1.
         -4    1    5    5    0  503 -0.20538530073E+02 -0.56167162531E+02  0.72002574816E+01  0.60236409855E+02  0.00000000000E+00 0.  1.
         -3    1    6    6    0  502 -0.29092583893E+02  0.20348704710E+02 -0.49720266188E+02  0.61094624074E+02  0.00000000000E+00 0.  1.
<mgrwt>
<rscale>  0 0.26221412E+04</rscale>
<asrwt>0</asrwt>
<pdfrwt beam="1">  1        2 0.19845060E+00 0.26221412E+04</pdfrwt>
<pdfrwt beam="2">  1       -2 0.20500904E+00 0.26221412E+04</pdfrwt>
<totfact> 0.18249842E+00</totfact>
</mgrwt>
</event>
<event>
12    1  0.1532786E-007  0.1364787E+04  0.7818608E-02  0.8979709E-01
          2   -1    0    0  501    0  0.00000000000E+00  0.00000000000E+00  0.14669753621E+04  0.14669753621E+04  0.00000000000E+00 0. -1.
         -2   -1    0    0    0  501 -0.00000000000E+00 -0.00000000000E+00 -0.31742923463E+03  0.31742923463E+03  0.00000000000E+00 0.  1.
         23    2    1    2    0    0 -0.22009590103E+03 -0.12940932353E+03  0.60131282434E+03  0.65968504559E+03  0.91751119834E+02 0.  0.
        254    2    1    2    0    0  0.22009590103E+03  0.12940932353E+03  0.54823330313E+03  0.11247195511E+04  0.94828547146E+03 0.  0.
        -24    2    4    4    0    0 -0.15099264830E+03 -0.24992583900E+03 -0.65732963451E+02  0.30927851732E+03  0.77914529759E+02 0.  0.
         24    2    4    4    0    0  0.37108854934E+03  0.37933516253E+03  0.61396626659E+03  0.81544103382E+03  0.79922626062E+02 0.  0.
         11    1    3    3    0    0 -0.19268940625E+03 -0.13224878216E+03  0.46284084181E+03  0.51849840164E+03  0.00000000000E+00 0. -1.
        -11    1    3    3    0    0 -0.27406494778E+02  0.28394586280E+01  0.13847198254E+03  0.14118664395E+03  0.00000000000E+00 0.  1.
          4    1    6    6  502    0  0.37275988768E+03  0.38099165240E+03  0.61400871795E+03  0.81308749762E+03  0.00000000000E+00 0. -1.
          3    1    5    5  503    0 -0.15452756344E+03 -0.23597382400E+03 -0.47484317199E+02  0.28603701484E+03  0.00000000000E+00 0. -1.
         -4    1    5    5    0  503  0.35349151349E+01 -0.13952014998E+02 -0.18248646252E+02  0.23241502480E+02  0.00000000000E+00 0.  1.
         -3    1    6    6    0  502 -0.16713383410E+01 -0.16564898723E+01 -0.42451366903E-01  0.23535362045E+01  0.00000000000E+00 0.  1.
<mgrwt>
<rscale>  0 0.13647870E+04</rscale>
<asrwt>0</asrwt>
<pdfrwt beam="1">  1        2 0.22568851E+00 0.13647870E+04</pdfrwt>
<pdfrwt beam="2">  1       -2 0.48835268E-01 0.13647870E+04</pdfrwt>
<totfact> 0.51330081E+01</totfact>
</mgrwt>
</event>
<event>
12    1  0.1532786E-007  0.1570317E+04  0.7818608E-02  0.8838994E-01
          1   -1    0    0  501    0  0.00000000000E+00  0.00000000000E+00  0.20867707167E+04  0.20867707167E+04  0.00000000000E+00 0. -1.
         -1   -1    0    0    0  501 -0.00000000000E+00 -0.00000000000E+00 -0.29542001293E+03  0.29542001293E+03  0.00000000000E+00 0.  1.
         23    2    1    2    0    0 -0.19544030975E+03  0.24046381940E+03 -0.48394625118E+02  0.32681019950E+03  0.91886362678E+02 0.  0.
        254    2    1    2    0    0  0.19544030975E+03 -0.24046381940E+03  0.18397453289E+04  0.20553805301E+04  0.86250013644E+03 0.  0.
        -24    2    4    4    0    0  0.38743943044E+03 -0.69106195331E+02  0.32401417756E+03  0.51576769049E+03  0.78397351985E+02 0.  0.
         24    2    4    4    0    0 -0.19199912070E+03 -0.17135762407E+03  0.15157311513E+04  0.15396128396E+04  0.82095524913E+02 0.  0.
         13    1    3    3    0    0 -0.70293121042E+02  0.33187970179E+02  0.81774266163E+01  0.78162871854E+02  0.00000000000E+00 0. -1.
        -13    1    3    3    0    0 -0.12514718870E+03  0.20727584922E+03 -0.56572051735E+02  0.24864732765E+03  0.00000000000E+00 0.  1.
          2    1    6    6  502    0 -0.86261896487E+02 -0.11907312163E+03  0.68945007213E+03  0.70495455530E+03  0.00000000000E+00 0. -1.
          1    1    5    5  503    0  0.32035524276E+03 -0.33840533203E+02  0.28691923804E+03  0.43138765908E+03  0.00000000000E+00 0. -1.
         -2    1    5    5    0  503  0.67084187687E+02 -0.35265662128E+02  0.37094939524E+02  0.84380031413E+02  0.00000000000E+00 0.  1.
         -1    1    6    6    0  502 -0.10573722421E+03 -0.52284502439E+02  0.82628107918E+03  0.83465828432E+03  0.00000000000E+00 0.  1.
<mgrwt>
<rscale>  0 0.15703170E+04</rscale>
<asrwt>0</asrwt>
<pdfrwt beam="1">  1        1 0.32104164E+00 0.15703170E+04</pdfrwt>
<pdfrwt beam="2">  1       -1 0.45449234E-01 0.15703170E+04</pdfrwt>
<totfact> 0.12038567E+01</totfact>
</mgrwt>
</event>
<event>
12    1  0.1532786E-007  0.1712139E+04  0.7818608E-02  0.8754471E-01
         -2   -1    0    0    0  501 -0.00000000000E+00  0.00000000000E+00  0.29827687077E+03  0.29827687077E+03  0.00000000000E+00 0. -1.
          2   -1    0    0  501    0  0.00000000000E+00 -0.00000000000E+00 -0.24569613471E+04  0.24569613471E+04  0.00000000000E+00 0.  1.
         23    2    1    2    0    0  0.62278684175E+01  0.34494833320E+03 -0.15985371240E+04  0.16377768563E+04  0.89240995131E+02 0.  0.
        254    2    1    2    0    0 -0.62278684175E+01 -0.34494833320E+03 -0.56014735233E+03  0.11174613616E+04  0.90328660978E+03 0.  0.
        -24    2    4    4    0    0 -0.19629791010E+03  0.37181097220E+02  0.16577762579E+03  0.27154591444E+03  0.79621975221E+02 0.  0.
         24    2    4    4    0    0  0.19007004168E+03 -0.38212943042E+03 -0.72592497812E+03  0.84591544715E+03  0.80351400292E+02 0.  0.
         11    1    3    3    0    0  0.43932555187E+02  0.11643852384E+03 -0.52663381562E+03  0.54113877610E+03  0.00000000000E+00 0. -1.
        -11    1    3    3    0    0 -0.37704686770E+02  0.22850980936E+03 -0.10719033084E+04  0.10966380802E+04  0.00000000000E+00 0.  1.
          4    1    6    6  502    0 -0.40038359916E+01 -0.36163709480E+02 -0.80377415025E+02  0.88229096290E+02  0.00000000000E+00 0. -1.
          3    1    5    5  503    0 -0.84259483048E+01 -0.28729863476E+01  0.42213807784E+02  0.43142278834E+02  0.00000000000E+00 0. -1.
         -4    1    5    5    0  503 -0.18787196179E+03  0.40054083567E+02  0.12356381801E+03  0.22840363561E+03  0.00000000000E+00 0.  1.
         -3    1    6    6    0  502  0.19407387767E+03 -0.34596572094E+03 -0.64554756310E+03  0.75768635086E+03  0.00000000000E+00 0.  1.
<mgrwt>
<rscale>  0 0.17121387E+04</rscale>
<asrwt>0</asrwt>
<pdfrwt beam="1">  1        2 0.37799405E+00 0.17121387E+04</pdfrwt>
<pdfrwt beam="2">  1       -2 0.45888750E-01 0.17121387E+04</pdfrwt>
<totfact> 0.15802998E+01</totfact>
</mgrwt>
</event>
<event>
12    1  0.1532786E-007  0.2588360E+04  0.7818608E-02  0.8372166E-01
          2   -1    0    0  501    0  0.00000000000E+00  0.00000000000E+00  0.33022526994E+04  0.33022526994E+04  0.00000000000E+00 0. -1.
         -2   -1    0    0    0  501 -0.00000000000E+00 -0.00000000000E+00 -0.50719966913E+03  0.50719966913E+03  0.00000000000E+00 0.  1.
         23    2    1    2    0    0 -0.55194362501E+03 -0.85039193805E+03  0.20011355753E+04  0.22451677755E+04  0.91796163767E+02 0.  0.
        254    2    1    2    0    0  0.55194362501E+03  0.85039193805E+03  0.79391745494E+03  0.15642845931E+04  0.88818531248E+03 0.  0.
        -24    2    4    4    0    0 -0.13524932643E+03  0.22032033406E+03 -0.81358040135E+02  0.28299905737E+03  0.81461069710E+02 0.  0.
         24    2    4    4    0    0  0.68719295144E+03  0.63007160399E+03  0.87527549508E+03  0.12812855357E+04  0.79756209792E+02 0.  0.
         13    1    3    3    0    0 -0.26528104152E+03 -0.39553201191E+03  0.10402545543E+04  0.11440931523E+04  0.00000000000E+00 0. -1.
        -13    1    3    3    0    0 -0.28666258349E+03 -0.45485992614E+03  0.96088102098E+03  0.11010746231E+04  0.00000000000E+00 0.  1.
          4    1    6    6  502    0  0.53997558300E+02  0.33894357480E+02  0.84338762236E+02  0.10572412490E+03  0.00000000000E+00 0. -1.
          1    1    5    5  503    0 -0.31304531811E+02  0.19785502781E+02  0.11508601869E+02  0.38779991609E+02  0.00000000000E+00 0. -1.
         -4    1    5    5    0  503 -0.10394479462E+03  0.20053483128E+03 -0.92866642005E+02  0.24421906576E+03  0.00000000000E+00 0.  1.
         -1    1    6    6    0  502  0.63319539314E+03  0.59617724651E+03  0.79093673284E+03  0.11755614108E+04  0.00000000000E+00 0.  1.
<mgrwt>
<rscale>  0 0.25883597E+04</rscale>
<asrwt>0</asrwt>
<pdfrwt beam="1">  1        2 0.50803886E+00 0.25883597E+04</pdfrwt>
<pdfrwt beam="2">  1       -2 0.78030721E-01 0.25883597E+04</pdfrwt>
<totfact> 0.14372228E+00</totfact>
</mgrwt>
</event>
<event>
12    1  0.1532786E-007  0.2706875E+04  0.7818608E-02  0.8332778E-01
         -1   -1    0    0    0  501 -0.00000000000E+00  0.00000000000E+00  0.85930535121E+03  0.85930535121E+03  0.00000000000E+00 0.  1.
          1   -1    0    0  501    0  0.00000000000E+00 -0.00000000000E+00 -0.21317145171E+04  0.21317145171E+04  0.00000000000E+00 0. -1.
         23    2    1    2    0    0  0.33732466179E+03 -0.64148841853E+03  0.50892930934E+03  0.89122623409E+03  0.99899148471E+02 0.  0.
        254    2    1    2    0    0 -0.33732466179E+03  0.64148841853E+03 -0.17813384752E+04  0.20997936342E+04  0.84301318167E+03 0.  0.
        -24    2    4    4    0    0 -0.17328730608E+03  0.48723187216E+03 -0.17883606559E+04  0.18632714886E+04  0.78252264522E+02 0.  0.
         24    2    4    4    0    0 -0.16403735571E+03  0.15425654636E+03  0.70221806584E+01  0.23652214566E+03  0.72042197354E+02 0.  0.
         11    1    3    3    0    0 -0.59749321551E+01 -0.11204054728E+02  0.28052435453E+01  0.13003847429E+02  0.00000000000E+00 0. -1.
        -11    1    3    3    0    0  0.34329959395E+03 -0.63028436380E+03  0.50612406579E+03  0.87822238666E+03  0.00000000000E+00 0.  1.
          4    1    6    6  502    0 -0.95296177155E+02  0.66826827022E+02  0.35557169494E+02  0.12170249994E+03  0.00000000000E+00 0. -1.
          1    1    5    5  503    0 -0.16575940383E+03  0.48639873051E+03 -0.17390355891E+04  0.18133683259E+04  0.00000000000E+00 0. -1.
         -2    1    5    5    0  503 -0.75279022471E+01  0.83314165029E+00 -0.49325066758E+02  0.49903162705E+02  0.00000000000E+00 0.  1.
         -3    1    6    6    0  502 -0.68741178557E+02  0.87429719341E+02 -0.28534988836E+02  0.11481964571E+03  0.00000000000E+00 0.  1.
<mgrwt>
<rscale>  0 0.27068755E+04</rscale>
<asrwt>0</asrwt>
<pdfrwt beam="1">  1        1 0.32795608E+00 0.27068755E+04</pdfrwt>
<pdfrwt beam="2">  1       -1 0.13220082E+00 0.27068755E+04</pdfrwt>
<totfact> 0.10281817E+00</totfact>
</mgrwt>
</event>
<event>
12    1  0.1532786E-007  0.2393346E+04  0.7818608E-02  0.8441999E-01
         -2   -1    0    0    0  501 -0.00000000000E+00  0.00000000000E+00  0.59716457837E+03  0.59716457837E+03  0.00000000000E+00 0.  1.
          2   -1    0    0  501    0  0.00000000000E+00 -0.00000000000E+00 -0.23980422268E+04  0.23980422268E+04  0.00000000000E+00 0. -1.
         23    2    1    2    0    0  0.96934942726E+03 -0.14982797697E+03 -0.39421588733E+03  0.10608219435E+04  0.88601891640E+02 0.  0.
        254    2    1    2    0    0 -0.96934942726E+03  0.14982797697E+03 -0.14066617611E+04  0.19343848616E+04  0.89501997074E+03 0.  0.
        -24    2    4    4    0    0 -0.37050217385E+03 -0.23683699721E+03 -0.12218802841E+03  0.46320504818E+03  0.79154142624E+02 0.  0.
         24    2    4    4    0    0 -0.59884725341E+03  0.38666497419E+03 -0.12844737327E+04  0.14711798135E+04  0.79808761522E+02 0.  0.
         11    1    3    3    0    0  0.11060708902E+03 -0.20866018070E+02 -0.76768365049E+02  0.13624500256E+03  0.00000000000E+00 0. -1.
        -11    1    3    3    0    0  0.85874233825E+03 -0.12896195890E+03 -0.31744752228E+03  0.92457694095E+03  0.00000000000E+00 0.  1.
          2    1    6    6  502    0 -0.20614772123E+03  0.14944497792E+03 -0.53364669535E+03  0.59127783643E+03  0.00000000000E+00 0. -1.
          1    1    5    5  503    0 -0.13503639023E+02 -0.19572606617E+02  0.86278315791E+01  0.25295744196E+02  0.00000000000E+00 0. -1.
         -2    1    5    5    0  503 -0.35699853483E+03 -0.21726439060E+03 -0.13081585999E+03  0.43790930398E+03  0.00000000000E+00 0.  1.
         -1    1    6    6    0  502 -0.39269953218E+03  0.23721999627E+03 -0.75082703732E+03  0.87990197703E+03  0.00000000000E+00 0.  1.
<mgrwt>
<rscale>  0 0.23933457E+04</rscale>
<asrwt>0</asrwt>
<pdfrwt beam="1">  1        2 0.36892957E+00 0.23933457E+04</pdfrwt>
<pdfrwt beam="2">  1       -2 0.91871474E-01 0.23933457E+04</pdfrwt>
<totfact> 0.36129759E+00</totfact>
</mgrwt>
</event>
<event>
12    1  0.1532786E-007  0.2671388E+04  0.7818608E-02  0.8344349E-01
         -2   -1    0    0    0  501 -0.00000000000E+00  0.00000000000E+00  0.14574993988E+04  0.14574993988E+04  0.00000000000E+00 0.  1.
          2   -1    0    0  501    0  0.00000000000E+00 -0.00000000000E+00 -0.12240677359E+04  0.12240677359E+04  0.00000000000E+00 0. -1.
         23    2    1    2    0    0 -0.92867511018E+02 -0.31087655156E+03  0.12464788955E+04  0.12913483549E+04  0.92748756318E+02 0.  0.
        254    2    1    2    0    0  0.92867511018E+02  0.31087655156E+03 -0.10130472327E+04  0.13902187798E+04  0.89508376997E+03 0.  0.
        -24    2    4    4    0    0  0.23572977724E+03 -0.92972718362E+01 -0.10001114510E+04  0.10305728202E+04  0.78755674468E+02 0.  0.
         24    2    4    4    0    0 -0.14286226623E+03  0.32017382339E+03 -0.12935781690E+02  0.35964595960E+03  0.79101058853E+02 0.  0.
         13    1    3    3    0    0 -0.10661853547E+03 -0.27889782043E+03  0.10423082644E+04  0.10842315363E+04  0.00000000000E+00 0.  1.
        -13    1    3    3    0    0  0.13751024448E+02 -0.31978731125E+02  0.20417063114E+03  0.20711681857E+03  0.00000000000E+00 0. -1.
          4    1    6    6  502    0 -0.13426879792E+03  0.26775438051E+03 -0.36089141569E+02  0.30170009035E+03  0.00000000000E+00 0. -1.
          1    1    5    5  503    0  0.73795772094E+02 -0.31732812907E+02 -0.24022934022E+03  0.25330401358E+03  0.00000000000E+00 0. -1.
         -2    1    5    5    0  503  0.16193400515E+03  0.22435541071E+02 -0.75988211077E+03  0.77726880665E+03  0.00000000000E+00 0.  1.
         -3    1    6    6    0  502 -0.85934683062E+01  0.52419442879E+02  0.23153359879E+02  0.57945869248E+02  0.00000000000E+00 0.  1.
<mgrwt>
<rscale>  0 0.26713876E+04</rscale>
<asrwt>0</asrwt>
<pdfrwt beam="1">  1        2 0.18831811E+00 0.26713876E+04</pdfrwt>
<pdfrwt beam="2">  1       -2 0.22423068E+00 0.26713876E+04</pdfrwt>
<totfact> 0.14975400E+00</totfact>
</mgrwt>
</event>
<event>
12    1  0.1532786E-007  0.1318833E+04  0.7818608E-02  0.9014762E-01
         -2   -1    0    0    0  501 -0.00000000000E+00  0.00000000000E+00  0.24934571276E+03  0.24934571276E+03  0.00000000000E+00 0.  1.
          2   -1    0    0  501    0  0.00000000000E+00 -0.00000000000E+00 -0.17438847060E+04  0.17438847060E+04  0.00000000000E+00 0. -1.
         23    2    1    2    0    0  0.12081033554E+03 -0.28360694122E+03 -0.17297769266E+03  0.36569130028E+03  0.93705979855E+02 0.  0.
        254    2    1    2    0    0 -0.12081033554E+03  0.28360694122E+03 -0.13215613006E+04  0.16275391185E+04  0.89851615271E+03 0.  0.
        -24    2    4    4    0    0  0.83463883858E+02  0.56176169979E+03 -0.97877702145E+03  0.11344701206E+04  0.80470923013E+02 0.  0.
         24    2    4    4    0    0 -0.20427421940E+03 -0.27815475857E+03 -0.34278427913E+03  0.49306899792E+03  0.80733811153E+02 0.  0.
         13    1    3    3    0    0  0.59348998201E+02 -0.81555242327E+02 -0.15051099199E+02  0.10198086451E+03  0.00000000000E+00 0.  1.
        -13    1    3    3    0    0  0.61461337338E+02 -0.20205169890E+03 -0.15792659346E+03  0.26371043577E+03  0.00000000000E+00 0. -1.
          4    1    6    6  502    0 -0.78110272666E+02 -0.50401676595E+02 -0.10780329915E+03  0.14234849844E+03  0.00000000000E+00 0. -1.
          3    1    5    5  503    0  0.97410119753E+02  0.43291740529E+03 -0.74292232263E+03  0.86535529622E+03  0.00000000000E+00 0. -1.
         -4    1    5    5    0  503 -0.13946235895E+02  0.12884429450E+03 -0.23585469882E+03  0.26911482433E+03  0.00000000000E+00 0.  1.
         -3    1    6    6    0  502 -0.12616394673E+03 -0.22775308197E+03 -0.23498097998E+03  0.35072049948E+03  0.00000000000E+00 0.  1.
<mgrwt>
<rscale>  0 0.13188331E+04</rscale>
<asrwt>0</asrwt>
<pdfrwt beam="1">  1        2 0.26828995E+00 0.13188331E+04</pdfrwt>
<pdfrwt beam="2">  1       -2 0.38360879E-01 0.13188331E+04</pdfrwt>
<totfact> 0.58240888E+01</totfact>
</mgrwt>
</event>
<event>
12    1  0.1532786E-007  0.1862166E+04  0.7818608E-02  0.8673922E-01
         -2   -1    0    0    0  501 -0.00000000000E+00  0.00000000000E+00  0.48743381303E+03  0.48743381303E+03  0.00000000000E+00 0.  1.
          2   -1    0    0  501    0  0.00000000000E+00 -0.00000000000E+00 -0.17785288968E+04  0.17785288968E+04  0.00000000000E+00 0. -1.
         23    2    1    2    0    0  0.15413390565E+03 -0.58903659587E+03 -0.95614576357E+03  0.11372402137E+04  0.91538027134E+02 0.  0.
        254    2    1    2    0    0 -0.15413390565E+03  0.58903659587E+03 -0.33494932019E+03  0.11287224961E+04  0.88943917943E+03 0.  0.
        -24    2    4    4    0    0 -0.23168703699E+03  0.79110897923E+03 -0.17068174467E+03  0.84557981133E+03  0.79628256505E+02 0.  0.
         24    2    4    4    0    0  0.77553131341E+02 -0.20207238336E+03 -0.16426757551E+03  0.28314268474E+03  0.79612858633E+02 0.  0.
         13    1    3    3    0    0  0.95835083503E+02 -0.50047984923E+03 -0.78305895886E+03  0.93426215580E+03  0.00000000000E+00 0. -1.
        -13    1    3    3    0    0  0.58298822148E+02 -0.88556746636E+02 -0.17308680472E+03  0.20297805794E+03  0.00000000000E+00 0.  1.
          4    1    6    6  502    0  0.50332722538E+02 -0.36108041218E+02 -0.36158721398E+02  0.71726053368E+02  0.00000000000E+00 0. -1.
          3    1    5    5  503    0 -0.20076494100E+03  0.55799274405E+03 -0.12089507799E+03  0.60520912405E+03  0.00000000000E+00 0. -1.
         -4    1    5    5    0  503 -0.30922095991E+02  0.23311623518E+03 -0.49786666690E+02  0.24037068728E+03  0.00000000000E+00 0.  1.
         -3    1    6    6    0  502  0.27220408803E+02 -0.16596434214E+03 -0.12810885412E+03  0.21141663137E+03  0.00000000000E+00 0.  1.
<mgrwt>
<rscale>  0 0.18621655E+04</rscale>
<asrwt>0</asrwt>
<pdfrwt beam="1">  1        2 0.27361983E+00 0.18621655E+04</pdfrwt>
<pdfrwt beam="2">  1       -2 0.74989817E-01 0.18621655E+04</pdfrwt>
<totfact> 0.13306460E+01</totfact>
</mgrwt>
</event>
<event>
12    1  0.1532786E-007  0.1431077E+04  0.7818608E-02  0.8931625E-01
         -2   -1    0    0    0  501 -0.00000000000E+00  0.00000000000E+00  0.58139934350E+03  0.58139934350E+03  0.00000000000E+00 0.  1.
          2   -1    0    0  501    0  0.00000000000E+00 -0.00000000000E+00 -0.88062617396E+03  0.88062617396E+03  0.00000000000E+00 0. -1.
         23    2    1    2    0    0  0.25771966175E+03  0.59688825183E+02 -0.42974601284E+03  0.51230956761E+03  0.88302194821E+02 0.  0.
        254    2    1    2    0    0 -0.25771966175E+03 -0.59688825183E+02  0.13051918237E+03  0.94971594985E+03  0.90274190582E+03 0.  0.
        -24    2    4    4    0    0 -0.53859742598E+03  0.16204079866E+03  0.13461086628E+03  0.58345502327E+03  0.77170403384E+02 0.  0.
         24    2    4    4    0    0  0.28087776423E+03 -0.22172962384E+03 -0.40916839052E+01  0.36626092658E+03  0.77935742336E+02 0.  0.
         11    1    3    3    0    0  0.13862290495E+03  0.12743329780E+02 -0.29639083341E+03  0.32745416223E+03  0.00000000000E+00 0. -1.
        -11    1    3    3    0    0  0.11909675680E+03  0.46945495403E+02 -0.13335517943E+03  0.18485540538E+03  0.00000000000E+00 0.  1.
          2    1    6    6  502    0  0.21360689655E+02 -0.29931445962E+02 -0.22372476091E+02  0.43042980919E+02  0.00000000000E+00 0. -1.
          1    1    5    5  503    0 -0.27945950013E+02  0.13927189388E+02 -0.93841189694E+01  0.32603748484E+02  0.00000000000E+00 0. -1.
         -2    1    5    5    0  503 -0.51065147597E+03  0.14811360927E+03  0.14399498525E+03  0.55085127479E+03  0.00000000000E+00 0.  1.
         -1    1    6    6    0  502  0.25951707457E+03 -0.19179817788E+03  0.18280792186E+02  0.32321794566E+03  0.00000000000E+00 0.  1.
<mgrwt>
<rscale>  0 0.14310772E+04</rscale>
<asrwt>0</asrwt>
<pdfrwt beam="1">  1        2 0.13548095E+00 0.14310772E+04</pdfrwt>
<pdfrwt beam="2">  1       -2 0.89446053E-01 0.14310772E+04</pdfrwt>
<totfact> 0.31476031E+01</totfact>
</mgrwt>
</event>
<event>
12    1  0.1532786E-007  0.2544826E+04  0.7818608E-02  0.8387188E-01
         -1   -1    0    0    0  501 -0.00000000000E+00  0.00000000000E+00  0.12321065626E+04  0.12321065626E+04  0.00000000000E+00 0.  1.
          1   -1    0    0  501    0  0.00000000000E+00 -0.00000000000E+00 -0.13140376585E+04  0.13140376585E+04  0.00000000000E+00 0. -1.
         23    2    1    2    0    0  0.96396251207E+03  0.49847708454E+03  0.20134683213E+03  0.11073741776E+04  0.89631991171E+02 0.  0.
        254    2    1    2    0    0 -0.96396251207E+03 -0.49847708454E+03 -0.28327792807E+03  0.14387700435E+04  0.90117130726E+03 0.  0.
        -24    2    4    4    0    0 -0.64764117960E+03 -0.66216201701E+03  0.68381933742E+02  0.93209829297E+03  0.78952546530E+02 0.  0.
         24    2    4    4    0    0 -0.31632133246E+03  0.16368493247E+03 -0.35165986181E+03  0.50667175052E+03  0.78737931662E+02 0.  0.
         11    1    3    3    0    0  0.20133681487E+03  0.10644443831E+03  0.55273862288E+01  0.22781019176E+03  0.00000000000E+00 0.  1.
        -11    1    3    3    0    0  0.76262569720E+03  0.39203264623E+03  0.19581944590E+03  0.87956398581E+03  0.00000000000E+00 0. -1.
          2    1    6    6  502    0 -0.55535921950E+02  0.63663273770E+02 -0.97786197187E+02  0.12922612512E+03  0.00000000000E+00 0. -1.
          1    1    5    5  503    0 -0.14069500631E+03 -0.17691808037E+03 -0.81231827112E+01  0.22618814748E+03  0.00000000000E+00 0. -1.
         -2    1    5    5    0  503 -0.50694617329E+03 -0.48524393664E+03  0.76505116453E+02  0.70591014549E+03  0.00000000000E+00 0.  1.
         -1    1    6    6    0  502 -0.26078541051E+03  0.10002165870E+03 -0.25387366462E+03  0.37744562540E+03  0.00000000000E+00 0.  1.
<mgrwt>
<rscale>  0 0.25448257E+04</rscale>
<asrwt>0</asrwt>
<pdfrwt beam="1">  1        1 0.20215964E+00 0.25448257E+04</pdfrwt>
<pdfrwt beam="2">  1       -1 0.18955486E+00 0.25448257E+04</pdfrwt>
<totfact> 0.13922448E+00</totfact>
</mgrwt>
</event>
<event>
12    1  0.1532786E-007  0.1511475E+04  0.7818608E-02  0.8876858E-01
         -2   -1    0    0    0  501 -0.00000000000E+00  0.00000000000E+00  0.51644858765E+03  0.51644858765E+03  0.00000000000E+00 0.  1.
          2   -1    0    0  501    0  0.00000000000E+00 -0.00000000000E+00 -0.11058971004E+04  0.11058971004E+04  0.00000000000E+00 0. -1.
         23    2    1    2    0    0 -0.27558150535E+03 -0.99648081199E+02 -0.60658724914E+03  0.68015929120E+03  0.93774540351E+02 0.  0.
        254    2    1    2    0    0  0.27558150535E+03  0.99648081199E+02  0.17138736379E+02  0.94218639685E+03  0.89529132909E+03 0.  0.
        -24    2    4    4    0    0 -0.12611324815E+03 -0.10846773136E+02  0.36425596133E+03  0.39423121683E+03  0.81936823949E+02 0.  0.
         24    2    4    4    0    0  0.40169475349E+03  0.11049485434E+03 -0.34711722495E+03  0.54795518001E+03  0.78719271016E+02 0.  0.
         11    1    3    3    0    0 -0.26038019518E+03 -0.74380696416E+02 -0.48944652123E+03  0.55936413112E+03  0.00000000000E+00 0. -1.
        -11    1    3    3    0    0 -0.15201310168E+02 -0.25267384783E+02 -0.11714072791E+03  0.12079516008E+03  0.00000000000E+00 0.  1.
          2    1    6    6  502    0  0.23131090600E+03  0.80458258823E+02 -0.24809479135E+03  0.34861051640E+03  0.00000000000E+00 0. -1.
          3    1    5    5  503    0 -0.62065526080E+02 -0.19415180545E+02  0.28319775197E+03  0.29056848673E+03  0.00000000000E+00 0. -1.
         -4    1    5    5    0  503 -0.64047722065E+02  0.85684074086E+01  0.81058209359E+02  0.10366273010E+03  0.00000000000E+00 0.  1.
         -1    1    6    6    0  502  0.17038384749E+03  0.30036595512E+02 -0.99022433596E+02  0.19934466362E+03  0.00000000000E+00 0.  1.
<mgrwt>
<rscale>  0 0.15114748E+04</rscale>
<asrwt>0</asrwt>
<pdfrwt beam="1">  1        2 0.17013801E+00 0.15114748E+04</pdfrwt>
<pdfrwt beam="2">  1       -2 0.79453630E-01 0.15114748E+04</pdfrwt>
<totfact> 0.29282520E+01</totfact>
</mgrwt>
</event>
<event>
12    1  0.1532786E-007  0.2050339E+04  0.7818608E-02  0.8583441E-01
          2   -1    0    0  501    0  0.00000000000E+00  0.00000000000E+00  0.12682221025E+04  0.12682221025E+04  0.00000000000E+00 0. -1.
         -2   -1    0    0    0  501 -0.00000000000E+00 -0.00000000000E+00 -0.82869748885E+03  0.82869748885E+03  0.00000000000E+00 0.  1.
         23    2    1    2    0    0  0.13372997727E+03 -0.48658758803E+03  0.84227771299E+03  0.98561137470E+03  0.85713759066E+02 0.  0.
        254    2    1    2    0    0 -0.13372997727E+03  0.48658758803E+03 -0.40275309935E+03  0.11113082166E+04  0.90451351880E+03 0.  0.
        -24    2    4    4    0    0 -0.30103822822E+03  0.38923903236E+02 -0.52477085085E+03  0.61167583832E+03  0.81386732228E+02 0.  0.
         24    2    4    4    0    0  0.16730825095E+03  0.44766368479E+03  0.12201775151E+03  0.49963237833E+03  0.79682848030E+02 0.  0.
         13    1    3    3    0    0 -0.11694399716E+01 -0.11520429674E+02  0.32393819418E+01  0.12024204135E+02  0.00000000000E+00 0.  1.
        -13    1    3    3    0    0  0.13489941724E+03 -0.47506715836E+03  0.83903833105E+03  0.97358717057E+03  0.00000000000E+00 0. -1.
          4    1    6    6  502    0 -0.47936326912E+01  0.55965092832E-01  0.25129335412E+01  0.54126593696E+01  0.00000000000E+00 0. -1.
          3    1    5    5  503    0 -0.61740136470E+02 -0.20151175719E+02 -0.14566152628E+03  0.15948415148E+03  0.00000000000E+00 0. -1.
         -2    1    5    5    0  503 -0.23929809175E+03  0.59075078955E+02 -0.37910932457E+03  0.45219168684E+03  0.00000000000E+00 0.  1.
         -3    1    6    6    0  502  0.17210188364E+03  0.44760771970E+03  0.11950481796E+03  0.49421971896E+03  0.00000000000E+00 0.  1.
<mgrwt>
<rscale>  0 0.20503390E+04</rscale>
<asrwt>0</asrwt>
<pdfrwt beam="1">  1        2 0.19511109E+00 0.20503390E+04</pdfrwt>
<pdfrwt beam="2">  1       -2 0.12749192E+00 0.20503390E+04</pdfrwt>
<totfact> 0.72855884E+00</totfact>
</mgrwt>
</event>
<event>
12    1  0.1532786E-007  0.1210174E+04  0.7818608E-02  0.9103997E-01
          2   -1    0    0  501    0  0.00000000000E+00  0.00000000000E+00  0.23588333222E+04  0.23588333222E+04  0.00000000000E+00 0. -1.
         -2   -1    0    0    0  501 -0.00000000000E+00 -0.00000000000E+00 -0.15521675461E+03  0.15521675461E+03  0.00000000000E+00 0.  1.
         23    2    1    2    0    0 -0.19800084776E+03 -0.54414916025E+02  0.17077143123E+03  0.28230400196E+03  0.91473214648E+02 0.  0.
        254    2    1    2    0    0  0.19800084776E+03  0.54414916025E+02  0.20328451364E+04  0.22317460748E+04  0.89781171487E+03 0.  0.
        -24    2    4    4    0    0  0.38063144194E+02 -0.38575361277E+03  0.57145725214E+03  0.69501468925E+03  0.78913715792E+02 0.  0.
         24    2    4    4    0    0  0.15993770356E+03  0.44016852879E+03  0.14613878842E+04  0.15367313856E+04  0.80996299743E+02 0.  0.
         11    1    3    3    0    0 -0.10087758213E+03 -0.41606316203E+02  0.14413638565E+03  0.18078348872E+03  0.00000000000E+00 0. -1.
        -11    1    3    3    0    0 -0.97123265630E+02 -0.12808599822E+02  0.26635045583E+02  0.10152051324E+03  0.00000000000E+00 0.  1.
          4    1    6    6  502    0  0.74736095596E+02  0.10838932252E+03  0.45350571675E+03  0.47222999095E+03  0.00000000000E+00 0. -1.
          3    1    5    5  503    0  0.69936426225E+01 -0.22511502185E+03  0.26637961726E+03  0.34883202919E+03  0.00000000000E+00 0. -1.
         -4    1    5    5    0  503  0.31069501571E+02 -0.16063859092E+03  0.30507763488E+03  0.34618266006E+03  0.00000000000E+00 0.  1.
         -3    1    6    6    0  502  0.85201607968E+02  0.33177920627E+03  0.10078821675E+04  0.10645013946E+04  0.00000000000E+00 0.  1.
<mgrwt>
<rscale>  0 0.12101743E+04</rscale>
<asrwt>0</asrwt>
<pdfrwt beam="1">  1        2 0.36289741E+00 0.12101743E+04</pdfrwt>
<pdfrwt beam="2">  1       -2 0.23879503E-01 0.12101743E+04</pdfrwt>
<totfact> 0.64802876E+01</totfact>
</mgrwt>
</event>
<event>
12    1  0.1532786E-007  0.1862827E+04  0.7818608E-02  0.8673584E-01
          2   -1    0    0  501    0  0.00000000000E+00  0.00000000000E+00  0.36278365984E+04  0.36278365984E+04  0.00000000000E+00 0.  1.
         -2   -1    0    0    0  501 -0.00000000000E+00 -0.00000000000E+00 -0.23913167882E+03  0.23913167882E+03  0.00000000000E+00 0. -1.
         23    2    1    2    0    0  0.64310006906E+03 -0.29344462887E+03  0.11894268718E+04  0.13864731361E+04  0.88792030660E+02 0.  0.
        254    2    1    2    0    0 -0.64310006906E+03  0.29344462887E+03  0.21992780479E+04  0.24804951412E+04  0.90351799356E+03 0.  0.
        -24    2    4    4    0    0 -0.44487137685E+03  0.55143185455E+03  0.19025115792E+04  0.20317284523E+04  0.79890943478E+02 0.  0.
         24    2    4    4    0    0 -0.19822869221E+03 -0.25798722567E+03  0.29676646865E+03  0.44876668886E+03  0.86424424180E+02 0.  0.
         11    1    3    3    0    0  0.62617486009E+02 -0.51387487981E+02  0.17608291269E+03  0.19382160771E+03  0.00000000000E+00 0. -1.
        -11    1    3    3    0    0  0.58048258305E+03 -0.24205714089E+03  0.10133439591E+04  0.11926515283E+04  0.00000000000E+00 0.  1.
          2    1    6    6  502    0 -0.72319601453E+02 -0.14399804656E+03  0.18553769906E+03  0.24574336194E+03  0.00000000000E+00 0. -1.
          1    1    5    5  503    0 -0.40546332550E+03  0.48127600662E+03  0.17418122849E+04  0.18520089467E+04  0.00000000000E+00 0. -1.
         -2    1    5    5    0  503 -0.39408051349E+02  0.70155847926E+02  0.16069929431E+03  0.17971950562E+03  0.00000000000E+00 0.  1.
         -1    1    6    6    0  502 -0.12590909075E+03 -0.11398917911E+03  0.11122876959E+03  0.20302332692E+03  0.00000000000E+00 0.  1.
<mgrwt>
<rscale>  0 0.18628265E+04</rscale>
<asrwt>0</asrwt>
<pdfrwt beam="1">  1        2 0.55812867E+00 0.18628265E+04</pdfrwt>
<pdfrwt beam="2">  1       -2 0.36789492E-01 0.18628265E+04</pdfrwt>
<totfact> 0.43470204E+00</totfact>
</mgrwt>
</event>
<event>
12    1  0.1532786E-007  0.1665057E+04  0.7818608E-02  0.8781549E-01
          1   -1    0    0  501    0  0.00000000000E+00  0.00000000000E+00  0.26500967210E+04  0.26500967210E+04  0.00000000000E+00 0. -1.
         -1   -1    0    0    0  501 -0.00000000000E+00 -0.00000000000E+00 -0.26153892292E+03  0.26153892292E+03  0.00000000000E+00 0.  1.
         23    2    1    2    0    0  0.49731647085E+03 -0.80281597015E+02  0.30125135588E+03  0.59400998878E+03  0.91250645756E+02 0.  0.
        254    2    1    2    0    0 -0.49731647085E+03  0.80281597015E+02  0.20873064422E+04  0.23176256551E+04  0.87222226911E+03 0.  0.
        -24    2    4    4    0    0 -0.49256824366E+02  0.20090156921E+03  0.16802456604E+04  0.16951274266E+04  0.86277678098E+02 0.  0.
         24    2    4    4    0    0 -0.44805964648E+03 -0.12061997220E+03  0.40706078177E+03  0.62249822855E+03  0.80616003350E+02 0.  0.
         11    1    3    3    0    0  0.10361523654E+03 -0.46217619874E+02  0.40060373005E+02  0.12032048502E+03  0.00000000000E+00 0. -1.
        -11    1    3    3    0    0  0.39370123431E+03 -0.34063977141E+02  0.26119098287E+03  0.47368950375E+03  0.00000000000E+00 0.  1.
          4    1    6    6  502    0 -0.75900215284E+02 -0.40418280410E+02  0.10993264696E+03  0.13956957741E+03  0.00000000000E+00 0. -1.
          1    1    5    5  503    0 -0.13379429715E-01  0.73995559957E+02  0.33844650940E+03  0.34644102355E+03  0.00000000000E+00 0. -1.
         -2    1    5    5    0  503 -0.49243444937E+02  0.12690600926E+03  0.13417991510E+04  0.13486864030E+04  0.00000000000E+00 0.  1.
         -3    1    6    6    0  502 -0.37215943120E+03 -0.80201691786E+02  0.29712813481E+03  0.48292865114E+03  0.00000000000E+00 0.  1.
<mgrwt>
<rscale>  0 0.16650567E+04</rscale>
<asrwt>0</asrwt>
<pdfrwt beam="1">  1        1 0.40770717E+00 0.16650567E+04</pdfrwt>
<pdfrwt beam="2">  1       -1 0.40236759E-01 0.16650567E+04</pdfrwt>
<totfact> 0.61338279E+00</totfact>
</mgrwt>
</event>
<event>
12    1  0.1532786E-007  0.1335869E+04  0.7818608E-02  0.9001595E-01
          2   -1    0    0  501    0  0.00000000000E+00  0.00000000000E+00  0.71977178401E+03  0.71977178401E+03  0.00000000000E+00 0. -1.
         -2   -1    0    0    0  501 -0.00000000000E+00 -0.00000000000E+00 -0.61983043474E+03  0.61983043474E+03  0.00000000000E+00 0.  1.
         23    2    1    2    0    0  0.19648464895E+02 -0.35609836612E+03  0.13826223809E+02  0.36775965439E+03  0.88678579198E+02 0.  0.
        254    2    1    2    0    0 -0.19648464895E+02  0.35609836612E+03  0.86115125463E+02  0.97184256435E+03  0.89992780074E+03 0.  0.
        -24    2    4    4    0    0  0.24980135135E+03 -0.16649342955E+03 -0.13508750294E+03  0.33885161264E+03  0.80318146895E+02 0.  0.
         24    2    4    4    0    0 -0.26944981624E+03  0.52259179566E+03  0.22120262840E+03  0.63299095171E+03  0.77727432542E+02 0.  0.
         11    1    3    3    0    0  0.18888084995E+02 -0.23523196454E+02 -0.15456497050E+02  0.33896958968E+02  0.00000000000E+00 0. -1.
        -11    1    3    3    0    0  0.76037990021E+00 -0.33257516966E+03  0.29282720859E+02  0.33386269542E+03  0.00000000000E+00 0.  1.
          2    1    6    6  502    0 -0.13612487275E+03  0.31471775936E+03  0.95836217009E+02  0.35603627558E+03  0.00000000000E+00 0. -1.
          1    1    5    5  503    0  0.12807205331E+03 -0.73733889662E+02 -0.23943288187E+02  0.14970777660E+03  0.00000000000E+00 0. -1.
         -2    1    5    5    0  503  0.12172929803E+03 -0.92759539887E+02 -0.11114421475E+03  0.18914383604E+03  0.00000000000E+00 0.  1.
         -1    1    6    6    0  502 -0.13332494349E+03  0.20787403631E+03  0.12536641139E+03  0.27695467614E+03  0.00000000000E+00 0.  1.
<mgrwt>
<rscale>  0 0.13358689E+04</rscale>
<asrwt>0</asrwt>
<pdfrwt beam="1">  1        2 0.11073412E+00 0.13358689E+04</pdfrwt>
<pdfrwt beam="2">  1       -2 0.95358528E-01 0.13358689E+04</pdfrwt>
<totfact> 0.35729648E+01</totfact>
</mgrwt>
</event>
<event>
12    1  0.1532786E-007  0.3262354E+04  0.7818608E-02  0.8172541E-01
         -2   -1    0    0    0  501 -0.00000000000E+00  0.00000000000E+00  0.20401819672E+04  0.20401819672E+04  0.00000000000E+00 0. -1.
          2   -1    0    0  501    0  0.00000000000E+00 -0.00000000000E+00 -0.13041672305E+04  0.13041672305E+04  0.00000000000E+00 0.  1.
         23    2    1    2    0    0 -0.36046088182E+03 -0.12633494914E+04  0.10868568628E+04  0.17075940328E+04  0.92927692621E+02 0.  0.
        254    2    1    2    0    0  0.36046088182E+03  0.12633494914E+04 -0.35084212606E+03  0.16367551648E+04  0.91098478992E+03 0.  0.
        -24    2    4    4    0    0  0.13618419713E+03  0.12963225224E+03 -0.43037066128E+03  0.47495295758E+03  0.70786647411E+02 0.  0.
         24    2    4    4    0    0  0.22427668469E+03  0.11337172392E+04  0.79528535223E+02  0.11618022073E+04  0.88570713105E+02 0.  0.
         13    1    3    3    0    0 -0.28404684531E+03 -0.10349612680E+04  0.93062721071E+03  0.14205261145E+04  0.00000000000E+00 0.  1.
        -13    1    3    3    0    0 -0.76414036510E+02 -0.22838822341E+03  0.15622965204E+03  0.28706791835E+03  0.00000000000E+00 0. -1.
          2    1    6    6  502    0  0.14057162995E+03  0.69753630326E+03  0.57946930955E+01  0.71158334437E+03  0.00000000000E+00 0. -1.
          1    1    5    5  503    0  0.13822479623E+03  0.12651256037E+03 -0.43199743349E+03  0.47088565997E+03  0.00000000000E+00 0. -1.
         -2    1    5    5    0  503 -0.20405990997E+01  0.31196918731E+01  0.16267722037E+01  0.40672976128E+01  0.00000000000E+00 0.  1.
         -1    1    6    6    0  502  0.83705054742E+02  0.43618093590E+03  0.73733842127E+02  0.45021886290E+03  0.00000000000E+00 0.  1.
<mgrwt>
<rscale>  0 0.32623540E+04</rscale>
<asrwt>0</asrwt>
<pdfrwt beam="1">  1        2 0.20064111E+00 0.32623540E+04</pdfrwt>
<pdfrwt beam="2">  1       -2 0.31387415E+00 0.32623540E+04</pdfrwt>
<totfact> 0.35967792E-01</totfact>
</mgrwt>
</event>
<event>
12    1  0.1532786E-007  0.1875132E+04  0.7818608E-02  0.8667335E-01
          2   -1    0    0  501    0  0.00000000000E+00  0.00000000000E+00  0.66080001027E+03  0.66080001027E+03  0.00000000000E+00 0. -1.
         -2   -1    0    0    0  501 -0.00000000000E+00 -0.00000000000E+00 -0.13302510325E+04  0.13302510325E+04  0.00000000000E+00 0.  1.
         23    2    1    2    0    0  0.37198865234E+03 -0.53751747003E+03 -0.58018516439E+03  0.87871587693E+03  0.90698287332E+02 0.  0.
        254    2    1    2    0    0 -0.37198865234E+03  0.53751747003E+03 -0.89265857794E+02  0.11123351658E+04  0.89555599470E+03 0.  0.
        -24    2    4    4    0    0  0.24707275380E+03  0.24577988285E+03  0.14368072726E+03  0.38523798180E+03  0.79444664689E+02 0.  0.
         24    2    4    4    0    0 -0.61906140615E+03  0.29173758718E+03 -0.23294658506E+03  0.72709718400E+03  0.77835461920E+02 0.  0.
         13    1    3    3    0    0  0.22480638544E+03 -0.27681842751E+03 -0.26719731688E+03  0.44560156967E+03  0.00000000000E+00 0. -1.
        -13    1    3    3    0    0  0.14718226690E+03 -0.26069904252E+03 -0.31298784751E+03  0.43311430726E+03  0.00000000000E+00 0.  1.
          2    1    6    6  502    0 -0.39742390636E+03  0.17710206066E+03 -0.10931668173E+03  0.44862126359E+03  0.00000000000E+00 0. -1.
          1    1    5    5  503    0  0.23606133552E+03  0.24401552294E+03  0.12183568243E+03  0.36071105206E+03  0.00000000000E+00 0. -1.
         -2    1    5    5    0  503  0.11011418285E+02  0.17643599040E+01  0.21845044837E+02  0.24526929740E+02  0.00000000000E+00 0.  1.
         -3    1    6    6    0  502 -0.22163749978E+03  0.11463552652E+03 -0.12362990333E+03  0.27847592041E+03  0.00000000000E+00 0.  1.
<mgrwt>
<rscale>  0 0.18751319E+04</rscale>
<asrwt>0</asrwt>
<pdfrwt beam="1">  1        2 0.10166154E+00 0.18751319E+04</pdfrwt>
<pdfrwt beam="2">  1       -2 0.20465400E+00 0.18751319E+04</pdfrwt>
<totfact> 0.51223430E+00</totfact>
</mgrwt>
</event>
<event>
12    1  0.1532786E-007  0.1434955E+04  0.7818608E-02  0.8928898E-01
         -1   -1    0    0    0  501 -0.00000000000E+00  0.00000000000E+00  0.33177069475E+03  0.33177069475E+03  0.00000000000E+00 0.  1.
          1   -1    0    0  501    0  0.00000000000E+00 -0.00000000000E+00 -0.15515951847E+04  0.15515951847E+04  0.00000000000E+00 0. -1.
         23    2    1    2    0    0  0.30916882870E+03 -0.29016074041E+03 -0.47851659171E+03  0.64586896272E+03  0.91596771495E+02 0.  0.
        254    2    1    2    0    0 -0.30916882870E+03  0.29016074041E+03 -0.74130789824E+03  0.12374969167E+04  0.89559064256E+03 0.  0.
        -24    2    4    4    0    0  0.94613421277E+02  0.53051750052E+02  0.16605803288E+03  0.21321890298E+03  0.78235814285E+02 0.  0.
         24    2    4    4    0    0 -0.40378224997E+03  0.23710899036E+03 -0.90736593112E+03  0.10242780138E+04  0.81066255694E+02 0.  0.
         11    1    3    3    0    0  0.28708609552E+03 -0.26885255987E+03 -0.39734922024E+03  0.55909438203E+03  0.00000000000E+00 0. -1.
        -11    1    3    3    0    0  0.22082733178E+02 -0.21308180535E+02 -0.81167371473E+02  0.86774580692E+02  0.00000000000E+00 0.  1.
          4    1    6    6  502    0 -0.36865415386E+02  0.45236465770E+00 -0.97072713438E+02  0.10383821637E+03  0.00000000000E+00 0. -1.
          3    1    5    5  503    0  0.31681494457E+01 -0.70549201860E+01 -0.56689360802E+01  0.95888427885E+01  0.00000000000E+00 0. -1.
         -4    1    5    5    0  503  0.91445271831E+02  0.60106670238E+02  0.17172696896E+03  0.20363006020E+03  0.00000000000E+00 0.  1.
         -3    1    6    6    0  502 -0.36691683459E+03  0.23665662570E+03 -0.81029321768E+03  0.92043979738E+03  0.00000000000E+00 0.  1.
<mgrwt>
<rscale>  0 0.14349548E+04</rscale>
<asrwt>0</asrwt>
<pdfrwt beam="1">  1        1 0.23870695E+00 0.14349548E+04</pdfrwt>
<pdfrwt beam="2">  1       -1 0.51041646E-01 0.14349548E+04</pdfrwt>
<totfact> 0.22607855E+01</totfact>
</mgrwt>
</event>
<event>
12    1  0.1532786E-007  0.1207158E+04  0.7818608E-02  0.9106614E-01
          2   -1    0    0  501    0  0.00000000000E+00  0.00000000000E+00  0.86044504417E+03  0.86044504417E+03  0.00000000000E+00 0. -1.
         -2   -1    0    0    0  501 -0.00000000000E+00 -0.00000000000E+00 -0.42339448981E+03  0.42339448981E+03  0.00000000000E+00 0.  1.
         23    2    1    2    0    0 -0.15586813191E+03 -0.19801768957E+03  0.13148626012E+03  0.29862959201E+03  0.91570282814E+02 0.  0.
        254    2    1    2    0    0  0.15586813191E+03  0.19801768957E+03  0.30556429424E+03  0.98520994197E+03  0.90208825062E+03 0.  0.
        -24    2    4    4    0    0 -0.64366606346E+02 -0.13099222564E+03  0.50789433414E+03  0.53432586417E+03  0.79028167609E+02 0.  0.
         24    2    4    4    0    0  0.22023473826E+03  0.32900991521E+03 -0.20233003990E+03  0.45088407780E+03  0.74887531191E+02 0.  0.
         11    1    3    3    0    0 -0.61547052098E+02 -0.28674211820E+02  0.69988120493E+01  0.68258577596E+02  0.00000000000E+00 0. -1.
        -11    1    3    3    0    0 -0.94321079812E+02 -0.16934347775E+03  0.12448744808E+03  0.23037101441E+03  0.00000000000E+00 0.  1.
          4    1    6    6  502    0  0.11423623956E+03  0.22936742512E+03 -0.14572787899E+03  0.29478118809E+03  0.00000000000E+00 0. -1.
          3    1    5    5  503    0 -0.93642691529E+01 -0.90103105886E+02  0.36158259907E+03  0.37275760914E+03  0.00000000000E+00 0. -1.
         -4    1    5    5    0  503 -0.55002337193E+02 -0.40889119758E+02  0.14631173507E+03  0.16156825502E+03  0.00000000000E+00 0.  1.
         -3    1    6    6    0  502  0.10599849870E+03  0.99642490091E+02 -0.56602160904E+02  0.15610288971E+03  0.00000000000E+00 0.  1.
<mgrwt>
<rscale>  0 0.12071581E+04</rscale>
<asrwt>0</asrwt>
<pdfrwt beam="1">  1        2 0.13237616E+00 0.12071581E+04</pdfrwt>
<pdfrwt beam="2">  1       -2 0.65137614E-01 0.12071581E+04</pdfrwt>
<totfact> 0.66922101E+01</totfact>
</mgrwt>
</event>
<event>
12    1  0.1532786E-007  0.1533941E+04  0.7818608E-02  0.8862191E-01
          1   -1    0    0  501    0  0.00000000000E+00  0.00000000000E+00  0.20252159693E+04  0.20252159693E+04  0.00000000000E+00 0. -1.
         -1   -1    0    0    0  501 -0.00000000000E+00 -0.00000000000E+00 -0.29045984396E+03  0.29045984396E+03  0.00000000000E+00 0.  1.
         23    2    1    2    0    0  0.44478096203E+03 -0.22923854504E+03  0.48542446288E+03  0.70350095495E+03  0.94320038912E+02 0.  0.
        254    2    1    2    0    0 -0.44478096203E+03  0.22923854504E+03  0.12493316624E+04  0.16121748583E+04  0.88763604939E+03 0.  0.
        -24    2    4    4    0    0 -0.91178761587E+02  0.50300717656E+03  0.90350933345E+03  0.10411945864E+04  0.80170224882E+02 0.  0.
         24    2    4    4    0    0 -0.35360220044E+03 -0.27376863152E+03  0.34582232898E+03  0.57098027183E+03  0.80259627760E+02 0.  0.
         11    1    3    3    0    0  0.73755200178E+01  0.18421669879E+01 -0.31343824678E+01  0.82229087432E+01  0.00000000000E+00 0. -1.
        -11    1    3    3    0    0  0.43740544201E+03 -0.23108071203E+03  0.48855884534E+03  0.69527804621E+03  0.00000000000E+00 0.  1.
          4    1    6    6  502    0 -0.54723241128E+02 -0.30303238300E+02  0.85025137082E+02  0.10555658817E+03  0.00000000000E+00 0. -1.
          1    1    5    5  503    0 -0.16283171490E+02  0.29814693232E+03  0.49442260004E+03  0.57759020279E+03  0.00000000000E+00 0. -1.
         -2    1    5    5    0  503 -0.74895590097E+02  0.20486024424E+03  0.40908673341E+03  0.46360438365E+03  0.00000000000E+00 0.  1.
         -3    1    6    6    0  502 -0.29887895931E+03 -0.24346539321E+03  0.26079719189E+03  0.46542368366E+03  0.00000000000E+00 0.  1.
<mgrwt>
<rscale>  0 0.15339412E+04</rscale>
<asrwt>0</asrwt>
<pdfrwt beam="1">  1        1 0.31157168E+00 0.15339412E+04</pdfrwt>
<pdfrwt beam="2">  1       -1 0.44686131E-01 0.15339412E+04</pdfrwt>
<totfact> 0.13721435E+01</totfact>
</mgrwt>
</event>
<event>
12    1  0.1532786E-007  0.2028221E+04  0.7818608E-02  0.8593539E-01
         -1   -1    0    0    0  501 -0.00000000000E+00  0.00000000000E+00  0.75788568213E+03  0.75788568213E+03  0.00000000000E+00 0.  1.
          1   -1    0    0  501    0  0.00000000000E+00 -0.00000000000E+00 -0.13569590355E+04  0.13569590355E+04  0.00000000000E+00 0. -1.
         23    2    1    2    0    0  0.26593347523E+02  0.58450129885E+03 -0.82863736153E+03  0.10185641994E+04  0.92109592157E+02 0.  0.
        254    2    1    2    0    0 -0.26593347523E+02 -0.58450129885E+03  0.22956400821E+03  0.10962805182E+04  0.89821064686E+03 0.  0.
        -24    2    4    4    0    0 -0.22816800211E+03 -0.22672912137E+03 -0.28180095254E+03  0.43570827692E+03  0.83445755205E+02 0.  0.
         24    2    4    4    0    0  0.20157465459E+03 -0.35777217748E+03  0.51136496075E+03  0.66057224123E+03  0.78919518781E+02 0.  0.
         11    1    3    3    0    0  0.43382767544E+02  0.18498067143E+03 -0.22494644017E+03  0.29445001998E+03  0.00000000000E+00 0.  1.
        -11    1    3    3    0    0 -0.16789420021E+02  0.39952062742E+03 -0.60369092136E+03  0.72411417946E+03  0.00000000000E+00 0. -1.
          4    1    6    6  502    0  0.42500045015E+02 -0.51280952290E+02  0.45410160525E+02  0.80610623202E+02  0.00000000000E+00 0. -1.
          3    1    5    5  503    0 -0.35599115740E+02 -0.26363402387E+02 -0.82794343404E+02  0.93900102911E+02  0.00000000000E+00 0. -1.
         -4    1    5    5    0  503 -0.19256888637E+03 -0.20036571898E+03 -0.19900660914E+03  0.34180817401E+03  0.00000000000E+00 0.  1.
         -3    1    6    6    0  502  0.15907460958E+03 -0.30649122519E+03  0.46595480022E+03  0.57996161802E+03  0.00000000000E+00 0.  1.
<mgrwt>
<rscale>  0 0.20282207E+04</rscale>
<asrwt>0</asrwt>
<pdfrwt beam="1">  1        1 0.20876293E+00 0.20282207E+04</pdfrwt>
<pdfrwt beam="2">  1       -1 0.11659780E+00 0.20282207E+04</pdfrwt>
<totfact> 0.50627473E+00</totfact>
</mgrwt>
</event>
<event>
12    1  0.1532786E-007  0.2365954E+04  0.7818608E-02  0.8452361E-01
         -1   -1    0    0    0  501 -0.00000000000E+00  0.00000000000E+00  0.59761612539E+03  0.59761612539E+03  0.00000000000E+00 0.  1.
          1   -1    0    0  501    0  0.00000000000E+00 -0.00000000000E+00 -0.23416947097E+04  0.23416947097E+04  0.00000000000E+00 0. -1.
         23    2    1    2    0    0 -0.52338150811E+03  0.13825109610E+03 -0.18129699252E+04  0.18943653505E+04  0.93373244987E+02 0.  0.
        254    2    1    2    0    0  0.52338150811E+03 -0.13825109610E+03  0.68891340879E+02  0.10449454846E+04  0.89113606163E+03 0.  0.
        -24    2    4    4    0    0  0.42097495817E+03 -0.17306662899E+03  0.44713615721E+03  0.64294224372E+03  0.79196036465E+02 0.  0.
         24    2    4    4    0    0  0.10240654993E+03  0.34815532892E+02 -0.37824481633E+03  0.40200324088E+03  0.82693662376E+02 0.  0.
         11    1    3    3    0    0 -0.47405486219E+03  0.94477545743E+02 -0.15945000447E+04  0.16661585793E+04  0.00000000000E+00 0. -1.
        -11    1    3    3    0    0 -0.49326645921E+02  0.43773550358E+02 -0.21846988057E+03  0.22820677121E+03  0.00000000000E+00 0.  1.
          2    1    6    6  502    0  0.10910008265E+03  0.22224495811E+02 -0.36792017776E+03  0.38439824850E+03  0.00000000000E+00 0. -1.
          3    1    5    5  503    0  0.36083152654E+03 -0.11613856206E+03  0.36114284051E+03  0.52355678526E+03  0.00000000000E+00 0. -1.
         -4    1    5    5    0  503  0.60143431634E+02 -0.56928066935E+02  0.85993316699E+02  0.11938545846E+03  0.00000000000E+00 0.  1.
         -3    1    6    6    0  502 -0.66935327185E+01  0.12591037081E+02 -0.10324638573E+02  0.17604992380E+02  0.00000000000E+00 0.  1.
<mgrwt>
<rscale>  0 0.23659539E+04</rscale>
<asrwt>0</asrwt>
<pdfrwt beam="1">  1        1 0.36026073E+00 0.23659539E+04</pdfrwt>
<pdfrwt beam="2">  1       -1 0.91940941E-01 0.23659539E+04</pdfrwt>
<totfact> 0.18038741E+00</totfact>
</mgrwt>
</event>
<event>
12    1  0.1532786E-007  0.1650359E+04  0.7818608E-02  0.8790194E-01
         -2   -1    0    0    0  501 -0.00000000000E+00  0.00000000000E+00  0.10038820481E+04  0.10038820481E+04  0.00000000000E+00 0.  1.
          2   -1    0    0  501    0  0.00000000000E+00 -0.00000000000E+00 -0.67828820418E+03  0.67828820418E+03  0.00000000000E+00 0. -1.
         23    2    1    2    0    0  0.24970545922E+03  0.49352642486E+03 -0.31876006291E+02  0.56150877015E+03  0.91404982237E+02 0.  0.
        254    2    1    2    0    0 -0.24970545922E+03 -0.49352642486E+03  0.35746985024E+03  0.11206614822E+04  0.90673938669E+03 0.  0.
        -24    2    4    4    0    0 -0.15244780006E+03 -0.52794283422E+03  0.61705062426E+03  0.83028347705E+03  0.81579479223E+02 0.  0.
         24    2    4    4    0    0 -0.97257659164E+02  0.34416409360E+02 -0.25958077402E+03  0.29037800511E+03  0.79332629548E+02 0.  0.
         11    1    3    3    0    0  0.57406152497E+02  0.17291849172E+03 -0.44074678627E+02  0.18745359004E+03  0.00000000000E+00 0. -1.
        -11    1    3    3    0    0  0.19229930673E+03  0.32060793313E+03  0.12198672336E+02  0.37405518011E+03  0.00000000000E+00 0.  1.
          4    1    6    6  502    0 -0.38978029658E+02  0.27748091828E+02 -0.37815425557E+02  0.60985652462E+02  0.00000000000E+00 0. -1.
          3    1    5    5  503    0 -0.42102588735E+02 -0.28888494606E+03  0.31074877686E+03  0.42637066311E+03  0.00000000000E+00 0. -1.
         -4    1    5    5    0  503 -0.11034521132E+03 -0.23905788815E+03  0.30630184740E+03  0.40391281395E+03  0.00000000000E+00 0.  1.
         -3    1    6    6    0  502 -0.58279629506E+02  0.66683175317E+01 -0.22176534846E+03  0.22939235265E+03  0.00000000000E+00 0.  1.
<mgrwt>
<rscale>  0 0.16503592E+04</rscale>
<asrwt>0</asrwt>
<pdfrwt beam="1">  1        2 0.10435203E+00 0.16503592E+04</pdfrwt>
<pdfrwt beam="2">  1       -2 0.15444339E+00 0.16503592E+04</pdfrwt>
<totfact> 0.11281475E+01</totfact>
</mgrwt>
</event>
<event>
12    1  0.1532786E-007  0.1692273E+04  0.7818608E-02  0.8765784E-01
          2   -1    0    0  501    0  0.00000000000E+00  0.00000000000E+00  0.16432714578E+04  0.16432714578E+04  0.00000000000E+00 0.  1.
         -2   -1    0    0    0  501 -0.00000000000E+00 -0.00000000000E+00 -0.43568376965E+03  0.43568376965E+03  0.00000000000E+00 0. -1.
         23    2    1    2    0    0  0.17344103343E+03 -0.27051490774E+03  0.10520159230E+04  0.11038041547E+04  0.91575117833E+02 0.  0.
        254    2    1    2    0    0 -0.17344103343E+03  0.27051490774E+03  0.15557176513E+03  0.97515107277E+03  0.90744527837E+03 0.  0.
        -24    2    4    4    0    0 -0.62633935567E+02  0.29513707766E+03 -0.33992221170E+03  0.46057345864E+03  0.74511048172E+02 0.  0.
         24    2    4    4    0    0 -0.11080709786E+03 -0.24622169920E+02  0.49549397683E+03  0.51457761413E+03  0.79946079974E+02 0.  0.
         11    1    3    3    0    0  0.13461879349E+03 -0.24719805923E+03  0.97117561523E+03  0.10111434990E+04  0.00000000000E+00 0.  1.
        -11    1    3    3    0    0  0.38822239939E+02 -0.23316848509E+02  0.80840307810E+02  0.92660655648E+02  0.00000000000E+00 0. -1.
          2    1    6    6  502    0 -0.18388451560E+02 -0.23414591665E+02  0.40355301284E+02  0.50149063753E+02  0.00000000000E+00 0. -1.
          3    1    5    5  503    0 -0.45709311213E+02  0.65106034080E+02 -0.75270748893E+02  0.10951631132E+03  0.00000000000E+00 0. -1.
         -4    1    5    5    0  503 -0.16924624355E+02  0.23003104358E+03 -0.26465146281E+03  0.35105714732E+03  0.00000000000E+00 0.  1.
         -1    1    6    6    0  502 -0.92418646303E+02 -0.12075782548E+01  0.45513867554E+03  0.46442855038E+03  0.00000000000E+00 0.  1.
<mgrwt>
<rscale>  0 0.16922727E+04</rscale>
<asrwt>0</asrwt>
<pdfrwt beam="1">  1        2 0.25281099E+00 0.16922727E+04</pdfrwt>
<pdfrwt beam="2">  1       -2 0.67028273E-01 0.16922727E+04</pdfrwt>
<totfact> 0.20514922E+01</totfact>
</mgrwt>
</event>
<event>
12    1  0.1532786E-007  0.3231307E+04  0.7818608E-02  0.8180598E-01
          2   -1    0    0  501    0  0.00000000000E+00  0.00000000000E+00  0.16858466639E+04  0.16858466639E+04  0.00000000000E+00 0. -1.
         -2   -1    0    0    0  501 -0.00000000000E+00 -0.00000000000E+00 -0.15483834171E+04  0.15483834171E+04  0.00000000000E+00 0.  1.
         23    2    1    2    0    0 -0.11572507091E+04 -0.43548844999E+03 -0.76047647123E+03  0.14545064115E+04  0.91569885871E+02 0.  0.
        254    2    1    2    0    0  0.11572507091E+04  0.43548844999E+03  0.89793971802E+03  0.17797236694E+04  0.91227255175E+03 0.  0.
        -24    2    4    4    0    0 -0.11529181988E+03  0.98563848891E+02 -0.21830877792E+02  0.17200496151E+03  0.78115833983E+02 0.  0.
         24    2    4    4    0    0  0.12725425289E+04  0.33692460110E+03  0.91977059581E+03  0.16077187079E+04  0.76803776760E+02 0.  0.
         11    1    3    3    0    0 -0.49627626212E+03 -0.18517990003E+03 -0.37921140683E+03  0.65144686260E+03  0.00000000000E+00 0.  1.
        -11    1    3    3    0    0 -0.66097444695E+03 -0.25030854996E+03 -0.38126506440E+03  0.80305954887E+03  0.00000000000E+00 0. -1.
          2    1    6    6  502    0  0.10324354270E+04  0.28519289555E+03  0.78109723171E+03  0.13256586227E+04  0.00000000000E+00 0. -1.
          1    1    5    5  503    0 -0.49138699529E+02  0.61603866761E+02 -0.47484795272E+02  0.92002467213E+02  0.00000000000E+00 0. -1.
         -2    1    5    5    0  503 -0.66153120353E+02  0.36959982131E+02  0.25653917481E+02  0.80002494296E+02  0.00000000000E+00 0.  1.
         -1    1    6    6    0  502  0.24010710191E+03  0.51731705550E+02  0.13867336410E+03  0.28206008519E+03  0.00000000000E+00 0.  1.
<mgrwt>
<rscale>  0 0.32313075E+04</rscale>
<asrwt>0</asrwt>
<pdfrwt beam="1">  1        2 0.25936102E+00 0.32313075E+04</pdfrwt>
<pdfrwt beam="2">  1       -2 0.23821283E+00 0.32313075E+04</pdfrwt>
<totfact> 0.63741266E-01</totfact>
</mgrwt>
</event>
<event>
12    1  0.1532786E-007  0.2737099E+04  0.7818608E-02  0.8323067E-01
          2   -1    0    0  501    0  0.00000000000E+00  0.00000000000E+00  0.25444718547E+04  0.25444718547E+04  0.00000000000E+00 0.  1.
         -2   -1    0    0    0  501 -0.00000000000E+00 -0.00000000000E+00 -0.73607712675E+03  0.73607712675E+03  0.00000000000E+00 0. -1.
         23    2    1    2    0    0  0.12254322203E+03 -0.11435242528E+04  0.32456715768E+03  0.11983661634E+04  0.89850230073E+02 0.  0.
        254    2    1    2    0    0 -0.12254322203E+03  0.11435242528E+04  0.14838275702E+04  0.20821828180E+04  0.90059784109E+03 0.  0.
        -24    2    4    4    0    0  0.46647814827E+02  0.74076366696E+03  0.27718924690E+03  0.79639473993E+03  0.80646601120E+02 0.  0.
         24    2    4    4    0    0 -0.16919103686E+03  0.40276058583E+03  0.12066383233E+04  0.12857880781E+04  0.80207492831E+02 0.  0.
         11    1    3    3    0    0  0.80889613809E+02 -0.54022757079E+03  0.11397282948E+03  0.55801322899E+03  0.00000000000E+00 0. -1.
        -11    1    3    3    0    0  0.41653608225E+02 -0.60329668199E+03  0.21059432821E+03  0.64035293444E+03  0.00000000000E+00 0.  1.
          4    1    6    6  502    0 -0.83473942250E+02  0.28196087459E+03  0.85790045979E+03  0.90689747643E+03  0.00000000000E+00 0. -1.
          3    1    5    5  503    0 -0.15161241353E+02  0.31495657836E+03  0.96842519864E+02  0.32985751947E+03  0.00000000000E+00 0. -1.
         -4    1    5    5    0  503  0.61809056180E+02  0.42580708859E+03  0.18034672704E+03  0.46653722046E+03  0.00000000000E+00 0.  1.
         -3    1    6    6    0  502 -0.85717094612E+02  0.12079971123E+03  0.34873786354E+03  0.37889060164E+03  0.00000000000E+00 0.  1.
<mgrwt>
<rscale>  0 0.27370989E+04</rscale>
<asrwt>0</asrwt>
<pdfrwt beam="1">  1        2 0.39145720E+00 0.27370989E+04</pdfrwt>
<pdfrwt beam="2">  1       -2 0.11324264E+00 0.27370989E+04</pdfrwt>
<totfact> 0.17558175E+00</totfact>
</mgrwt>
</event>
<event>
12    1  0.1532786E-007  0.1064218E+04  0.7818608E-02  0.9240787E-01
         -2   -1    0    0    0  501 -0.00000000000E+00  0.00000000000E+00  0.94787235253E+02  0.94787235253E+02  0.00000000000E+00 0.  1.
          2   -1    0    0  501    0  0.00000000000E+00 -0.00000000000E+00 -0.29871103543E+04  0.29871103543E+04  0.00000000000E+00 0. -1.
         23    2    1    2    0    0 -0.26069689624E+02  0.10694378762E+03 -0.63737190360E+03  0.65347707390E+03  0.93127547944E+02 0.  0.
        254    2    1    2    0    0  0.26069689624E+02 -0.10694378762E+03 -0.22549512154E+04  0.24284205156E+04  0.89459745941E+03 0.  0.
        -24    2    4    4    0    0 -0.26692295604E+03  0.28923052162E+03 -0.96666201655E+03  0.10466948413E+04  0.78946041160E+02 0.  0.
         24    2    4    4    0    0  0.29299264566E+03 -0.39617430924E+03 -0.12882891989E+04  0.13817256744E+04  0.81719064657E+02 0.  0.
         13    1    3    3    0    0 -0.10764764094E+02 -0.38828758090E+01 -0.73546292109E+01  0.13603214377E+02  0.00000000000E+00 0.  1.
        -13    1    3    3    0    0 -0.15304925530E+02  0.11082666343E+03 -0.63001727438E+03  0.63987385952E+03  0.00000000000E+00 0. -1.
          2    1    6    6  502    0  0.13316231508E+03 -0.22067801714E+03 -0.57913678364E+03  0.63390094145E+03  0.00000000000E+00 0. -1.
          3    1    5    5  503    0 -0.19158587761E+03  0.20761869062E+03 -0.77879094072E+03  0.82844794559E+03  0.00000000000E+00 0. -1.
         -4    1    5    5    0  503 -0.75337078428E+02  0.81611831003E+02 -0.18787107583E+03  0.21824689569E+03  0.00000000000E+00 0.  1.
         -1    1    6    6    0  502  0.15983033059E+03 -0.17549629210E+03 -0.70915241524E+03  0.74782473292E+03  0.00000000000E+00 0.  1.
<mgrwt>
<rscale>  0 0.10642179E+04</rscale>
<asrwt>0</asrwt>
<pdfrwt beam="1">  1        2 0.45955548E+00 0.10642179E+04</pdfrwt>
<pdfrwt beam="2">  1       -2 0.14582650E-01 0.10642179E+04</pdfrwt>
<totfact> 0.66331755E+01</totfact>
</mgrwt>
</event>
<event>
12    1  0.1532786E-007  0.1968850E+04  0.7818608E-02  0.8621324E-01
          1   -1    0    0  501    0  0.00000000000E+00  0.00000000000E+00  0.43034212423E+03  0.43034212423E+03  0.00000000000E+00 0. -1.
         -1   -1    0    0    0  501 -0.00000000000E+00 -0.00000000000E+00 -0.22519116978E+04  0.22519116978E+04  0.00000000000E+00 0.  1.
         23    2    1    2    0    0  0.21442559164E+03 -0.52809853004E+03 -0.14396756705E+04  0.15508831039E+04  0.87783677251E+02 0.  0.
        254    2    1    2    0    0 -0.21442559164E+03  0.52809853004E+03 -0.38189390301E+03  0.11313707181E+04  0.89960566737E+03 0.  0.
        -24    2    4    4    0    0 -0.50792593962E+03  0.54344731594E+03 -0.34590465536E+03  0.82433890593E+03  0.80999110462E+02 0.  0.
         24    2    4    4    0    0  0.29350034799E+03 -0.15348785899E+02 -0.35989247651E+02  0.30703181214E+03  0.81211256737E+02 0.  0.
         11    1    3    3    0    0  0.32459957206E+02 -0.13590096341E+03 -0.44183446145E+03  0.46340091929E+03  0.00000000000E+00 0. -1.
        -11    1    3    3    0    0  0.18196563443E+03 -0.39219756663E+03 -0.99784120906E+03  0.10874821846E+04  0.00000000000E+00 0.  1.
          2    1    6    6  502    0  0.22670701955E+03 -0.40762625120E+02 -0.86146969615E+01  0.23050352996E+03  0.00000000000E+00 0. -1.
          3    1    5    5  503    0 -0.48558884043E+03  0.52619639805E+03 -0.34786868468E+03  0.79604760728E+03  0.00000000000E+00 0. -1.
         -4    1    5    5    0  503 -0.22337099192E+02  0.17250917887E+02  0.19640293277E+01  0.28291298652E+02  0.00000000000E+00 0.  1.
         -1    1    6    6    0  502  0.66793328433E+02  0.25413839220E+02 -0.27374550690E+02  0.76528282174E+02  0.00000000000E+00 0.  1.
<mgrwt>
<rscale>  0 0.19688499E+04</rscale>
<asrwt>0</asrwt>
<pdfrwt beam="1">  1        1 0.66206482E-01 0.19688499E+04</pdfrwt>
<pdfrwt beam="2">  1       -1 0.34644795E+00 0.19688499E+04</pdfrwt>
<totfact> 0.83121270E-01</totfact>
</mgrwt>
</event>
<event>
12    1  0.1532786E-007  0.1830740E+04  0.7818608E-02  0.8690121E-01
          2   -1    0    0  501    0  0.00000000000E+00  0.00000000000E+00  0.23678105569E+04  0.23678105569E+04  0.00000000000E+00 0. -1.
         -2   -1    0    0    0  501 -0.00000000000E+00 -0.00000000000E+00 -0.35387217546E+03  0.35387217546E+03  0.00000000000E+00 0.  1.
         23    2    1    2    0    0  0.22242964967E+03  0.56987724224E+03  0.28955001762E+03  0.68238992973E+03  0.87073435717E+02 0.  0.
        254    2    1    2    0    0 -0.22242964967E+03 -0.56987724224E+03  0.17243883639E+04  0.20392928027E+04  0.90053588789E+03 0.  0.
        -24    2    4    4    0    0 -0.48616195324E+03 -0.47318443825E+03  0.71587705574E+03  0.98956711806E+03  0.80660801092E+02 0.  0.
         24    2    4    4    0    0  0.26373230357E+03 -0.96692803998E+02  0.10085113081E+04  0.10497256846E+04  0.76972255127E+02 0.  0.
         13    1    3    3    0    0  0.36049862447E+02  0.15457138647E+03  0.10969207068E+03  0.19293588693E+03  0.00000000000E+00 0. -1.
        -13    1    3    3    0    0  0.18637978723E+03  0.41530585578E+03  0.17985794694E+03  0.48945404279E+03  0.00000000000E+00 0.  1.
          2    1    6    6  502    0  0.19951651099E+01 -0.16736114071E+02  0.43294466444E+02  0.46459541783E+02  0.00000000000E+00 0. -1.
          3    1    5    5  503    0 -0.12050188691E+03 -0.10822991440E+03  0.12435303958E+03  0.20420112040E+03  0.00000000000E+00 0. -1.
         -4    1    5    5    0  503 -0.36566006633E+03 -0.36495452385E+03  0.59152401617E+03  0.78536599767E+03  0.00000000000E+00 0.  1.
         -1    1    6    6    0  502  0.26173713846E+03 -0.79956689926E+02  0.96521684168E+03  0.10032661428E+04  0.00000000000E+00 0.  1.
<mgrwt>
<rscale>  0 0.18307400E+04</rscale>
<asrwt>0</asrwt>
<pdfrwt beam="1">  1        2 0.36427854E+00 0.18307400E+04</pdfrwt>
<pdfrwt beam="2">  1       -2 0.54441875E-01 0.18307400E+04</pdfrwt>
<totfact> 0.12412467E+01</totfact>
</mgrwt>
</event>
<event>
12    1  0.1532786E-007  0.1599537E+04  0.7818608E-02  0.8820832E-01
         -2   -1    0    0    0  501 -0.00000000000E+00  0.00000000000E+00  0.22705586237E+03  0.22705586237E+03  0.00000000000E+00 0.  1.
          2   -1    0    0  501    0  0.00000000000E+00 -0.00000000000E+00 -0.28170593940E+04  0.28170593940E+04  0.00000000000E+00 0. -1.
         23    2    1    2    0    0  0.51876490103E+02 -0.90370035280E+02 -0.19635498212E+04  0.19684453061E+04  0.91602997801E+02 0.  0.
        254    2    1    2    0    0 -0.51876490103E+02  0.90370035280E+02 -0.62645371037E+03  0.10756699502E+04  0.86819564446E+03 0.  0.
        -24    2    4    4    0    0 -0.17861065874E+03  0.15036252264E+03 -0.80095342572E+03  0.83813681933E+03  0.80226442687E+02 0.  0.
         24    2    4    4    0    0  0.12673416864E+03 -0.59992487364E+02  0.17449971535E+03  0.23753313089E+03  0.79442995734E+02 0.  0.
         13    1    3    3    0    0  0.64301032653E+01 -0.90344356053E+02 -0.11114005309E+04  0.11150850143E+04  0.00000000000E+00 0.  1.
        -13    1    3    3    0    0  0.45446386838E+02 -0.25679226678E-01 -0.85214929029E+03  0.85336029183E+03  0.00000000000E+00 0. -1.
          2    1    6    6  502    0  0.88933316531E+02 -0.42980104361E+02  0.59548761315E+02  0.11533637386E+03  0.00000000000E+00 0. -1.
          1    1    5    5  503    0 -0.12218851778E+03  0.51015847251E+02 -0.44725690980E+03  0.46644548868E+03  0.00000000000E+00 0. -1.
         -2    1    5    5    0  503 -0.56422140964E+02  0.99346675394E+02 -0.35369651593E+03  0.37169133065E+03  0.00000000000E+00 0.  1.
         -1    1    6    6    0  502  0.37800852110E+02 -0.17012383003E+02  0.11495095404E+03  0.12219675703E+03  0.00000000000E+00 0.  1.
<mgrwt>
<rscale>  0 0.15995372E+04</rscale>
<asrwt>0</asrwt>
<pdfrwt beam="1">  1        2 0.43339375E+00 0.15995372E+04</pdfrwt>
<pdfrwt beam="2">  1       -2 0.34931672E-01 0.15995372E+04</pdfrwt>
<totfact> 0.16722959E+01</totfact>
</mgrwt>
</event>
<event>
12    1  0.1532786E-007  0.1438971E+04  0.7818608E-02  0.8926083E-01
          2   -1    0    0  501    0  0.00000000000E+00  0.00000000000E+00  0.10559051956E+04  0.10559051956E+04  0.00000000000E+00 0. -1.
         -2   -1    0    0    0  501 -0.00000000000E+00 -0.00000000000E+00 -0.49025158112E+03  0.49025158112E+03  0.00000000000E+00 0.  1.
         23    2    1    2    0    0 -0.20998460404E+03 -0.30477711403E+03  0.49844280604E+03  0.62752345191E+03  0.91421160759E+02 0.  0.
        254    2    1    2    0    0  0.20998460404E+03  0.30477711403E+03  0.67210808459E+02  0.91863332483E+03  0.83808547866E+03 0.  0.
        -24    2    4    4    0    0  0.11703489273E+03 -0.12151648926E+03  0.34743582910E+03  0.39447128630E+03  0.80202974350E+02 0.  0.
         24    2    4    4    0    0  0.92949711310E+02  0.42629360329E+03 -0.28022502065E+03  0.52416203853E+03  0.76510753493E+02 0.  0.
         11    1    3    3    0    0 -0.20605396793E+03 -0.25015875416E+03  0.39941431183E+03  0.51436313290E+03  0.00000000000E+00 0. -1.
        -11    1    3    3    0    0 -0.39306361080E+01 -0.54618359864E+02  0.99028494208E+02  0.11316031901E+03  0.00000000000E+00 0.  1.
          2    1    6    6  502    0 -0.11249435115E+02  0.23956503032E+02 -0.25202792615E+02  0.36546471561E+02  0.00000000000E+00 0. -1.
          1    1    5    5  503    0  0.73738787958E+02 -0.29661620480E+02  0.10550439663E+03  0.13209238542E+03  0.00000000000E+00 0. -1.
         -2    1    5    5    0  503  0.43296104768E+02 -0.91854868777E+02  0.24193143248E+03  0.26237890088E+03  0.00000000000E+00 0.  1.
         -1    1    6    6    0  502  0.10419914643E+03  0.40233710025E+03 -0.25502222803E+03  0.48761556697E+03  0.00000000000E+00 0.  1.
<mgrwt>
<rscale>  0 0.14389707E+04</rscale>
<asrwt>0</asrwt>
<pdfrwt beam="1">  1        2 0.16244695E+00 0.14389707E+04</pdfrwt>
<pdfrwt beam="2">  1       -2 0.75423320E-01 0.14389707E+04</pdfrwt>
<totfact> 0.35529996E+01</totfact>
</mgrwt>
</event>
<event>
12    1  0.1532786E-007  0.1724686E+04  0.7818608E-02  0.8747409E-01
         -2   -1    0    0    0  501 -0.00000000000E+00  0.00000000000E+00  0.25813622601E+03  0.25813622601E+03  0.00000000000E+00 0. -1.
          2   -1    0    0  501    0  0.00000000000E+00 -0.00000000000E+00 -0.28807869628E+04  0.28807869628E+04  0.00000000000E+00 0.  1.
         23    2    1    2    0    0 -0.56273225449E+03 -0.24091480094E+03 -0.11221427816E+04  0.12814030861E+04  0.89899472738E+02 0.  0.
        254    2    1    2    0    0  0.56273225449E+03  0.24091480094E+03 -0.15005079551E+04  0.18575201027E+04  0.90782667777E+03 0.  0.
        -24    2    4    4    0    0 -0.49316626857E+02  0.43724073576E+03 -0.61370930317E+03  0.75934281028E+03  0.79691932077E+02 0.  0.
         24    2    4    4    0    0  0.61204888134E+03 -0.19632593482E+03 -0.88679865196E+03  0.10981772924E+04  0.80211037728E+02 0.  0.
         13    1    3    3    0    0 -0.36043064413E+03 -0.19956744764E+03 -0.73110879787E+03  0.83920050626E+03  0.00000000000E+00 0. -1.
        -13    1    3    3    0    0 -0.20230161036E+03 -0.41347353300E+02 -0.39103398376E+03  0.44220257986E+03  0.00000000000E+00 0.  1.
          4    1    6    6  502    0  0.55957229955E+03 -0.18788005830E+03 -0.84403144473E+03  0.10299558993E+04  0.00000000000E+00 0. -1.
          1    1    5    5  503    0 -0.69349470256E+02  0.29141202935E+03 -0.42682577431E+03  0.52145044011E+03  0.00000000000E+00 0. -1.
         -2    1    5    5    0  503  0.20032843399E+02  0.14582870640E+03 -0.18688352887E+03  0.23789237018E+03  0.00000000000E+00 0.  1.
         -3    1    6    6    0  502  0.52476581788E+02 -0.84458765178E+01 -0.42767207236E+02  0.68221393133E+02  0.00000000000E+00 0.  1.
<mgrwt>
<rscale>  0 0.17246860E+04</rscale>
<asrwt>0</asrwt>
<pdfrwt beam="1">  1        2 0.44319803E+00 0.17246860E+04</pdfrwt>
<pdfrwt beam="2">  1       -2 0.39713263E-01 0.17246860E+04</pdfrwt>
<totfact> 0.11804050E+01</totfact>
</mgrwt>
</event>
<event>
12    1  0.1532786E-007  0.1457602E+04  0.7818608E-02  0.8913147E-01
          2   -1    0    0  501    0  0.00000000000E+00  0.00000000000E+00  0.74370203347E+03  0.74370203347E+03  0.00000000000E+00 0. -1.
         -2   -1    0    0    0  501 -0.00000000000E+00 -0.00000000000E+00 -0.71419864845E+03  0.71419864845E+03  0.00000000000E+00 0.  1.
         23    2    1    2    0    0  0.30509008042E+03  0.19677414460E+03  0.26825270422E+03  0.46174355721E+03  0.97198653012E+02 0.  0.
        254    2    1    2    0    0 -0.30509008042E+03 -0.19677414460E+03 -0.23874931919E+03  0.99615712472E+03  0.89639709870E+03 0.  0.
        -24    2    4    4    0    0  0.24095449962E+03  0.15814421806E+03 -0.10937946473E+01  0.29858452050E+03  0.77992659312E+02 0.  0.
         24    2    4    4    0    0 -0.54604458003E+03 -0.35491836266E+03 -0.23765552455E+03  0.69757260421E+03  0.77431661885E+02 0.  0.
         11    1    3    3    0    0  0.10691646434E+03  0.22295012416E+02  0.10383871190E+03  0.15070061717E+03  0.00000000000E+00 0. -1.
        -11    1    3    3    0    0  0.19817361608E+03  0.17447913219E+03  0.16441399232E+03  0.31104294004E+03  0.00000000000E+00 0.  1.
          2    1    6    6  502    0 -0.47401093453E+03 -0.30433005032E+03 -0.17617268644E+03  0.59020332177E+03  0.00000000000E+00 0. -1.
          1    1    5    5  503    0  0.22583011367E+03  0.11745350193E+03 -0.77546730069E+01  0.25466586012E+03  0.00000000000E+00 0. -1.
         -2    1    5    5    0  503  0.15124385943E+02  0.40690716131E+02  0.66608783596E+01  0.43918660384E+02  0.00000000000E+00 0.  1.
         -1    1    6    6    0  502 -0.72033645500E+02 -0.50588312347E+02 -0.61482838112E+02  0.10736928244E+03  0.00000000000E+00 0.  1.
<mgrwt>
<rscale>  0 0.14576021E+04</rscale>
<asrwt>0</asrwt>
<pdfrwt beam="1">  1        2 0.11441570E+00 0.14576021E+04</pdfrwt>
<pdfrwt beam="2">  1       -2 0.10987671E+00 0.14576021E+04</pdfrwt>
<totfact> 0.24210544E+01</totfact>
</mgrwt>
</event>
<event>
12    1  0.1532786E-007  0.3203299E+04  0.7818608E-02  0.8187947E-01
         -1   -1    0    0    0  501 -0.00000000000E+00  0.00000000000E+00  0.11399027314E+04  0.11399027314E+04  0.00000000000E+00 0.  1.
          1   -1    0    0  501    0  0.00000000000E+00 -0.00000000000E+00 -0.22504379525E+04  0.22504379525E+04  0.00000000000E+00 0. -1.
         23    2    1    2    0    0 -0.10916713447E+04  0.70771676095E+03 -0.12419771095E+04  0.18008646975E+04  0.89426951654E+02 0.  0.
        254    2    1    2    0    0  0.10916713447E+04 -0.70771676095E+03  0.13144188839E+03  0.15894759864E+04  0.90363023558E+03 0.  0.
        -24    2    4    4    0    0  0.12036917036E+04 -0.52109183433E+03  0.23675912802E+03  0.13351860281E+04  0.79097583687E+02 0.  0.
         24    2    4    4    0    0 -0.11202035891E+03 -0.18662492662E+03 -0.10531723963E+03  0.25428995829E+03  0.78703480715E+02 0.  0.
         13    1    3    3    0    0 -0.89660274028E+03  0.58047281468E+03 -0.97035633815E+03  0.14430649970E+04  0.00000000000E+00 0.  1.
        -13    1    3    3    0    0 -0.19506860442E+03  0.12724394627E+03 -0.27162077135E+03  0.35779970056E+03  0.00000000000E+00 0. -1.
          2    1    6    6  502    0 -0.61381614597E+02 -0.11805447957E+03 -0.10426149259E+03  0.16904147891E+03  0.00000000000E+00 0. -1.
          3    1    5    5  503    0  0.66016333827E+03 -0.25640883401E+03  0.15693418877E+03  0.72538918034E+03  0.00000000000E+00 0. -1.
         -4    1    5    5    0  503  0.54352836534E+03 -0.26468300032E+03  0.79824939246E+02  0.60979684774E+03  0.00000000000E+00 0.  1.
         -3    1    6    6    0  502 -0.50638744311E+02 -0.68570447050E+02 -0.10557470482E+01  0.85248479376E+02  0.00000000000E+00 0.  1.
<mgrwt>
<rscale>  0 0.32032985E+04</rscale>
<asrwt>0</asrwt>
<pdfrwt beam="1">  1        1 0.34622122E+00 0.32032985E+04</pdfrwt>
<pdfrwt beam="2">  1       -1 0.17536965E+00 0.32032985E+04</pdfrwt>
<totfact> 0.37833145E-01</totfact>
</mgrwt>
</event>
<event>
12    1  0.1532786E-007  0.1867521E+04  0.7818608E-02  0.8671194E-01
          2   -1    0    0  501    0  0.00000000000E+00  0.00000000000E+00  0.32052163383E+04  0.32052163383E+04  0.00000000000E+00 0. -1.
         -2   -1    0    0    0  501 -0.00000000000E+00 -0.00000000000E+00 -0.27202792712E+03  0.27202792712E+03  0.00000000000E+00 0.  1.
         23    2    1    2    0    0  0.70178369975E+03  0.12290278895E+03  0.10035792759E+04  0.12339660043E+04  0.88855387176E+02 0.  0.
        254    2    1    2    0    0 -0.70178369975E+03 -0.12290278895E+03  0.19296091352E+04  0.22432782612E+04  0.89515388924E+03 0.  0.
        -24    2    4    4    0    0 -0.53061211077E+03  0.32463640867E+03  0.82191144999E+03  0.10340704620E+04  0.82615246132E+02 0.  0.
         24    2    4    4    0    0 -0.17117158897E+03 -0.44753919762E+03  0.11076976852E+04  0.12092077991E+04  0.74821743308E+02 0.  0.
         11    1    3    3    0    0  0.26145602747E+02 -0.83865837245E+01  0.60485024102E+02  0.66425638651E+02  0.00000000000E+00 0.  1.
        -11    1    3    3    0    0  0.67563809700E+03  0.13128937267E+03  0.94309425185E+03  0.11675403656E+04  0.00000000000E+00 0. -1.
          4    1    6    6  502    0 -0.12519574162E+03 -0.37756348402E+03  0.96485737315E+03  0.10436368663E+04  0.00000000000E+00 0. -1.
          1    1    5    5  503    0 -0.24711757888E+03  0.10479421970E+03  0.36864342462E+03  0.45601195246E+03  0.00000000000E+00 0. -1.
         -2    1    5    5    0  503 -0.28349453189E+03  0.21984218897E+03  0.45326802537E+03  0.57805850957E+03  0.00000000000E+00 0.  1.
         -3    1    6    6    0  502 -0.45975847349E+02 -0.69975713600E+02  0.14284031209E+03  0.16557093281E+03  0.00000000000E+00 0.  1.
<mgrwt>
<rscale>  0 0.18675207E+04</rscale>
<asrwt>0</asrwt>
<pdfrwt beam="1">  1        2 0.49311018E+00 0.18675207E+04</pdfrwt>
<pdfrwt beam="2">  1       -2 0.41850453E-01 0.18675207E+04</pdfrwt>
<totfact> 0.65675311E+00</totfact>
</mgrwt>
</event>
<event>
12    1  0.1532786E-007  0.2156444E+04  0.7818608E-02  0.8536779E-01
          2   -1    0    0  501    0  0.00000000000E+00  0.00000000000E+00  0.36247310909E+04  0.36247310909E+04  0.00000000000E+00 0.  1.
         -2   -1    0    0    0  501 -0.00000000000E+00 -0.00000000000E+00 -0.32073082540E+03  0.32073082540E+03  0.00000000000E+00 0. -1.
         23    2    1    2    0    0  0.25814582338E+03 -0.34128889095E+03  0.28004755225E+04  0.28354260209E+04  0.11772933022E+03 0.  0.
        254    2    1    2    0    0 -0.25814582338E+03  0.34128889095E+03  0.50352474300E+03  0.11100358953E+04  0.89192216524E+03 0.  0.
        -24    2    4    4    0    0  0.98975586330E+02 -0.66268676666E+02  0.54218994615E+03  0.56074920259E+03  0.79259234794E+02 0.  0.
         24    2    4    4    0    0 -0.35712140971E+03  0.40755756761E+03 -0.38665203151E+02  0.54928669272E+03  0.81129530190E+02 0.  0.
         13    1    3    3    0    0  0.19281687086E+03 -0.17688109226E+03  0.18778830749E+04  0.18960248178E+04  0.00000000000E+00 0.  1.
        -13    1    3    3    0    0  0.65328952523E+02 -0.16440779869E+03  0.92259244752E+03  0.93940120318E+03  0.00000000000E+00 0. -1.
          2    1    6    6  502    0 -0.27822805683E+03  0.34415689930E+03 -0.48694024426E+01  0.44258166933E+03  0.00000000000E+00 0. -1.
          1    1    5    5  503    0  0.10694985390E+03 -0.46838136195E+02  0.38954889750E+03  0.40666992241E+03  0.00000000000E+00 0. -1.
         -2    1    5    5    0  503 -0.79742675709E+01 -0.19430540471E+02  0.15264104865E+03  0.15407928018E+03  0.00000000000E+00 0.  1.
         -1    1    6    6    0  502 -0.78893352877E+02  0.63400668310E+02 -0.33795800709E+02  0.10670502339E+03  0.00000000000E+00 0.  1.
<mgrwt>
<rscale>  0 0.21564443E+04</rscale>
<asrwt>0</asrwt>
<pdfrwt beam="1">  1        2 0.55765091E+00 0.21564443E+04</pdfrwt>
<pdfrwt beam="2">  1       -2 0.49343206E-01 0.21564443E+04</pdfrwt>
<totfact> 0.23743633E+00</totfact>
</mgrwt>
</event>
<event>
12    1  0.1532786E-007  0.2481108E+04  0.7818608E-02  0.8409747E-01
          1   -1    0    0  501    0  0.00000000000E+00  0.00000000000E+00  0.24767902144E+04  0.24767902144E+04  0.00000000000E+00 0. -1.
         -1   -1    0    0    0  501 -0.00000000000E+00 -0.00000000000E+00 -0.62135833935E+03  0.62135833935E+03  0.00000000000E+00 0.  1.
         23    2    1    2    0    0  0.74865204673E+03 -0.76832160509E+03  0.10782174582E+04  0.15243191148E+04  0.10098465517E+03 0.  0.
        254    2    1    2    0    0 -0.74865204673E+03  0.76832160509E+03  0.77721441682E+03  0.15738294390E+04  0.84975224465E+03 0.  0.
        -24    2    4    4    0    0 -0.85171262205E+03  0.82660690976E+03  0.55729538693E+03  0.13136102723E+04  0.79375219590E+02 0.  0.
         24    2    4    4    0    0  0.10306057532E+03 -0.58285304676E+02  0.21991902989E+03  0.26021916661E+03  0.73013533239E+02 0.  0.
         13    1    3    3    0    0  0.41038018466E+03 -0.40206086679E+03  0.64566087776E+03  0.86425852940E+03  0.00000000000E+00 0. -1.
        -13    1    3    3    0    0  0.33827186207E+03 -0.36626073829E+03  0.43255658044E+03  0.66006058537E+03  0.00000000000E+00 0.  1.
          4    1    6    6  502    0  0.50264501822E+02 -0.31280372139E+02  0.17802770780E+03  0.18761355646E+03  0.00000000000E+00 0. -1.
          3    1    5    5  503    0 -0.84107645942E+03  0.80270262466E+03  0.55148649249E+03  0.12868094131E+04  0.00000000000E+00 0. -1.
         -4    1    5    5    0  503 -0.10636162629E+02  0.23904285106E+02  0.58088944330E+01  0.26800859248E+02  0.00000000000E+00 0.  1.
         -3    1    6    6    0  502  0.52796073498E+02 -0.27004932537E+02  0.41891322094E+02  0.72605610148E+02  0.00000000000E+00 0.  1.
<mgrwt>
<rscale>  0 0.24811080E+04</rscale>
<asrwt>0</asrwt>
<pdfrwt beam="1">  1        1 0.38104465E+00 0.24811080E+04</pdfrwt>
<pdfrwt beam="2">  1       -1 0.95593591E-01 0.24811080E+04</pdfrwt>
<totfact> 0.13205281E+00</totfact>
</mgrwt>
</event>
<event>
12    1  0.1532786E-007  0.2110135E+04  0.7818608E-02  0.8556792E-01
         -2   -1    0    0    0  501 -0.00000000000E+00  0.00000000000E+00  0.85290392876E+03  0.85290392876E+03  0.00000000000E+00 0.  1.
          2   -1    0    0  501    0  0.00000000000E+00 -0.00000000000E+00 -0.13051499609E+04  0.13051499609E+04  0.00000000000E+00 0. -1.
         23    2    1    2    0    0  0.62999930049E+03 -0.57222196536E+03 -0.29518459742E+03  0.90557194044E+03  0.92679536565E+02 0.  0.
        254    2    1    2    0    0 -0.62999930049E+03  0.57222196536E+03 -0.15706143477E+03  0.12524819493E+04  0.90537596760E+03 0.  0.
        -24    2    4    4    0    0 -0.56733507625E+03  0.71702791683E+03  0.11841540363E+03  0.92502386927E+03  0.75158689689E+02 0.  0.
         24    2    4    4    0    0 -0.62664224237E+02 -0.14480595147E+03 -0.27547683840E+03  0.32745808000E+03  0.80285347861E+02 0.  0.
         13    1    3    3    0    0  0.46479789784E+03 -0.46898458099E+03 -0.20925116589E+03  0.69265407922E+03  0.00000000000E+00 0. -1.
        -13    1    3    3    0    0  0.16520140265E+03 -0.10323738437E+03 -0.85933431527E+02  0.21291786121E+03  0.00000000000E+00 0.  1.
          4    1    6    6  502    0 -0.89993632358E+01 -0.92795056020E+02 -0.99937941583E+02  0.13667297878E+03  0.00000000000E+00 0. -1.
          1    1    5    5  503    0 -0.27844630291E+03  0.39356349869E+03  0.34890344586E+02  0.48336519036E+03  0.00000000000E+00 0. -1.
         -2    1    5    5    0  503 -0.28888877334E+03  0.32346441814E+03  0.83525059047E+02  0.44165867891E+03  0.00000000000E+00 0.  1.
         -3    1    6    6    0  502 -0.53664861001E+02 -0.52010895453E+02 -0.17553889682E+03  0.19078510122E+03  0.00000000000E+00 0.  1.
<mgrwt>
<rscale>  0 0.21101351E+04</rscale>
<asrwt>0</asrwt>
<pdfrwt beam="1">  1        2 0.20079230E+00 0.21101351E+04</pdfrwt>
<pdfrwt beam="2">  1       -2 0.13121599E+00 0.21101351E+04</pdfrwt>
<totfact> 0.64131251E+00</totfact>
</mgrwt>
</event>
<event>
12    1  0.1532786E-007  0.2488645E+04  0.7818608E-02  0.8407042E-01
         -1   -1    0    0    0  501 -0.00000000000E+00  0.00000000000E+00  0.67541275556E+03  0.67541275556E+03  0.00000000000E+00 0.  1.
          1   -1    0    0  501    0  0.00000000000E+00 -0.00000000000E+00 -0.22924326193E+04  0.22924326193E+04  0.00000000000E+00 0. -1.
         23    2    1    2    0    0 -0.64732725336E+03 -0.82472862212E+03 -0.95249670514E+03  0.14194764451E+04  0.91943089383E+02 0.  0.
        254    2    1    2    0    0  0.64732725336E+03  0.82472862212E+03 -0.66452315857E+03  0.15483689298E+04  0.92555142557E+03 0.  0.
        -24    2    4    4    0    0 -0.65635398234E+02  0.36320463060E+03  0.11321597763E+03  0.39415484386E+03  0.79464294880E+02 0.  0.
         24    2    4    4    0    0  0.71296265160E+03  0.46152399152E+03 -0.77773913620E+03  0.11542140859E+04  0.77536151944E+02 0.  0.
         11    1    3    3    0    0 -0.39248562004E+03 -0.45686803496E+03 -0.59579982157E+03  0.84720174143E+03  0.00000000000E+00 0.  1.
        -11    1    3    3    0    0 -0.25484163332E+03 -0.36786058716E+03 -0.35669688357E+03  0.57227470363E+03  0.00000000000E+00 0. -1.
          4    1    6    6  502    0  0.34254839418E+03  0.21932974979E+03 -0.32025559561E+03  0.51769545876E+03  0.00000000000E+00 0. -1.
          3    1    5    5  503    0 -0.35772728111E+02  0.33311897964E+03  0.10361841346E+03  0.35069177105E+03  0.00000000000E+00 0. -1.
         -2    1    5    5    0  503 -0.29862670122E+02  0.30085650954E+02  0.95975641661E+01  0.43463072810E+02  0.00000000000E+00 0.  1.
         -3    1    6    6    0  502  0.37041425741E+03  0.24219424173E+03 -0.45748354059E+03  0.63651862717E+03  0.00000000000E+00 0.  1.
<mgrwt>
<rscale>  0 0.24886448E+04</rscale>
<asrwt>0</asrwt>
<pdfrwt beam="1">  1        1 0.35268194E+00 0.24886448E+04</pdfrwt>
<pdfrwt beam="2">  1       -1 0.10390965E+00 0.24886448E+04</pdfrwt>
<totfact> 0.14606622E+00</totfact>
</mgrwt>
</event>
<event>
12    1  0.1532786E-007  0.3496407E+04  0.7818608E-02  0.8114642E-01
         -2   -1    0    0    0  501 -0.00000000000E+00  0.00000000000E+00  0.11665938142E+04  0.11665938142E+04  0.00000000000E+00 0. -1.
          2   -1    0    0  501    0  0.00000000000E+00 -0.00000000000E+00 -0.26197772341E+04  0.26197772341E+04  0.00000000000E+00 0.  1.
         23    2    1    2    0    0 -0.13213639143E+04  0.91147683232E+03 -0.10129086240E+04  0.19004814372E+04  0.95148319727E+02 0.  0.
        254    2    1    2    0    0  0.13213639143E+04 -0.91147683232E+03 -0.44027479585E+03  0.18858896111E+04  0.88653545875E+03 0.  0.
        -24    2    4    4    0    0  0.83471794355E+03 -0.91113980617E+03 -0.58897954254E+03  0.13713464903E+04  0.82246600642E+02 0.  0.
         24    2    4    4    0    0  0.48664597073E+03 -0.33702614694E+00  0.14870474668E+03  0.51454312079E+03  0.76269961662E+02 0.  0.
         13    1    3    3    0    0 -0.75748169538E+03  0.47110921003E+03 -0.58699496406E+03  0.10678415119E+04  0.00000000000E+00 0. -1.
        -13    1    3    3    0    0 -0.56388221890E+03  0.44036762228E+03 -0.42591365995E+03  0.83263992534E+03  0.00000000000E+00 0.  1.
          4    1    6    6  502    0  0.16807257809E+03 -0.31128313238E+02  0.32182964153E+02  0.17393420185E+03  0.00000000000E+00 0. -1.
          1    1    5    5  503    0  0.49061450800E+03 -0.59454292020E+03 -0.36719730881E+03  0.85382535862E+03  0.00000000000E+00 0. -1.
         -2    1    5    5    0  503  0.34410343555E+03 -0.31659688597E+03 -0.22178223373E+03  0.51752113170E+03  0.00000000000E+00 0.  1.
         -1    1    6    6    0  502  0.31857339264E+03  0.30791287091E+02  0.11652178253E+03  0.34060891894E+03  0.00000000000E+00 0.  1.
<mgrwt>
<rscale>  0 0.34964073E+04</rscale>
<asrwt>0</asrwt>
<pdfrwt beam="1">  1        2 0.40304265E+00 0.34964073E+04</pdfrwt>
<pdfrwt beam="2">  1       -2 0.17947597E+00 0.34964073E+04</pdfrwt>
<totfact> 0.44518239E-01</totfact>
</mgrwt>
</event>
<event>
12    1  0.1532786E-007  0.1141205E+04  0.7818608E-02  0.9165936E-01
          1   -1    0    0  501    0  0.00000000000E+00  0.00000000000E+00  0.12859784236E+04  0.12859784236E+04  0.00000000000E+00 0. -1.
         -1   -1    0    0    0  501 -0.00000000000E+00 -0.00000000000E+00 -0.25318237073E+03  0.25318237073E+03  0.00000000000E+00 0.  1.
         23    2    1    2    0    0 -0.76149090759E+02 -0.54226939595E+02 -0.38702992184E+02  0.13916009839E+03  0.95542484675E+02 0.  0.
        254    2    1    2    0    0  0.76149090759E+02  0.54226939595E+02  0.10714990451E+04  0.14000006959E+04  0.89618775938E+03 0.  0.
        -24    2    4    4    0    0 -0.21275153302E+03 -0.47625506341E+02 -0.48165033145E+02  0.23677219644E+03  0.78802277450E+02 0.  0.
         24    2    4    4    0    0  0.28890062378E+03  0.10185244594E+03  0.11196640782E+04  0.11632284995E+04  0.74935991872E+02 0.  0.
         11    1    3    3    0    0 -0.78422290634E+02 -0.77484202082E+02 -0.30377013203E+02  0.11435305056E+03  0.00000000000E+00 0.  1.
        -11    1    3    3    0    0  0.22731998745E+01  0.23257262487E+02 -0.83259789813E+01  0.24807047830E+02  0.00000000000E+00 0. -1.
          4    1    6    6  502    0  0.45455523122E+02  0.32894878878E+01  0.93916025874E+02  0.10438987129E+03  0.00000000000E+00 0. -1.
          1    1    5    5  503    0 -0.49357053973E+01 -0.11008681919E+02  0.12334365205E+02  0.17253661361E+02  0.00000000000E+00 0. -1.
         -2    1    5    5    0  503 -0.20781582762E+03 -0.36616824422E+02 -0.60499398350E+02  0.21951853507E+03  0.00000000000E+00 0.  1.
         -3    1    6    6    0  502  0.24344510065E+03  0.98562958048E+02  0.10257480523E+04  0.10588386282E+04  0.00000000000E+00 0.  1.
<mgrwt>
<rscale>  0 0.11412047E+04</rscale>
<asrwt>0</asrwt>
<pdfrwt beam="1">  1        1 0.19784283E+00 0.11412047E+04</pdfrwt>
<pdfrwt beam="2">  1       -1 0.38951135E-01 0.11412047E+04</pdfrwt>
<totfact> 0.58791064E+01</totfact>
</mgrwt>
</event>
<event>
12    1  0.1532786E-007  0.1821960E+04  0.7818608E-02  0.8694708E-01
         -2   -1    0    0    0  501 -0.00000000000E+00  0.00000000000E+00  0.59228135370E+03  0.59228135370E+03  0.00000000000E+00 0.  1.
          2   -1    0    0  501    0  0.00000000000E+00 -0.00000000000E+00 -0.14011668767E+04  0.14011668767E+04  0.00000000000E+00 0. -1.
         23    2    1    2    0    0 -0.38581988454E+03  0.36815451437E+03  0.16084302292E+03  0.56467628193E+03  0.92704345055E+02 0.  0.
        254    2    1    2    0    0  0.38581988454E+03 -0.36815451437E+03 -0.96972854596E+03  0.14287719485E+04  0.90367090152E+03 0.  0.
        -24    2    4    4    0    0 -0.18948803440E+03  0.44895978305E+02 -0.57904644017E+03  0.61605970176E+03  0.79456983428E+02 0.  0.
         24    2    4    4    0    0  0.57530791894E+03 -0.41305049268E+03 -0.39068210579E+03  0.81271224675E+03  0.79238735118E+02 0.  0.
         13    1    3    3    0    0 -0.14863122097E+02 -0.43049521091E+01  0.67404358165E+01  0.16878343702E+02  0.00000000000E+00 0. -1.
        -13    1    3    3    0    0 -0.37095676245E+03  0.37245946648E+03  0.15410258711E+03  0.54779793823E+03  0.00000000000E+00 0.  1.
          2    1    6    6  502    0  0.30116046929E+03 -0.20458246650E+03 -0.15684217121E+03  0.39642285571E+03  0.00000000000E+00 0. -1.
          1    1    5    5  503    0 -0.38152926827E+02  0.22362562345E+01 -0.23106943153E+03  0.23420872925E+03  0.00000000000E+00 0. -1.
         -2    1    5    5    0  503 -0.15133510757E+03  0.42659722070E+02 -0.34797700864E+03  0.38185097252E+03  0.00000000000E+00 0.  1.
         -1    1    6    6    0  502  0.27414744965E+03 -0.20846802618E+03 -0.23383993458E+03  0.41628939104E+03  0.00000000000E+00 0.  1.
<mgrwt>
<rscale>  0 0.18219605E+04</rscale>
<asrwt>0</asrwt>
<pdfrwt beam="1">  1        2 0.21556413E+00 0.18219605E+04</pdfrwt>
<pdfrwt beam="2">  1       -2 0.91120209E-01 0.18219605E+04</pdfrwt>
<totfact> 0.13985317E+01</totfact>
</mgrwt>
</event>
<event>
12    1  0.1604141E-007  0.1531429E+04  0.7818608E-02  0.8863818E-01
         -2   -1    0    0    0  501 -0.00000000000E+00  0.00000000000E+00  0.26304761637E+03  0.26304761637E+03  0.00000000000E+00 0.  1.
          2   -1    0    0  501    0  0.00000000000E+00 -0.00000000000E+00 -0.22289446549E+04  0.22289446549E+04  0.00000000000E+00 0. -1.
         23    2    1    2    0    0  0.98692483220E+02  0.32714233188E+02 -0.14382022757E+04  0.14448480094E+04  0.91375910583E+02 0.  0.
        254    2    1    2    0    0 -0.98692483220E+02 -0.32714233188E+02 -0.52769476278E+03  0.10471442618E+04  0.89846475455E+03 0.  0.
        -24    2    4    4    0    0 -0.31972752746E+03 -0.29298338350E+03 -0.34858693952E+02  0.44226155019E+03  0.79468203777E+02 0.  0.
         24    2    4    4    0    0  0.22103504424E+03  0.26026915031E+03 -0.49283606882E+03  0.60488271166E+03  0.79994891993E+02 0.  0.
         13    1    3    3    0    0  0.90320314309E+02  0.40874439880E+02 -0.74735695132E+03  0.75390376819E+03  0.00000000000E+00 0.  1.
        -13    1    3    3    0    0  0.83721689110E+01 -0.81602066912E+01 -0.69084532442E+03  0.69094424121E+03  0.00000000000E+00 0. -1.
          2    1    6    6  502    0  0.36612615825E+02  0.55057971021E+02 -0.49069117354E+02  0.82338582016E+02  0.00000000000E+00 0. -1.
          1    1    5    5  503    0 -0.62192606589E+02 -0.58573389540E+02 -0.39190620021E+02  0.93992909169E+02  0.00000000000E+00 0. -1.
         -2    1    5    5    0  503 -0.25753492087E+03 -0.23440999396E+03  0.43319260685E+01  0.34826864102E+03  0.00000000000E+00 0.  1.
         -1    1    6    6    0  502  0.18442242841E+03  0.20521117929E+03 -0.44376695147E+03  0.52254412964E+03  0.00000000000E+00 0.  1.
<mgrwt>
<rscale>  0 0.15314288E+04</rscale>
<asrwt>0</asrwt>
<pdfrwt beam="1">  1        2 0.34291454E+00 0.15314288E+04</pdfrwt>
<pdfrwt beam="2">  1       -2 0.40468866E-01 0.15314288E+04</pdfrwt>
<totfact> 0.27741984E+01</totfact>
</mgrwt>
</event>
<event>
12    1  0.1532786E-007  0.1506414E+04  0.7818608E-02  0.8880199E-01
         -1   -1    0    0    0  501 -0.00000000000E+00  0.00000000000E+00  0.27464923876E+03  0.27464923876E+03  0.00000000000E+00 0.  1.
          1   -1    0    0  501    0  0.00000000000E+00 -0.00000000000E+00 -0.20656196296E+04  0.20656196296E+04  0.00000000000E+00 0. -1.
         23    2    1    2    0    0 -0.28027121597E+03  0.17706486258E+03 -0.69789758631E+02  0.35074254284E+03  0.90806392322E+02 0.  0.
        254    2    1    2    0    0  0.28027121597E+03 -0.17706486258E+03 -0.17211806322E+04  0.19895263256E+04  0.94119515045E+03 0.  0.
        -24    2    4    4    0    0 -0.25336880644E+03 -0.29162302686E+03 -0.10446603771E+04  0.11165724311E+04  0.78606287374E+02 0.  0.
         24    2    4    4    0    0  0.53364002241E+03  0.11455816428E+03 -0.67652025511E+03  0.87295389449E+03  0.80458683835E+02 0.  0.
         11    1    3    3    0    0 -0.14820459765E+03  0.40829681764E+02 -0.38053336899E+02  0.15836578585E+03  0.00000000000E+00 0. -1.
        -11    1    3    3    0    0 -0.13206661831E+03  0.13623518082E+03 -0.31736421731E+02  0.19237675699E+03  0.00000000000E+00 0.  1.
          2    1    6    6  502    0  0.58359088376E+02  0.53261898956E+01 -0.39396005608E+02  0.70613006966E+02  0.00000000000E+00 0. -1.
          3    1    5    5  503    0 -0.13408398620E+03 -0.15310770563E+03 -0.66037402511E+03  0.69102412253E+03  0.00000000000E+00 0. -1.
         -4    1    5    5    0  503 -0.11928482024E+03 -0.13851532123E+03 -0.38428635202E+03  0.42554830854E+03  0.00000000000E+00 0.  1.
         -1    1    6    6    0  502  0.47528093403E+03  0.10923197438E+03 -0.63712424951E+03  0.80234088752E+03  0.00000000000E+00 0.  1.
<mgrwt>
<rscale>  0 0.15064141E+04</rscale>
<asrwt>0</asrwt>
<pdfrwt beam="1">  1        1 0.31778764E+00 0.15064141E+04</pdfrwt>
<pdfrwt beam="2">  1       -1 0.42253729E-01 0.15064141E+04</pdfrwt>
<totfact> 0.14328176E+01</totfact>
</mgrwt>
</event>
<event>
12    1  0.1532786E-007  0.2094794E+04  0.7818608E-02  0.8563540E-01
          2   -1    0    0  501    0  0.00000000000E+00  0.00000000000E+00  0.11292747896E+04  0.11292747896E+04  0.00000000000E+00 0. -1.
         -2   -1    0    0    0  501 -0.00000000000E+00 -0.00000000000E+00 -0.97145563446E+03  0.97145563446E+03  0.00000000000E+00 0.  1.
         23    2    1    2    0    0  0.76678526652E+03  0.28117523988E+03 -0.17226517225E+03  0.83963693795E+03  0.91080939370E+02 0.  0.
        254    2    1    2    0    0 -0.76678526652E+03 -0.28117523988E+03  0.33008432740E+03  0.12610934861E+04  0.90243113701E+03 0.  0.
        -24    2    4    4    0    0 -0.24920352260E+02 -0.43957033254E+03  0.57642386447E+02  0.45103295464E+03  0.79151628210E+02 0.  0.
         24    2    4    4    0    0 -0.74186491426E+03  0.15839509267E+03  0.27244194095E+03  0.81006053147E+03  0.80752071590E+02 0.  0.
         11    1    3    3    0    0  0.21276254935E+03  0.10216516055E+03 -0.14748013429E+02  0.23648071029E+03  0.00000000000E+00 0. -1.
        -11    1    3    3    0    0  0.55402271717E+03  0.17901007932E+03 -0.15751715882E+03  0.60315622766E+03  0.00000000000E+00 0.  1.
          4    1    6    6  502    0 -0.65032435952E+03  0.11720960706E+03  0.21778587490E+03  0.69576616178E+03  0.00000000000E+00 0. -1.
          3    1    5    5  503    0 -0.43098856487E+02 -0.32230016630E+03  0.66978453867E+02  0.33199551490E+03  0.00000000000E+00 0. -1.
         -4    1    5    5    0  503  0.18178504227E+02 -0.11727016624E+03 -0.93360674209E+01  0.11903743974E+03  0.00000000000E+00 0.  1.
         -3    1    6    6    0  502 -0.91540554740E+02  0.41185485604E+02  0.54656066052E+02  0.11429436969E+03  0.00000000000E+00 0.  1.
<mgrwt>
<rscale>  0 0.20947939E+04</rscale>
<asrwt>0</asrwt>
<pdfrwt beam="1">  1        2 0.17373458E+00 0.20947939E+04</pdfrwt>
<pdfrwt beam="2">  1       -2 0.14945471E+00 0.20947939E+04</pdfrwt>
<totfact> 0.58298925E+00</totfact>
</mgrwt>
</event>
<event>
12    1  0.1532786E-007  0.2081982E+04  0.7818608E-02  0.8569222E-01
         -1   -1    0    0    0  501 -0.00000000000E+00  0.00000000000E+00  0.46797861964E+03  0.46797861964E+03  0.00000000000E+00 0.  1.
          1   -1    0    0  501    0  0.00000000000E+00 -0.00000000000E+00 -0.23156242212E+04  0.23156242212E+04  0.00000000000E+00 0. -1.
         23    2    1    2    0    0 -0.28651748092E+03 -0.74240540656E+03 -0.38080603585E+03  0.88659996702E+03  0.88250835807E+02 0.  0.
        254    2    1    2    0    0  0.28651748092E+03  0.74240540656E+03 -0.14668395657E+04  0.18970028738E+04  0.90207734546E+03 0.  0.
        -24    2    4    4    0    0  0.48830933883E+03  0.82819453700E+03 -0.12628608489E+04  0.15891421591E+04  0.78759613547E+02 0.  0.
         24    2    4    4    0    0 -0.20179185790E+03 -0.85789130435E+02 -0.20397871681E+03  0.30786071470E+03  0.71352462646E+02 0.  0.
         11    1    3    3    0    0 -0.60764700247E+02 -0.98879236003E+02 -0.81613229754E+02  0.14188083514E+03  0.00000000000E+00 0. -1.
        -11    1    3    3    0    0 -0.22575278068E+03 -0.64352617056E+03 -0.29919280609E+03  0.74471913188E+03  0.00000000000E+00 0.  1.
          4    1    6    6  502    0 -0.10513225492E+03 -0.59549965787E+02 -0.15453564765E+03  0.19616384949E+03  0.00000000000E+00 0. -1.
          3    1    5    5  503    0  0.14744297086E+03  0.30834031835E+03 -0.41005923850E+03  0.53381809697E+03  0.00000000000E+00 0. -1.
         -4    1    5    5    0  503  0.34086636797E+03  0.51985421865E+03 -0.85280161041E+03  0.10553240622E+04  0.00000000000E+00 0.  1.
         -3    1    6    6    0  502 -0.96659602980E+02 -0.26239164648E+02 -0.49443069155E+02  0.11169686521E+03  0.00000000000E+00 0.  1.
<mgrwt>
<rscale>  0 0.20819824E+04</rscale>
<asrwt>0</asrwt>
<pdfrwt beam="1">  1        1 0.35624988E+00 0.20819824E+04</pdfrwt>
<pdfrwt beam="2">  1       -1 0.71996710E-01 0.20819824E+04</pdfrwt>
<totfact> 0.32563660E+00</totfact>
</mgrwt>
</event>
<event>
12    1  0.1532786E-007  0.2156084E+04  0.7818608E-02  0.8536933E-01
          1   -1    0    0  501    0  0.00000000000E+00  0.00000000000E+00  0.33955090344E+04  0.33955090344E+04  0.00000000000E+00 0. -1.
         -1   -1    0    0    0  501 -0.00000000000E+00 -0.00000000000E+00 -0.34226810690E+03  0.34226810690E+03  0.00000000000E+00 0.  1.
         23    2    1    2    0    0  0.11041450469E+03  0.82237241117E+03  0.74049384279E+03  0.11159571846E+04  0.92420566658E+02 0.  0.
        254    2    1    2    0    0 -0.11041450469E+03 -0.82237241117E+03  0.23127470848E+04  0.26218199567E+04  0.91468741221E+03 0.  0.
        -24    2    4    4    0    0  0.22069604116E+03 -0.75050398499E+03  0.20181436443E+04  0.21659160711E+04  0.79534168194E+02 0.  0.
         24    2    4    4    0    0 -0.33111054585E+03 -0.71868426173E+02  0.29460344041E+03  0.45590388561E+03  0.79106899594E+02 0.  0.
         13    1    3    3    0    0  0.66493112028E+01  0.14135046365E+03  0.17246563975E+03  0.22308869045E+03  0.00000000000E+00 0. -1.
        -13    1    3    3    0    0  0.10376519349E+03  0.68102194752E+03  0.56802820304E+03  0.89286849414E+03  0.00000000000E+00 0.  1.
          4    1    6    6  502    0 -0.21484280247E+03 -0.23815103086E+02  0.14430251764E+03  0.25989960659E+03  0.00000000000E+00 0. -1.
          3    1    5    5  503    0  0.17369263258E+03 -0.61616657340E+03  0.17272938370E+04  0.18421113908E+04  0.00000000000E+00 0. -1.
         -4    1    5    5    0  503  0.47003408579E+02 -0.13433741159E+03  0.29084980735E+03  0.32380468034E+03  0.00000000000E+00 0.  1.
         -3    1    6    6    0  502 -0.11626774338E+03 -0.48053323087E+02  0.15030092277E+03  0.19600427903E+03  0.00000000000E+00 0.  1.
<mgrwt>
<rscale>  0 0.21560839E+04</rscale>
<asrwt>0</asrwt>
<pdfrwt beam="1">  1        1 0.52238598E+00 0.21560839E+04</pdfrwt>
<pdfrwt beam="2">  1       -1 0.52656634E-01 0.21560839E+04</pdfrwt>
<totfact> 0.10058919E+00</totfact>
</mgrwt>
</event>
<event>
12    1  0.1532786E-007  0.2407187E+04  0.7818608E-02  0.8436818E-01
          1   -1    0    0  501    0  0.00000000000E+00  0.00000000000E+00  0.12777806747E+04  0.12777806747E+04  0.00000000000E+00 0. -1.
         -1   -1    0    0    0  501 -0.00000000000E+00 -0.00000000000E+00 -0.11337139380E+04  0.11337139380E+04  0.00000000000E+00 0.  1.
         23    2    1    2    0    0  0.24768130170E+03  0.88943097699E+03  0.52719734760E+03  0.10672359562E+04  0.92855009223E+02 0.  0.
        254    2    1    2    0    0 -0.24768130170E+03 -0.88943097699E+03 -0.38313061091E+03  0.13442586565E+04  0.89878183143E+03 0.  0.
        -24    2    4    4    0    0  0.78974982545E+02 -0.63703870229E+03  0.15124019047E+03  0.66430922120E+03  0.79861067355E+02 0.  0.
         24    2    4    4    0    0 -0.32665628425E+03 -0.25239227470E+03 -0.53437080138E+03  0.67994943530E+03  0.79830400417E+02 0.  0.
         13    1    3    3    0    0  0.44427825181E+02  0.14095586664E+03  0.47239573918E+02  0.15515787230E+03  0.00000000000E+00 0.  1.
        -13    1    3    3    0    0  0.20325347652E+03  0.74847511035E+03  0.47995777368E+03  0.91207808385E+03  0.00000000000E+00 0. -1.
          2    1    6    6  502    0 -0.25889279041E+03 -0.23412578333E+03 -0.46319893390E+03  0.57999449283E+03  0.00000000000E+00 0. -1.
          3    1    5    5  503    0  0.45962202068E+02 -0.53366909786E+03  0.14813731682E+03  0.55575164837E+03  0.00000000000E+00 0. -1.
         -4    1    5    5    0  503  0.33012780477E+02 -0.10336960443E+03  0.31028736482E+01  0.10855757283E+03  0.00000000000E+00 0.  1.
         -1    1    6    6    0  502 -0.67763493833E+02 -0.18266491373E+02 -0.71171867477E+02  0.99954942468E+02  0.00000000000E+00 0.  1.
<mgrwt>
<rscale>  0 0.24071874E+04</rscale>
<asrwt>0</asrwt>
<pdfrwt beam="1">  1        1 0.19658164E+00 0.24071874E+04</pdfrwt>
<pdfrwt beam="2">  1       -1 0.17441753E+00 0.24071874E+04</pdfrwt>
<totfact> 0.19196198E+00</totfact>
</mgrwt>
</event>
<event>
12    1  0.1532786E-007  0.2527152E+04  0.7818608E-02  0.8393376E-01
         -2   -1    0    0    0  501 -0.00000000000E+00  0.00000000000E+00  0.75639116736E+03  0.75639116736E+03  0.00000000000E+00 0.  1.
          2   -1    0    0  501    0  0.00000000000E+00 -0.00000000000E+00 -0.21108446077E+04  0.21108446077E+04  0.00000000000E+00 0. -1.
         23    2    1    2    0    0  0.38245172561E+03  0.66786855759E+03 -0.13779598674E+04  0.15809336820E+04  0.90885521493E+02 0.  0.
        254    2    1    2    0    0 -0.38245172561E+03 -0.66786855759E+03  0.23506427007E+02  0.12863020931E+04  0.10303896302E+04 0.  0.
        -24    2    4    4    0    0 -0.31409118275E+03 -0.50003603803E+03 -0.46804758460E+03  0.75752273245E+03  0.77992553011E+02 0.  0.
         24    2    4    4    0    0 -0.68360542865E+02 -0.16783251957E+03  0.49155401161E+03  0.52877936067E+03  0.71703190284E+02 0.  0.
         13    1    3    3    0    0  0.38431385617E+03  0.66373727616E+03 -0.13771639985E+04  0.15763327664E+04  0.00000000000E+00 0. -1.
        -13    1    3    3    0    0 -0.18621305563E+01  0.41312814331E+01 -0.79586890314E+00  0.46009155393E+01  0.00000000000E+00 0.  1.
          2    1    6    6  502    0  0.80610462836E+01 -0.56124152423E+01  0.69786801211E+02  0.70474657113E+02  0.00000000000E+00 0. -1.
          3    1    5    5  503    0 -0.11338782313E+02 -0.13008897854E+01 -0.41683305678E+01  0.12150525845E+02  0.00000000000E+00 0. -1.
         -4    1    5    5    0  503 -0.30275240043E+03 -0.49873514824E+03 -0.46387925404E+03  0.74537220661E+03  0.00000000000E+00 0.  1.
         -1    1    6    6    0  502 -0.76421589148E+02 -0.16222010432E+03  0.42176721040E+03  0.45830470356E+03  0.00000000000E+00 0.  1.
<mgrwt>
<rscale>  0 0.25271519E+04</rscale>
<asrwt>0</asrwt>
<pdfrwt beam="1">  1        2 0.32474532E+00 0.25271519E+04</pdfrwt>
<pdfrwt beam="2">  1       -2 0.11636787E+00 0.25271519E+04</pdfrwt>
<totfact> 0.29535509E+00</totfact>
</mgrwt>
</event>
<event>
12    1  0.1532786E-007  0.1217285E+04  0.7818608E-02  0.9097860E-01
         -1   -1    0    0    0  501 -0.00000000000E+00  0.00000000000E+00  0.31547233438E+03  0.31547233438E+03  0.00000000000E+00 0.  1.
          1   -1    0    0  501    0  0.00000000000E+00 -0.00000000000E+00 -0.11742581341E+04  0.11742581341E+04  0.00000000000E+00 0. -1.
         23    2    1    2    0    0 -0.12791616964E+03  0.16395077699E+03 -0.17231688510E+01  0.22710715134E+03  0.91281351590E+02 0.  0.
        254    2    1    2    0    0  0.12791616964E+03 -0.16395077699E+03 -0.85706263087E+03  0.12626233172E+04  0.90355900972E+03 0.  0.
        -24    2    4    4    0    0 -0.34057804646E+03  0.86696899686E+02 -0.19482745742E+03  0.40986773349E+03  0.80771669841E+02 0.  0.
         24    2    4    4    0    0  0.46849421610E+03 -0.25064767667E+03 -0.66223517345E+03  0.85275558366E+03  0.79533465667E+02 0.  0.
         13    1    3    3    0    0 -0.19251562871E+02 -0.95280818917E+01  0.58578894137E+01  0.22264812730E+02  0.00000000000E+00 0. -1.
        -13    1    3    3    0    0 -0.10866460677E+03  0.17347885888E+03 -0.75810582647E+01  0.20484233861E+03  0.00000000000E+00 0.  1.
          2    1    6    6  502    0  0.16019106472E+03 -0.12843581205E+03 -0.26681100185E+03  0.33666755968E+03  0.00000000000E+00 0. -1.
          1    1    5    5  503    0 -0.28593699952E+03  0.10054585139E+03 -0.17569749909E+03  0.35034132944E+03  0.00000000000E+00 0. -1.
         -2    1    5    5    0  503 -0.54641046938E+02 -0.13848951705E+02 -0.19129958331E+02  0.59526404054E+02  0.00000000000E+00 0.  1.
         -1    1    6    6    0  502  0.30830315138E+03 -0.12221186463E+03 -0.39542417160E+03  0.51608802397E+03  0.00000000000E+00 0.  1.
<mgrwt>
<rscale>  0 0.12172854E+04</rscale>
<asrwt>0</asrwt>
<pdfrwt beam="1">  1        1 0.18065510E+00 0.12172854E+04</pdfrwt>
<pdfrwt beam="2">  1       -1 0.48534205E-01 0.12172854E+04</pdfrwt>
<totfact> 0.46848262E+01</totfact>
</mgrwt>
</event>
<event>
12    1  0.1532786E-007  0.1313024E+04  0.7818608E-02  0.9019300E-01
          1   -1    0    0  501    0  0.00000000000E+00  0.00000000000E+00  0.20948621587E+04  0.20948621587E+04  0.00000000000E+00 0. -1.
         -1   -1    0    0    0  501 -0.00000000000E+00 -0.00000000000E+00 -0.20574528290E+03  0.20574528290E+03  0.00000000000E+00 0.  1.
         23    2    1    2    0    0 -0.40835781455E+02  0.32448505280E+03  0.58028723403E+03  0.67190871172E+03  0.88147219909E+02 0.  0.
        254    2    1    2    0    0  0.40835781455E+02 -0.32448505280E+03  0.13088296418E+04  0.16286987299E+04  0.91250556765E+03 0.  0.
        -24    2    4    4    0    0  0.19725085134E+03 -0.47659150530E+03  0.12945052517E+04  0.13957741763E+04  0.79964636587E+02 0.  0.
         24    2    4    4    0    0 -0.15641506988E+03  0.15210645250E+03  0.14324390058E+02  0.23292455362E+03  0.80290799916E+02 0.  0.
         13    1    3    3    0    0 -0.39033891709E+02  0.26266332818E+03  0.38999139162E+03  0.47181453370E+03  0.00000000000E+00 0.  1.
        -13    1    3    3    0    0 -0.18018897461E+01  0.61821724619E+02  0.19029584241E+03  0.20009417802E+03  0.00000000000E+00 0. -1.
          4    1    6    6  502    0 -0.81534477192E+02  0.12901393912E+03 -0.30999567911E+01  0.15265017914E+03  0.00000000000E+00 0. -1.
          3    1    5    5  503    0  0.17457855268E+03 -0.45769322243E+03  0.12479716820E+04  0.13406692642E+04  0.00000000000E+00 0. -1.
         -4    1    5    5    0  503  0.22672298651E+02 -0.18898282869E+02  0.46533569740E+02  0.55104912070E+02  0.00000000000E+00 0.  1.
         -3    1    6    6    0  502 -0.74880592688E+02  0.23092513378E+02  0.17424346849E+02  0.80274374482E+02  0.00000000000E+00 0.  1.
<mgrwt>
<rscale>  0 0.13130240E+04</rscale>
<asrwt>0</asrwt>
<pdfrwt beam="1">  1        1 0.32228647E+00 0.13130240E+04</pdfrwt>
<pdfrwt beam="2">  1       -1 0.31653122E-01 0.13130240E+04</pdfrwt>
<totfact> 0.23447712E+01</totfact>
</mgrwt>
</event>
<event>
12    1  0.1532786E-007  0.1729899E+04  0.7818608E-02  0.8744493E-01
         -2   -1    0    0    0  501 -0.00000000000E+00  0.00000000000E+00  0.31831900205E+03  0.31831900205E+03  0.00000000000E+00 0.  1.
          2   -1    0    0  501    0  0.00000000000E+00 -0.00000000000E+00 -0.23502765672E+04  0.23502765672E+04  0.00000000000E+00 0. -1.
         23    2    1    2    0    0 -0.42273670579E+03  0.47863640657E+03 -0.76232485983E+03  0.99872452295E+03  0.92262390596E+02 0.  0.
        254    2    1    2    0    0  0.42273670579E+03 -0.47863640657E+03 -0.12696327053E+04  0.16698710463E+04  0.87675707740E+03 0.  0.
        -24    2    4    4    0    0  0.56253758904E+03 -0.11231490415E+03 -0.10825756660E+04  0.12281445238E+04  0.85473516527E+02 0.  0.
         24    2    4    4    0    0 -0.13980088326E+03 -0.36632150242E+03 -0.18705703933E+03  0.44172652248E+03  0.79976587856E+02 0.  0.
         11    1    3    3    0    0 -0.15903834365E+03  0.15629814059E+03 -0.20428461021E+03  0.30241445976E+03  0.00000000000E+00 0.  1.
        -11    1    3    3    0    0 -0.26369836214E+03  0.32233826598E+03 -0.55804024961E+03  0.69631006319E+03  0.00000000000E+00 0. -1.
          4    1    6    6  502    0 -0.52975503184E+02 -0.98197561549E+02 -0.17830661145E+02  0.11299158158E+03  0.00000000000E+00 0. -1.
          1    1    5    5  503    0  0.43137244248E+03 -0.10988122598E+03 -0.77472582054E+03  0.89350778674E+03  0.00000000000E+00 0. -1.
         -2    1    5    5    0  503  0.13116514656E+03 -0.24336781683E+01 -0.30784984548E+03  0.33463673711E+03  0.00000000000E+00 0.  1.
         -3    1    6    6    0  502 -0.86825380075E+02 -0.26812394087E+03 -0.16922637819E+03  0.32873494090E+03  0.00000000000E+00 0.  1.
<mgrwt>
<rscale>  0 0.17298991E+04</rscale>
<asrwt>0</asrwt>
<pdfrwt beam="1">  1        2 0.36158101E+00 0.17298991E+04</pdfrwt>
<pdfrwt beam="2">  1       -2 0.48972154E-01 0.17298991E+04</pdfrwt>
<totfact> 0.15922426E+01</totfact>
</mgrwt>
</event>
<event>
12    1  0.1532786E-007  0.1217377E+04  0.7818608E-02  0.9097781E-01
          1   -1    0    0  501    0  0.00000000000E+00  0.00000000000E+00  0.50690984453E+03  0.50690984453E+03  0.00000000000E+00 0. -1.
         -1   -1    0    0    0  501 -0.00000000000E+00 -0.00000000000E+00 -0.73090275229E+03  0.73090275229E+03  0.00000000000E+00 0.  1.
         23    2    1    2    0    0 -0.68767586683E+02 -0.12981176597E+01 -0.31077514037E+03  0.33341592824E+03  0.99268964153E+02 0.  0.
        254    2    1    2    0    0  0.68767586683E+02  0.12981176597E+01  0.86782232607E+02  0.90439666858E+03  0.89759206333E+03 0.  0.
        -24    2    4    4    0    0  0.22919048827E+03  0.12617068381E+03  0.42261389988E+03  0.50374851272E+03  0.81931278084E+02 0.  0.
         24    2    4    4    0    0 -0.16042290159E+03 -0.12487256615E+03 -0.33583166727E+03  0.40064815586E+03  0.80046054986E+02 0.  0.
         13    1    3    3    0    0  0.11676933344E+02  0.13692653300E+02 -0.16714682228E+03  0.16811275896E+03  0.00000000000E+00 0.  1.
        -13    1    3    3    0    0 -0.80444520026E+02 -0.14990770960E+02 -0.14362831808E+03  0.16530316927E+03  0.00000000000E+00 0. -1.
          2    1    6    6  502    0 -0.29573367915E+02 -0.76735175956E+01 -0.13173704845E+02  0.33271811815E+02  0.00000000000E+00 0. -1.
          1    1    5    5  503    0  0.29445535069E+02  0.45265110577E+02  0.12624020706E+03  0.13730462356E+03  0.00000000000E+00 0. -1.
         -2    1    5    5    0  503  0.19974495320E+03  0.80905573233E+02  0.29637369281E+03  0.36644388916E+03  0.00000000000E+00 0.  1.
         -1    1    6    6    0  502 -0.13084953367E+03 -0.11719904855E+03 -0.32265796243E+03  0.36737634404E+03  0.00000000000E+00 0.  1.
<mgrwt>
<rscale>  0 0.12173772E+04</rscale>
<asrwt>0</asrwt>
<pdfrwt beam="1">  1        1 0.77986131E-01 0.12173772E+04</pdfrwt>
<pdfrwt beam="2">  1       -1 0.11244658E+00 0.12173772E+04</pdfrwt>
<totfact> 0.31150638E+01</totfact>
</mgrwt>
</event>
<event>
12    1  0.1532786E-007  0.4449854E+04  0.7818608E-02  0.7919475E-01
         -2   -1    0    0    0  501 -0.00000000000E+00  0.00000000000E+00  0.15484153188E+04  0.15484153188E+04  0.00000000000E+00 0.  1.
          2   -1    0    0  501    0  0.00000000000E+00 -0.00000000000E+00 -0.31970105361E+04  0.31970105361E+04  0.00000000000E+00 0. -1.
         23    2    1    2    0    0  0.38251841228E+03  0.88092274556E+03 -0.28201470148E+04  0.29805326251E+04  0.89444534833E+02 0.  0.
        254    2    1    2    0    0 -0.38251841228E+03 -0.88092274556E+03  0.11715517975E+04  0.17648932297E+04  0.90552155065E+03 0.  0.
        -24    2    4    4    0    0  0.66025430621E+01 -0.31212857738E+03 -0.81323277523E+02  0.33271717978E+03  0.81359718896E+02 0.  0.
         24    2    4    4    0    0 -0.38912095534E+03 -0.56879416818E+03  0.12528750750E+04  0.14321760499E+04  0.80562775303E+02 0.  0.
         13    1    3    3    0    0  0.36418142318E+03  0.85930130774E+03 -0.26890179516E+04  0.28463739020E+04  0.00000000000E+00 0. -1.
        -13    1    3    3    0    0  0.18336989096E+02  0.21621437819E+02 -0.13112906329E+03  0.13415872309E+03  0.00000000000E+00 0.  1.
          4    1    6    6  502    0 -0.25611795638E+03 -0.43716880068E+03  0.92338423806E+03  0.10532575274E+04  0.00000000000E+00 0. -1.
          1    1    5    5  503    0 -0.30927397912E+02 -0.21294561114E+03 -0.68923752903E+02  0.22594871312E+03  0.00000000000E+00 0. -1.
         -4    1    5    5    0  503  0.37529940974E+02 -0.99182966237E+02 -0.12399524620E+02  0.10676846666E+03  0.00000000000E+00 0.  1.
         -3    1    6    6    0  502 -0.13300299896E+03 -0.13162536750E+03  0.32949083697E+03  0.37891852258E+03  0.00000000000E+00 0.  1.
<mgrwt>
<rscale>  0 0.44498540E+04</rscale>
<asrwt>0</asrwt>
<pdfrwt beam="1">  1        2 0.49184777E+00 0.44498540E+04</pdfrwt>
<pdfrwt beam="2">  1       -2 0.23821774E+00 0.44498540E+04</pdfrwt>
<totfact> 0.75227269E-02</totfact>
</mgrwt>
</event>
<event>
12    1  0.1532786E-007  0.1492088E+04  0.7818608E-02  0.8889731E-01
         -2   -1    0    0    0  501 -0.00000000000E+00  0.00000000000E+00  0.24192488334E+03  0.24192488334E+03  0.00000000000E+00 0.  1.
          2   -1    0    0  501    0  0.00000000000E+00 -0.00000000000E+00 -0.23006390361E+04  0.23006390361E+04  0.00000000000E+00 0. -1.
         23    2    1    2    0    0 -0.18124928065E+03  0.28379552336E+03 -0.95133657621E+02  0.36123950794E+03  0.89734990189E+02 0.  0.
        254    2    1    2    0    0  0.18124928065E+03 -0.28379552336E+03 -0.19635804951E+04  0.21813244115E+04  0.88833362343E+03 0.  0.
        -24    2    4    4    0    0  0.89003489582E+01 -0.29707337984E+02 -0.18382406403E+04  0.18401795756E+04  0.78552382683E+02 0.  0.
         24    2    4    4    0    0  0.17234893170E+03 -0.25408818538E+03 -0.12533985488E+03  0.34114483589E+03  0.80029742170E+02 0.  0.
         13    1    3    3    0    0 -0.11620600693E+03  0.20265620244E+03 -0.10628619822E+03  0.25665176478E+03  0.00000000000E+00 0.  1.
        -13    1    3    3    0    0 -0.65043273723E+02  0.81139320925E+02  0.11152540598E+02  0.10458774316E+03  0.00000000000E+00 0. -1.
          4    1    6    6  502    0  0.11887993372E+03 -0.17371265723E+03 -0.12459393358E+03  0.24460616142E+03  0.00000000000E+00 0. -1.
          3    1    5    5  503    0  0.12879369423E+02  0.10614243282E+02 -0.13928004896E+04  0.13929004789E+04  0.00000000000E+00 0. -1.
         -4    1    5    5    0  503 -0.39790204653E+01 -0.40321581266E+02 -0.44544015067E+03  0.44727909670E+03  0.00000000000E+00 0.  1.
         -3    1    6    6    0  502  0.53468997975E+02 -0.80375528150E+02 -0.74592129892E+00  0.96538674470E+02  0.00000000000E+00 0.  1.
<mgrwt>
<rscale>  0 0.14920882E+04</rscale>
<asrwt>0</asrwt>
<pdfrwt beam="1">  1        2 0.35394447E+00 0.14920882E+04</pdfrwt>
<pdfrwt beam="2">  1       -2 0.37219213E-01 0.14920882E+04</pdfrwt>
<totfact> 0.29851308E+01</totfact>
</mgrwt>
</event>
<event>
12    1  0.1532786E-007  0.2655301E+04  0.7818608E-02  0.8349656E-01
          2   -1    0    0  501    0  0.00000000000E+00  0.00000000000E+00  0.16515550722E+04  0.16515550722E+04  0.00000000000E+00 0. -1.
         -2   -1    0    0    0  501 -0.00000000000E+00 -0.00000000000E+00 -0.10672706636E+04  0.10672706636E+04  0.00000000000E+00 0.  1.
         23    2    1    2    0    0 -0.99311663685E+03  0.94940822992E+02  0.89605740918E+03  0.13439811588E+04  0.89844646461E+02 0.  0.
        254    2    1    2    0    0  0.99311663685E+03 -0.94940822992E+02 -0.31177300062E+03  0.13748445769E+04  0.89314097013E+03 0.  0.
        -24    2    4    4    0    0  0.47196136595E+03 -0.35139053223E+03 -0.48238736813E+03  0.76471404469E+03  0.76597389795E+02 0.  0.
         24    2    4    4    0    0  0.52115527090E+03  0.25644970924E+03  0.17061436751E+03  0.61013053223E+03  0.76031139712E+02 0.  0.
         11    1    3    3    0    0 -0.64889959089E+03  0.10475765135E+03  0.59238346950E+03  0.88485197605E+03  0.00000000000E+00 0. -1.
        -11    1    3    3    0    0 -0.34421704596E+03 -0.98168283585E+01  0.30367393968E+03  0.45912918279E+03  0.00000000000E+00 0.  1.
          4    1    6    6  502    0  0.62440769131E+02  0.49528926943E+01  0.16740326041E+02  0.64835324566E+02  0.00000000000E+00 0. -1.
          1    1    5    5  503    0  0.37893829424E+02 -0.49513161689E+02 -0.73163183955E+02  0.96126723523E+02  0.00000000000E+00 0. -1.
         -2    1    5    5    0  503  0.43406753653E+03 -0.30187737054E+03 -0.40922418418E+03  0.66858732117E+03  0.00000000000E+00 0.  1.
         -1    1    6    6    0  502  0.45871450177E+03  0.25149681655E+03  0.15387404147E+03  0.54529520766E+03  0.00000000000E+00 0.  1.
<mgrwt>
<rscale>  0 0.26553013E+04</rscale>
<asrwt>0</asrwt>
<pdfrwt beam="1">  1        2 0.25408539E+00 0.26553013E+04</pdfrwt>
<pdfrwt beam="2">  1       -2 0.16419549E+00 0.26553013E+04</pdfrwt>
<totfact> 0.21566490E+00</totfact>
</mgrwt>
</event>
<event>
12    1  0.1532786E-007  0.1478047E+04  0.7818608E-02  0.8899184E-01
         -1   -1    0    0    0  501 -0.00000000000E+00  0.00000000000E+00  0.28276127671E+03  0.28276127671E+03  0.00000000000E+00 0.  1.
          1   -1    0    0  501    0  0.00000000000E+00 -0.00000000000E+00 -0.19315094585E+04  0.19315094585E+04  0.00000000000E+00 0. -1.
         23    2    1    2    0    0  0.15294783816E+03  0.28874381494E+03 -0.51646962199E+02  0.34270619820E+03  0.89521493035E+02 0.  0.
        254    2    1    2    0    0 -0.15294783816E+03 -0.28874381494E+03 -0.15971012196E+04  0.18715645370E+04  0.91937776713E+03 0.  0.
        -24    2    4    4    0    0 -0.84636720209E+02 -0.35626125343E+03 -0.12778302068E+03  0.39711487174E+03  0.85359626729E+02 0.  0.
         24    2    4    4    0    0 -0.68311117952E+02  0.67517438491E+02 -0.14693181989E+04  0.14744496653E+04  0.76686585876E+02 0.  0.
         13    1    3    3    0    0  0.41627634302E+02  0.26394610445E+02  0.11923972611E+02  0.50712094425E+02  0.00000000000E+00 0. -1.
        -13    1    3    3    0    0  0.11132020386E+03  0.26234920449E+03 -0.63570934809E+02  0.29199410377E+03  0.00000000000E+00 0.  1.
          2    1    6    6  502    0  0.13812621656E+01 -0.80083759989E+01 -0.21432980762E+02  0.22921924781E+02  0.00000000000E+00 0. -1.
          3    1    5    5  503    0 -0.61198161185E+02 -0.11133799905E+03 -0.67189439071E+02  0.14372120820E+03  0.00000000000E+00 0. -1.
         -4    1    5    5    0  503 -0.23438559024E+02 -0.24492325438E+03 -0.60593581613E+02  0.25339366353E+03  0.00000000000E+00 0.  1.
         -1    1    6    6    0  502 -0.69692380118E+02  0.75525814490E+02 -0.14478852181E+04  0.14515277405E+04  0.00000000000E+00 0.  1.
<mgrwt>
<rscale>  0 0.14780475E+04</rscale>
<asrwt>0</asrwt>
<pdfrwt beam="1">  1        1 0.29715531E+00 0.14780475E+04</pdfrwt>
<pdfrwt beam="2">  1       -1 0.43501734E-01 0.14780475E+04</pdfrwt>
<totfact> 0.16775184E+01</totfact>
</mgrwt>
</event>
<event>
12    1  0.1532786E-007  0.1106441E+04  0.7818608E-02  0.9198936E-01
         -2   -1    0    0    0  501 -0.00000000000E+00  0.00000000000E+00  0.26530669902E+03  0.26530669902E+03  0.00000000000E+00 0.  1.
          2   -1    0    0  501    0  0.00000000000E+00 -0.00000000000E+00 -0.11535826231E+04  0.11535826231E+04  0.00000000000E+00 0. -1.
         23    2    1    2    0    0  0.31204842893E+01 -0.13097962303E+03 -0.30753809763E+03  0.34679943068E+03  0.92329651541E+02 0.  0.
        254    2    1    2    0    0 -0.31204842893E+01  0.13097962303E+03 -0.58073782646E+03  0.10720898915E+04  0.89160244123E+03 0.  0.
        -24    2    4    4    0    0 -0.26214097868E+03  0.39166738213E+03 -0.48946279131E+03  0.68411870487E+03  0.79519477745E+02 0.  0.
         24    2    4    4    0    0  0.25902049439E+03 -0.26068775910E+03 -0.91275035148E+02  0.38797118658E+03  0.84503167497E+02 0.  0.
         11    1    3    3    0    0  0.23318046957E+02 -0.44449560405E+02 -0.20528840518E+03  0.21133580869E+03  0.00000000000E+00 0. -1.
        -11    1    3    3    0    0 -0.20197562667E+02 -0.86530062625E+02 -0.10224969245E+03  0.13546362199E+03  0.00000000000E+00 0.  1.
          2    1    6    6  502    0  0.23234561065E+03 -0.25899508480E+03 -0.72790142933E+02  0.35547340498E+03  0.00000000000E+00 0. -1.
          3    1    5    5  503    0 -0.19505626542E+03  0.34121852653E+03 -0.38592456313E+03  0.55083100671E+03  0.00000000000E+00 0. -1.
         -4    1    5    5    0  503 -0.67084713262E+02  0.50448855602E+02 -0.10353822818E+03  0.13328769816E+03  0.00000000000E+00 0.  1.
         -1    1    6    6    0  502  0.26674883747E+02 -0.16926743009E+01 -0.18484892214E+02  0.32497781607E+02  0.00000000000E+00 0.  1.
<mgrwt>
<rscale>  0 0.11064415E+04</rscale>
<asrwt>0</asrwt>
<pdfrwt beam="1">  1        2 0.17747425E+00 0.11064415E+04</pdfrwt>
<pdfrwt beam="2">  1       -2 0.40816415E-01 0.11064415E+04</pdfrwt>
<totfact> 0.11387847E+02</totfact>
</mgrwt>
</event>
<event>
12    1  0.1532786E-007  0.1521960E+04  0.7818608E-02  0.8869980E-01
         -2   -1    0    0    0  501 -0.00000000000E+00  0.00000000000E+00  0.19394809953E+03  0.19394809953E+03  0.00000000000E+00 0.  1.
          2   -1    0    0  501    0  0.00000000000E+00 -0.00000000000E+00 -0.29857997737E+04  0.29857997737E+04  0.00000000000E+00 0. -1.
         23    2    1    2    0    0 -0.27648993349E+03 -0.16026170929E+03 -0.16314864351E+04  0.16649671365E+04  0.90758353368E+02 0.  0.
        254    2    1    2    0    0  0.27648993349E+03  0.16026170929E+03 -0.11603652391E+04  0.15147807368E+04  0.91977317513E+03 0.  0.
        -24    2    4    4    0    0  0.28723193947E+03  0.46107505197E+03 -0.10492284463E+04  0.11841244095E+04  0.78599580189E+02 0.  0.
         24    2    4    4    0    0 -0.10742005974E+02 -0.30081334267E+03 -0.11113679272E+03  0.33065632726E+03  0.79863397357E+02 0.  0.
         13    1    3    3    0    0 -0.46598499762E+02 -0.36711445594E+02 -0.51382620840E+03  0.51723932841E+03  0.00000000000E+00 0.  1.
        -13    1    3    3    0    0 -0.22989143373E+03 -0.12355026370E+03 -0.11176602267E+04  0.11477278080E+04  0.00000000000E+00 0. -1.
          4    1    6    6  502    0 -0.10436440823E+02 -0.24527098591E+03 -0.12188103198E+03  0.27408349419E+03  0.00000000000E+00 0. -1.
          1    1    5    5  503    0  0.11498883510E+03  0.18971810048E+03 -0.34725989787E+03  0.41207381197E+03  0.00000000000E+00 0. -1.
         -2    1    5    5    0  503  0.17224310437E+03  0.27135695149E+03 -0.70196854847E+03  0.77205059754E+03  0.00000000000E+00 0.  1.
         -3    1    6    6    0  502 -0.30556515071E+00 -0.55542356761E+02  0.10744239263E+02  0.56572833074E+02  0.00000000000E+00 0.  1.
<mgrwt>
<rscale>  0 0.15219595E+04</rscale>
<asrwt>0</asrwt>
<pdfrwt beam="1">  1        2 0.45935376E+00 0.15219595E+04</pdfrwt>
<pdfrwt beam="2">  1       -2 0.29838172E-01 0.15219595E+04</pdfrwt>
<totfact> 0.17879325E+01</totfact>
</mgrwt>
</event>
<event>
12    1  0.1532786E-007  0.2005787E+04  0.7818608E-02  0.8603920E-01
         -2   -1    0    0    0  501 -0.00000000000E+00  0.00000000000E+00  0.12032137197E+04  0.12032137197E+04  0.00000000000E+00 0.  1.
          2   -1    0    0  501    0  0.00000000000E+00 -0.00000000000E+00 -0.83592371068E+03  0.83592371068E+03  0.00000000000E+00 0. -1.
         23    2    1    2    0    0 -0.65827495733E+03 -0.11514655177E+03 -0.22906208444E+03  0.71243955854E+03  0.92282382980E+02 0.  0.
        254    2    1    2    0    0  0.65827495733E+03  0.11514655177E+03  0.59635209345E+03  0.13266978718E+04  0.97872712027E+03 0.  0.
        -24    2    4    4    0    0  0.51014326765E+03 -0.38892775970E+03  0.25447348221E+03  0.69490751165E+03  0.81417079316E+02 0.  0.
         24    2    4    4    0    0  0.14813168968E+03  0.50407431147E+03  0.34187861124E+03  0.63179036019E+03  0.79020031852E+02 0.  0.
         13    1    3    3    0    0 -0.43898544410E+03 -0.11139149512E+03 -0.18216373487E+03  0.48815971937E+03  0.00000000000E+00 0. -1.
        -13    1    3    3    0    0 -0.21928951323E+03 -0.37550566539E+01 -0.46898349567E+02  0.22427983917E+03  0.00000000000E+00 0.  1.
          4    1    6    6  502    0 -0.15141334027E+01  0.10081258446E+03  0.73950948700E+02  0.12503684496E+03  0.00000000000E+00 0. -1.
          1    1    5    5  503    0  0.19313212947E+03 -0.10128183764E+03  0.98847818177E+02  0.23943458653E+03  0.00000000000E+00 0. -1.
         -2    1    5    5    0  503  0.31701113818E+03 -0.28764592206E+03  0.15562566403E+03  0.45547292512E+03  0.00000000000E+00 0.  1.
         -3    1    6    6    0  502  0.14964582309E+03  0.40326172702E+03  0.26792766254E+03  0.50675351523E+03  0.00000000000E+00 0.  1.
<mgrwt>
<rscale>  0 0.20057865E+04</rscale>
<asrwt>0</asrwt>
<pdfrwt beam="1">  1        2 0.12860365E+00 0.20057865E+04</pdfrwt>
<pdfrwt beam="2">  1       -2 0.18510980E+00 0.20057865E+04</pdfrwt>
<totfact> 0.50409887E+00</totfact>
</mgrwt>
</event>
<event>
12    1  0.1532786E-007  0.1457482E+04  0.7818608E-02  0.8913230E-01
         -2   -1    0    0    0  501 -0.00000000000E+00  0.00000000000E+00  0.32400006218E+03  0.32400006218E+03  0.00000000000E+00 0.  1.
          2   -1    0    0  501    0  0.00000000000E+00 -0.00000000000E+00 -0.16390849149E+04  0.16390849149E+04  0.00000000000E+00 0. -1.
         23    2    1    2    0    0 -0.53871740552E+02  0.38416966852E+03 -0.72919112198E+03  0.83114566413E+03  0.92708812902E+02 0.  0.
        254    2    1    2    0    0  0.53871740552E+02 -0.38416966852E+03 -0.58589373069E+03  0.11319393129E+04  0.88742698054E+03 0.  0.
        -24    2    4    4    0    0  0.45905461423E+03 -0.13321725700E+03 -0.27910990636E+03  0.55953607041E+03  0.81855347171E+02 0.  0.
         24    2    4    4    0    0 -0.40518287367E+03 -0.25095241152E+03 -0.30678382434E+03  0.57240324249E+03  0.79867910801E+02 0.  0.
         13    1    3    3    0    0 -0.16993267018E+02  0.56427981964E+01 -0.43564425425E+02  0.47100652416E+02  0.00000000000E+00 0.  1.
        -13    1    3    3    0    0 -0.36878473534E+02  0.37852687032E+03 -0.68562669655E+03  0.78404501172E+03  0.00000000000E+00 0. -1.
          2    1    6    6  502    0 -0.41289280928E+02 -0.44783066204E+02 -0.15895873258E+02  0.62952414766E+02  0.00000000000E+00 0. -1.
          3    1    5    5  503    0  0.22798132556E+03 -0.91268744244E+02 -0.18075262642E+03  0.30492126924E+03  0.00000000000E+00 0. -1.
         -4    1    5    5    0  503  0.23107328866E+03 -0.41948512755E+02 -0.98357279939E+02  0.25461480117E+03  0.00000000000E+00 0.  1.
         -1    1    6    6    0  502 -0.36389359275E+03 -0.20616934532E+03 -0.29088795108E+03  0.50945082773E+03  0.00000000000E+00 0.  1.
<mgrwt>
<rscale>  0 0.14574822E+04</rscale>
<asrwt>0</asrwt>
<pdfrwt beam="1">  1        2 0.25216691E+00 0.14574822E+04</pdfrwt>
<pdfrwt beam="2">  1       -2 0.49846164E-01 0.14574822E+04</pdfrwt>
<totfact> 0.39135379E+01</totfact>
</mgrwt>
</event>
<event>
12    1  0.1532786E-007  0.1441356E+04  0.7818608E-02  0.8924415E-01
          1   -1    0    0  501    0  0.00000000000E+00  0.00000000000E+00  0.19483591255E+04  0.19483591255E+04  0.00000000000E+00 0. -1.
         -1   -1    0    0    0  501 -0.00000000000E+00 -0.00000000000E+00 -0.26657127194E+03  0.26657127194E+03  0.00000000000E+00 0.  1.
         23    2    1    2    0    0  0.17389435952E+02  0.75493283209E+01 -0.15337376227E+03  0.18331864906E+03  0.98604418245E+02 0.  0.
        254    2    1    2    0    0 -0.17389435952E+02 -0.75493283209E+01  0.18351616159E+04  0.20316117484E+04  0.87136029007E+03 0.  0.
        -24    2    4    4    0    0  0.22127562252E+03 -0.29545623911E+03  0.41610068052E+03  0.56199934606E+03  0.80288220103E+02 0.  0.
         24    2    4    4    0    0 -0.23866505848E+03  0.28790691079E+03  0.14190609353E+04  0.14696124024E+04  0.78582921229E+02 0.  0.
         11    1    3    3    0    0  0.76434109222E+01 -0.37041938420E+02 -0.20923078664E+02  0.43223860924E+02  0.00000000000E+00 0. -1.
        -11    1    3    3    0    0  0.97460250301E+01  0.44591266741E+02 -0.13245068361E+03  0.14009478813E+03  0.00000000000E+00 0.  1.
          4    1    6    6  502    0 -0.16675926427E+03  0.25052819227E+03  0.11339723170E+04  0.11732289815E+04  0.00000000000E+00 0. -1.
          1    1    5    5  503    0  0.15051497217E+03 -0.25470397079E+03  0.31749186496E+03  0.43396999193E+03  0.00000000000E+00 0. -1.
         -4    1    5    5    0  503  0.70760650353E+02 -0.40752268330E+02  0.98608815557E+02  0.12802935413E+03  0.00000000000E+00 0.  1.
         -3    1    6    6    0  502 -0.71905794204E+02  0.37378718525E+02  0.28508861836E+03  0.29638342086E+03  0.00000000000E+00 0.  1.
<mgrwt>
<rscale>  0 0.14413557E+04</rscale>
<asrwt>0</asrwt>
<pdfrwt beam="1">  1        1 0.29974755E+00 0.14413557E+04</pdfrwt>
<pdfrwt beam="2">  1       -1 0.41010966E-01 0.14413557E+04</pdfrwt>
<totfact> 0.18278173E+01</totfact>
</mgrwt>
</event>
<event>
12    1  0.1532786E-007  0.2174790E+04  0.7818608E-02  0.8528995E-01
          2   -1    0    0  501    0  0.00000000000E+00  0.00000000000E+00  0.23990451990E+04  0.23990451990E+04  0.00000000000E+00 0. -1.
         -2   -1    0    0    0  501 -0.00000000000E+00 -0.00000000000E+00 -0.49287415120E+03  0.49287415120E+03  0.00000000000E+00 0.  1.
         23    2    1    2    0    0 -0.54182732840E+03 -0.25162347473E+03 -0.71509312679E+02  0.60828811469E+03  0.89496490628E+02 0.  0.
        254    2    1    2    0    0  0.54182732840E+03  0.25162347473E+03  0.19776803604E+04  0.22836312355E+04  0.97306771849E+03 0.  0.
        -24    2    4    4    0    0  0.20366743548E+03  0.42639618605E+03  0.30993633484E+03  0.57110285103E+03  0.82485168592E+02 0.  0.
         24    2    4    4    0    0  0.33815989291E+03 -0.17477271132E+03  0.16677440256E+04  0.17125283845E+04  0.80533960890E+02 0.  0.
         11    1    3    3    0    0 -0.11166941783E+03 -0.40089894657E+02  0.19869990872E+02  0.12029993794E+03  0.00000000000E+00 0. -1.
        -11    1    3    3    0    0 -0.43015791057E+03 -0.21153358008E+03 -0.91379303551E+02  0.48798817675E+03  0.00000000000E+00 0.  1.
          4    1    6    6  502    0  0.20453141784E+03 -0.13946533746E+03  0.11731855246E+04  0.11990195813E+04  0.00000000000E+00 0. -1.
          1    1    5    5  503    0  0.18278965769E+03  0.36211034463E+03  0.22955695120E+03  0.46608191822E+03  0.00000000000E+00 0. -1.
         -2    1    5    5    0  503  0.20877777798E+02  0.64285841419E+02  0.80379383641E+02  0.10502093280E+03  0.00000000000E+00 0.  1.
         -3    1    6    6    0  502  0.13362847507E+03 -0.35307373861E+02  0.49455850099E+03  0.51350880313E+03  0.00000000000E+00 0.  1.
<mgrwt>
<rscale>  0 0.21747895E+04</rscale>
<asrwt>0</asrwt>
<pdfrwt beam="1">  1        2 0.36908387E+00 0.21747895E+04</pdfrwt>
<pdfrwt beam="2">  1       -2 0.75826794E-01 0.21747895E+04</pdfrwt>
<totfact> 0.56817931E+00</totfact>
</mgrwt>
</event>
<event>
12    1  0.1532786E-007  0.1326296E+04  0.7818608E-02  0.9008968E-01
         -2   -1    0    0    0  501 -0.00000000000E+00  0.00000000000E+00  0.16373158297E+03  0.16373158297E+03  0.00000000000E+00 0.  1.
          2   -1    0    0  501    0  0.00000000000E+00 -0.00000000000E+00 -0.26858908609E+04  0.26858908609E+04  0.00000000000E+00 0. -1.
         23    2    1    2    0    0  0.33988652993E+02 -0.28865720911E+03 -0.28853914283E+03  0.41956220535E+03  0.91101011595E+02 0.  0.
        254    2    1    2    0    0 -0.33988652993E+02  0.28865720911E+03 -0.22336201350E+04  0.24300602385E+04  0.91195155684E+03 0.  0.
        -24    2    4    4    0    0 -0.34266439511E+03 -0.17473160117E+03 -0.85329110093E+03  0.93950286762E+03  0.81301385096E+02 0.  0.
         24    2    4    4    0    0  0.30867574212E+03  0.46338881028E+03 -0.13803290341E+04  0.14905573709E+04  0.80269110517E+02 0.  0.
         11    1    3    3    0    0  0.66976637309E+01 -0.26801483434E+03 -0.23781474494E+03  0.35837503127E+03  0.00000000000E+00 0.  1.
        -11    1    3    3    0    0  0.27290989262E+02 -0.20642374764E+02 -0.50724397891E+02  0.61187174082E+02  0.00000000000E+00 0. -1.
          4    1    6    6  502    0  0.17636463057E+03  0.19438747231E+03 -0.62050515140E+03  0.67373408346E+03  0.00000000000E+00 0. -1.
          3    1    5    5  503    0 -0.28056169186E+02 -0.19240961338E+02 -0.33452546682E+02  0.47712012137E+02  0.00000000000E+00 0. -1.
         -4    1    5    5    0  503 -0.31460822593E+03 -0.15549063983E+03 -0.81983855425E+03  0.89179085549E+03  0.00000000000E+00 0.  1.
         -3    1    6    6    0  502  0.13231111155E+03  0.26900133797E+03 -0.75982388272E+03  0.81682328739E+03  0.00000000000E+00 0.  1.
<mgrwt>
<rscale>  0 0.13262958E+04</rscale>
<asrwt>0</asrwt>
<pdfrwt beam="1">  1        2 0.41321396E+00 0.13262958E+04</pdfrwt>
<pdfrwt beam="2">  1       -2 0.25189475E-01 0.13262958E+04</pdfrwt>
<totfact> 0.37727968E+01</totfact>
</mgrwt>
</event>
<event>
12    1  0.1532786E-007  0.1537158E+04  0.7818608E-02  0.8860112E-01
          2   -1    0    0  501    0  0.00000000000E+00  0.00000000000E+00  0.14142737448E+04  0.14142737448E+04  0.00000000000E+00 0.  1.
         -2   -1    0    0    0  501 -0.00000000000E+00 -0.00000000000E+00 -0.41767984583E+03  0.41767984583E+03  0.00000000000E+00 0. -1.
         23    2    1    2    0    0 -0.46721739740E+03  0.19105305974E+03  0.37215955934E+03  0.63358276324E+03  0.90172125386E+02 0.  0.
        254    2    1    2    0    0  0.46721739740E+03 -0.19105305974E+03  0.62443433966E+03  0.11983708274E+04  0.88959599112E+03 0.  0.
        -24    2    4    4    0    0  0.34613501662E+03 -0.32444617321E+03  0.80116737907E+03  0.93438708673E+03  0.78328088965E+02 0.  0.
         24    2    4    4    0    0  0.12108238078E+03  0.13339311347E+03 -0.17673303941E+03  0.26398374070E+03  0.77447933969E+02 0.  0.
         13    1    3    3    0    0 -0.19331533286E+03  0.39024603435E+02  0.11507645193E+03  0.22833380691E+03  0.00000000000E+00 0.  1.
        -13    1    3    3    0    0 -0.27390206455E+03  0.15202845630E+03  0.25708310742E+03  0.40524895633E+03  0.00000000000E+00 0. -1.
          4    1    6    6  502    0  0.10856289570E+03  0.10156775508E+03 -0.17516408390E+03  0.22974848744E+03  0.00000000000E+00 0. -1.
          1    1    5    5  503    0  0.23795474582E+03 -0.22276981695E+03  0.61720687654E+03  0.69799224985E+03  0.00000000000E+00 0. -1.
         -2    1    5    5    0  503  0.10818027080E+03 -0.10167635626E+03  0.18396050253E+03  0.23639483688E+03  0.00000000000E+00 0.  1.
         -3    1    6    6    0  502  0.12519485084E+02  0.31825358398E+02 -0.15689555059E+01  0.34235253253E+02  0.00000000000E+00 0.  1.
<mgrwt>
<rscale>  0 0.15371579E+04</rscale>
<asrwt>0</asrwt>
<pdfrwt beam="1">  1        2 0.21758057E+00 0.15371579E+04</pdfrwt>
<pdfrwt beam="2">  1       -2 0.64258438E-01 0.15371579E+04</pdfrwt>
<totfact> 0.30614981E+01</totfact>
</mgrwt>
</event>
<event>
12    1  0.1532786E-007  0.1656312E+04  0.7818608E-02  0.8786681E-01
          2   -1    0    0  501    0  0.00000000000E+00  0.00000000000E+00  0.23358181884E+04  0.23358181884E+04  0.00000000000E+00 0.  1.
         -2   -1    0    0    0  501 -0.00000000000E+00 -0.00000000000E+00 -0.29361992748E+03  0.29361992748E+03  0.00000000000E+00 0. -1.
         23    2    1    2    0    0 -0.49604994815E+02  0.18260099654E+02 -0.19129655716E+03  0.21805661954E+03  0.90333990250E+02 0.  0.
        254    2    1    2    0    0  0.49604994815E+02 -0.18260099654E+02  0.22334948181E+04  0.24113814964E+04  0.90745111810E+03 0.  0.
        -24    2    4    4    0    0 -0.58997402969E+02  0.33516982682E+03  0.36478198911E+03  0.50479645512E+03  0.77032818690E+02 0.  0.
         24    2    4    4    0    0  0.10860239778E+03 -0.35342992647E+03  0.18687128290E+04  0.19065850412E+04  0.79193992793E+02 0.  0.
         11    1    3    3    0    0 -0.50013519225E+02  0.50673287308E+02 -0.11643144189E+03  0.13647496039E+03  0.00000000000E+00 0. -1.
        -11    1    3    3    0    0  0.40852440957E+00 -0.32413187654E+02 -0.74865115269E+02  0.81581659154E+02  0.00000000000E+00 0.  1.
          2    1    6    6  502    0  0.98512063499E+02 -0.35378890881E+03  0.17949568642E+04  0.18321411962E+04  0.00000000000E+00 0. -1.
          3    1    5    5  503    0  0.11799642276E+02  0.15100901787E+03  0.15081350277E+03  0.21374673717E+03  0.00000000000E+00 0. -1.
         -4    1    5    5    0  503 -0.70797045245E+02  0.18416080895E+03  0.21396848635E+03  0.29104971795E+03  0.00000000000E+00 0.  1.
         -1    1    6    6    0  502  0.10090334285E+02  0.35898233111E+00  0.73755964801E+02  0.74443844998E+02  0.00000000000E+00 0.  1.
<mgrwt>
<rscale>  0 0.16563125E+04</rscale>
<asrwt>0</asrwt>
<pdfrwt beam="1">  1        2 0.35935663E+00 0.16563125E+04</pdfrwt>
<pdfrwt beam="2">  1       -2 0.45172298E-01 0.16563125E+04</pdfrwt>
<totfact> 0.19216517E+01</totfact>
</mgrwt>
</event>
<event>
12    1  0.1532786E-007  0.3241715E+04  0.7818608E-02  0.8177887E-01
          2   -1    0    0  501    0  0.00000000000E+00  0.00000000000E+00  0.12601388447E+04  0.12601388447E+04  0.00000000000E+00 0. -1.
         -2   -1    0    0    0  501 -0.00000000000E+00 -0.00000000000E+00 -0.20848325490E+04  0.20848325490E+04  0.00000000000E+00 0.  1.
         23    2    1    2    0    0 -0.80526755681E+02 -0.39896039196E+03 -0.18654629148E+04  0.19116321594E+04  0.93443424432E+02 0.  0.
        254    2    1    2    0    0  0.80526755681E+02  0.39896039196E+03  0.10407692106E+04  0.14333392343E+04  0.89755604734E+03 0.  0.
        -24    2    4    4    0    0 -0.22156719783E+03 -0.18478582290E+03  0.18769084016E+03  0.35349364625E+03  0.80573463158E+02 0.  0.
         24    2    4    4    0    0  0.30209395351E+03  0.58374621486E+03  0.85307837042E+03  0.10798455880E+04  0.79393877625E+02 0.  0.
         11    1    3    3    0    0  0.50110676106E+01 -0.40626902463E+00 -0.52040206351E+01  0.72358609639E+01  0.00000000000E+00 0. -1.
        -11    1    3    3    0    0 -0.85537823292E+02 -0.39855412294E+03 -0.18602588942E+04  0.19043962984E+04  0.00000000000E+00 0.  1.
          2    1    6    6  502    0  0.43063771991E+02  0.66365903383E+02  0.14739059279E+03  0.16728092669E+03  0.00000000000E+00 0. -1.
          3    1    5    5  503    0 -0.11325495895E+02  0.83401643980E+01  0.91912010183E+01  0.16801886073E+02  0.00000000000E+00 0. -1.
         -4    1    5    5    0  503 -0.21024170193E+03 -0.19312598729E+03  0.17849963914E+03  0.33669176018E+03  0.00000000000E+00 0.  1.
         -1    1    6    6    0  502  0.25903018152E+03  0.51738031148E+03  0.70568777763E+03  0.91256466134E+03  0.00000000000E+00 0.  1.
<mgrwt>
<rscale>  0 0.32417147E+04</rscale>
<asrwt>0</asrwt>
<pdfrwt beam="1">  1        2 0.19386752E+00 0.32417147E+04</pdfrwt>
<pdfrwt beam="2">  1       -2 0.32074347E+00 0.32417147E+04</pdfrwt>
<totfact> 0.34678013E-01</totfact>
</mgrwt>
</event>
<event>
12    1  0.1532786E-007  0.2243154E+04  0.7818608E-02  0.8500678E-01
          2   -1    0    0  501    0  0.00000000000E+00  0.00000000000E+00  0.18699430657E+04  0.18699430657E+04  0.00000000000E+00 0. -1.
         -2   -1    0    0    0  501 -0.00000000000E+00 -0.00000000000E+00 -0.67271310534E+03  0.67271310534E+03  0.00000000000E+00 0.  1.
         23    2    1    2    0    0  0.59414250242E+02 -0.19896687463E+03  0.15412268875E+04  0.15578145858E+04  0.91038971964E+02 0.  0.
        254    2    1    2    0    0 -0.59414250242E+02  0.19896687463E+03 -0.34399692715E+03  0.98484158530E+03  0.89914470021E+03 0.  0.
        -24    2    4    4    0    0  0.19293424871E+03 -0.29304977779E+03 -0.91460589008E+02  0.37177956877E+03  0.82177927854E+02 0.  0.
         24    2    4    4    0    0 -0.25234849895E+03  0.49201665242E+03 -0.25253633814E+03  0.61306201653E+03  0.79437288766E+02 0.  0.
         11    1    3    3    0    0  0.78864385513E+02 -0.16313540575E+03  0.13625393108E+04  0.13745348760E+04  0.00000000000E+00 0. -1.
        -11    1    3    3    0    0 -0.19450135272E+02 -0.35831468881E+02  0.17868757672E+03  0.18327970972E+03  0.00000000000E+00 0.  1.
          4    1    6    6  502    0 -0.17889762368E+03  0.26307607618E+03 -0.14818529407E+03  0.35095906171E+03  0.00000000000E+00 0. -1.
          1    1    5    5  503    0  0.17065957470E+03 -0.22162569917E+03 -0.43945796118E+02  0.28314991430E+03  0.00000000000E+00 0. -1.
         -2    1    5    5    0  503  0.22274674008E+02 -0.71424078613E+02 -0.47514792891E+02  0.88629654469E+02  0.00000000000E+00 0.  1.
         -3    1    6    6    0  502 -0.73450875275E+02  0.22894057624E+03 -0.10435104408E+03  0.26210295482E+03  0.00000000000E+00 0.  1.
<mgrwt>
<rscale>  0 0.22431542E+04</rscale>
<asrwt>0</asrwt>
<pdfrwt beam="1">  1        2 0.28768355E+00 0.22431542E+04</pdfrwt>
<pdfrwt beam="2">  1       -2 0.10349432E+00 0.22431542E+04</pdfrwt>
<totfact> 0.54694150E+00</totfact>
</mgrwt>
</event>
<event>
12    1  0.1532786E-007  0.2521124E+04  0.7818608E-02  0.8395499E-01
          2   -1    0    0  501    0  0.00000000000E+00  0.00000000000E+00  0.26451951977E+04  0.26451951977E+04  0.00000000000E+00 0. -1.
         -2   -1    0    0    0  501 -0.00000000000E+00 -0.00000000000E+00 -0.60071791254E+03  0.60071791254E+03  0.00000000000E+00 0.  1.
         23    2    1    2    0    0  0.59424932950E+03 -0.36745034594E+03  0.19874652119E+04  0.21098600242E+04  0.11549602224E+03 0.  0.
        254    2    1    2    0    0 -0.59424932950E+03  0.36745034594E+03  0.57012073265E+02  0.11360530860E+04  0.89398781609E+03 0.  0.
        -24    2    4    4    0    0 -0.38169795858E+03  0.29902264103E+03  0.45700942602E+03  0.67108712998E+03  0.79952793025E+02 0.  0.
         24    2    4    4    0    0 -0.21255137091E+03  0.68427704908E+02 -0.39999735276E+03  0.46496595600E+03  0.79592851144E+02 0.  0.
         13    1    3    3    0    0  0.31207361735E+03 -0.17965589123E+03  0.11916462994E+04  0.12448642837E+04  0.00000000000E+00 0. -1.
        -13    1    3    3    0    0  0.28217571215E+03 -0.18779445471E+03  0.79581891244E+03  0.86499574053E+03  0.00000000000E+00 0.  1.
          4    1    6    6  502    0 -0.58247348723E+02  0.13585386455E+02 -0.47822185582E+02  0.76578572671E+02  0.00000000000E+00 0. -1.
          1    1    5    5  503    0 -0.24236990026E+03  0.18125158162E+03  0.23156603542E+03  0.38107497051E+03  0.00000000000E+00 0. -1.
         -2    1    5    5    0  503 -0.13932805833E+03  0.11777105941E+03  0.22544339060E+03  0.29001215946E+03  0.00000000000E+00 0.  1.
         -3    1    6    6    0  502 -0.15430402219E+03  0.54842318453E+02 -0.35217516717E+03  0.38838738333E+03  0.00000000000E+00 0.  1.
<mgrwt>
<rscale>  0 0.25211237E+04</rscale>
<asrwt>0</asrwt>
<pdfrwt beam="1">  1        2 0.40695310E+00 0.25211237E+04</pdfrwt>
<pdfrwt beam="2">  1       -2 0.92418142E-01 0.25211237E+04</pdfrwt>
<totfact> 0.25321644E+00</totfact>
</mgrwt>
</event>
<event>
12    1  0.1532786E-007  0.1838723E+04  0.7818608E-02  0.8685974E-01
         -1   -1    0    0    0  501 -0.00000000000E+00  0.00000000000E+00  0.33060548537E+03  0.33060548537E+03  0.00000000000E+00 0.  1.
          1   -1    0    0  501    0  0.00000000000E+00 -0.00000000000E+00 -0.25565985682E+04  0.25565985682E+04  0.00000000000E+00 0. -1.
         23    2    1    2    0    0 -0.30089422748E+03 -0.32996482630E+03 -0.11482398235E+02  0.45581262803E+03  0.90659713670E+02 0.  0.
        254    2    1    2    0    0  0.30089422748E+03  0.32996482630E+03 -0.22145106846E+04  0.24313914255E+04  0.89899531102E+03 0.  0.
        -24    2    4    4    0    0  0.65427989512E+02  0.19872454903E+03 -0.27095757782E+02  0.22597000436E+03  0.80969096462E+02 0.  0.
         24    2    4    4    0    0  0.23546623796E+03  0.13124027727E+03 -0.21874149268E+04  0.22054214212E+04  0.80194908302E+02 0.  0.
         11    1    3    3    0    0 -0.20346141955E+03 -0.21259469128E+03 -0.49996951125E+02  0.29848408187E+03  0.00000000000E+00 0. -1.
        -11    1    3    3    0    0 -0.97432807921E+02 -0.11737013502E+03  0.38514552890E+02  0.15732854616E+03  0.00000000000E+00 0.  1.
          2    1    6    6  502    0  0.42142423693E+02  0.63067087865E+02 -0.64465819285E+03  0.64910525114E+03  0.00000000000E+00 0. -1.
          1    1    5    5  503    0  0.39936655368E+02  0.26205185903E+02 -0.18947350140E+02  0.51387258027E+02  0.00000000000E+00 0. -1.
         -2    1    5    5    0  503  0.25491334144E+02  0.17251936313E+03 -0.81484076413E+01  0.17458274633E+03  0.00000000000E+00 0.  1.
         -1    1    6    6    0  502  0.19332381427E+03  0.68173189404E+02 -0.15427567339E+04  0.15563161700E+04  0.00000000000E+00 0.  1.
<mgrwt>
<rscale>  0 0.18387229E+04</rscale>
<asrwt>0</asrwt>
<pdfrwt beam="1">  1        1 0.39332285E+00 0.18387229E+04</pdfrwt>
<pdfrwt beam="2">  1       -1 0.50862384E-01 0.18387229E+04</pdfrwt>
<totfact> 0.45256883E+00</totfact>
</mgrwt>
</event>
<event>
12    1  0.1532786E-007  0.2457238E+04  0.7818608E-02  0.8418380E-01
          2   -1    0    0  501    0  0.00000000000E+00  0.00000000000E+00  0.16940117161E+04  0.16940117161E+04  0.00000000000E+00 0. -1.
         -2   -1    0    0    0  501 -0.00000000000E+00 -0.00000000000E+00 -0.89108248466E+03  0.89108248466E+03  0.00000000000E+00 0.  1.
         23    2    1    2    0    0 -0.39797108625E+03 -0.71764855477E+03  0.97311946131E+03  0.12759350694E+04  0.87455026815E+02 0.  0.
        254    2    1    2    0    0  0.39797108625E+03  0.71764855477E+03 -0.17019022983E+03  0.13091591314E+04  0.10057497121E+04 0.  0.
        -24    2    4    4    0    0  0.19562546156E+03  0.30370549008E+03  0.41739848545E+03  0.55813288601E+03  0.82367935950E+02 0.  0.
         24    2    4    4    0    0  0.20234562469E+03  0.41394306468E+03 -0.58758871528E+03  0.75102624539E+03  0.80543840904E+02 0.  0.
         11    1    3    3    0    0 -0.25093643017E+03 -0.51112353797E+03  0.62793732520E+03  0.84765656219E+03  0.00000000000E+00 0.  1.
        -11    1    3    3    0    0 -0.14703465607E+03 -0.20652501680E+03  0.34518213611E+03  0.42827850721E+03  0.00000000000E+00 0. -1.
          4    1    6    6  502    0  0.14554146733E+03  0.32674962020E+03 -0.40079146205E+03  0.53719775602E+03  0.00000000000E+00 0. -1.
          1    1    5    5  503    0  0.16491851152E+03  0.29539713128E+03  0.37385878072E+03  0.50421024240E+03  0.00000000000E+00 0. -1.
         -2    1    5    5    0  503  0.30706950042E+02  0.83083588005E+01  0.43539704725E+02  0.53922643615E+02  0.00000000000E+00 0.  1.
         -3    1    6    6    0  502  0.56804157363E+02  0.87193444480E+02 -0.18679725323E+03  0.21382848937E+03  0.00000000000E+00 0.  1.
<mgrwt>
<rscale>  0 0.24572376E+04</rscale>
<asrwt>0</asrwt>
<pdfrwt beam="1">  1        2 0.26061719E+00 0.24572376E+04</pdfrwt>
<pdfrwt beam="2">  1       -2 0.13708961E+00 0.24572376E+04</pdfrwt>
<totfact> 0.33551382E+00</totfact>
</mgrwt>
</event>
<event>
12    1  0.1532786E-007  0.1916071E+04  0.7818608E-02  0.8646898E-01
          2   -1    0    0  501    0  0.00000000000E+00  0.00000000000E+00  0.15653799365E+04  0.15653799365E+04  0.00000000000E+00 0. -1.
         -2   -1    0    0    0  501 -0.00000000000E+00 -0.00000000000E+00 -0.58633157999E+03  0.58633157999E+03  0.00000000000E+00 0.  1.
         23    2    1    2    0    0  0.92244968902E+02 -0.20881518969E+03 -0.41279025825E+03  0.48021643169E+03  0.89995034431E+02 0.  0.
        254    2    1    2    0    0 -0.92244968902E+02  0.20881518969E+03  0.13918386147E+04  0.16714950848E+04  0.89697724119E+03 0.  0.
        -24    2    4    4    0    0  0.95207047136E+02  0.33390570216E+03  0.13876451688E+04  0.14326159956E+04  0.79196443914E+02 0.  0.
         24    2    4    4    0    0 -0.18745201604E+03 -0.12509051247E+03  0.41934459389E+01  0.23887908913E+03  0.79118516193E+02 0.  0.
         11    1    3    3    0    0 -0.44746500942E+01 -0.62699722500E+02 -0.63028621117E+02  0.89016205125E+02  0.00000000000E+00 0. -1.
        -11    1    3    3    0    0  0.96719618997E+02 -0.14611546719E+03 -0.34976163714E+03  0.39120022656E+03  0.00000000000E+00 0.  1.
          2    1    6    6  502    0 -0.50134520958E+02 -0.61144257746E+02 -0.28253082431E+02  0.83966226031E+02  0.00000000000E+00 0. -1.
          1    1    5    5  503    0  0.25564028759E+02  0.20517101972E+03  0.90205226365E+03  0.92544419240E+03  0.00000000000E+00 0. -1.
         -2    1    5    5    0  503  0.69643018377E+02  0.12873468244E+03  0.48559290515E+03  0.50717180324E+03  0.00000000000E+00 0.  1.
         -1    1    6    6    0  502 -0.13731749508E+03 -0.63946254728E+02  0.32446528370E+02  0.15491286309E+03  0.00000000000E+00 0.  1.
<mgrwt>
<rscale>  0 0.19160707E+04</rscale>
<asrwt>0</asrwt>
<pdfrwt beam="1">  1        2 0.24082768E+00 0.19160707E+04</pdfrwt>
<pdfrwt beam="2">  1       -2 0.90204859E-01 0.19160707E+04</pdfrwt>
<totfact> 0.11467545E+01</totfact>
</mgrwt>
</event>
<event>
12    1  0.1532786E-007  0.1507450E+04  0.7818608E-02  0.8879514E-01
         -2   -1    0    0    0  501 -0.00000000000E+00  0.00000000000E+00  0.17983517538E+03  0.17983517538E+03  0.00000000000E+00 0.  1.
          2   -1    0    0  501    0  0.00000000000E+00 -0.00000000000E+00 -0.31590119379E+04  0.31590119379E+04  0.00000000000E+00 0. -1.
         23    2    1    2    0    0  0.18740835641E+03  0.33303974205E+03 -0.15581864695E+04  0.16068420037E+04  0.89212047551E+02 0.  0.
        254    2    1    2    0    0 -0.18740835641E+03 -0.33303974205E+03 -0.14209902930E+04  0.17320051095E+04  0.91355948069E+03 0.  0.
        -24    2    4    4    0    0 -0.14939641254E+02  0.73076215793E+02  0.98784496488E+02  0.14751491995E+03  0.80243059927E+02 0.  0.
         24    2    4    4    0    0 -0.17246871515E+03 -0.40611595784E+03 -0.15197747895E+04  0.15844901896E+04  0.78855064147E+02 0.  0.
         13    1    3    3    0    0  0.75772932380E+02  0.64844626802E+02 -0.47654487084E+03  0.48686895242E+03  0.00000000000E+00 0.  1.
        -13    1    3    3    0    0  0.11163542403E+03  0.26819511525E+03 -0.10816415986E+04  0.11199730513E+04  0.00000000000E+00 0. -1.
          2    1    6    6  502    0  0.69267071911E+01 -0.46259359988E+01 -0.23405303157E+02  0.24843243996E+02  0.00000000000E+00 0. -1.
          1    1    5    5  503    0 -0.41191859800E+02  0.67533775072E+02  0.55658061942E+02  0.96723316467E+02  0.00000000000E+00 0. -1.
         -2    1    5    5    0  503  0.26252218547E+02  0.55424407205E+01  0.43126434546E+02  0.50791603484E+02  0.00000000000E+00 0.  1.
         -1    1    6    6    0  502 -0.17939542234E+03 -0.40149002184E+03 -0.14963694864E+04  0.15596469456E+04  0.00000000000E+00 0.  1.
<mgrwt>
<rscale>  0 0.15074501E+04</rscale>
<asrwt>0</asrwt>
<pdfrwt beam="1">  1        2 0.48600182E+00 0.15074501E+04</pdfrwt>
<pdfrwt beam="2">  1       -2 0.27666951E-01 0.15074501E+04</pdfrwt>
<totfact> 0.16013310E+01</totfact>
</mgrwt>
</event>
<event>
12    1  0.1532786E-007  0.1209142E+04  0.7818608E-02  0.9104892E-01
         -4   -1    0    0    0  501 -0.00000000000E+00  0.00000000000E+00  0.32677367760E+03  0.32677367760E+03  0.00000000000E+00 0.  1.
          4   -1    0    0  501    0  0.00000000000E+00 -0.00000000000E+00 -0.11185296727E+04  0.11185296727E+04  0.00000000000E+00 0. -1.
         23    2    1    2    0    0 -0.60421492758E+02 -0.48137145681E+02  0.11269737779E+03  0.16444936567E+03  0.91514771090E+02 0.  0.
        254    2    1    2    0    0  0.60421492758E+02  0.48137145681E+02 -0.90445337291E+03  0.12808539847E+04  0.90364986840E+03 0.  0.
        -24    2    4    4    0    0 -0.27137267488E+03  0.34831299581E+03 -0.50843301200E+03  0.67803722690E+03  0.79153532168E+02 0.  0.
         24    2    4    4    0    0  0.33179416764E+03 -0.30017585012E+03 -0.39602036091E+03  0.60281675776E+03  0.79768455535E+02 0.  0.
         13    1    3    3    0    0 -0.64879281808E+02 -0.36514634074E+02  0.29106009161E+02  0.79936221319E+02  0.00000000000E+00 0. -1.
        -13    1    3    3    0    0  0.44577890504E+01 -0.11622511608E+02  0.83591368625E+02  0.84513144350E+02  0.00000000000E+00 0.  1.
          2    1    6    6  502    0  0.21381332193E+02 -0.41612867955E+00 -0.91355170226E+01  0.23254939275E+02  0.00000000000E+00 0. -1.
          1    1    5    5  503    0 -0.22976425850E+03  0.24850735640E+03 -0.35666665937E+03  0.49168956321E+03  0.00000000000E+00 0. -1.
         -2    1    5    5    0  503 -0.41608416382E+02  0.99805639405E+02 -0.15176635263E+03  0.18634766369E+03  0.00000000000E+00 0.  1.
         -1    1    6    6    0  502  0.31041283544E+03 -0.29975972144E+03 -0.38688484389E+03  0.57956181848E+03  0.00000000000E+00 0.  1.
<mgrwt>
<rscale>  0 0.12091419E+04</rscale>
<asrwt>0</asrwt>
<pdfrwt beam="1">  1        4 0.17208149E+00 0.12091419E+04</pdfrwt>
<pdfrwt beam="2">  1       -4 0.50272873E-01 0.12091419E+04</pdfrwt>
<totfact> 0.15346656E+00</totfact>
</mgrwt>
</event>
<event>
12    1  0.1532786E-007  0.2831401E+04  0.7818608E-02  0.8293585E-01
          1   -1    0    0  501    0  0.00000000000E+00  0.00000000000E+00  0.38172230803E+04  0.38172230803E+04  0.00000000000E+00 0. -1.
         -1   -1    0    0    0  501 -0.00000000000E+00 -0.00000000000E+00 -0.52504356415E+03  0.52504356415E+03  0.00000000000E+00 0.  1.
         23    2    1    2    0    0 -0.78896675853E+03  0.10003570379E+03  0.29968332274E+04  0.31018905098E+04  0.90772537572E+02 0.  0.
        254    2    1    2    0    0  0.78896675853E+03 -0.10003570379E+03  0.29534628880E+03  0.12403761347E+04  0.90489106374E+03 0.  0.
        -24    2    4    4    0    0  0.60339855441E+03  0.34851480480E+03  0.25846202990E+03  0.74674781731E+03  0.72645007617E+02 0.  0.
         24    2    4    4    0    0  0.18556820413E+03 -0.44855050860E+03  0.36884258897E+02  0.49362831743E+03  0.81702815571E+02 0.  0.
         11    1    3    3    0    0 -0.77189037837E+03  0.10974252002E+03  0.28929864742E+04  0.29962024158E+04  0.00000000000E+00 0. -1.
        -11    1    3    3    0    0 -0.17076380158E+02 -0.97068162302E+01  0.10384675323E+03  0.10568809392E+03  0.00000000000E+00 0.  1.
          4    1    6    6  502    0  0.10149143639E+03 -0.32373159466E+03  0.48357804670E+02  0.34269685483E+03  0.00000000000E+00 0. -1.
          1    1    5    5  503    0  0.43792616170E+03  0.28403296762E+03  0.21027626203E+03  0.56273453437E+03  0.00000000000E+00 0. -1.
         -2    1    5    5    0  503  0.16547239271E+03  0.64481837184E+02  0.48185767873E+02  0.18401328295E+03  0.00000000000E+00 0.  1.
         -3    1    6    6    0  502  0.84076767735E+02 -0.12481891394E+03 -0.11473545772E+02  0.15093146260E+03  0.00000000000E+00 0.  1.
<mgrwt>
<rscale>  0 0.28314014E+04</rscale>
<asrwt>0</asrwt>
<pdfrwt beam="1">  1        1 0.58726507E+00 0.28314014E+04</pdfrwt>
<pdfrwt beam="2">  1       -1 0.80775935E-01 0.28314014E+04</pdfrwt>
<totfact> 0.18185799E-01</totfact>
</mgrwt>
</event>
<event>
12    1  0.1532786E-007  0.3260755E+04  0.7818608E-02  0.8172954E-01
          2   -1    0    0  501    0  0.00000000000E+00  0.00000000000E+00  0.23833826593E+04  0.23833826593E+04  0.00000000000E+00 0.  1.
         -2   -1    0    0    0  501 -0.00000000000E+00 -0.00000000000E+00 -0.11152766226E+04  0.11152766226E+04  0.00000000000E+00 0. -1.
         23    2    1    2    0    0  0.75157772332E+03  0.12239366543E+04  0.10293979561E+03  0.14428367049E+04  0.91055738688E+02 0.  0.
        254    2    1    2    0    0 -0.75157772332E+03 -0.12239366543E+04  0.11651662410E+04  0.20558225771E+04  0.89772161125E+03 0.  0.
        -24    2    4    4    0    0 -0.43487125827E+03 -0.12531805618E+04  0.75140808592E+03  0.15268433773E+04  0.84036035872E+02 0.  0.
         24    2    4    4    0    0 -0.31670646505E+03  0.29243907579E+02  0.41375815510E+03  0.52897919978E+03  0.86400183738E+02 0.  0.
         11    1    3    3    0    0  0.65112569968E+03  0.11001766966E+04  0.11106376678E+03  0.12832336501E+04  0.00000000000E+00 0.  1.
        -11    1    3    3    0    0  0.10045202364E+03  0.12375995766E+03 -0.81239711781E+01  0.15960305473E+03  0.00000000000E+00 0. -1.
          2    1    6    6  502    0 -0.26240785169E+03  0.33616808988E+02  0.28336437955E+03  0.38766395509E+03  0.00000000000E+00 0. -1.
          3    1    5    5  503    0 -0.42475119874E+03 -0.11606549366E+04  0.70431570341E+03  0.14225308688E+04  0.00000000000E+00 0. -1.
         -4    1    5    5    0  503 -0.10120059537E+02 -0.92525625244E+02  0.47092382503E+02  0.10431250846E+03  0.00000000000E+00 0.  1.
         -1    1    6    6    0  502 -0.54298613356E+02 -0.43729014089E+01  0.13039377555E+03  0.14131524469E+03  0.00000000000E+00 0.  1.
<mgrwt>
<rscale>  0 0.32607551E+04</rscale>
<asrwt>0</asrwt>
<pdfrwt beam="1">  1        2 0.36667426E+00 0.32607551E+04</pdfrwt>
<pdfrwt beam="2">  1       -2 0.17158102E+00 0.32607551E+04</pdfrwt>
<totfact> 0.70709548E-01</totfact>
</mgrwt>
</event>
<event>
12    1  0.1532786E-007  0.1507350E+04  0.7818608E-02  0.8879580E-01
          1   -1    0    0  501    0  0.00000000000E+00  0.00000000000E+00  0.10112880143E+04  0.10112880143E+04  0.00000000000E+00 0. -1.
         -1   -1    0    0    0  501 -0.00000000000E+00 -0.00000000000E+00 -0.56168565978E+03  0.56168565978E+03  0.00000000000E+00 0.  1.
         23    2    1    2    0    0  0.13960490451E+03  0.17454344505E+02  0.60640906795E+03  0.62936945388E+03  0.92627038633E+02 0.  0.
        254    2    1    2    0    0 -0.13960490451E+03 -0.17454344505E+02 -0.15680671347E+03  0.94360422015E+03  0.91978605958E+03 0.  0.
        -24    2    4    4    0    0 -0.33499450272E+03 -0.37574447156E+03 -0.13442808509E+03  0.52720908663E+03  0.80456734972E+02 0.  0.
         24    2    4    4    0    0  0.19538959821E+03  0.35829012706E+03 -0.22378628381E+02  0.41639513352E+03  0.79593931773E+02 0.  0.
         11    1    3    3    0    0  0.22379677409E+02  0.32097716234E+02  0.26999386560E+03  0.27281459054E+03  0.00000000000E+00 0.  1.
        -11    1    3    3    0    0  0.11722522710E+03 -0.14643371729E+02  0.33641520235E+03  0.35655486335E+03  0.00000000000E+00 0. -1.
          2    1    6    6  502    0  0.20113562535E+01  0.30546746893E+02 -0.18630661084E+02  0.35836445585E+02  0.00000000000E+00 0. -1.
          1    1    5    5  503    0 -0.18774112189E+03 -0.17351365897E+03 -0.10079376611E+03  0.27479647375E+03  0.00000000000E+00 0. -1.
         -2    1    5    5    0  503 -0.14725338083E+03 -0.20223081260E+03 -0.33634318974E+02  0.25241261288E+03  0.00000000000E+00 0.  1.
         -1    1    6    6    0  502  0.19337824196E+03  0.32774338017E+03 -0.37479672964E+01  0.38055868794E+03  0.00000000000E+00 0.  1.
<mgrwt>
<rscale>  0 0.15073500E+04</rscale>
<asrwt>0</asrwt>
<pdfrwt beam="1">  1        1 0.15558277E+00 0.15073500E+04</pdfrwt>
<pdfrwt beam="2">  1       -1 0.86413179E-01 0.15073500E+04</pdfrwt>
<totfact> 0.18937411E+01</totfact>
</mgrwt>
</event>
<event>
12    1  0.1532786E-007  0.1828401E+04  0.7818608E-02  0.8691340E-01
         -2   -1    0    0    0  501 -0.00000000000E+00  0.00000000000E+00  0.13046775659E+04  0.13046775659E+04  0.00000000000E+00 0.  1.
          2   -1    0    0  501    0  0.00000000000E+00 -0.00000000000E+00 -0.64058957433E+03  0.64058957433E+03  0.00000000000E+00 0. -1.
         23    2    1    2    0    0 -0.20958052032E+03 -0.16396490295E+03  0.97147485727E+03  0.10113270696E+04  0.90612137360E+02 0.  0.
        254    2    1    2    0    0  0.20958052032E+03  0.16396490295E+03 -0.30738686572E+03  0.93394007065E+03  0.84080252523E+03 0.  0.
        -24    2    4    4    0    0  0.25044949442E+03  0.47979696996E+03 -0.13684141148E+03  0.56394442112E+03  0.79860231525E+02 0.  0.
         24    2    4    4    0    0 -0.40868974094E+02 -0.31583206700E+03 -0.17054545424E+03  0.36999564953E+03  0.79942861585E+02 0.  0.
         11    1    3    3    0    0 -0.21720377757E+02 -0.64910661232E+02  0.21790615317E+03  0.22840372226E+03  0.00000000000E+00 0. -1.
        -11    1    3    3    0    0 -0.18786014257E+03 -0.99054241722E+02  0.75356870410E+03  0.78292334731E+03  0.00000000000E+00 0.  1.
          2    1    6    6  502    0 -0.48657977071E+02 -0.31524777939E+03 -0.15996363539E+03  0.35684327903E+03  0.00000000000E+00 0. -1.
          3    1    5    5  503    0  0.24449656532E+03  0.41384660707E+03 -0.11528762734E+03  0.49430640462E+03  0.00000000000E+00 0. -1.
         -4    1    5    5    0  503  0.59529290939E+01  0.65950362891E+02 -0.21553784140E+02  0.69638016492E+02  0.00000000000E+00 0.  1.
         -1    1    6    6    0  502  0.77890029776E+01 -0.58428760862E+00 -0.10581818856E+02  0.13152370497E+02  0.00000000000E+00 0.  1.
<mgrwt>
<rscale>  0 0.18284013E+04</rscale>
<asrwt>0</asrwt>
<pdfrwt beam="1">  1        2 0.98552243E-01 0.18284013E+04</pdfrwt>
<pdfrwt beam="2">  1       -2 0.20071962E+00 0.18284013E+04</pdfrwt>
<totfact> 0.56687714E+00</totfact>
</mgrwt>
</event>
<event>
12    1  0.1532786E-007  0.1273469E+04  0.7818608E-02  0.9050873E-01
          2   -1    0    0  501    0  0.00000000000E+00  0.00000000000E+00  0.29452817203E+03  0.29452817203E+03  0.00000000000E+00 0. -1.
         -2   -1    0    0    0  501 -0.00000000000E+00 -0.00000000000E+00 -0.13765431044E+04  0.13765431044E+04  0.00000000000E+00 0.  1.
         23    2    1    2    0    0  0.17018442327E+03  0.60957565659E+02  0.55078888504E+02  0.20918192503E+03  0.89692982254E+02 0.  0.
        254    2    1    2    0    0 -0.17018442327E+03 -0.60957565659E+02 -0.11370938208E+04  0.14618893514E+04  0.90081049921E+03 0.  0.
        -24    2    4    4    0    0 -0.46819789355E+03  0.19800589628E+03 -0.59246001863E+03  0.78464768788E+03  0.79041241926E+02 0.  0.
         24    2    4    4    0    0  0.29801347028E+03 -0.25896346194E+03 -0.54463380221E+03  0.67724166348E+03  0.78461386449E+02 0.  0.
         13    1    3    3    0    0  0.20778734475E+02  0.44713657514E+02  0.27269709425E+02  0.56344511949E+02  0.00000000000E+00 0.  1.
        -13    1    3    3    0    0  0.14940568880E+03  0.16243908144E+02  0.27809179079E+02  0.15283741308E+03  0.00000000000E+00 0. -1.
          4    1    6    6  502    0  0.20278201734E+03 -0.20940814977E+03 -0.35515433101E+03  0.45946372934E+03  0.00000000000E+00 0. -1.
          1    1    5    5  503    0 -0.45681923621E+03  0.17636510434E+03 -0.56987620034E+03  0.75136365917E+03  0.00000000000E+00 0. -1.
         -2    1    5    5    0  503 -0.11378657340E+02  0.21640791936E+02 -0.22583818290E+02  0.33284028709E+02  0.00000000000E+00 0.  1.
         -1    1    6    6    0  502  0.95231452937E+02 -0.49555312169E+02 -0.18947947120E+03  0.21777793414E+03  0.00000000000E+00 0.  1.
<mgrwt>
<rscale>  0 0.12734688E+04</rscale>
<asrwt>0</asrwt>
<pdfrwt beam="1">  1        2 0.45312027E-01 0.12734688E+04</pdfrwt>
<pdfrwt beam="2">  1       -2 0.21177586E+00 0.12734688E+04</pdfrwt>
<totfact> 0.12269686E+01</totfact>
</mgrwt>
</event>
<event>
12    1  0.1532786E-007  0.1533283E+04  0.7818608E-02  0.8862617E-01
         -1   -1    0    0    0  501 -0.00000000000E+00  0.00000000000E+00  0.66499501012E+03  0.66499501012E+03  0.00000000000E+00 0.  1.
          1   -1    0    0  501    0  0.00000000000E+00 -0.00000000000E+00 -0.88382495984E+03  0.88382495984E+03  0.00000000000E+00 0. -1.
         23    2    1    2    0    0  0.25483210998E+03  0.36492343066E+02  0.34471770014E+03  0.43970378888E+03  0.90763614901E+02 0.  0.
        254    2    1    2    0    0 -0.25483210998E+03 -0.36492343066E+02 -0.56354764986E+03  0.11091161811E+04  0.91993567932E+03 0.  0.
        -24    2    4    4    0    0 -0.48933530280E+03  0.18641385307E+03 -0.10105966675E+03  0.53932094259E+03  0.80342141408E+02 0.  0.
         24    2    4    4    0    0  0.23450319282E+03 -0.22290619613E+03 -0.46248798311E+03  0.56979523849E+03  0.78054849745E+02 0.  0.
         13    1    3    3    0    0 -0.36360541289E+01 -0.38036229745E+00  0.32514917795E+02  0.32719802021E+02  0.00000000000E+00 0. -1.
        -13    1    3    3    0    0  0.25846816411E+03  0.36872705363E+02  0.31220278234E+03  0.40698398686E+03  0.00000000000E+00 0.  1.
          2    1    6    6  502    0  0.19747415873E+03 -0.21005663639E+03 -0.36790005984E+03  0.46740805287E+03  0.00000000000E+00 0. -1.
          3    1    5    5  503    0 -0.46171207947E+03  0.15304366185E+03 -0.94418244179E+02  0.49549491581E+03  0.00000000000E+00 0. -1.
         -2    1    5    5    0  503 -0.27623223330E+02  0.33370191218E+02 -0.66414225735E+01  0.43826026775E+02  0.00000000000E+00 0.  1.
         -1    1    6    6    0  502  0.37029034089E+02 -0.12849559748E+02 -0.94587923267E+02  0.10238718562E+03  0.00000000000E+00 0.  1.
<mgrwt>
<rscale>  0 0.15332830E+04</rscale>
<asrwt>0</asrwt>
<pdfrwt beam="1">  1        1 0.13597307E+00 0.15332830E+04</pdfrwt>
<pdfrwt beam="2">  1       -1 0.10230693E+00 0.15332830E+04</pdfrwt>
<totfact> 0.16376189E+01</totfact>
</mgrwt>
</event>
<event>
12    1  0.1532786E-007  0.1658353E+04  0.7818608E-02  0.8785480E-01
          2   -1    0    0  501    0  0.00000000000E+00  0.00000000000E+00  0.86999710415E+03  0.86999710415E+03  0.00000000000E+00 0. -1.
         -2   -1    0    0    0  501 -0.00000000000E+00 -0.00000000000E+00 -0.79027159106E+03  0.79027159106E+03  0.00000000000E+00 0.  1.
         23    2    1    2    0    0  0.82177061455E+02 -0.80818801613E+02 -0.52322182243E+03  0.54299620860E+03  0.88312280935E+02 0.  0.
        254    2    1    2    0    0 -0.82177061455E+02  0.80818801613E+02  0.60294733552E+03  0.11172724866E+04  0.93352427488E+03 0.  0.
        -24    2    4    4    0    0  0.13620030441E+03 -0.38526365486E+03  0.31793208954E+03  0.52372195975E+03  0.78900385840E+02 0.  0.
         24    2    4    4    0    0 -0.21837736587E+03  0.46608245647E+03  0.28501524598E+03  0.59355052686E+03  0.78402852887E+02 0.  0.
         13    1    3    3    0    0  0.61557079149E+02 -0.17196721397E+02 -0.37468333555E+03  0.38009551846E+03  0.00000000000E+00 0.  1.
        -13    1    3    3    0    0  0.20619982305E+02 -0.63622080215E+02 -0.14853848688E+03  0.16290069014E+03  0.00000000000E+00 0. -1.
          2    1    6    6  502    0 -0.31308825336E+02  0.14852768546E+03  0.74175290001E+02  0.16894581836E+03  0.00000000000E+00 0. -1.
          3    1    5    5  503    0 -0.51375449749E+01 -0.44819687564E+02  0.53964999756E+02  0.70337898464E+02  0.00000000000E+00 0. -1.
         -4    1    5    5    0  503  0.14133784939E+03 -0.34044396729E+03  0.26396708978E+03  0.45338406128E+03  0.00000000000E+00 0.  1.
         -1    1    6    6    0  502 -0.18706854053E+03  0.31755477100E+03  0.21083995598E+03  0.42460470850E+03  0.00000000000E+00 0.  1.
<mgrwt>
<rscale>  0 0.16583534E+04</rscale>
<asrwt>0</asrwt>
<pdfrwt beam="1">  1        2 0.13384571E+00 0.16583534E+04</pdfrwt>
<pdfrwt beam="2">  1       -2 0.12158025E+00 0.16583534E+04</pdfrwt>
<totfact> 0.15082220E+01</totfact>
</mgrwt>
</event>
<event>
12    1  0.1532786E-007  0.1639301E+04  0.7818608E-02  0.8796761E-01
          2   -1    0    0  501    0  0.00000000000E+00  0.00000000000E+00  0.90251243917E+03  0.90251243917E+03  0.00000000000E+00 0. -1.
         -2   -1    0    0    0  501 -0.00000000000E+00 -0.00000000000E+00 -0.74439665189E+03  0.74439665189E+03  0.00000000000E+00 0.  1.
         23    2    1    2    0    0  0.10077972922E+03  0.40480471940E+03 -0.31684205676E+03  0.53168155806E+03  0.90955899068E+02 0.  0.
        254    2    1    2    0    0 -0.10077972922E+03 -0.40480471940E+03  0.47495784404E+03  0.11152275330E+04  0.91876225548E+03 0.  0.
        -24    2    4    4    0    0  0.32899064732E+03  0.69395267176E+02  0.64585490760E+02  0.35042499936E+03  0.74671583822E+02 0.  0.
         24    2    4    4    0    0 -0.42977037654E+03 -0.47419998658E+03  0.41037235328E+03  0.76480253365E+03  0.83362121590E+02 0.  0.
         13    1    3    3    0    0  0.92387266876E+02  0.18400145220E+03 -0.15875272376E+03  0.25998917053E+03  0.00000000000E+00 0. -1.
        -13    1    3    3    0    0  0.83924623460E+01  0.22080326720E+03 -0.15808933300E+03  0.27169238753E+03  0.00000000000E+00 0.  1.
          4    1    6    6  502    0 -0.23220470868E+03 -0.20610060917E+03  0.16894157091E+03  0.35346533382E+03  0.00000000000E+00 0. -1.
          1    1    5    5  503    0  0.19222171538E+03  0.36635373020E+01  0.27489405342E+02  0.19421193778E+03  0.00000000000E+00 0. -1.
         -2    1    5    5    0  503  0.13676893194E+03  0.65731729874E+02  0.37096085418E+02  0.15621306158E+03  0.00000000000E+00 0.  1.
         -3    1    6    6    0  502 -0.19756566786E+03 -0.26809937741E+03  0.24143078237E+03  0.41133719982E+03  0.00000000000E+00 0.  1.
<mgrwt>
<rscale>  0 0.16393014E+04</rscale>
<asrwt>0</asrwt>
<pdfrwt beam="1">  1        2 0.13884807E+00 0.16393014E+04</pdfrwt>
<pdfrwt beam="2">  1       -2 0.11452256E+00 0.16393014E+04</pdfrwt>
<totfact> 0.16634067E+01</totfact>
</mgrwt>
</event>
<event>
12    1  0.1532786E-007  0.1199405E+04  0.7818608E-02  0.9113378E-01
          2   -1    0    0  501    0  0.00000000000E+00  0.00000000000E+00  0.24168998687E+04  0.24168998687E+04  0.00000000000E+00 0. -1.
         -2   -1    0    0    0  501 -0.00000000000E+00 -0.00000000000E+00 -0.14880335696E+03  0.14880335696E+03  0.00000000000E+00 0.  1.
         23    2    1    2    0    0 -0.84956950728E+02 -0.16989342100E+03  0.79309479947E+03  0.82062521093E+03  0.91350522180E+02 0.  0.
        254    2    1    2    0    0  0.84956950728E+02  0.16989342100E+03  0.14750017123E+04  0.17450780148E+04  0.91300918305E+03 0.  0.
        -24    2    4    4    0    0 -0.20242022165E+03  0.43761953546E+03  0.54303617251E+03  0.73055235703E+03  0.79584280881E+02 0.  0.
         24    2    4    4    0    0  0.28737717237E+03 -0.26772611446E+03  0.93196553980E+03  0.10145256577E+04  0.80247313207E+02 0.  0.
         11    1    3    3    0    0 -0.80699774759E+01 -0.11007945233E+03  0.35187786662E+03  0.36878265059E+03  0.00000000000E+00 0.  1.
        -11    1    3    3    0    0 -0.76886973252E+02 -0.59813968670E+02  0.44121693285E+03  0.45184256034E+03  0.00000000000E+00 0. -1.
          2    1    6    6  502    0  0.24264137949E+03 -0.25611736682E+03  0.78930537726E+03  0.86456574256E+03  0.00000000000E+00 0. -1.
          3    1    5    5  503    0 -0.16649214081E+03  0.37868674438E+03  0.42020347176E+03  0.58965603617E+03  0.00000000000E+00 0. -1.
         -4    1    5    5    0  503 -0.35928080837E+02  0.58932791080E+02  0.12283270075E+03  0.14089632086E+03  0.00000000000E+00 0.  1.
         -1    1    6    6    0  502  0.44735792879E+02 -0.11608747633E+02  0.14266016254E+03  0.14995991518E+03  0.00000000000E+00 0.  1.
<mgrwt>
<rscale>  0 0.11994045E+04</rscale>
<asrwt>0</asrwt>
<pdfrwt beam="1">  1        2 0.37183072E+00 0.11994045E+04</pdfrwt>
<pdfrwt beam="2">  1       -2 0.22892826E-01 0.11994045E+04</pdfrwt>
<totfact> 0.64858130E+01</totfact>
</mgrwt>
</event>
<event>
12    1  0.1532786E-007  0.1103172E+04  0.7818608E-02  0.9202106E-01
          1   -1    0    0  501    0  0.00000000000E+00  0.00000000000E+00  0.84232164314E+03  0.84232164314E+03  0.00000000000E+00 0. -1.
         -1   -1    0    0    0  501 -0.00000000000E+00 -0.00000000000E+00 -0.36120066763E+03  0.36120066763E+03  0.00000000000E+00 0.  1.
         23    2    1    2    0    0 -0.10780553811E+03  0.10068749727E+03  0.16483141623E+03  0.23918685500E+03  0.90999723497E+02 0.  0.
        254    2    1    2    0    0  0.10780553811E+03 -0.10068749727E+03  0.31628955928E+03  0.96433545577E+03  0.89896817507E+03 0.  0.
        -24    2    4    4    0    0  0.14523547940E+03 -0.45702478911E+03  0.34445697586E+03  0.59575291364E+03  0.79409845441E+02 0.  0.
         24    2    4    4    0    0 -0.37429941294E+02  0.35633729184E+03 -0.28167416576E+02  0.36858254214E+03  0.81746076064E+02 0.  0.
         13    1    3    3    0    0 -0.44554189482E+02  0.83149344978E+02  0.14040334950E+03  0.16915079049E+03  0.00000000000E+00 0. -1.
        -13    1    3    3    0    0 -0.63251348625E+02  0.17538152292E+02  0.24428066723E+02  0.70036064513E+02  0.00000000000E+00 0.  1.
          2    1    6    6  502    0  0.19507395541E+02  0.14915046789E+03 -0.31523272983E+02  0.15368837722E+03  0.00000000000E+00 0. -1.
          1    1    5    5  503    0  0.25096264026E+02 -0.20028909645E+03  0.12687179812E+03  0.23841559887E+03  0.00000000000E+00 0. -1.
         -2    1    5    5    0  503  0.12013921537E+03 -0.25673569266E+03  0.21758517774E+03  0.35733731477E+03  0.00000000000E+00 0.  1.
         -1    1    6    6    0  502 -0.56937336835E+02  0.20718682395E+03  0.33558564070E+01  0.21489416492E+03  0.00000000000E+00 0.  1.
<mgrwt>
<rscale>  0 0.11031720E+04</rscale>
<asrwt>0</asrwt>
<pdfrwt beam="1">  1        1 0.12958794E+00 0.11031720E+04</pdfrwt>
<pdfrwt beam="2">  1       -1 0.55569334E-01 0.11031720E+04</pdfrwt>
<totfact> 0.66322698E+01</totfact>
</mgrwt>
</event>
<event>
12    1  0.1532786E-007  0.1379826E+04  0.7818608E-02  0.8968553E-01
         -2   -1    0    0    0  501 -0.00000000000E+00  0.00000000000E+00  0.22714726959E+03  0.22714726959E+03  0.00000000000E+00 0. -1.
          2   -1    0    0  501    0  0.00000000000E+00 -0.00000000000E+00 -0.20954669912E+04  0.20954669912E+04  0.00000000000E+00 0.  1.
         23    2    1    2    0    0 -0.18453015362E+03 -0.31438098706E+03 -0.39432070117E+03  0.54681873881E+03  0.10312679151E+03 0.  0.
        254    2    1    2    0    0  0.18453015362E+03  0.31438098706E+03 -0.14739990204E+04  0.17757955220E+04  0.92080934021E+03 0.  0.
        -24    2    4    4    0    0  0.13786262637E+03 -0.20302258157E+03 -0.11026045460E+04  0.11324115984E+04  0.79968562949E+02 0.  0.
         24    2    4    4    0    0  0.46667527249E+02  0.51740356863E+03 -0.37139447447E+03  0.64338392356E+03  0.78260504125E+02 0.  0.
         13    1    3    3    0    0  0.53481360871E+01 -0.33533603268E+02 -0.69300586352E+02  0.77173028815E+02  0.00000000000E+00 0. -1.
        -13    1    3    3    0    0 -0.18987828970E+03 -0.28084738379E+03 -0.32502011482E+03  0.46964571000E+03  0.00000000000E+00 0.  1.
          4    1    6    6  502    0  0.57491163327E+02  0.24393387232E+03 -0.19801008498E+03  0.31940094189E+03  0.00000000000E+00 0. -1.
          1    1    5    5  503    0  0.47130519119E+02 -0.12571456950E+03 -0.68966552638E+03  0.70261225231E+03  0.00000000000E+00 0. -1.
         -2    1    5    5    0  503  0.90732107247E+02 -0.77308012066E+02 -0.41293901960E+03  0.42979934612E+03  0.00000000000E+00 0.  1.
         -3    1    6    6    0  502 -0.10823636078E+02  0.27346969630E+03 -0.17338438949E+03  0.32398298167E+03  0.00000000000E+00 0.  1.
<mgrwt>
<rscale>  0 0.13798255E+04</rscale>
<asrwt>0</asrwt>
<pdfrwt beam="1">  1        2 0.32237956E+00 0.13798255E+04</pdfrwt>
<pdfrwt beam="2">  1       -2 0.34945732E-01 0.13798255E+04</pdfrwt>
<totfact> 0.44311870E+01</totfact>
</mgrwt>
</event>
<event>
12    1  0.1532786E-007  0.1746476E+04  0.7818608E-02  0.8735292E-01
          2   -1    0    0  501    0  0.00000000000E+00  0.00000000000E+00  0.11532095903E+04  0.11532095903E+04  0.00000000000E+00 0.  1.
         -2   -1    0    0    0  501 -0.00000000000E+00 -0.00000000000E+00 -0.66123700599E+03  0.66123700599E+03  0.00000000000E+00 0. -1.
         23    2    1    2    0    0  0.33855632861E+03  0.34924863890E+03  0.60920957679E+03  0.78872395765E+03  0.11980890410E+03 0.  0.
        254    2    1    2    0    0 -0.33855632861E+03 -0.34924863890E+03 -0.11723699248E+03  0.10257226387E+04  0.89541466351E+03 0.  0.
        -24    2    4    4    0    0 -0.31733756365E+03 -0.37454512316E+02  0.33479706164E+03  0.47022509446E+03  0.83166081947E+02 0.  0.
         24    2    4    4    0    0 -0.21218764962E+02 -0.31179412658E+03 -0.45203405412E+03  0.55549754419E+03  0.81098225412E+02 0.  0.
         13    1    3    3    0    0  0.97182761430E+02  0.10765933271E+03  0.27495046587E+03  0.31085813439E+03  0.00000000000E+00 0. -1.
        -13    1    3    3    0    0  0.24137356718E+03  0.24158930619E+03  0.33425911092E+03  0.47786582325E+03  0.00000000000E+00 0.  1.
          2    1    6    6  502    0 -0.48617547981E+02 -0.17056909565E+03 -0.22149605977E+03  0.28375691508E+03  0.00000000000E+00 0. -1.
          1    1    5    5  503    0 -0.28430489667E+03 -0.36819968359E+02  0.32951516534E+03  0.43676678963E+03  0.00000000000E+00 0. -1.
         -2    1    5    5    0  503 -0.33032666973E+02 -0.63454395609E+00  0.52818963048E+01  0.33458304828E+02  0.00000000000E+00 0.  1.
         -1    1    6    6    0  502  0.27398783019E+02 -0.14122503093E+03 -0.23053799434E+03  0.27174062911E+03  0.00000000000E+00 0.  1.
<mgrwt>
<rscale>  0 0.17464763E+04</rscale>
<asrwt>0</asrwt>
<pdfrwt beam="1">  1        2 0.17741686E+00 0.17464763E+04</pdfrwt>
<pdfrwt beam="2">  1       -2 0.10172877E+00 0.17464763E+04</pdfrwt>
<totfact> 0.15197710E+01</totfact>
</mgrwt>
</event>
<event>
12    1  0.1532786E-007  0.1472920E+04  0.7818608E-02  0.8902663E-01
          1   -1    0    0  501    0  0.00000000000E+00  0.00000000000E+00  0.24941084819E+04  0.24941084819E+04  0.00000000000E+00 0. -1.
         -1   -1    0    0    0  501 -0.00000000000E+00 -0.00000000000E+00 -0.21746188637E+03  0.21746188637E+03  0.00000000000E+00 0.  1.
         23    2    1    2    0    0  0.14068897796E+03  0.16451531550E+03 -0.18791336012E+02  0.23661269990E+03  0.93668446616E+02 0.  0.
        254    2    1    2    0    0 -0.14068897796E+03 -0.16451531550E+03  0.22954379316E+04  0.24749576684E+04  0.89973411909E+03 0.  0.
        -24    2    4    4    0    0  0.70654923316E+02  0.28298490676E+03  0.33426869258E+03  0.45076358226E+03  0.79872852749E+02 0.  0.
         24    2    4    4    0    0 -0.21134390128E+03 -0.44750022227E+03  0.19611692390E+04  0.20241940861E+04  0.79083631847E+02 0.  0.
         11    1    3    3    0    0  0.96384906371E+02  0.98397490781E+02  0.33024156611E+02  0.14164290059E+03  0.00000000000E+00 0. -1.
        -11    1    3    3    0    0  0.44304071590E+02  0.66117824722E+02 -0.51815492623E+02  0.94969799311E+02  0.00000000000E+00 0.  1.
          4    1    6    6  502    0 -0.15486501378E+03 -0.31916616710E+03  0.15386863189E+04  0.15790521849E+04  0.00000000000E+00 0. -1.
          1    1    5    5  503    0  0.50033561721E+02  0.59033107005E+02  0.79924995104E+02  0.11124868477E+03  0.00000000000E+00 0. -1.
         -2    1    5    5    0  503  0.20621361595E+02  0.22395179976E+03  0.25434369748E+03  0.33951489749E+03  0.00000000000E+00 0.  1.
         -3    1    6    6    0  502 -0.56478887498E+02 -0.12833405517E+03  0.42248292006E+03  0.44514190118E+03  0.00000000000E+00 0.  1.
<mgrwt>
<rscale>  0 0.14729203E+04</rscale>
<asrwt>0</asrwt>
<pdfrwt beam="1">  1        1 0.38370898E+00 0.14729203E+04</pdfrwt>
<pdfrwt beam="2">  1       -1 0.33455677E-01 0.14729203E+04</pdfrwt>
<totfact> 0.11184756E+01</totfact>
</mgrwt>
</event>
<event>
12    1  0.1812752E-007  0.1659207E+04  0.7818608E-02  0.8784978E-01
          2   -1    0    0  501    0  0.00000000000E+00  0.00000000000E+00  0.20447395322E+04  0.20447395322E+04  0.00000000000E+00 0. -1.
         -2   -1    0    0    0  501 -0.00000000000E+00 -0.00000000000E+00 -0.33659148396E+03  0.33659148396E+03  0.00000000000E+00 0.  1.
         23    2    1    2    0    0 -0.30562669962E+03 -0.31584596058E+03  0.11627030113E+04  0.12462478862E+04  0.89939707349E+02 0.  0.
        254    2    1    2    0    0  0.30562669962E+03  0.31584596058E+03  0.54544503693E+03  0.11350831300E+04  0.89316128070E+03 0.  0.
        -24    2    4    4    0    0  0.24291109666E+03  0.59053358414E+03  0.54403851682E+03  0.84274801508E+03  0.80688253548E+02 0.  0.
         24    2    4    4    0    0  0.62715602953E+02 -0.27468762357E+03  0.14065201163E+01  0.29233511491E+03  0.77918571052E+02 0.  0.
         13    1    3    3    0    0 -0.29308813440E+03 -0.31809197343E+03  0.10945074208E+04  0.11768728276E+04  0.00000000000E+00 0. -1.
        -13    1    3    3    0    0 -0.12538565215E+02  0.22460128548E+01  0.68195590521E+02  0.69375058615E+02  0.00000000000E+00 0.  1.
          2    1    6    6  502    0  0.49559893393E+02 -0.26292937562E+03  0.17932900629E+02  0.26815970712E+03  0.00000000000E+00 0. -1.
          3    1    5    5  503    0  0.23065684244E+03  0.56489906399E+03  0.49347809718E+03  0.78475102029E+03  0.00000000000E+00 0. -1.
         -4    1    5    5    0  503  0.12254254227E+02  0.25634520151E+02  0.50560419640E+02  0.57996994786E+02  0.00000000000E+00 0.  1.
         -1    1    6    6    0  502  0.13155709561E+02 -0.11758247942E+02 -0.16526380513E+02  0.24175407785E+02  0.00000000000E+00 0.  1.
<mgrwt>
<rscale>  0 0.16592069E+04</rscale>
<asrwt>0</asrwt>
<pdfrwt beam="1">  1        2 0.31457531E+00 0.16592069E+04</pdfrwt>
<pdfrwt beam="2">  1       -2 0.51783306E-01 0.16592069E+04</pdfrwt>
<totfact> 0.21213862E+01</totfact>
</mgrwt>
</event>
<event>
12    1  0.1532786E-007  0.1075463E+04  0.7818608E-02  0.9229442E-01
         -1   -1    0    0    0  501 -0.00000000000E+00  0.00000000000E+00  0.18670610099E+03  0.18670610099E+03  0.00000000000E+00 0.  1.
          1   -1    0    0  501    0  0.00000000000E+00 -0.00000000000E+00 -0.15487193895E+04  0.15487193895E+04  0.00000000000E+00 0. -1.
         23    2    1    2    0    0 -0.96661570857E+02 -0.80838339769E+02 -0.16375151556E+03  0.22617261650E+03  0.91984765854E+02 0.  0.
        254    2    1    2    0    0  0.96661570857E+02  0.80838339769E+02 -0.11982617729E+04  0.15092528739E+04  0.90891950393E+03 0.  0.
        -24    2    4    4    0    0 -0.23018156731E+03  0.38229727132E+03 -0.72560730837E+03  0.85554982658E+03  0.79528499359E+02 0.  0.
         24    2    4    4    0    0  0.32684313816E+03 -0.30145893155E+03 -0.47265446453E+03  0.65370304736E+03  0.78876529511E+02 0.  0.
         11    1    3    3    0    0 -0.31841697778E+02  0.18621685935E+02 -0.32098343866E+02  0.48897490563E+02  0.00000000000E+00 0. -1.
        -11    1    3    3    0    0 -0.64819873080E+02 -0.99460025703E+02 -0.13165317170E+03  0.17727512594E+03  0.00000000000E+00 0.  1.
          2    1    6    6  502    0  0.17964774763E+03 -0.11234272551E+03 -0.21694447525E+03  0.30324759941E+03  0.00000000000E+00 0. -1.
          3    1    5    5  503    0 -0.12998998621E+03  0.28653112202E+03 -0.49849523079E+03  0.58948704441E+03  0.00000000000E+00 0. -1.
         -4    1    5    5    0  503 -0.10019158110E+03  0.95766149301E+02 -0.22711207758E+03  0.26606278217E+03  0.00000000000E+00 0.  1.
         -1    1    6    6    0  502  0.14719539053E+03 -0.18911620604E+03 -0.25570998929E+03  0.35045544795E+03  0.00000000000E+00 0.  1.
<mgrwt>
<rscale>  0 0.10754634E+04</rscale>
<asrwt>0</asrwt>
<pdfrwt beam="1">  1        1 0.23826452E+00 0.10754634E+04</pdfrwt>
<pdfrwt beam="2">  1       -1 0.28724015E-01 0.10754634E+04</pdfrwt>
<totfact> 0.66521742E+01</totfact>
</mgrwt>
</event>
<event>
12    1  0.1532786E-007  0.1250185E+04  0.7818608E-02  0.9070030E-01
         -2   -1    0    0    0  501 -0.00000000000E+00  0.00000000000E+00  0.46180012690E+03  0.46180012690E+03  0.00000000000E+00 0.  1.
          2   -1    0    0  501    0  0.00000000000E+00 -0.00000000000E+00 -0.84612454127E+03  0.84612454127E+03  0.00000000000E+00 0. -1.
         23    2    1    2    0    0  0.10636068627E+03  0.53774378711E+02  0.17798543532E+03  0.23313308648E+03  0.92021418345E+02 0.  0.
        254    2    1    2    0    0 -0.10636068627E+03 -0.53774378711E+02 -0.56230984969E+03  0.10747915817E+04  0.90817415600E+03 0.  0.
        -24    2    4    4    0    0 -0.16959985638E+03  0.32259979604E+03  0.20115757424E+02  0.37383485776E+03  0.80703887690E+02 0.  0.
         24    2    4    4    0    0  0.63239170110E+02 -0.37637417475E+03 -0.58242560711E+03  0.70095672393E+03  0.80399185006E+02 0.  0.
         13    1    3    3    0    0  0.45057314007E+02  0.73329264022E+02  0.96493580254E+02  0.12929947230E+03  0.00000000000E+00 0.  1.
        -13    1    3    3    0    0  0.61303372261E+02 -0.19554885310E+02  0.81491855069E+02  0.10383361417E+03  0.00000000000E+00 0. -1.
          4    1    6    6  502    0  0.13727032634E+02 -0.98989592900E+01 -0.49333894333E+02  0.52156053819E+02  0.00000000000E+00 0. -1.
          3    1    5    5  503    0 -0.82280906914E+02  0.13501862231E+03  0.47563144206E+02  0.16511338135E+03  0.00000000000E+00 0. -1.
         -4    1    5    5    0  503 -0.87318949464E+02  0.18758117372E+03 -0.27447386782E+02  0.20872147640E+03  0.00000000000E+00 0.  1.
         -3    1    6    6    0  502  0.49512137477E+02 -0.36647521546E+03 -0.53309171278E+03  0.64880067011E+03  0.00000000000E+00 0.  1.
<mgrwt>
<rscale>  0 0.12501847E+04</rscale>
<asrwt>0</asrwt>
<pdfrwt beam="1">  1        2 0.13017301E+00 0.12501847E+04</pdfrwt>
<pdfrwt beam="2">  1       -2 0.71046173E-01 0.12501847E+04</pdfrwt>
<totfact> 0.56544851E+01</totfact>
</mgrwt>
</event>
<event>
12    1  0.1532786E-007  0.2123023E+04  0.7818608E-02  0.8551169E-01
         -1   -1    0    0    0  501 -0.00000000000E+00  0.00000000000E+00  0.53664164466E+03  0.53664164466E+03  0.00000000000E+00 0.  1.
          1   -1    0    0  501    0  0.00000000000E+00 -0.00000000000E+00 -0.20997385959E+04  0.20997385959E+04  0.00000000000E+00 0. -1.
         23    2    1    2    0    0 -0.82528599251E+03 -0.17941392516E+02 -0.31301507500E+03  0.88743941139E+03  0.90285152224E+02 0.  0.
        254    2    1    2    0    0  0.82528599251E+03  0.17941392516E+02 -0.12500818762E+04  0.17489408292E+04  0.90259097251E+03 0.  0.
        -24    2    4    4    0    0  0.17926707792E+03  0.11807024163E+03 -0.10293639250E+04  0.10545968337E+04  0.80666748391E+02 0.  0.
         24    2    4    4    0    0  0.64601891459E+03 -0.10012884911E+03 -0.22071795123E+03  0.69434399550E+03  0.77659163411E+02 0.  0.
         11    1    3    3    0    0 -0.32776847364E+03  0.26691370872E+01 -0.78572499701E+02  0.33706517814E+03  0.00000000000E+00 0. -1.
        -11    1    3    3    0    0 -0.49751751887E+03 -0.20610529603E+02 -0.23444257530E+03  0.55037423325E+03  0.00000000000E+00 0.  1.
          2    1    6    6  502    0  0.56273875604E+03 -0.11320703696E+03 -0.19403901807E+03  0.60592233933E+03  0.00000000000E+00 0. -1.
          3    1    5    5  503    0  0.11878928856E+03  0.11944177334E+03 -0.78281772732E+03  0.80073767646E+03  0.00000000000E+00 0. -1.
         -4    1    5    5    0  503  0.60477789366E+02 -0.13715317147E+01 -0.24654619770E+03  0.25385915722E+03  0.00000000000E+00 0.  1.
         -1    1    6    6    0  502  0.83280158544E+02  0.13078187847E+02 -0.26678933158E+02  0.88421656165E+02  0.00000000000E+00 0.  1.
<mgrwt>
<rscale>  0 0.21230235E+04</rscale>
<asrwt>0</asrwt>
<pdfrwt beam="1">  1        1 0.32303671E+00 0.21230235E+04</pdfrwt>
<pdfrwt beam="2">  1       -1 0.82560253E-01 0.21230235E+04</pdfrwt>
<totfact> 0.34115579E+00</totfact>
</mgrwt>
</event>
<event>
12    1  0.1532786E-007  0.2266719E+04  0.7818608E-02  0.8491160E-01
          2   -1    0    0  501    0  0.00000000000E+00  0.00000000000E+00  0.11218891808E+04  0.11218891808E+04  0.00000000000E+00 0. -1.
         -2   -1    0    0    0  501 -0.00000000000E+00 -0.00000000000E+00 -0.11449466212E+04  0.11449466212E+04  0.00000000000E+00 0.  1.
         23    2    1    2    0    0  0.68673084980E+03 -0.46773511666E+03 -0.46912993949E+03  0.95887652655E+03  0.94793953522E+02 0.  0.
        254    2    1    2    0    0 -0.68673084980E+03  0.46773511666E+03  0.44607249909E+03  0.13079592755E+04  0.90631197302E+03 0.  0.
        -24    2    4    4    0    0 -0.82740792723E+03  0.32205204136E+03  0.56954671120E+03  0.10577289471E+04  0.78010729878E+02 0.  0.
         24    2    4    4    0    0  0.14067707743E+03  0.14568307529E+03 -0.12347421212E+03  0.25023032834E+03  0.79722880176E+02 0.  0.
         11    1    3    3    0    0  0.12172390162E+03 -0.99929020692E+02 -0.50896835348E+02  0.16550832381E+03  0.00000000000E+00 0. -1.
        -11    1    3    3    0    0  0.56500694819E+03 -0.36780609597E+03 -0.41823310414E+03  0.79336820275E+03  0.00000000000E+00 0.  1.
          4    1    6    6  502    0 -0.28711123295E+01  0.37283593352E+02 -0.26914523536E+02  0.46072781514E+02  0.00000000000E+00 0. -1.
          1    1    5    5  503    0 -0.93256605954E+02  0.22255768363E+02  0.86883598905E+02  0.12938652765E+03  0.00000000000E+00 0. -1.
         -2    1    5    5    0  503 -0.73415132128E+03  0.29979627300E+03  0.48266311230E+03  0.92834241948E+03  0.00000000000E+00 0.  1.
         -3    1    6    6    0  502  0.14354818976E+03  0.10839948194E+03 -0.96559688579E+02  0.20415754683E+03  0.00000000000E+00 0.  1.
<mgrwt>
<rscale>  0 0.22667185E+04</rscale>
<asrwt>0</asrwt>
<pdfrwt beam="1">  1        2 0.17259834E+00 0.22667185E+04</pdfrwt>
<pdfrwt beam="2">  1       -2 0.17614563E+00 0.22667185E+04</pdfrwt>
<totfact> 0.37030719E+00</totfact>
</mgrwt>
</event>
<event>
12    1  0.1532786E-007  0.1358104E+04  0.7818608E-02  0.8984716E-01
          2   -1    0    0  501    0  0.00000000000E+00  0.00000000000E+00  0.91939235035E+03  0.91939235035E+03  0.00000000000E+00 0. -1.
         -2   -1    0    0    0  501 -0.00000000000E+00 -0.00000000000E+00 -0.50153984858E+03  0.50153984858E+03  0.00000000000E+00 0.  1.
         23    2    1    2    0    0 -0.21783143458E+03  0.20781104952E+03  0.36723809261E+03  0.48331389259E+03  0.89958523289E+02 0.  0.
        254    2    1    2    0    0  0.21783143458E+03 -0.20781104952E+03  0.50614409150E+02  0.93761830634E+03  0.88652710267E+03 0.  0.
        -24    2    4    4    0    0  0.26164828848E+03  0.49088987173E+02  0.40463157951E+03  0.49082953573E+03  0.79481837461E+02 0.  0.
         24    2    4    4    0    0 -0.43816853897E+02 -0.25690003669E+03 -0.35401717036E+03  0.44678877061E+03  0.79840485333E+02 0.  0.
         13    1    3    3    0    0 -0.90755467995E+02  0.11433610534E+03  0.11511515845E+03  0.18590535135E+03  0.00000000000E+00 0.  1.
        -13    1    3    3    0    0 -0.12707596659E+03  0.93474944182E+02  0.25212293417E+03  0.29740854125E+03  0.00000000000E+00 0. -1.
          2    1    6    6  502    0  0.19240269669E+01 -0.10945016246E+03 -0.20405160462E+03  0.23156013752E+03  0.00000000000E+00 0. -1.
          3    1    5    5  503    0  0.50967699249E+02 -0.21760937443E+02  0.74821894924E+02  0.93110475915E+02  0.00000000000E+00 0. -1.
         -4    1    5    5    0  503  0.21068058923E+03  0.70849924615E+02  0.32980968458E+03  0.39771905981E+03  0.00000000000E+00 0.  1.
         -1    1    6    6    0  502 -0.45740880864E+02 -0.14744987423E+03 -0.14996556574E+03  0.21522863308E+03  0.00000000000E+00 0.  1.
<mgrwt>
<rscale>  0 0.13581044E+04</rscale>
<asrwt>0</asrwt>
<pdfrwt beam="1">  1        2 0.14144498E+00 0.13581044E+04</pdfrwt>
<pdfrwt beam="2">  1       -2 0.77159977E-01 0.13581044E+04</pdfrwt>
<totfact> 0.41648905E+01</totfact>
</mgrwt>
</event>
<event>
12    1  0.1532786E-007  0.2414954E+04  0.7818608E-02  0.8433926E-01
         -2   -1    0    0    0  501 -0.00000000000E+00  0.00000000000E+00  0.58694210380E+03  0.58694210380E+03  0.00000000000E+00 0. -1.
          2   -1    0    0  501    0  0.00000000000E+00 -0.00000000000E+00 -0.24840623452E+04  0.24840623452E+04  0.00000000000E+00 0.  1.
         23    2    1    2    0    0  0.94507433608E+03  0.34457802488E+03 -0.50446345062E+03  0.11291213950E+04  0.92370101866E+02 0.  0.
        254    2    1    2    0    0 -0.94507433608E+03 -0.34457802488E+03 -0.13926567908E+04  0.19418830540E+04  0.90527197154E+03 0.  0.
        -24    2    4    4    0    0 -0.96271690466E+03  0.27765435037E+02 -0.91382770813E+03  0.13301400100E+04  0.81219506032E+02 0.  0.
         24    2    4    4    0    0  0.17642568583E+02 -0.37234345992E+03 -0.47882908265E+03  0.61174304397E+03  0.77468374754E+02 0.  0.
         11    1    3    3    0    0  0.90864639367E+03  0.34227327141E+03 -0.50058010740E+03  0.10924146214E+04  0.00000000000E+00 0. -1.
        -11    1    3    3    0    0  0.36427942414E+02  0.23047534678E+01 -0.38833432150E+01  0.36706773647E+02  0.00000000000E+00 0.  1.
          4    1    6    6  502    0 -0.14773220555E+02 -0.24277864806E+03 -0.34969476434E+03  0.42596496125E+03  0.00000000000E+00 0. -1.
          1    1    5    5  503    0 -0.83030920441E+03  0.55507164709E+01 -0.75601200839E+03  0.11229418249E+04  0.00000000000E+00 0. -1.
         -2    1    5    5    0  503 -0.13240770025E+03  0.22214718566E+02 -0.15781569974E+03  0.20719818506E+03  0.00000000000E+00 0.  1.
         -3    1    6    6    0  502  0.32415789137E+02 -0.12956481186E+03 -0.12913431830E+03  0.18577808272E+03  0.00000000000E+00 0.  1.
<mgrwt>
<rscale>  0 0.24149541E+04</rscale>
<asrwt>0</asrwt>
<pdfrwt beam="1">  1        2 0.38216344E+00 0.24149541E+04</pdfrwt>
<pdfrwt beam="2">  1       -2 0.90298784E-01 0.24149541E+04</pdfrwt>
<totfact> 0.33489638E+00</totfact>
</mgrwt>
</event>
<event>
12    1  0.1532786E-007  0.3339289E+04  0.7818608E-02  0.8152970E-01
         -2   -1    0    0    0  501 -0.00000000000E+00  0.00000000000E+00  0.16876369624E+04  0.16876369624E+04  0.00000000000E+00 0.  1.
          2   -1    0    0  501    0  0.00000000000E+00 -0.00000000000E+00 -0.16518434062E+04  0.16518434062E+04  0.00000000000E+00 0. -1.
         23    2    1    2    0    0  0.11496432726E+04 -0.23123214089E+03  0.10628483686E+04  0.15853496475E+04  0.92406132112E+02 0.  0.
        254    2    1    2    0    0 -0.11496432726E+04  0.23123214089E+03 -0.10270548123E+04  0.17541307211E+04  0.80435380398E+03 0.  0.
        -24    2    4    4    0    0 -0.10267029255E+04  0.10470709327E+03 -0.42033171722E+03  0.11173217368E+04  0.81526918265E+02 0.  0.
         24    2    4    4    0    0 -0.12294034703E+03  0.12652504762E+03 -0.60672309512E+03  0.63680898426E+03  0.79308585192E+02 0.  0.
         13    1    3    3    0    0  0.50057369277E+03 -0.78272696171E+02  0.40510675306E+03  0.64870033007E+03  0.00000000000E+00 0. -1.
        -13    1    3    3    0    0  0.64906957980E+03 -0.15295944472E+03  0.65774161550E+03  0.93664931747E+03  0.00000000000E+00 0.  1.
          2    1    6    6  502    0 -0.43938099689E+01 -0.10659486563E+02 -0.49749874130E+02  0.51068387441E+02  0.00000000000E+00 0. -1.
          1    1    5    5  503    0 -0.35677653231E+03  0.59553759393E+02 -0.18122325091E+03  0.40457139164E+03  0.00000000000E+00 0. -1.
         -2    1    5    5    0  503 -0.66992639322E+03  0.45153333877E+02 -0.23910846631E+03  0.71275034518E+03  0.00000000000E+00 0.  1.
         -1    1    6    6    0  502 -0.11854653706E+03  0.13718453418E+03 -0.55697322099E+03  0.58574059682E+03  0.00000000000E+00 0.  1.
<mgrwt>
<rscale>  0 0.33392885E+04</rscale>
<asrwt>0</asrwt>
<pdfrwt beam="1">  1        2 0.25412975E+00 0.33392885E+04</pdfrwt>
<pdfrwt beam="2">  1       -2 0.25963646E+00 0.33392885E+04</pdfrwt>
<totfact> 0.48707024E-01</totfact>
</mgrwt>
</event>
<event>
12    1  0.1532786E-007  0.1227559E+04  0.7818608E-02  0.9089070E-01
         -2   -1    0    0    0  501 -0.00000000000E+00  0.00000000000E+00  0.40727882317E+03  0.40727882317E+03  0.00000000000E+00 0.  1.
          2   -1    0    0  501    0  0.00000000000E+00 -0.00000000000E+00 -0.92498184794E+03  0.92498184794E+03  0.00000000000E+00 0. -1.
         23    2    1    2    0    0 -0.19609753003E+03 -0.92850671525E+02  0.50363265171E+02  0.24257737362E+03  0.96082439750E+02 0.  0.
        254    2    1    2    0    0  0.19609753003E+03  0.92850671525E+02 -0.56806628994E+03  0.10896832975E+04  0.90423165757E+03 0.  0.
        -24    2    4    4    0    0  0.19287451353E+03  0.47578013645E+03 -0.21023959314E+03  0.55989189429E+03  0.75570699083E+02 0.  0.
         24    2    4    4    0    0  0.32230165017E+01 -0.38292946492E+03 -0.35782669680E+03  0.52979140320E+03  0.77418492705E+02 0.  0.
         11    1    3    3    0    0 -0.81302834783E+02 -0.56749611432E+02  0.69012871740E+02  0.12080333525E+03  0.00000000000E+00 0.  1.
        -11    1    3    3    0    0 -0.11479469524E+03 -0.36101060093E+02 -0.18649606569E+02  0.12177403837E+03  0.00000000000E+00 0. -1.
          4    1    6    6  502    0 -0.11767066575E+02 -0.14413234979E+02 -0.35017936296E+02  0.39654269137E+02  0.00000000000E+00 0. -1.
          3    1    5    5  503    0  0.21343236099E+02  0.25895561873E+02  0.22045599435E+01  0.33629955939E+02  0.00000000000E+00 0. -1.
         -4    1    5    5    0  503  0.17153127743E+03  0.44988457458E+03 -0.21244415308E+03  0.52626193835E+03  0.00000000000E+00 0.  1.
         -3    1    6    6    0  502  0.14990083076E+02 -0.36851622994E+03 -0.32280876051E+03  0.49013713406E+03  0.00000000000E+00 0.  1.
<mgrwt>
<rscale>  0 0.12275594E+04</rscale>
<asrwt>0</asrwt>
<pdfrwt beam="1">  1        2 0.14230490E+00 0.12275594E+04</pdfrwt>
<pdfrwt beam="2">  1       -2 0.62658282E-01 0.12275594E+04</pdfrwt>
<totfact> 0.65637677E+01</totfact>
</mgrwt>
</event>
<event>
12    1  0.1532786E-007  0.1948583E+04  0.7818608E-02  0.8631044E-01
          2   -1    0    0  501    0  0.00000000000E+00  0.00000000000E+00  0.78559446494E+03  0.78559446494E+03  0.00000000000E+00 0.  1.
         -2   -1    0    0    0  501 -0.00000000000E+00 -0.00000000000E+00 -0.12083127505E+04  0.12083127505E+04  0.00000000000E+00 0. -1.
         23    2    1    2    0    0  0.57302893184E+03  0.25409283767E+03 -0.61228771108E+03  0.88105408827E+03  0.91840832119E+02 0.  0.
        254    2    1    2    0    0 -0.57302893184E+03 -0.25409283767E+03  0.18956942552E+03  0.11128531272E+04  0.89976674126E+03 0.  0.
        -24    2    4    4    0    0 -0.40128244189E+03  0.15666376927E+03 -0.23120239940E+03  0.49600686704E+03  0.83648836736E+02 0.  0.
         24    2    4    4    0    0 -0.17174648995E+03 -0.41075660694E+03  0.42077182492E+03  0.61684626013E+03  0.72336249821E+02 0.  0.
         13    1    3    3    0    0  0.45900940701E+03  0.21210345872E+03 -0.53949023823E+03  0.73941005543E+03  0.00000000000E+00 0. -1.
        -13    1    3    3    0    0  0.11401952483E+03  0.41989378943E+02 -0.72797472848E+02  0.14164403284E+03  0.00000000000E+00 0.  1.
          2    1    6    6  502    0 -0.68181071686E+02 -0.23084822737E+03  0.19176195862E+03  0.30775349127E+03  0.00000000000E+00 0. -1.
          1    1    5    5  503    0 -0.25487636398E+03  0.59169961644E+02 -0.11960338554E+03  0.28769430844E+03  0.00000000000E+00 0. -1.
         -2    1    5    5    0  503 -0.14640607792E+03  0.97493807629E+02 -0.11159901385E+03  0.20831255860E+03  0.00000000000E+00 0.  1.
         -1    1    6    6    0  502 -0.10356541826E+03 -0.17990837957E+03  0.22900986630E+03  0.30909276886E+03  0.00000000000E+00 0.  1.
<mgrwt>
<rscale>  0 0.19485829E+04</rscale>
<asrwt>0</asrwt>
<pdfrwt beam="1">  1        2 0.12086069E+00 0.19485829E+04</pdfrwt>
<pdfrwt beam="2">  1       -2 0.18589427E+00 0.19485829E+04</pdfrwt>
<totfact> 0.54361878E+00</totfact>
</mgrwt>
</event>
<event>
12    1  0.1532786E-007  0.1563351E+04  0.7818608E-02  0.8843385E-01
         -1   -1    0    0    0  501 -0.00000000000E+00  0.00000000000E+00  0.74630541849E+03  0.74630541849E+03  0.00000000000E+00 0.  1.
          1   -1    0    0  501    0  0.00000000000E+00 -0.00000000000E+00 -0.81872189561E+03  0.81872189561E+03  0.00000000000E+00 0. -1.
         23    2    1    2    0    0 -0.41150727526E+03 -0.18389496372E+03  0.23363890213E+03  0.51696141781E+03  0.97500644331E+02 0.  0.
        254    2    1    2    0    0  0.41150727526E+03  0.18389496372E+03 -0.30605537924E+03  0.10480658963E+04  0.89533045996E+03 0.  0.
        -24    2    4    4    0    0  0.54066364868E+03  0.56528602278E+02  0.13376644232E+03  0.56556868211E+03  0.80385379375E+02 0.  0.
         24    2    4    4    0    0 -0.12915637342E+03  0.12736636144E+03 -0.43982182156E+03  0.48249721418E+03  0.80354017613E+02 0.  0.
         13    1    3    3    0    0 -0.20480105038E+03 -0.11383413839E+03  0.71197200616E+02  0.24488920490E+03  0.00000000000E+00 0. -1.
        -13    1    3    3    0    0 -0.20670622488E+03 -0.70060825329E+02  0.16244170151E+03  0.27207221291E+03  0.00000000000E+00 0.  1.
          2    1    6    6  502    0 -0.72018770313E+02  0.10911974000E+03 -0.35738044590E+03  0.38054514062E+03  0.00000000000E+00 0. -1.
          3    1    5    5  503    0  0.41429433934E+03  0.56996649952E+02  0.13418753182E+03  0.43919780442E+03  0.00000000000E+00 0. -1.
         -4    1    5    5    0  503  0.12636930934E+03 -0.46804767439E+00 -0.42108950014E+00  0.12637087769E+03  0.00000000000E+00 0.  1.
         -1    1    6    6    0  502 -0.57137603105E+02  0.18246621442E+02 -0.82441375663E+02  0.10195207356E+03  0.00000000000E+00 0.  1.
<mgrwt>
<rscale>  0 0.15633510E+04</rscale>
<asrwt>0</asrwt>
<pdfrwt beam="1">  1        1 0.12595721E+00 0.15633510E+04</pdfrwt>
<pdfrwt beam="2">  1       -1 0.11481622E+00 0.15633510E+04</pdfrwt>
<totfact> 0.14127538E+01</totfact>
</mgrwt>
</event>
<event>
12    1  0.1532786E-007  0.1717754E+04  0.7818608E-02  0.8751303E-01
          1   -1    0    0  501    0  0.00000000000E+00  0.00000000000E+00  0.69223957074E+03  0.69223957074E+03  0.00000000000E+00 0. -1.
         -1   -1    0    0    0  501 -0.00000000000E+00 -0.00000000000E+00 -0.10656282265E+04  0.10656282265E+04  0.00000000000E+00 0.  1.
         23    2    1    2    0    0  0.39112597733E+03  0.16780414063E+02  0.33929680146E+03  0.52582830854E+03  0.90066520674E+02 0.  0.
        254    2    1    2    0    0 -0.39112597733E+03 -0.16780414063E+02 -0.71268545718E+03  0.12320394887E+04  0.92560230570E+03 0.  0.
        -24    2    4    4    0    0  0.20929766148E+03 -0.55568955112E+02  0.69208330609E+02  0.24154781822E+03  0.81621906299E+02 0.  0.
         24    2    4    4    0    0 -0.60042363882E+03  0.38788541049E+02 -0.78189378779E+03  0.99049167044E+03  0.87765351141E+02 0.  0.
         11    1    3    3    0    0  0.12947306091E+03  0.35139854170E+01  0.17071160330E+03  0.21428502770E+03  0.00000000000E+00 0. -1.
        -11    1    3    3    0    0  0.26165291642E+03  0.13266428646E+02  0.16858519815E+03  0.31154328084E+03  0.00000000000E+00 0.  1.
          4    1    6    6  502    0 -0.16291962830E+03 -0.84575706722E+01 -0.15871610225E+03  0.22760741837E+03  0.00000000000E+00 0. -1.
          3    1    5    5  503    0  0.21294608237E+03 -0.43459450905E+02  0.58748979544E+02  0.22513595996E+03  0.00000000000E+00 0. -1.
         -4    1    5    5    0  503 -0.36484208827E+01 -0.12109504207E+02  0.10459351064E+02  0.16411858266E+02  0.00000000000E+00 0.  1.
         -3    1    6    6    0  502 -0.43750401052E+03  0.47246111721E+02 -0.62317768554E+03  0.76288425207E+03  0.00000000000E+00 0.  1.
<mgrwt>
<rscale>  0 0.17177544E+04</rscale>
<asrwt>0</asrwt>
<pdfrwt beam="1">  1        1 0.10649840E+00 0.17177544E+04</pdfrwt>
<pdfrwt beam="2">  1       -1 0.16394280E+00 0.17177544E+04</pdfrwt>
<totfact> 0.71855511E+00</totfact>
</mgrwt>
</event>
<event>
12    1  0.1532786E-007  0.3010563E+04  0.7818608E-02  0.8240721E-01
          1   -1    0    0  501    0  0.00000000000E+00  0.00000000000E+00  0.22487688357E+04  0.22487688357E+04  0.00000000000E+00 0. -1.
         -1   -1    0    0    0  501 -0.00000000000E+00 -0.00000000000E+00 -0.10076058987E+04  0.10076058987E+04  0.00000000000E+00 0.  1.
         23    2    1    2    0    0 -0.82812802653E+03 -0.94142914500E+03  0.11572441716E+04  0.17085162388E+04  0.87913606135E+02 0.  0.
        254    2    1    2    0    0  0.82812802653E+03  0.94142914500E+03  0.83918765350E+02  0.15478584956E+04  0.90373596790E+03 0.  0.
        -24    2    4    4    0    0  0.81916445693E+03  0.58069529016E+03  0.37794950401E+03  0.10758048050E+04  0.79200526829E+02 0.  0.
         24    2    4    4    0    0  0.89635696050E+01  0.36073385484E+03 -0.29403073866E+03  0.47205369052E+03  0.78557952144E+02 0.  0.
         11    1    3    3    0    0 -0.52888763170E+02 -0.80506663354E+02  0.11653655490E+03  0.15119296525E+03  0.00000000000E+00 0.  1.
        -11    1    3    3    0    0 -0.77523926336E+03 -0.86092248165E+03  0.10407076167E+04  0.15573232736E+04  0.00000000000E+00 0. -1.
          4    1    6    6  502    0  0.40047568672E+02  0.23403488499E+03 -0.20912572651E+03  0.31640117673E+03  0.00000000000E+00 0. -1.
          1    1    5    5  503    0  0.23185024908E+03  0.20274802214E+03  0.13578060553E+03  0.33659719446E+03  0.00000000000E+00 0. -1.
         -2    1    5    5    0  503  0.58731420785E+03  0.37794726802E+03  0.24216889848E+03  0.73920761058E+03  0.00000000000E+00 0.  1.
         -3    1    6    6    0  502 -0.31083999067E+02  0.12669896985E+03 -0.84905012145E+02  0.15565251378E+03  0.00000000000E+00 0.  1.
<mgrwt>
<rscale>  0 0.30105632E+04</rscale>
<asrwt>0</asrwt>
<pdfrwt beam="1">  1        1 0.34596443E+00 0.30105632E+04</pdfrwt>
<pdfrwt beam="2">  1       -1 0.15501629E+00 0.30105632E+04</pdfrwt>
<totfact> 0.54724513E-01</totfact>
</mgrwt>
</event>
<event>
12    1  0.1532786E-007  0.1419787E+04  0.7818608E-02  0.8939619E-01
         -1   -1    0    0    0  501 -0.00000000000E+00  0.00000000000E+00  0.93629788951E+03  0.93629788951E+03  0.00000000000E+00 0.  1.
          1   -1    0    0  501    0  0.00000000000E+00 -0.00000000000E+00 -0.53823555639E+03  0.53823555639E+03  0.00000000000E+00 0. -1.
         23    2    1    2    0    0  0.25280555621E+03  0.31287455562E+03 -0.40178633899E+01  0.41256533727E+03  0.91612649118E+02 0.  0.
        254    2    1    2    0    0 -0.25280555621E+03 -0.31287455562E+03  0.40208019651E+03  0.10619681086E+04  0.89683144599E+03 0.  0.
        -24    2    4    4    0    0  0.30517491319E+03 -0.17338934810E+03  0.85424048600E+01  0.36013582124E+03  0.80182562848E+02 0.  0.
         24    2    4    4    0    0 -0.55798046940E+03 -0.13948520752E+03  0.39353779165E+03  0.70183228740E+03  0.83055636938E+02 0.  0.
         11    1    3    3    0    0  0.19736264484E+03  0.21062996727E+03 -0.38617588120E+02  0.29121867179E+03  0.00000000000E+00 0. -1.
        -11    1    3    3    0    0  0.55442911372E+02  0.10224458836E+03  0.34599724730E+02  0.12134666547E+03  0.00000000000E+00 0.  1.
          2    1    6    6  502    0 -0.21951432578E+03 -0.82773101505E+02  0.12335733228E+03  0.26505651658E+03  0.00000000000E+00 0. -1.
          3    1    5    5  503    0  0.62923965850E+01 -0.24803368934E+02 -0.50386540917E+01  0.26080440953E+02  0.00000000000E+00 0. -1.
         -4    1    5    5    0  503  0.29888251660E+03 -0.14858597917E+03  0.13581058952E+02  0.33405538029E+03  0.00000000000E+00 0.  1.
         -1    1    6    6    0  502 -0.33846614362E+03 -0.56712106017E+02  0.27018045937E+03  0.43677577082E+03  0.00000000000E+00 0.  1.
<mgrwt>
<rscale>  0 0.14197870E+04</rscale>
<asrwt>0</asrwt>
<pdfrwt beam="1">  1        1 0.82805470E-01 0.14197870E+04</pdfrwt>
<pdfrwt beam="2">  1       -1 0.14404583E+00 0.14197870E+04</pdfrwt>
<totfact> 0.15141506E+01</totfact>
</mgrwt>
</event>
<event>
12    1  0.1532786E-007  0.1924887E+04  0.7818608E-02  0.8642567E-01
          2   -1    0    0  501    0  0.00000000000E+00  0.00000000000E+00  0.36837837318E+04  0.36837837318E+04  0.00000000000E+00 0. -1.
         -2   -1    0    0    0  501 -0.00000000000E+00 -0.00000000000E+00 -0.25145277166E+03  0.25145277166E+03  0.00000000000E+00 0.  1.
         23    2    1    2    0    0 -0.44599839295E+03 -0.54902634636E+03  0.79723251752E+03  0.10696756194E+04  0.91004110760E+02 0.  0.
        254    2    1    2    0    0  0.44599839295E+03  0.54902634636E+03  0.26350984427E+04  0.28655608841E+04  0.87598566347E+03 0.  0.
        -24    2    4    4    0    0 -0.16797508464E+03  0.46209586199E+03  0.12617898803E+04  0.13567447482E+04  0.83032492334E+02 0.  0.
         24    2    4    4    0    0  0.61397347760E+03  0.86930484369E+02  0.13733085623E+04  0.15088161360E+04  0.77649111530E+02 0.  0.
         13    1    3    3    0    0 -0.19166259881E+03 -0.25089998239E+03  0.42275430219E+03  0.52764244804E+03  0.00000000000E+00 0. -1.
        -13    1    3    3    0    0 -0.25433579414E+03 -0.29812636397E+03  0.37447821533E+03  0.54203317134E+03  0.00000000000E+00 0.  1.
          2    1    6    6  502    0  0.43131972933E+03  0.94514775625E+02  0.94123973089E+03  0.10396643606E+04  0.00000000000E+00 0. -1.
          1    1    5    5  503    0 -0.15854331515E+03  0.32898426206E+03  0.92556898131E+03  0.99500983243E+03  0.00000000000E+00 0. -1.
         -2    1    5    5    0  503 -0.94317694976E+01  0.13311159993E+03  0.33622089904E+03  0.36173491574E+03  0.00000000000E+00 0.  1.
         -1    1    6    6    0  502  0.18265374827E+03 -0.75842912558E+01  0.43206883143E+03  0.46915177536E+03  0.00000000000E+00 0.  1.
<mgrwt>
<rscale>  0 0.19248871E+04</rscale>
<asrwt>0</asrwt>
<pdfrwt beam="1">  1        2 0.56673592E+00 0.19248871E+04</pdfrwt>
<pdfrwt beam="2">  1       -2 0.38685044E-01 0.19248871E+04</pdfrwt>
<totfact> 0.35703261E+00</totfact>
</mgrwt>
</event>
<event>
12    1  0.1532786E-007  0.1364809E+04  0.7818608E-02  0.8979693E-01
          1   -1    0    0  501    0  0.00000000000E+00  0.00000000000E+00  0.53070723660E+03  0.53070723660E+03  0.00000000000E+00 0. -1.
         -1   -1    0    0    0  501 -0.00000000000E+00 -0.00000000000E+00 -0.87746238087E+03  0.87746238087E+03  0.00000000000E+00 0.  1.
         23    2    1    2    0    0 -0.28093960108E+03  0.92404068142E+02 -0.32639111995E+03  0.44995130857E+03  0.91975244690E+02 0.  0.
        254    2    1    2    0    0  0.28093960108E+03 -0.92404068142E+02 -0.20364024318E+02  0.95821830890E+03  0.91120912132E+03 0.  0.
        -24    2    4    4    0    0 -0.31998886455E+03 -0.11937218680E+03 -0.22103924322E+02  0.35132778367E+03  0.79372764175E+02 0.  0.
         24    2    4    4    0    0  0.60092846562E+03  0.26968118655E+02  0.17399000038E+01  0.60689052524E+03  0.80441171977E+02 0.  0.
         11    1    3    3    0    0 -0.24359437254E+03  0.44683440335E+02 -0.27870120026E+03  0.37283935844E+03  0.00000000000E+00 0.  1.
        -11    1    3    3    0    0 -0.37345228539E+02  0.47720627807E+02 -0.47689919690E+02  0.77111950130E+02  0.00000000000E+00 0. -1.
          2    1    6    6  502    0  0.15523015329E+03 -0.16064546980E+02 -0.26224392171E+02  0.15824723980E+03  0.00000000000E+00 0. -1.
          3    1    5    5  503    0 -0.12275886884E+03 -0.11103924629E+02 -0.27416921430E+02  0.12627242217E+03  0.00000000000E+00 0. -1.
         -4    1    5    5    0  503 -0.19722999571E+03 -0.10826826217E+03  0.53129971083E+01  0.22505536149E+03  0.00000000000E+00 0.  1.
         -1    1    6    6    0  502  0.44569831233E+03  0.43032665635E+02  0.27964292175E+02  0.44864328543E+03  0.00000000000E+00 0.  1.
<mgrwt>
<rscale>  0 0.13648086E+04</rscale>
<asrwt>0</asrwt>
<pdfrwt beam="1">  1        1 0.81647267E-01 0.13648086E+04</pdfrwt>
<pdfrwt beam="2">  1       -1 0.13499421E+00 0.13648086E+04</pdfrwt>
<totfact> 0.18377881E+01</totfact>
</mgrwt>
</event>
<event>
12    1  0.1532786E-007  0.4426761E+04  0.7818608E-02  0.7923586E-01
         -1   -1    0    0    0  501 -0.00000000000E+00  0.00000000000E+00  0.21981111048E+04  0.21981111048E+04  0.00000000000E+00 0.  1.
          1   -1    0    0  501    0  0.00000000000E+00 -0.00000000000E+00 -0.22287560475E+04  0.22287560475E+04  0.00000000000E+00 0. -1.
         23    2    1    2    0    0  0.33142784203E+03 -0.18923956616E+04 -0.92914062274E+03  0.21360122236E+04  0.90775373252E+02 0.  0.
        254    2    1    2    0    0 -0.33142784203E+03  0.18923956616E+04  0.89849568006E+03  0.22908549286E+04  0.86586145690E+03 0.  0.
        -24    2    4    4    0    0  0.10353228478E+03 -0.26041815675E+02  0.48287211197E+02  0.14627808677E+03  0.87570050520E+02 0.  0.
         24    2    4    4    0    0 -0.43496012682E+03  0.19184374772E+04  0.85020846887E+03  0.21445768418E+04  0.82235783522E+02 0.  0.
         13    1    3    3    0    0  0.66571000673E+02 -0.46447844211E+03 -0.26754350518E+03  0.54014021187E+03  0.00000000000E+00 0. -1.
        -13    1    3    3    0    0  0.26485684136E+03 -0.14279172194E+04 -0.66159711757E+03  0.15958720118E+04  0.00000000000E+00 0.  1.
          2    1    6    6  502    0 -0.30025079756E+02  0.65498441099E+02  0.26640951427E+02  0.76819863926E+02  0.00000000000E+00 0. -1.
          1    1    5    5  503    0  0.71941879594E+02  0.91829511843E+01  0.63687368019E+02  0.96519642960E+02  0.00000000000E+00 0. -1.
         -2    1    5    5    0  503  0.31590405191E+02 -0.35224766859E+02 -0.15400156822E+02  0.49758443812E+02  0.00000000000E+00 0.  1.
         -1    1    6    6    0  502 -0.40493504706E+03  0.18529390361E+04  0.82356751744E+03  0.20677569779E+04  0.00000000000E+00 0.  1.
<mgrwt>
<rscale>  0 0.44267611E+04</rscale>
<asrwt>0</asrwt>
<pdfrwt beam="1">  1        1 0.34288554E+00 0.44267611E+04</pdfrwt>
<pdfrwt beam="2">  1       -1 0.33817094E+00 0.44267611E+04</pdfrwt>
<totfact> 0.29279991E-02</totfact>
</mgrwt>
</event>
<event>
12    1  0.1532786E-007  0.1081688E+04  0.7818608E-02  0.9223226E-01
         -3   -1    0    0    0  501 -0.00000000000E+00  0.00000000000E+00  0.94528382748E+03  0.94528382748E+03  0.00000000000E+00 0.  1.
          3   -1    0    0  501    0  0.00000000000E+00 -0.00000000000E+00 -0.30944392008E+03  0.30944392008E+03  0.00000000000E+00 0. -1.
         23    2    1    2    0    0  0.13149931755E+03  0.84793097967E+01  0.29203761930E+02  0.16429783405E+03  0.93685374256E+02 0.  0.
        254    2    1    2    0    0 -0.13149931755E+03 -0.84793097967E+01  0.60663614547E+03  0.10904299135E+04  0.89647421272E+03 0.  0.
        -24    2    4    4    0    0  0.29725453313E+03 -0.61311658450E+02  0.56868048365E+03  0.64960980425E+03  0.80473774429E+02 0.  0.
         24    2    4    4    0    0 -0.42875385068E+03  0.52832348653E+02  0.37955661820E+02  0.44082010925E+03  0.79124047669E+02 0.  0.
         13    1    3    3    0    0  0.43272089644E+02  0.43956059285E+02  0.31327987628E+02  0.69181295874E+02  0.00000000000E+00 0.  1.
        -13    1    3    3    0    0  0.88227227911E+02 -0.35476749488E+02 -0.21242256983E+01  0.95116538172E+02  0.00000000000E+00 0. -1.
          2    1    6    6  502    0 -0.37234074245E+03  0.31209911143E+02  0.55880854867E+02  0.37780200765E+03  0.00000000000E+00 0. -1.
          1    1    5    5  503    0  0.23686652942E+03 -0.30348458701E+02  0.49405627590E+03  0.54874254934E+03  0.00000000000E+00 0. -1.
         -2    1    5    5    0  503  0.60388003711E+02 -0.30963199749E+02  0.74624207753E+02  0.10086725491E+03  0.00000000000E+00 0.  1.
         -1    1    6    6    0  502 -0.56413108231E+02  0.21622437510E+02 -0.17925193047E+02  0.63018101605E+02  0.00000000000E+00 0.  1.
<mgrwt>
<rscale>  0 0.10816882E+04</rscale>
<asrwt>0</asrwt>
<pdfrwt beam="1">  1        3 0.47606757E-01 0.10816882E+04</pdfrwt>
<pdfrwt beam="2">  1       -3 0.14542828E+00 0.10816882E+04</pdfrwt>
<totfact> 0.39906685E+00</totfact>
</mgrwt>
</event>
<event>
12    1  0.1532786E-007  0.2231256E+04  0.7818608E-02  0.8505530E-01
          1   -1    0    0  501    0  0.00000000000E+00  0.00000000000E+00  0.14345017193E+04  0.14345017193E+04  0.00000000000E+00 0. -1.
         -1   -1    0    0    0  501 -0.00000000000E+00 -0.00000000000E+00 -0.86763640314E+03  0.86763640314E+03  0.00000000000E+00 0.  1.
         23    2    1    2    0    0  0.14800548579E+02  0.28425268032E+03 -0.67624712038E+03  0.73943995193E+03  0.91883797157E+02 0.  0.
        254    2    1    2    0    0 -0.14800548579E+02 -0.28425268032E+03  0.12431124366E+04  0.15626981705E+04  0.90314915696E+03 0.  0.
        -24    2    4    4    0    0 -0.28782584305E+03 -0.24127719547E+03  0.12146198148E+04  0.12735246474E+04  0.74197924486E+02 0.  0.
         24    2    4    4    0    0  0.27302529447E+03 -0.42975484854E+02  0.28492621741E+02  0.28917352313E+03  0.80123612411E+02 0.  0.
         13    1    3    3    0    0 -0.85171415209E+01 -0.31042253921E+01 -0.10040031049E+02  0.13527015134E+02  0.00000000000E+00 0. -1.
        -13    1    3    3    0    0  0.23317690099E+02  0.28735690571E+03 -0.66620708934E+03  0.72591293680E+03  0.00000000000E+00 0.  1.
          4    1    6    6  502    0  0.26083638983E+03 -0.19823731654E+02  0.26704163968E+02  0.26294812220E+03  0.00000000000E+00 0. -1.
          1    1    5    5  503    0 -0.78386823006E+02 -0.89381873989E+02  0.29086641280E+03  0.31422425673E+03  0.00000000000E+00 0. -1.
         -2    1    5    5    0  503 -0.20943902004E+03 -0.15189532148E+03  0.92375340203E+03  0.95930039069E+03  0.00000000000E+00 0.  1.
         -3    1    6    6    0  502  0.12188904641E+02 -0.23151753200E+02  0.17884577736E+01  0.26225400927E+02  0.00000000000E+00 0.  1.
<mgrwt>
<rscale>  0 0.22312561E+04</rscale>
<asrwt>0</asrwt>
<pdfrwt beam="1">  1        1 0.22069257E+00 0.22312561E+04</pdfrwt>
<pdfrwt beam="2">  1       -1 0.13348252E+00 0.22312561E+04</pdfrwt>
<totfact> 0.31330063E+00</totfact>
</mgrwt>
</event>
<event>
12    1  0.1532786E-007  0.3198147E+04  0.7818608E-02  0.8189307E-01
          2   -1    0    0  501    0  0.00000000000E+00  0.00000000000E+00  0.16763805007E+04  0.16763805007E+04  0.00000000000E+00 0.  1.
         -2   -1    0    0    0  501 -0.00000000000E+00 -0.00000000000E+00 -0.15253314793E+04  0.15253314793E+04  0.00000000000E+00 0. -1.
         23    2    1    2    0    0  0.12267989351E+04  0.34838393774E+03  0.80431611967E+03  0.15104629741E+04  0.90371346882E+02 0.  0.
        254    2    1    2    0    0 -0.12267989351E+04 -0.34838393774E+03 -0.65326709831E+03  0.16912490060E+04  0.89841989247E+03 0.  0.
        -24    2    4    4    0    0 -0.62466866190E+02  0.20930840937E+03  0.22581295296E+02  0.23189246207E+03  0.74512277274E+02 0.  0.
         24    2    4    4    0    0 -0.11643320690E+04 -0.55769234710E+03 -0.67584839360E+03  0.14593565439E+04  0.79123639473E+02 0.  0.
         13    1    3    3    0    0  0.33121917560E+03  0.55550492020E+02  0.22852409227E+03  0.40622070380E+03  0.00000000000E+00 0. -1.
        -13    1    3    3    0    0  0.89557975954E+03  0.29283344572E+03  0.57579202740E+03  0.11042422703E+04  0.00000000000E+00 0.  1.
          4    1    6    6  502    0 -0.68811936302E+03 -0.29158022920E+03 -0.41178206921E+03  0.85328293100E+03  0.00000000000E+00 0. -1.
          3    1    5    5  503    0 -0.64311208205E+02  0.20907594950E+03  0.97853382797E+01  0.21896218168E+03  0.00000000000E+00 0. -1.
         -4    1    5    5    0  503  0.18443420149E+01  0.23245986669E+00  0.12795957016E+02  0.12930280392E+02  0.00000000000E+00 0.  1.
         -3    1    6    6    0  502 -0.47621270594E+03 -0.26611211790E+03 -0.26406632440E+03  0.60607361291E+03  0.00000000000E+00 0.  1.
<mgrwt>
<rscale>  0 0.31981469E+04</rscale>
<asrwt>0</asrwt>
<pdfrwt beam="1">  1        2 0.25790469E+00 0.31981469E+04</pdfrwt>
<pdfrwt beam="2">  1       -2 0.23466638E+00 0.31981469E+04</pdfrwt>
<totfact> 0.68066990E-01</totfact>
</mgrwt>
</event>
<event>
12    1  0.1532786E-007  0.1632926E+04  0.7818608E-02  0.8800572E-01
          2   -1    0    0  501    0  0.00000000000E+00  0.00000000000E+00  0.87371901406E+03  0.87371901406E+03  0.00000000000E+00 0. -1.
         -2   -1    0    0    0  501 -0.00000000000E+00 -0.00000000000E+00 -0.76295873995E+03  0.76295873995E+03  0.00000000000E+00 0.  1.
         23    2    1    2    0    0  0.13459478524E+02  0.34893311338E+03 -0.40397650897E+03  0.54229657245E+03  0.94620703415E+02 0.  0.
        254    2    1    2    0    0 -0.13459478524E+02 -0.34893311338E+03  0.51473678308E+03  0.10943811816E+04  0.90043363971E+03 0.  0.
        -24    2    4    4    0    0  0.18949633020E+03  0.24757863121E+03  0.24630883923E+03  0.40492752653E+03  0.78065483175E+02 0.  0.
         24    2    4    4    0    0 -0.20295580872E+03 -0.59651174459E+03  0.26842794385E+03  0.68945365503E+03  0.79217798934E+02 0.  0.
         13    1    3    3    0    0 -0.13313238140E+01  0.23407054789E+02 -0.21912110384E+00  0.23445909047E+02  0.00000000000E+00 0. -1.
        -13    1    3    3    0    0  0.14790802338E+02  0.32552605859E+03 -0.40375738787E+03  0.51885066340E+03  0.00000000000E+00 0.  1.
          4    1    6    6  502    0 -0.15906819563E+03 -0.34786555776E+03  0.15726299201E+03  0.41357561073E+03  0.00000000000E+00 0. -1.
          1    1    5    5  503    0  0.18509044750E+03  0.19587778015E+03  0.20815292533E+03  0.34052051162E+03  0.00000000000E+00 0. -1.
         -2    1    5    5    0  503  0.44058826955E+01  0.51700851063E+02  0.38155913902E+02  0.64407014903E+02  0.00000000000E+00 0.  1.
         -3    1    6    6    0  502 -0.43887613092E+02 -0.24864618684E+03  0.11116495184E+03  0.27587804430E+03  0.00000000000E+00 0.  1.
<mgrwt>
<rscale>  0 0.16329257E+04</rscale>
<asrwt>0</asrwt>
<pdfrwt beam="1">  1        2 0.13441831E+00 0.16329257E+04</pdfrwt>
<pdfrwt beam="2">  1       -2 0.11737827E+00 0.16329257E+04</pdfrwt>
<totfact> 0.16393032E+01</totfact>
</mgrwt>
</event>
<event>
12    1  0.1532786E-007  0.1940326E+04  0.7818608E-02  0.8635040E-01
         -2   -1    0    0    0  501 -0.00000000000E+00  0.00000000000E+00  0.11404254814E+04  0.11404254814E+04  0.00000000000E+00 0.  1.
          2   -1    0    0  501    0  0.00000000000E+00 -0.00000000000E+00 -0.82532067592E+03  0.82532067592E+03  0.00000000000E+00 0. -1.
         23    2    1    2    0    0  0.35883391491E+03 -0.67900514571E+03  0.13834205673E+03  0.78545577119E+03  0.89400656821E+02 0.  0.
        254    2    1    2    0    0 -0.35883391491E+03  0.67900514571E+03  0.17676274872E+03  0.11802903861E+04  0.87865269577E+03 0.  0.
        -24    2    4    4    0    0 -0.23941079269E+03 -0.10006703514E+03 -0.16269305462E+03  0.31817790582E+03  0.86239263406E+02 0.  0.
         24    2    4    4    0    0 -0.11942312222E+03  0.77907218085E+03  0.33945580334E+03  0.86211248028E+03  0.82415660718E+02 0.  0.
         11    1    3    3    0    0  0.22261928941E+03 -0.38253432911E+03  0.38562323377E+02  0.44427346730E+03  0.00000000000E+00 0. -1.
        -11    1    3    3    0    0  0.13621462550E+03 -0.29647081660E+03  0.99779733353E+02  0.34118230389E+03  0.00000000000E+00 0.  1.
          2    1    6    6  502    0 -0.11659146614E+03  0.51888280511E+03  0.24142506977E+03  0.58405393563E+03  0.00000000000E+00 0. -1.
          1    1    5    5  503    0 -0.66933385675E+02 -0.72670087908E+02 -0.58741125783E+02  0.11494146185E+03  0.00000000000E+00 0. -1.
         -2    1    5    5    0  503 -0.17247740701E+03 -0.27396947233E+02 -0.10395192884E+03  0.20323644397E+03  0.00000000000E+00 0.  1.
         -1    1    6    6    0  502 -0.28316560803E+01  0.26018937575E+03  0.98030733565E+02  0.27805854465E+03  0.00000000000E+00 0.  1.
<mgrwt>
<rscale>  0 0.19403265E+04</rscale>
<asrwt>0</asrwt>
<pdfrwt beam="1">  1        2 0.12697241E+00 0.19403265E+04</pdfrwt>
<pdfrwt beam="2">  1       -2 0.17545007E+00 0.19403265E+04</pdfrwt>
<totfact> 0.60126641E+00</totfact>
</mgrwt>
</event>
<event>
12    1  0.1532786E-007  0.2016871E+04  0.7818608E-02  0.8598773E-01
         -1   -1    0    0    0  501 -0.00000000000E+00  0.00000000000E+00  0.61918285286E+03  0.61918285286E+03  0.00000000000E+00 0.  1.
          1   -1    0    0  501    0  0.00000000000E+00 -0.00000000000E+00 -0.16423934067E+04  0.16423934067E+04  0.00000000000E+00 0. -1.
         23    2    1    2    0    0  0.12694854035E+03 -0.30139620059E+03 -0.12275470941E+04  0.12736234252E+04  0.91044820647E+02 0.  0.
        254    2    1    2    0    0 -0.12694854035E+03  0.30139620059E+03  0.20433654021E+03  0.98795283441E+03  0.90958330005E+03 0.  0.
        -24    2    4    4    0    0  0.29563855570E+03  0.39883354001E+03  0.21460254193E+03  0.54674969463E+03  0.80066405685E+02 0.  0.
         24    2    4    4    0    0 -0.42258709605E+03 -0.97437339419E+02 -0.10266001718E+02  0.44120313978E+03  0.80504229121E+02 0.  0.
         11    1    3    3    0    0  0.73385762926E+02 -0.85636411542E+02 -0.32168862559E+03  0.34088507890E+03  0.00000000000E+00 0.  1.
        -11    1    3    3    0    0  0.53562777419E+02 -0.21575978905E+03 -0.90585846847E+03  0.93273834627E+03  0.00000000000E+00 0. -1.
          4    1    6    6  502    0 -0.13944673634E+03 -0.57332117996E+02  0.25824303664E+02  0.15296816234E+03  0.00000000000E+00 0. -1.
          3    1    5    5  503    0  0.25389223056E+03  0.32316793778E+03  0.14504995553E+03  0.43581907983E+03  0.00000000000E+00 0. -1.
         -4    1    5    5    0  503  0.41746325140E+02  0.75665602229E+02  0.69552586403E+02  0.11093061479E+03  0.00000000000E+00 0.  1.
         -3    1    6    6    0  502 -0.28314035971E+03 -0.40105221424E+02 -0.36090305382E+02  0.28823497745E+03  0.00000000000E+00 0.  1.
<mgrwt>
<rscale>  0 0.20168707E+04</rscale>
<asrwt>0</asrwt>
<pdfrwt beam="1">  1        1 0.25267591E+00 0.20168707E+04</pdfrwt>
<pdfrwt beam="2">  1       -1 0.95258900E-01 0.20168707E+04</pdfrwt>
<totfact> 0.51440046E+00</totfact>
</mgrwt>
</event>
<event>
12    1  0.1532786E-007  0.1475689E+04  0.7818608E-02  0.8900782E-01
         -2   -1    0    0    0  501 -0.00000000000E+00  0.00000000000E+00  0.56630346311E+03  0.56630346311E+03  0.00000000000E+00 0.  1.
          2   -1    0    0  501    0  0.00000000000E+00 -0.00000000000E+00 -0.96134805383E+03  0.96134805383E+03  0.00000000000E+00 0. -1.
         23    2    1    2    0    0  0.19331044103E+03  0.31542289322E+03 -0.39774638510E+03  0.55098841419E+03  0.92333729100E+02 0.  0.
        254    2    1    2    0    0 -0.19331044103E+03 -0.31542289322E+03  0.27017943827E+01  0.97666310275E+03  0.90388217617E+03 0.  0.
        -24    2    4    4    0    0  0.19843684116E+03 -0.32798311474E+03  0.28610457770E+03  0.48667349079E+03  0.89694781159E+02 0.  0.
         24    2    4    4    0    0 -0.39174728219E+03  0.12560221526E+02 -0.28340278332E+03  0.48998961196E+03  0.78415495722E+02 0.  0.
         11    1    3    3    0    0  0.11386940521E+03  0.14087860463E+03 -0.25086755174E+03  0.30943101202E+03  0.00000000000E+00 0. -1.
        -11    1    3    3    0    0  0.79441035822E+02  0.17454428859E+03 -0.14687883337E+03  0.24155740217E+03  0.00000000000E+00 0.  1.
          4    1    6    6  502    0 -0.39541123801E+03  0.12732090434E+02 -0.28273206543E+03  0.48626080872E+03  0.00000000000E+00 0. -1.
          1    1    5    5  503    0  0.13177187830E+03 -0.18113929370E+03  0.11591696847E+03  0.25221422484E+03  0.00000000000E+00 0. -1.
         -2    1    5    5    0  503  0.66664962856E+02 -0.14684382105E+03  0.17018760923E+03  0.23445926595E+03  0.00000000000E+00 0.  1.
         -3    1    6    6    0  502  0.36639558177E+01 -0.17186890864E+00 -0.67071788534E+00  0.37288032447E+01  0.00000000000E+00 0.  1.
<mgrwt>
<rscale>  0 0.14756893E+04</rscale>
<asrwt>0</asrwt>
<pdfrwt beam="1">  1        2 0.14789970E+00 0.14756893E+04</pdfrwt>
<pdfrwt beam="2">  1       -2 0.87123609E-01 0.14756893E+04</pdfrwt>
<totfact> 0.29425744E+01</totfact>
</mgrwt>
</event>
<event>
12    1  0.1532786E-007  0.1396102E+04  0.7818608E-02  0.8956645E-01
          1   -1    0    0  501    0  0.00000000000E+00  0.00000000000E+00  0.93379059521E+03  0.93379059521E+03  0.00000000000E+00 0. -1.
         -1   -1    0    0    0  501 -0.00000000000E+00 -0.00000000000E+00 -0.52182476021E+03  0.52182476021E+03  0.00000000000E+00 0.  1.
         23    2    1    2    0    0 -0.23114364944E+03 -0.25267707452E+03 -0.35252687828E+02  0.35647306154E+03  0.92505140077E+02 0.  0.
        254    2    1    2    0    0  0.23114364944E+03  0.25267707452E+03  0.44721852283E+03  0.10991422939E+04  0.94384123898E+03 0.  0.
        -24    2    4    4    0    0 -0.15452336433E+03 -0.98886651238E+02 -0.18745937611E+03  0.27360703740E+03  0.77870105338E+02 0.  0.
         24    2    4    4    0    0  0.38566701377E+03  0.35156372576E+03  0.63467789893E+03  0.82553525649E+03  0.79726567347E+02 0.  0.
         11    1    3    3    0    0 -0.18918513282E+03 -0.18227381973E+03  0.99134835980E+01  0.26289358493E+03  0.00000000000E+00 0. -1.
        -11    1    3    3    0    0 -0.41958516621E+02 -0.70403254785E+02 -0.45166171426E+02  0.93579476610E+02  0.00000000000E+00 0.  1.
          2    1    6    6  502    0  0.10770865311E+03  0.57806461268E+02  0.17215449402E+03  0.21113955274E+03  0.00000000000E+00 0. -1.
          1    1    5    5  503    0 -0.56743335877E+02 -0.46877000876E+02 -0.26503239220E+02  0.78228390414E+02  0.00000000000E+00 0. -1.
         -2    1    5    5    0  503 -0.97780028454E+02 -0.52009650362E+02 -0.16095613689E+03  0.19537864698E+03  0.00000000000E+00 0.  1.
         -1    1    6    6    0  502  0.27795836066E+03  0.29375726449E+03  0.46252340491E+03  0.61439570375E+03  0.00000000000E+00 0.  1.
<mgrwt>
<rscale>  0 0.13961018E+04</rscale>
<asrwt>0</asrwt>
<pdfrwt beam="1">  1        1 0.14366009E+00 0.13961018E+04</pdfrwt>
<pdfrwt beam="2">  1       -1 0.80280732E-01 0.13961018E+04</pdfrwt>
<totfact> 0.25799846E+01</totfact>
</mgrwt>
</event>
<event>
12    1  0.1532786E-007  0.2099738E+04  0.7818608E-02  0.8561359E-01
         -2   -1    0    0    0  501 -0.00000000000E+00  0.00000000000E+00  0.74453099369E+03  0.74453099369E+03  0.00000000000E+00 0.  1.
          2   -1    0    0  501    0  0.00000000000E+00 -0.00000000000E+00 -0.14804289092E+04  0.14804289092E+04  0.00000000000E+00 0. -1.
         23    2    1    2    0    0  0.75180468072E+03  0.27413916945E+03 -0.61158667960E+03  0.10111254579E+04  0.89296488141E+02 0.  0.
        254    2    1    2    0    0 -0.75180468072E+03 -0.27413916945E+03 -0.12431123587E+03  0.12138344449E+04  0.90420031751E+03 0.  0.
        -24    2    4    4    0    0 -0.57392062019E+03 -0.55512647183E+03 -0.26301254205E+03  0.84464439636E+03  0.81843026689E+02 0.  0.
         24    2    4    4    0    0 -0.17788406054E+03  0.28098730238E+03  0.13870130618E+03  0.36919004858E+03  0.80415399901E+02 0.  0.
         13    1    3    3    0    0  0.38629642840E+03  0.99860731679E+02 -0.33189342071E+03  0.51898972922E+03  0.00000000000E+00 0.  1.
        -13    1    3    3    0    0  0.36550825233E+03  0.17427843777E+03 -0.27969325889E+03  0.49213572870E+03  0.00000000000E+00 0. -1.
          2    1    6    6  502    0 -0.18132144788E+03  0.24403447785E+03  0.11442845394E+03  0.32484483205E+03  0.00000000000E+00 0. -1.
          3    1    5    5  503    0 -0.50919473713E+03 -0.51629867479E+03 -0.25527091365E+03  0.76876969325E+03  0.00000000000E+00 0. -1.
         -4    1    5    5    0  503 -0.64725883060E+02 -0.38827797044E+02 -0.77416284007E+01  0.75874703106E+02  0.00000000000E+00 0.  1.
         -1    1    6    6    0  502  0.34373873461E+01  0.36952824537E+02  0.24272852244E+02  0.44345216530E+02  0.00000000000E+00 0.  1.
<mgrwt>
<rscale>  0 0.20997383E+04</rscale>
<asrwt>0</asrwt>
<pdfrwt beam="1">  1        2 0.22775829E+00 0.20997383E+04</pdfrwt>
<pdfrwt beam="2">  1       -2 0.11454323E+00 0.20997383E+04</pdfrwt>
<totfact> 0.71462904E+00</totfact>
</mgrwt>
</event>
<event>
12    1  0.1532786E-007  0.1378367E+04  0.7818608E-02  0.8969628E-01
          2   -1    0    0  501    0  0.00000000000E+00  0.00000000000E+00  0.36175968506E+04  0.36175968506E+04  0.00000000000E+00 0. -1.
         -2   -1    0    0    0  501 -0.00000000000E+00 -0.00000000000E+00 -0.13129548520E+03  0.13129548520E+03  0.00000000000E+00 0.  1.
         23    2    1    2    0    0 -0.73269087375E+02 -0.13374435582E+03  0.19903318654E+04  0.19982887106E+04  0.92091935211E+02 0.  0.
        254    2    1    2    0    0  0.73269087375E+02  0.13374435582E+03  0.14959695000E+04  0.17506036252E+04  0.89634390489E+03 0.  0.
        -24    2    4    4    0    0  0.32774840834E+03  0.39555908904E+03  0.71124715245E+03  0.88115623266E+03  0.81717699437E+02 0.  0.
         24    2    4    4    0    0 -0.25447932097E+03 -0.26181473322E+03  0.78472234755E+03  0.86944739256E+03  0.82721982265E+02 0.  0.
         11    1    3    3    0    0  0.21843923624E+02 -0.32883373433E+02  0.42452228400E+03  0.42635389392E+03  0.00000000000E+00 0.  1.
        -11    1    3    3    0    0 -0.95113010999E+02 -0.10086098239E+03  0.15658095814E+04  0.15719348167E+04  0.00000000000E+00 0. -1.
          4    1    6    6  502    0  0.52041599473E+00  0.49974491728E+01  0.14937859820E+02  0.15760234359E+02  0.00000000000E+00 0. -1.
          1    1    5    5  503    0  0.68816846701E+02  0.47148920835E+02  0.84308721049E+02  0.11860328651E+03  0.00000000000E+00 0. -1.
         -2    1    5    5    0  503  0.25893156164E+03  0.34841016821E+03  0.62693843140E+03  0.76255294615E+03  0.00000000000E+00 0.  1.
         -3    1    6    6    0  502 -0.25499973696E+03 -0.26681218239E+03  0.76978448773E+03  0.85368715820E+03  0.00000000000E+00 0.  1.
<mgrwt>
<rscale>  0 0.13783673E+04</rscale>
<asrwt>0</asrwt>
<pdfrwt beam="1">  1        2 0.55655329E+00 0.13783673E+04</pdfrwt>
<pdfrwt beam="2">  1       -2 0.20199308E-01 0.13783673E+04</pdfrwt>
<totfact> 0.14011910E+01</totfact>
</mgrwt>
</event>
<event>
12    1  0.1532786E-007  0.2323992E+04  0.7818608E-02  0.8468521E-01
          2   -1    0    0  501    0  0.00000000000E+00  0.00000000000E+00  0.11745278907E+04  0.11745278907E+04  0.00000000000E+00 0. -1.
         -2   -1    0    0    0  501 -0.00000000000E+00 -0.00000000000E+00 -0.11495974203E+04  0.11495974203E+04  0.00000000000E+00 0.  1.
         23    2    1    2    0    0 -0.67389189906E+03 -0.58697753940E+03  0.42456647967E+03  0.99373728906E+03  0.92650853353E+02 0.  0.
        254    2    1    2    0    0  0.67389189906E+03  0.58697753940E+03 -0.39963600923E+03  0.13303880219E+04  0.90086093581E+03 0.  0.
        -24    2    4    4    0    0  0.22409733511E+03 -0.15115361403E+03  0.13335794271E+03  0.31175829717E+03  0.79635823151E+02 0.  0.
         24    2    4    4    0    0  0.44979456394E+03  0.73813115343E+03 -0.53299395194E+03  0.10186297248E+04  0.79819884552E+02 0.  0.
         11    1    3    3    0    0 -0.55685932852E+03 -0.43489561926E+03  0.33149197425E+03  0.78045719959E+03  0.00000000000E+00 0. -1.
        -11    1    3    3    0    0 -0.11703257054E+03 -0.15208192015E+03  0.93074505419E+02  0.21328008946E+03  0.00000000000E+00 0.  1.
          4    1    6    6  502    0  0.41803160045E+03  0.67428450067E+03 -0.46232898511E+03  0.91823640599E+03  0.00000000000E+00 0. -1.
          3    1    5    5  503    0  0.14131716188E+03 -0.10840502571E+03  0.45791735867E+02  0.18389962728E+03  0.00000000000E+00 0. -1.
         -4    1    5    5    0  503  0.82780173239E+02 -0.42748588321E+02  0.87566206841E+02  0.12785866989E+03  0.00000000000E+00 0.  1.
         -3    1    6    6    0  502  0.31762963491E+02  0.63846652764E+02 -0.70664966831E+02  0.10039331878E+03  0.00000000000E+00 0.  1.
<mgrwt>
<rscale>  0 0.23239916E+04</rscale>
<asrwt>0</asrwt>
<pdfrwt beam="1">  1        2 0.18069660E+00 0.23239916E+04</pdfrwt>
<pdfrwt beam="2">  1       -2 0.17686114E+00 0.23239916E+04</pdfrwt>
<totfact> 0.33849018E+00</totfact>
</mgrwt>
</event>
<event>
12    1  0.1532786E-007  0.2049627E+04  0.7818608E-02  0.8583763E-01
         -2   -1    0    0    0  501 -0.00000000000E+00  0.00000000000E+00  0.11906336425E+04  0.11906336425E+04  0.00000000000E+00 0.  1.
          2   -1    0    0  501    0  0.00000000000E+00 -0.00000000000E+00 -0.88208746162E+03  0.88208746162E+03  0.00000000000E+00 0. -1.
         23    2    1    2    0    0 -0.70627278513E+03 -0.39651409144E+03  0.27647411986E+03  0.86107332630E+03  0.94681902060E+02 0.  0.
        254    2    1    2    0    0  0.70627278513E+03  0.39651409144E+03  0.32072060998E+02  0.12116477778E+04  0.90056484976E+03 0.  0.
        -24    2    4    4    0    0 -0.20820810895E+03  0.11294630818E+03  0.61705872957E+01  0.25009857330E+03  0.80023340687E+02 0.  0.
         24    2    4    4    0    0  0.91448089408E+03  0.28356778326E+03  0.25901473702E+02  0.96154920451E+03  0.84970541983E+02 0.  0.
         11    1    3    3    0    0 -0.35987111261E+03 -0.18150166709E+03  0.18372514391E+03  0.44295033734E+03  0.00000000000E+00 0. -1.
        -11    1    3    3    0    0 -0.34640167253E+03 -0.21501242435E+03  0.92748975948E+02  0.41812298895E+03  0.00000000000E+00 0.  1.
          2    1    6    6  502    0  0.83656342223E+03  0.28341624998E+03  0.22373449229E+02  0.88355175366E+03  0.00000000000E+00 0. -1.
          3    1    5    5  503    0 -0.16943667867E+03  0.65370247605E+02 -0.21306153578E+02  0.18285515998E+03  0.00000000000E+00 0. -1.
         -4    1    5    5    0  503 -0.38771430274E+02  0.47576060571E+02  0.27476740873E+02  0.67243413313E+02  0.00000000000E+00 0.  1.
         -1    1    6    6    0  502  0.77917471849E+02  0.15153328345E+00  0.35280244732E+01  0.77997450845E+02  0.00000000000E+00 0.  1.
<mgrwt>
<rscale>  0 0.20496273E+04</rscale>
<asrwt>0</asrwt>
<pdfrwt beam="1">  1        2 0.13570576E+00 0.20496273E+04</pdfrwt>
<pdfrwt beam="2">  1       -2 0.18317441E+00 0.20496273E+04</pdfrwt>
<totfact> 0.48099453E+00</totfact>
</mgrwt>
</event>
<event>
12    1  0.1532786E-007  0.1461653E+04  0.7818608E-02  0.8910362E-01
          1   -1    0    0  501    0  0.00000000000E+00  0.00000000000E+00  0.15321874834E+04  0.15321874834E+04  0.00000000000E+00 0. -1.
         -1   -1    0    0    0  501 -0.00000000000E+00 -0.00000000000E+00 -0.34859130465E+03  0.34859130465E+03  0.00000000000E+00 0.  1.
         23    2    1    2    0    0 -0.66540411993E+02  0.11616840166E+03 -0.18011917791E+03  0.24332004820E+03  0.94015975421E+02 0.  0.
        254    2    1    2    0    0  0.66540411993E+02 -0.11616840166E+03  0.13637153567E+04  0.16374587399E+04  0.89645347161E+03 0.  0.
        -24    2    4    4    0    0  0.22583145705E+02  0.21829725789E+03  0.12518861161E+04  0.12734938624E+04  0.80025488132E+02 0.  0.
         24    2    4    4    0    0  0.43957266288E+02 -0.33446565954E+03  0.11182924060E+03  0.36396487744E+03  0.78518369062E+02 0.  0.
         13    1    3    3    0    0 -0.93195685951E+01 -0.12213723130E+02 -0.67164279878E+00  0.15377922342E+02  0.00000000000E+00 0. -1.
        -13    1    3    3    0    0 -0.57220843398E+02  0.12838212479E+03 -0.17944753512E+03  0.22794212586E+03  0.00000000000E+00 0.  1.
          4    1    6    6  502    0  0.15917622240E+02 -0.68594144509E+02  0.58058487446E+02  0.91265082717E+02  0.00000000000E+00 0. -1.
          3    1    5    5  503    0 -0.29296789863E+02  0.10448205873E+03  0.57782253209E+03  0.58792319318E+03  0.00000000000E+00 0. -1.
         -4    1    5    5    0  503  0.51879935568E+02  0.11381519916E+03  0.67406358400E+03  0.68557066926E+03  0.00000000000E+00 0.  1.
         -3    1    6    6    0  502  0.28039644048E+02 -0.26587151503E+03  0.53770753151E+02  0.27269979472E+03  0.00000000000E+00 0.  1.
<mgrwt>
<rscale>  0 0.14616528E+04</rscale>
<asrwt>0</asrwt>
<pdfrwt beam="1">  1        1 0.23572115E+00 0.14616528E+04</pdfrwt>
<pdfrwt beam="2">  1       -1 0.53629432E-01 0.14616528E+04</pdfrwt>
<totfact> 0.21155397E+01</totfact>
</mgrwt>
</event>
<event>
12    1  0.1532786E-007  0.2331403E+04  0.7818608E-02  0.8465641E-01
          2   -1    0    0  501    0  0.00000000000E+00  0.00000000000E+00  0.21546156157E+04  0.21546156157E+04  0.00000000000E+00 0. -1.
         -2   -1    0    0    0  501 -0.00000000000E+00 -0.00000000000E+00 -0.63067422692E+03  0.63067422692E+03  0.00000000000E+00 0.  1.
         23    2    1    2    0    0 -0.18151831820E+03 -0.48314036119E+03  0.16827401885E+04  0.17623898517E+04  0.89609925457E+02 0.  0.
        254    2    1    2    0    0  0.18151831820E+03  0.48314036119E+03 -0.15879879971E+03  0.10228999910E+04  0.86875417944E+03 0.  0.
        -24    2    4    4    0    0  0.25318981474E+03 -0.15097177078E+03 -0.22065889731E+03  0.37661554702E+03  0.79065564116E+02 0.  0.
         24    2    4    4    0    0 -0.71671496545E+02  0.63411213197E+03  0.61860097605E+02  0.64628444396E+03  0.81375128299E+02 0.  0.
         13    1    3    3    0    0 -0.16094079555E+03 -0.38673504179E+03  0.14580072862E+04  0.15169875341E+04  0.00000000000E+00 0. -1.
        -13    1    3    3    0    0 -0.20577522649E+02 -0.96405319397E+02  0.22473290235E+03  0.24540231752E+03  0.00000000000E+00 0.  1.
          2    1    6    6  502    0  0.44333646622E+01  0.26089651084E+03  0.46747701808E+02  0.26508864879E+03  0.00000000000E+00 0. -1.
          1    1    5    5  503    0 -0.19253009814E+01 -0.16805717306E+02 -0.10795014027E+02  0.20066670025E+02  0.00000000000E+00 0. -1.
         -2    1    5    5    0  503  0.25511511573E+03 -0.13416605347E+03 -0.20986388329E+03  0.35654887699E+03  0.00000000000E+00 0.  1.
         -1    1    6    6    0  502 -0.76104861208E+02  0.37321562112E+03  0.15112395797E+02  0.38119579517E+03  0.00000000000E+00 0.  1.
<mgrwt>
<rscale>  0 0.23314035E+04</rscale>
<asrwt>0</asrwt>
<pdfrwt beam="1">  1        2 0.33147932E+00 0.23314035E+04</pdfrwt>
<pdfrwt beam="2">  1       -2 0.97026805E-01 0.23314035E+04</pdfrwt>
<totfact> 0.43919362E+00</totfact>
</mgrwt>
</event>
<event>
12    1  0.1532786E-007  0.2186343E+04  0.7818608E-02  0.8524134E-01
         -1   -1    0    0    0  501 -0.00000000000E+00  0.00000000000E+00  0.13778203521E+04  0.13778203521E+04  0.00000000000E+00 0.  1.
          1   -1    0    0  501    0  0.00000000000E+00 -0.00000000000E+00 -0.86732930744E+03  0.86732930744E+03  0.00000000000E+00 0. -1.
         23    2    1    2    0    0  0.81391943542E+03  0.40417978428E+03  0.15172830602E+03  0.92578301808E+03  0.90700453997E+02 0.  0.
        254    2    1    2    0    0 -0.81391943542E+03 -0.40417978428E+03  0.35876273861E+03  0.13193666414E+04  0.88667439711E+03 0.  0.
        -24    2    4    4    0    0  0.17194913534E+03 -0.11675520153E+03  0.14849730981E+03  0.26809209048E+03  0.81385721910E+02 0.  0.
         24    2    4    4    0    0 -0.98586857075E+03 -0.28742458275E+03  0.21026542880E+03  0.10512745509E+04  0.80105563661E+02 0.  0.
         11    1    3    3    0    0 -0.77221367434E+00  0.45883149762E+01 -0.26171216117E+01  0.53383774511E+01  0.00000000000E+00 0.  1.
        -11    1    3    3    0    0  0.81469164909E+03  0.39959146930E+03  0.15434542763E+03  0.92044464063E+03  0.00000000000E+00 0. -1.
          4    1    6    6  502    0 -0.97826457592E+03 -0.29066407032E+03  0.20357135191E+03  0.10406384951E+04  0.00000000000E+00 0. -1.
          1    1    5    5  503    0  0.13840163873E+03 -0.96503810426E+02  0.15410227178E+03  0.22850713161E+03  0.00000000000E+00 0. -1.
         -2    1    5    5    0  503  0.33547496601E+02 -0.20251391107E+02 -0.56049619684E+01  0.39584958869E+02  0.00000000000E+00 0.  1.
         -1    1    6    6    0  502 -0.76039948370E+01  0.32394875773E+01  0.66940768909E+01  0.10636055785E+02  0.00000000000E+00 0.  1.
<mgrwt>
<rscale>  0 0.21863430E+04</rscale>
<asrwt>0</asrwt>
<pdfrwt beam="1">  1        1 0.13343528E+00 0.21863430E+04</pdfrwt>
<pdfrwt beam="2">  1       -1 0.21197236E+00 0.21863430E+04</pdfrwt>
<totfact> 0.22035499E+00</totfact>
</mgrwt>
</event>
<event>
12    1  0.1532786E-007  0.3386190E+04  0.7818608E-02  0.8141304E-01
          2   -1    0    0  501    0  0.00000000000E+00  0.00000000000E+00  0.25216298648E+04  0.25216298648E+04  0.00000000000E+00 0. -1.
         -2   -1    0    0    0  501 -0.00000000000E+00 -0.00000000000E+00 -0.11367928984E+04  0.11367928984E+04  0.00000000000E+00 0.  1.
         23    2    1    2    0    0 -0.14833686728E+04 -0.51526856237E+03  0.59452589389E+03  0.16813743746E+04  0.87603870648E+02 0.  0.
        254    2    1    2    0    0  0.14833686728E+04  0.51526856237E+03  0.79031107252E+03  0.19770483886E+04  0.90456864241E+03 0.  0.
        -24    2    4    4    0    0  0.29989426598E+03 -0.96316540174E+02 -0.13645114303E+03  0.35230192299E+03  0.79273474915E+02 0.  0.
         24    2    4    4    0    0  0.11834744068E+04  0.61158510254E+03  0.92676221555E+03  0.16247464656E+04  0.79150895266E+02 0.  0.
         13    1    3    3    0    0 -0.82271582137E+03 -0.29038350799E+03  0.28390405089E+03  0.91748864547E+03  0.00000000000E+00 0.  1.
        -13    1    3    3    0    0 -0.66065285143E+03 -0.22488505438E+03  0.31062184300E+03  0.76388572911E+03  0.00000000000E+00 0. -1.
          2    1    6    6  502    0  0.59099558985E+03  0.30518572316E+03  0.51091317667E+03  0.83871710781E+03  0.00000000000E+00 0. -1.
          3    1    5    5  503    0  0.21059760281E+03 -0.28580267099E+02 -0.83503599476E+02  0.22834411116E+03  0.00000000000E+00 0. -1.
         -2    1    5    5    0  503  0.89296663171E+02 -0.67736273074E+02 -0.52947543553E+02  0.12395781182E+03  0.00000000000E+00 0.  1.
         -1    1    6    6    0  502  0.59247881697E+03  0.30639937938E+03  0.41584903888E+03  0.78602935784E+03  0.00000000000E+00 0.  1.
<mgrwt>
<rscale>  0 0.33861901E+04</rscale>
<asrwt>0</asrwt>
<pdfrwt beam="1">  1        2 0.38794306E+00 0.33861901E+04</pdfrwt>
<pdfrwt beam="2">  1       -2 0.17489122E+00 0.33861901E+04</pdfrwt>
<totfact> 0.55196482E-01</totfact>
</mgrwt>
</event>
<event>
12    1  0.1532786E-007  0.1814786E+04  0.7818608E-02  0.8698476E-01
         -2   -1    0    0    0  501 -0.00000000000E+00  0.00000000000E+00  0.28863660256E+03  0.28863660256E+03  0.00000000000E+00 0.  1.
          2   -1    0    0  501    0  0.00000000000E+00 -0.00000000000E+00 -0.28525904809E+04  0.28525904809E+04  0.00000000000E+00 0. -1.
         23    2    1    2    0    0  0.10166433544E+03  0.42374310575E+03 -0.66715204459E+02  0.45042811005E+03  0.92415945810E+02 0.  0.
        254    2    1    2    0    0 -0.10166433544E+03 -0.42374310575E+03 -0.24972386738E+04  0.26907989734E+04  0.90238808955E+03 0.  0.
        -24    2    4    4    0    0 -0.16383056504E+03 -0.67790929531E+03 -0.14855401100E+04  0.16427366834E+04  0.73163692963E+02 0.  0.
         24    2    4    4    0    0  0.62166229598E+02  0.25416618956E+03 -0.10116985639E+04  0.10480622900E+04  0.80221490074E+02 0.  0.
         13    1    3    3    0    0  0.78376997653E+02  0.27230144410E+03 -0.85704391630E+02  0.29603424289E+03  0.00000000000E+00 0. -1.
        -13    1    3    3    0    0  0.23287337791E+02  0.15144166165E+03  0.18989187171E+02  0.15439386716E+03  0.00000000000E+00 0.  1.
          2    1    6    6  502    0  0.35688560034E+02  0.23694707097E+03 -0.93258356058E+03  0.96287573716E+03  0.00000000000E+00 0. -1.
          1    1    5    5  503    0 -0.16922667741E+03 -0.60971287932E+03 -0.13330711614E+04  0.14756239985E+04  0.00000000000E+00 0. -1.
         -2    1    5    5    0  503  0.53961123682E+01 -0.68196415996E+02 -0.15246894857E+03  0.16711268492E+03  0.00000000000E+00 0.  1.
         -1    1    6    6    0  502  0.26477669565E+02  0.17219118596E+02 -0.79115003313E+02  0.85186552813E+02  0.00000000000E+00 0.  1.
<mgrwt>
<rscale>  0 0.18147860E+04</rscale>
<asrwt>0</asrwt>
<pdfrwt beam="1">  1        2 0.43886008E+00 0.18147860E+04</pdfrwt>
<pdfrwt beam="2">  1       -2 0.44405631E-01 0.18147860E+04</pdfrwt>
<totfact> 0.97695606E+00</totfact>
</mgrwt>
</event>
<event>
12    1  0.1532786E-007  0.1940168E+04  0.7818608E-02  0.8635117E-01
          2   -1    0    0  501    0  0.00000000000E+00  0.00000000000E+00  0.36744258649E+04  0.36744258649E+04  0.00000000000E+00 0. -1.
         -2   -1    0    0    0  501 -0.00000000000E+00 -0.00000000000E+00 -0.25611150755E+03  0.25611150755E+03  0.00000000000E+00 0.  1.
         23    2    1    2    0    0 -0.72487270864E+03  0.90022745122E+02  0.84821596911E+03  0.11230924046E+04  0.91223245730E+02 0.  0.
        254    2    1    2    0    0  0.72487270864E+03 -0.90022745122E+02  0.25700983882E+04  0.28074449678E+04  0.86185670737E+03 0.  0.
        -24    2    4    4    0    0 -0.18045433615E+01  0.58056620485E+02  0.14990542798E+04  0.15020963617E+04  0.75867768716E+02 0.  0.
         24    2    4    4    0    0  0.72667725201E+03 -0.14807936561E+03  0.10710441084E+04  0.13053486062E+04  0.82535897888E+02 0.  0.
         13    1    3    3    0    0 -0.68360635284E+03  0.69143477520E+02  0.76797346141E+03  0.10304764449E+04  0.00000000000E+00 0.  1.
        -13    1    3    3    0    0 -0.41266355805E+02  0.20879267602E+02  0.80242507701E+02  0.92615959636E+02  0.00000000000E+00 0. -1.
          2    1    6    6  502    0  0.28724559743E+03 -0.94256115277E+02  0.47063848601E+03  0.55937003229E+03  0.00000000000E+00 0. -1.
          1    1    5    5  503    0  0.97661288474E+01  0.11570440908E+02  0.49806992385E+02  0.52057553399E+02  0.00000000000E+00 0. -1.
         -2    1    5    5    0  503 -0.11570672209E+02  0.46486179576E+02  0.14492472874E+04  0.14500388083E+04  0.00000000000E+00 0.  1.
         -1    1    6    6    0  502  0.43943165457E+03 -0.53823250329E+02  0.60040562238E+03  0.74597857389E+03  0.00000000000E+00 0.  1.
<mgrwt>
<rscale>  0 0.19401678E+04</rscale>
<asrwt>0</asrwt>
<pdfrwt beam="1">  1        2 0.56529625E+00 0.19401678E+04</pdfrwt>
<pdfrwt beam="2">  1       -2 0.39401773E-01 0.19401678E+04</pdfrwt>
<totfact> 0.34942363E+00</totfact>
</mgrwt>
</event>
<event>
12    1  0.1532786E-007  0.2193586E+04  0.7818608E-02  0.8521102E-01
         -1   -1    0    0    0  501 -0.00000000000E+00  0.00000000000E+00  0.99566550915E+03  0.99566550915E+03  0.00000000000E+00 0.  1.
          1   -1    0    0  501    0  0.00000000000E+00 -0.00000000000E+00 -0.12081919219E+04  0.12081919219E+04  0.00000000000E+00 0. -1.
         23    2    1    2    0    0  0.22502630991E+03 -0.32719861096E+03 -0.91375820660E+03  0.10004301857E+04  0.90613051591E+02 0.  0.
        254    2    1    2    0    0 -0.22502630991E+03  0.32719861096E+03  0.70123179388E+03  0.12034272453E+04  0.89376469775E+03 0.  0.
        -24    2    4    4    0    0  0.22020717881E+03  0.50186636313E+02 -0.85738010214E+02  0.25437809684E+03  0.79670004986E+02 0.  0.
         24    2    4    4    0    0 -0.44523348871E+03  0.27701197465E+03  0.78696980409E+03  0.94904914851E+03  0.80026996411E+02 0.  0.
         11    1    3    3    0    0  0.19537077114E+02 -0.31838853502E+01 -0.83351319455E+02  0.85669580149E+02  0.00000000000E+00 0.  1.
        -11    1    3    3    0    0  0.20548923279E+03 -0.32401472561E+03 -0.83040688715E+03  0.91476060553E+03  0.00000000000E+00 0. -1.
          2    1    6    6  502    0 -0.21760857854E+03  0.11412732873E+03  0.30463879622E+03  0.39138642897E+03  0.00000000000E+00 0. -1.
          1    1    5    5  503    0  0.86191302204E+02  0.50152620067E+02 -0.94435961343E+01  0.10016689764E+03  0.00000000000E+00 0. -1.
         -2    1    5    5    0  503  0.13401587661E+03  0.34016246061E-01 -0.76294414080E+02  0.15421119920E+03  0.00000000000E+00 0.  1.
         -1    1    6    6    0  502 -0.22762491017E+03  0.16288464591E+03  0.48233100787E+03  0.55766271953E+03  0.00000000000E+00 0.  1.
<mgrwt>
<rscale>  0 0.21935861E+04</rscale>
<asrwt>0</asrwt>
<pdfrwt beam="1">  1        1 0.18587568E+00 0.21935861E+04</pdfrwt>
<pdfrwt beam="2">  1       -1 0.15317931E+00 0.21935861E+04</pdfrwt>
<totfact> 0.31691292E+00</totfact>
</mgrwt>
</event>
<event>
12    1  0.1532786E-007  0.1608145E+04  0.7818608E-02  0.8815560E-01
         -2   -1    0    0    0  501 -0.00000000000E+00  0.00000000000E+00  0.30528329167E+03  0.30528329167E+03  0.00000000000E+00 0.  1.
          2   -1    0    0  501    0  0.00000000000E+00 -0.00000000000E+00 -0.21178130311E+04  0.21178130311E+04  0.00000000000E+00 0. -1.
         23    2    1    2    0    0  0.21696338371E+03 -0.29037447897E+03 -0.12319326487E+04  0.12874004150E+04  0.91385608865E+02 0.  0.
        254    2    1    2    0    0 -0.21696338371E+03  0.29037447897E+03 -0.58059709068E+03  0.11356959078E+04  0.90626804279E+03 0.  0.
        -24    2    4    4    0    0 -0.51830790672E+03  0.95550625226E+02 -0.11914624800E+03  0.54615633498E+03  0.79485254422E+02 0.  0.
         24    2    4    4    0    0  0.30134452302E+03  0.19482385375E+03 -0.46145084268E+03  0.58953957283E+03  0.76519096805E+02 0.  0.
         13    1    3    3    0    0  0.65341984668E+01 -0.65570759130E+02 -0.21600149991E+03  0.22582928988E+03  0.00000000000E+00 0.  1.
        -13    1    3    3    0    0  0.21042918524E+03 -0.22480371984E+03 -0.10159311488E+04  0.10615711251E+04  0.00000000000E+00 0. -1.
          2    1    6    6  502    0  0.49951992998E+01  0.10911056894E+02 -0.43769347439E+02  0.45384567353E+02  0.00000000000E+00 0. -1.
          3    1    5    5  503    0 -0.19931965854E+03  0.76285921985E+02 -0.45848491716E+02  0.21828869042E+03  0.00000000000E+00 0. -1.
         -4    1    5    5    0  503 -0.31898824818E+03  0.19264703241E+02 -0.73297756285E+02  0.32786764455E+03  0.00000000000E+00 0.  1.
         -1    1    6    6    0  502  0.29634932372E+03  0.18391279685E+03 -0.41768149524E+03  0.54415500547E+03  0.00000000000E+00 0.  1.
<mgrwt>
<rscale>  0 0.16081454E+04</rscale>
<asrwt>0</asrwt>
<pdfrwt beam="1">  1        2 0.32581738E+00 0.16081454E+04</pdfrwt>
<pdfrwt beam="2">  1       -2 0.46966662E-01 0.16081454E+04</pdfrwt>
<totfact> 0.23660386E+01</totfact>
</mgrwt>
</event>
<event>
12    1  0.1532786E-007  0.1468665E+04  0.7818608E-02  0.8905562E-01
          2   -1    0    0  501    0  0.00000000000E+00  0.00000000000E+00  0.13240426116E+04  0.13240426116E+04  0.00000000000E+00 0.  1.
         -2   -1    0    0    0  501 -0.00000000000E+00 -0.00000000000E+00 -0.40727114579E+03  0.40727114579E+03  0.00000000000E+00 0. -1.
         23    2    1    2    0    0 -0.17671675872E+03 -0.13417868413E+03  0.76610163048E+03  0.80275839944E+03  0.90975862559E+02 0.  0.
        254    2    1    2    0    0  0.17671675872E+03  0.13417868413E+03  0.15066983533E+03  0.92855535794E+03  0.88897745832E+03 0.  0.
        -24    2    4    4    0    0 -0.83272675473E+02  0.37277740911E+03 -0.18780748005E+03  0.43316797096E+03  0.80408371946E+02 0.  0.
         24    2    4    4    0    0  0.25998943419E+03 -0.23859872499E+03  0.33847731538E+03  0.49538738698E+03  0.79485298619E+02 0.  0.
         11    1    3    3    0    0 -0.75840662025E+02 -0.12023350999E+02  0.18158944481E+03  0.19715753461E+03  0.00000000000E+00 0. -1.
        -11    1    3    3    0    0 -0.10087609669E+03 -0.12215533313E+03  0.58451218567E+03  0.60560086484E+03  0.00000000000E+00 0.  1.
          4    1    6    6  502    0  0.37968528711E+02 -0.80121890928E+02  0.91533947847E+02  0.12743465065E+03  0.00000000000E+00 0. -1.
          3    1    5    5  503    0 -0.39349026991E+02  0.51245110046E+02 -0.18864708526E+02  0.67307387830E+02  0.00000000000E+00 0. -1.
         -4    1    5    5    0  503 -0.43923648483E+02  0.32153229907E+03 -0.16894277152E+03  0.36586058313E+03  0.00000000000E+00 0.  1.
         -3    1    6    6    0  502  0.22202090548E+03 -0.15847683406E+03  0.24694336753E+03  0.36795273633E+03  0.00000000000E+00 0.  1.
<mgrwt>
<rscale>  0 0.14686652E+04</rscale>
<asrwt>0</asrwt>
<pdfrwt beam="1">  1        2 0.20369886E+00 0.14686652E+04</pdfrwt>
<pdfrwt beam="2">  1       -2 0.62657100E-01 0.14686652E+04</pdfrwt>
<totfact> 0.36612598E+01</totfact>
</mgrwt>
</event>
<event>
12    1  0.1532786E-007  0.1476623E+04  0.7818608E-02  0.8900149E-01
         -2   -1    0    0    0  501 -0.00000000000E+00  0.00000000000E+00  0.40203438340E+03  0.40203438340E+03  0.00000000000E+00 0.  1.
          2   -1    0    0  501    0  0.00000000000E+00 -0.00000000000E+00 -0.13558636835E+04  0.13558636835E+04  0.00000000000E+00 0. -1.
         23    2    1    2    0    0 -0.30868099934E+03 -0.60114731820E+02 -0.73365595305E+03  0.80646886019E+03  0.11507921043E+03 0.  0.
        254    2    1    2    0    0  0.30868099934E+03  0.60114731820E+02 -0.22017334703E+03  0.95142920668E+03  0.87054206805E+03 0.  0.
        -24    2    4    4    0    0 -0.16349075549E+03 -0.28038772683E+03 -0.12681498993E+03  0.35677486463E+03  0.76549055365E+02 0.  0.
         24    2    4    4    0    0  0.47217175483E+03  0.34050245865E+03 -0.93358357098E+02  0.59465434205E+03  0.77523630408E+02 0.  0.
         13    1    3    3    0    0 -0.25537715839E+03 -0.34718950963E+02 -0.67798306606E+03  0.72531643884E+03  0.00000000000E+00 0. -1.
        -13    1    3    3    0    0 -0.53303840953E+02 -0.25395780857E+02 -0.55672886992E+02  0.81152421355E+02  0.00000000000E+00 0.  1.
          2    1    6    6  502    0  0.19959020660E+03  0.15859360676E+03 -0.77977651532E+02  0.26658712800E+03  0.00000000000E+00 0. -1.
          3    1    5    5  503    0 -0.87628708595E+02 -0.21883148166E+03 -0.92652226025E+02  0.25327937722E+03  0.00000000000E+00 0. -1.
         -4    1    5    5    0  503 -0.75862046895E+02 -0.61556245168E+02 -0.34162763903E+02  0.10349548742E+03  0.00000000000E+00 0.  1.
         -1    1    6    6    0  502  0.27258154823E+03  0.18190885189E+03 -0.15380705566E+02  0.32806721405E+03  0.00000000000E+00 0.  1.
<mgrwt>
<rscale>  0 0.14766229E+04</rscale>
<asrwt>0</asrwt>
<pdfrwt beam="1">  1        2 0.20859441E+00 0.14766229E+04</pdfrwt>
<pdfrwt beam="2">  1       -2 0.61851443E-01 0.14766229E+04</pdfrwt>
<totfact> 0.36051491E+01</totfact>
</mgrwt>
</event>
<event>
12    1  0.1532786E-007  0.1777734E+04  0.7818608E-02  0.8718231E-01
          1   -1    0    0  501    0  0.00000000000E+00  0.00000000000E+00  0.10251614247E+04  0.10251614247E+04  0.00000000000E+00 0. -1.
         -1   -1    0    0    0  501 -0.00000000000E+00 -0.00000000000E+00 -0.77069266717E+03  0.77069266717E+03  0.00000000000E+00 0.  1.
         23    2    1    2    0    0  0.25344501729E+03  0.17489210713E+03  0.66255861251E+03  0.73604603022E+03  0.89208842983E+02 0.  0.
        254    2    1    2    0    0 -0.25344501729E+03 -0.17489210713E+03 -0.40808985501E+03  0.10598080616E+04  0.92835024199E+03 0.  0.
        -24    2    4    4    0    0  0.17158486986E+03 -0.43052978759E+03 -0.14267565929E+03  0.49140700065E+03  0.79543893331E+02 0.  0.
         24    2    4    4    0    0 -0.42502988716E+03  0.25563768047E+03 -0.26541419572E+03  0.56840106098E+03  0.81449629696E+02 0.  0.
         11    1    3    3    0    0  0.21043207334E+03  0.14842938087E+03  0.45885472036E+03  0.52617543936E+03  0.00000000000E+00 0. -1.
        -11    1    3    3    0    0  0.43012943954E+02  0.26462726258E+02  0.20370389216E+03  0.20987059086E+03  0.00000000000E+00 0.  1.
          2    1    6    6  502    0 -0.15578763945E+03  0.80673480182E+02 -0.52488211771E+02  0.18312021020E+03  0.00000000000E+00 0. -1.
          3    1    5    5  503    0  0.72322891115E+02 -0.10186903220E+03 -0.18379121196E+02  0.12627625429E+03  0.00000000000E+00 0. -1.
         -4    1    5    5    0  503  0.99261978749E+02 -0.32866075539E+03 -0.12429653809E+03  0.36513074637E+03  0.00000000000E+00 0.  1.
         -1    1    6    6    0  502 -0.26924224771E+03  0.17496420028E+03 -0.21292598395E+03  0.38528085077E+03  0.00000000000E+00 0.  1.
<mgrwt>
<rscale>  0 0.17777338E+04</rscale>
<asrwt>0</asrwt>
<pdfrwt beam="1">  1        1 0.15771714E+00 0.17777338E+04</pdfrwt>
<pdfrwt beam="2">  1       -1 0.11856810E+00 0.17777338E+04</pdfrwt>
<totfact> 0.87190962E+00</totfact>
</mgrwt>
</event>
<event>
12    1  0.1532786E-007  0.3281881E+04  0.7818608E-02  0.8167521E-01
         -2   -1    0    0    0  501 -0.00000000000E+00  0.00000000000E+00  0.82883768897E+03  0.82883768897E+03  0.00000000000E+00 0.  1.
          2   -1    0    0  501    0  0.00000000000E+00 -0.00000000000E+00 -0.32487493419E+04  0.32487493419E+04  0.00000000000E+00 0. -1.
         23    2    1    2    0    0  0.59711291439E+03  0.13801364187E+04 -0.90857906711E+03  0.17595015443E+04  0.94917840657E+02 0.  0.
        254    2    1    2    0    0 -0.59711291439E+03 -0.13801364187E+04 -0.15113325858E+04  0.23180854866E+04  0.90998558858E+03 0.  0.
        -24    2    4    4    0    0 -0.29093494003E+03 -0.11922408139E+04 -0.15139679046E+04  0.19505170351E+04  0.79602702178E+02 0.  0.
         24    2    4    4    0    0 -0.30617797436E+03 -0.18789560481E+03  0.26353188211E+01  0.36756845151E+03  0.77781176077E+02 0.  0.
         11    1    3    3    0    0  0.74901860337E+02  0.10924550777E+03 -0.90105786526E+02  0.16019963300E+03  0.00000000000E+00 0.  1.
        -11    1    3    3    0    0  0.52221105405E+03  0.12708909109E+04 -0.81847328059E+03  0.15993019113E+04  0.00000000000E+00 0. -1.
          4    1    6    6  502    0 -0.88599521123E+02 -0.35570672416E+02  0.31188126314E+02  0.10043827509E+03  0.00000000000E+00 0. -1.
          1    1    5    5  503    0 -0.98421552107E+02 -0.33280745229E+03 -0.37872168127E+03  0.51369029004E+03  0.00000000000E+00 0. -1.
         -2    1    5    5    0  503 -0.19251338792E+03 -0.85943336158E+03 -0.11352462234E+04  0.14368267450E+04  0.00000000000E+00 0.  1.
         -3    1    6    6    0  502 -0.21757845324E+03 -0.15232493239E+03 -0.28552807493E+02  0.26713017642E+03  0.00000000000E+00 0.  1.
<mgrwt>
<rscale>  0 0.32818811E+04</rscale>
<asrwt>0</asrwt>
<pdfrwt beam="1">  1        2 0.49980759E+00 0.32818811E+04</pdfrwt>
<pdfrwt beam="2">  1       -2 0.12751349E+00 0.32818811E+04</pdfrwt>
<totfact> 0.45901647E-01</totfact>
</mgrwt>
</event>
<event>
12    1  0.1532786E-007  0.1675568E+04  0.7818608E-02  0.8775423E-01
         -2   -1    0    0    0  501 -0.00000000000E+00  0.00000000000E+00  0.45106858180E+03  0.45106858180E+03  0.00000000000E+00 0.  1.
          2   -1    0    0  501    0  0.00000000000E+00 -0.00000000000E+00 -0.15560426814E+04  0.15560426814E+04  0.00000000000E+00 0. -1.
         23    2    1    2    0    0 -0.49156983839E+03  0.36440531581E+03 -0.57383890752E+03  0.84371929100E+03  0.90216461968E+02 0.  0.
        254    2    1    2    0    0  0.49156983839E+03 -0.36440531581E+03 -0.53113519211E+03  0.11633919722E+04  0.83483180853E+03 0.  0.
        -24    2    4    4    0    0  0.28743206925E+03 -0.16833644362E+03 -0.73127144652E+03  0.80737571722E+03  0.78378999624E+02 0.  0.
         24    2    4    4    0    0  0.20413776914E+03 -0.19606887219E+03  0.20013625441E+03  0.35601625501E+03  0.81103773432E+02 0.  0.
         13    1    3    3    0    0 -0.35147042072E+03  0.28148571279E+03 -0.46849368786E+03  0.64980920177E+03  0.00000000000E+00 0.  1.
        -13    1    3    3    0    0 -0.14009941768E+03  0.82919603022E+02 -0.10534521966E+03  0.19391008923E+03  0.00000000000E+00 0. -1.
          4    1    6    6  502    0  0.10321069555E+03 -0.69954661489E+02  0.12934958881E+03  0.17965917306E+03  0.00000000000E+00 0. -1.
          1    1    5    5  503    0  0.13530559638E+03 -0.11808827527E+03 -0.43380207297E+03  0.46950685159E+03  0.00000000000E+00 0. -1.
         -2    1    5    5    0  503  0.15212647287E+03 -0.50248168347E+02 -0.29746937354E+03  0.33786886563E+03  0.00000000000E+00 0.  1.
         -3    1    6    6    0  502  0.10092707360E+03 -0.12611421070E+03  0.70786665607E+02  0.17635708195E+03  0.00000000000E+00 0.  1.
<mgrwt>
<rscale>  0 0.16755679E+04</rscale>
<asrwt>0</asrwt>
<pdfrwt beam="1">  1        2 0.23939118E+00 0.16755679E+04</pdfrwt>
<pdfrwt beam="2">  1       -2 0.69395168E-01 0.16755679E+04</pdfrwt>
<totfact> 0.21316892E+01</totfact>
</mgrwt>
</event>
<event>
12    1  0.1532786E-007  0.1428295E+04  0.7818608E-02  0.8933588E-01
         -2   -1    0    0    0  501 -0.00000000000E+00  0.00000000000E+00  0.24432929281E+03  0.24432929281E+03  0.00000000000E+00 0.  1.
          2   -1    0    0  501    0  0.00000000000E+00 -0.00000000000E+00 -0.20873745307E+04  0.20873745307E+04  0.00000000000E+00 0. -1.
         23    2    1    2    0    0 -0.14244075454E+03  0.11309443717E+03  0.63589330520E+02  0.21300819183E+03  0.90824922579E+02 0.  0.
        254    2    1    2    0    0  0.14244075454E+03 -0.11309443717E+03 -0.19066345684E+04  0.21186956317E+04  0.90583446720E+03 0.  0.
        -24    2    4    4    0    0 -0.25650385473E+03 -0.29673876601E+03 -0.13331776475E+04  0.13919627439E+04  0.79683862711E+02 0.  0.
         24    2    4    4    0    0  0.39894460927E+03  0.18364432884E+03 -0.57345692096E+03  0.72673288779E+03  0.80036299374E+02 0.  0.
         13    1    3    3    0    0 -0.87674693480E+02  0.94377021529E+02  0.81487847316E+02  0.15242750188E+03  0.00000000000E+00 0.  1.
        -13    1    3    3    0    0 -0.54766061055E+02  0.18717415639E+02 -0.17898516796E+02  0.60580689953E+02  0.00000000000E+00 0. -1.
          2    1    6    6  502    0  0.36998933329E+03  0.18891377168E+03 -0.54902112315E+03  0.68848000229E+03  0.00000000000E+00 0. -1.
          3    1    5    5  503    0 -0.18990303113E+03 -0.18287673320E+03 -0.78303883316E+03  0.82623052172E+03  0.00000000000E+00 0. -1.
         -4    1    5    5    0  503 -0.66600823604E+02 -0.11386203281E+03 -0.55013881429E+03  0.56573222217E+03  0.00000000000E+00 0.  1.
         -1    1    6    6    0  502  0.28955275975E+02 -0.52694428429E+01 -0.24435797806E+02  0.38252885500E+02  0.00000000000E+00 0.  1.
<mgrwt>
<rscale>  0 0.14282951E+04</rscale>
<asrwt>0</asrwt>
<pdfrwt beam="1">  1        2 0.32113453E+00 0.14282951E+04</pdfrwt>
<pdfrwt beam="2">  1       -2 0.37589124E-01 0.14282951E+04</pdfrwt>
<totfact> 0.38762248E+01</totfact>
</mgrwt>
</event>
<event>
12    1  0.1532786E-007  0.1200549E+04  0.7818608E-02  0.9112376E-01
         -1   -1    0    0    0  501 -0.00000000000E+00  0.00000000000E+00  0.17206631356E+03  0.17206631356E+03  0.00000000000E+00 0.  1.
          1   -1    0    0  501    0  0.00000000000E+00 -0.00000000000E+00 -0.20941321042E+04  0.20941321042E+04  0.00000000000E+00 0. -1.
         23    2    1    2    0    0 -0.19960570535E+02 -0.16234984788E+03 -0.63760577889E+02  0.19753866973E+03  0.90555051010E+02 0.  0.
        254    2    1    2    0    0  0.19960570535E+02  0.16234984788E+03 -0.18583052128E+04  0.20686597480E+04  0.89403522966E+03 0.  0.
        -24    2    4    4    0    0 -0.31869955919E+02 -0.28630591274E+03 -0.23047935453E+03  0.37744387721E+03  0.79726895192E+02 0.  0.
         24    2    4    4    0    0  0.51830526453E+02  0.44865576062E+03 -0.16278258582E+04  0.16912158708E+04  0.80098077352E+02 0.  0.
         11    1    3    3    0    0  0.69402183700E+01 -0.15603466062E+03 -0.40334821700E+02  0.16131298703E+03  0.00000000000E+00 0.  1.
        -11    1    3    3    0    0 -0.26900788905E+02 -0.63151872674E+01 -0.23425756189E+02  0.36225682698E+02  0.00000000000E+00 0. -1.
          4    1    6    6  502    0  0.50960667014E+02  0.45114093970E+03 -0.16254652518E+04  0.16876795969E+04  0.00000000000E+00 0. -1.
          3    1    5    5  503    0 -0.20562418377E+02 -0.26476875414E+03 -0.17828834276E+03  0.31986253201E+03  0.00000000000E+00 0. -1.
         -4    1    5    5    0  503 -0.11307537542E+02 -0.21537158603E+02 -0.52191011765E+02  0.57581345200E+02  0.00000000000E+00 0.  1.
         -3    1    6    6    0  502  0.86985943918E+00 -0.24851790787E+01 -0.23606064766E+01  0.35362739479E+01  0.00000000000E+00 0.  1.
<mgrwt>
<rscale>  0 0.12005492E+04</rscale>
<asrwt>0</asrwt>
<pdfrwt beam="1">  1        1 0.32217417E+00 0.12005492E+04</pdfrwt>
<pdfrwt beam="2">  1       -1 0.26471741E-01 0.12005492E+04</pdfrwt>
<totfact> 0.32389126E+01</totfact>
</mgrwt>
</event>
<event>
12    1  0.1532786E-007  0.1862004E+04  0.7818608E-02  0.8674004E-01
         -1   -1    0    0    0  501 -0.00000000000E+00  0.00000000000E+00  0.12993577923E+04  0.12993577923E+04  0.00000000000E+00 0.  1.
          1   -1    0    0  501    0  0.00000000000E+00 -0.00000000000E+00 -0.66707160899E+03  0.66707160899E+03  0.00000000000E+00 0. -1.
         23    2    1    2    0    0 -0.20577034382E+03 -0.19533670353E+03  0.10004240260E+04  0.10435219263E+04  0.87131606786E+02 0.  0.
        254    2    1    2    0    0  0.20577034382E+03  0.19533670353E+03 -0.36813784268E+03  0.92290747492E+03  0.79732984010E+03 0.  0.
        -24    2    4    4    0    0 -0.97790297356E+02 -0.24956790889E+03 -0.22793193071E+03  0.36047816789E+03  0.78386612932E+02 0.  0.
         24    2    4    4    0    0  0.30356064117E+03  0.44490461241E+03 -0.14020591197E+03  0.56242930702E+03  0.81116278477E+02 0.  0.
         11    1    3    3    0    0 -0.17060670394E+03 -0.13485069228E+03  0.62809472680E+03  0.66467611847E+03  0.00000000000E+00 0.  1.
        -11    1    3    3    0    0 -0.35163639882E+02 -0.60486011243E+02  0.37232929917E+03  0.37884580788E+03  0.00000000000E+00 0. -1.
          4    1    6    6  502    0  0.30009353792E+03  0.44204978499E+03 -0.12797695992E+03  0.54940171658E+03  0.00000000000E+00 0. -1.
          3    1    5    5  503    0 -0.34084352384E+02 -0.14861130528E+03 -0.86121646012E+02  0.17511139610E+03  0.00000000000E+00 0. -1.
         -4    1    5    5    0  503 -0.63705944972E+02 -0.10095660361E+03 -0.14181028470E+03  0.18536677179E+03  0.00000000000E+00 0.  1.
         -3    1    6    6    0  502  0.34671032511E+01  0.28548274223E+01 -0.12228952048E+02  0.13027590443E+02  0.00000000000E+00 0.  1.
<mgrwt>
<rscale>  0 0.18620040E+04</rscale>
<asrwt>0</asrwt>
<pdfrwt beam="1">  1        1 0.10262640E+00 0.18620040E+04</pdfrwt>
<pdfrwt beam="2">  1       -1 0.19990120E+00 0.18620040E+04</pdfrwt>
<totfact> 0.41451846E+00</totfact>
</mgrwt>
</event>
<event>
12    1  0.1532786E-007  0.2009674E+04  0.7818608E-02  0.8602111E-01
          2   -1    0    0  501    0  0.00000000000E+00  0.00000000000E+00  0.13380456343E+04  0.13380456343E+04  0.00000000000E+00 0. -1.
         -2   -1    0    0    0  501 -0.00000000000E+00 -0.00000000000E+00 -0.75460607657E+03  0.75460607657E+03  0.00000000000E+00 0.  1.
         23    2    1    2    0    0  0.19552384532E+03  0.51125202047E+03 -0.37559959254E+03  0.66630617962E+03  0.57277120676E+02 0.  0.
        254    2    1    2    0    0 -0.19552384532E+03 -0.51125202047E+03  0.95903915032E+03  0.14263455313E+04  0.90282738123E+03 0.  0.
        -24    2    4    4    0    0 -0.17468475332E+03  0.23302486891E+03  0.34265557863E+03  0.45652490759E+03  0.78656170219E+02 0.  0.
         24    2    4    4    0    0 -0.20839092001E+02 -0.74427688938E+03  0.61638357168E+03  0.96982062371E+03  0.78999866537E+02 0.  0.
         11    1    3    3    0    0  0.14500029336E+03  0.39487141605E+03 -0.31604824615E+03  0.52615113245E+03  0.00000000000E+00 0. -1.
        -11    1    3    3    0    0  0.50523551962E+02  0.11638060442E+03 -0.59551346394E+02  0.14015504717E+03  0.00000000000E+00 0.  1.
          4    1    6    6  502    0  0.12484592905E+02 -0.23741399088E+03  0.15665335961E+03  0.28471308927E+03  0.00000000000E+00 0. -1.
          3    1    5    5  503    0 -0.44008649613E+02  0.28755283954E+02  0.28921136542E+02  0.60000497789E+02  0.00000000000E+00 0. -1.
         -4    1    5    5    0  503 -0.13067610371E+03  0.20426958496E+03  0.31373444209E+03  0.39652440980E+03  0.00000000000E+00 0.  1.
         -3    1    6    6    0  502 -0.33323684906E+02 -0.50686289850E+03  0.45973021207E+03  0.68510753444E+03  0.00000000000E+00 0.  1.
<mgrwt>
<rscale>  0 0.20096740E+04</rscale>
<asrwt>0</asrwt>
<pdfrwt beam="1">  1        2 0.20585317E+00 0.20096740E+04</pdfrwt>
<pdfrwt beam="2">  1       -2 0.11609324E+00 0.20096740E+04</pdfrwt>
<totfact> 0.84043822E+00</totfact>
</mgrwt>
</event>
<event>
12    1  0.1532786E-007  0.1346313E+04  0.7818608E-02  0.8993624E-01
          2   -1    0    0  501    0  0.00000000000E+00  0.00000000000E+00  0.35803949172E+04  0.35803949172E+04  0.00000000000E+00 0. -1.
         -2   -1    0    0    0  501 -0.00000000000E+00 -0.00000000000E+00 -0.12656128743E+03  0.12656128743E+03  0.00000000000E+00 0.  1.
         23    2    1    2    0    0  0.46872220871E+02  0.32389989153E+03  0.52110201514E+03  0.62220685534E+03  0.92119030808E+02 0.  0.
        254    2    1    2    0    0 -0.46872220871E+02 -0.32389989153E+03  0.29327316147E+04  0.30847493493E+04  0.89869665609E+03 0.  0.
        -24    2    4    4    0    0 -0.35670124654E+03 -0.31262176433E+03  0.25031808758E+04  0.25490701943E+04  0.82922923943E+02 0.  0.
         24    2    4    4    0    0  0.30982902567E+03 -0.11278127195E+02  0.42955073882E+03  0.53567915505E+03  0.79480177600E+02 0.  0.
         11    1    3    3    0    0  0.18327073388E+02  0.79231600085E+02  0.21130785358E+03  0.22641673317E+03  0.00000000000E+00 0. -1.
        -11    1    3    3    0    0  0.28545147483E+02  0.24466829144E+03  0.30979416155E+03  0.39579012218E+03  0.00000000000E+00 0.  1.
          4    1    6    6  502    0  0.29230267593E+03 -0.23700933080E+02  0.41979703827E+03  0.51208606886E+03  0.00000000000E+00 0. -1.
          1    1    5    5  503    0 -0.29307768556E+03 -0.22701374081E+03  0.17928605051E+04  0.18307863226E+04  0.00000000000E+00 0. -1.
         -4    1    5    5    0  503 -0.63623560982E+02 -0.85608023518E+02  0.71032037071E+03  0.71828387163E+03  0.00000000000E+00 0.  1.
         -3    1    6    6    0  502  0.17526349744E+02  0.12422805885E+02  0.97537005529E+01  0.23593086188E+02  0.00000000000E+00 0.  1.
<mgrwt>
<rscale>  0 0.13463126E+04</rscale>
<asrwt>0</asrwt>
<pdfrwt beam="1">  1        2 0.55082991E+00 0.13463126E+04</pdfrwt>
<pdfrwt beam="2">  1       -2 0.19470970E-01 0.13463126E+04</pdfrwt>
<totfact> 0.15938650E+01</totfact>
</mgrwt>
</event>
<event>
12    1  0.1532786E-007  0.1798409E+04  0.7818608E-02  0.8707146E-01
         -2   -1    0    0    0  501 -0.00000000000E+00  0.00000000000E+00  0.12075254612E+04  0.12075254612E+04  0.00000000000E+00 0.  1.
          2   -1    0    0  501    0  0.00000000000E+00 -0.00000000000E+00 -0.66960785482E+03  0.66960785482E+03  0.00000000000E+00 0. -1.
         23    2    1    2    0    0 -0.54118119045E+03  0.36930352111E+03  0.32119007816E+03  0.73515586512E+03  0.89604174625E+02 0.  0.
        254    2    1    2    0    0  0.54118119045E+03 -0.36930352111E+03  0.21672752823E+03  0.11419774509E+04  0.90987884099E+03 0.  0.
        -24    2    4    4    0    0 -0.22475391115E+03 -0.19705323063E+03  0.16570753399E+03  0.35095102193E+03  0.79770525232E+02 0.  0.
         24    2    4    4    0    0  0.76593510160E+03 -0.17225029048E+03  0.51019994247E+02  0.79102642897E+03  0.82419834326E+02 0.  0.
         11    1    3    3    0    0 -0.44738159763E+03  0.31878318393E+03  0.30207572243E+03  0.62691526886E+03  0.00000000000E+00 0. -1.
        -11    1    3    3    0    0 -0.93799592826E+02  0.50520337186E+02  0.19114355723E+02  0.10824059626E+03  0.00000000000E+00 0.  1.
          2    1    6    6  502    0  0.26755125295E+03 -0.98782251755E+02  0.62768442306E+01  0.28527356168E+03  0.00000000000E+00 0. -1.
          1    1    5    5  503    0 -0.29095649435E+02 -0.10057819974E+02 -0.46767204100E+01  0.31138212416E+02  0.00000000000E+00 0. -1.
         -2    1    5    5    0  503 -0.19565826171E+03 -0.18699541066E+03  0.17038425440E+03  0.31981280952E+03  0.00000000000E+00 0.  1.
         -1    1    6    6    0  502  0.49838384865E+03 -0.73468038724E+02  0.44743150017E+02  0.50575286730E+03  0.00000000000E+00 0.  1.
<mgrwt>
<rscale>  0 0.17984088E+04</rscale>
<asrwt>0</asrwt>
<pdfrwt beam="1">  1        2 0.10301659E+00 0.17984088E+04</pdfrwt>
<pdfrwt beam="2">  1       -2 0.18577315E+00 0.17984088E+04</pdfrwt>
<totfact> 0.67668892E+00</totfact>
</mgrwt>
</event>
<event>
12    1  0.1532786E-007  0.1972674E+04  0.7818608E-02  0.8619504E-01
          2   -1    0    0  501    0  0.00000000000E+00  0.00000000000E+00  0.16835213139E+04  0.16835213139E+04  0.00000000000E+00 0. -1.
         -2   -1    0    0    0  501 -0.00000000000E+00 -0.00000000000E+00 -0.57787225047E+03  0.57787225047E+03  0.00000000000E+00 0.  1.
         23    2    1    2    0    0  0.53821759455E+03  0.53560213308E+03  0.25062906945E+03  0.80480132972E+03  0.91336880966E+02 0.  0.
        254    2    1    2    0    0 -0.53821759455E+03 -0.53560213308E+03  0.85501999403E+03  0.14565922347E+04  0.90224936905E+03 0.  0.
        -24    2    4    4    0    0 -0.56005844531E+03 -0.33680187599E+03  0.94031664359E+02  0.66503063576E+03  0.79516204433E+02 0.  0.
         24    2    4    4    0    0  0.21840850757E+02 -0.19880025708E+03  0.76098832967E+03  0.79156159894E+03  0.86417371167E+02 0.  0.
         11    1    3    3    0    0  0.36798321348E+03  0.37913831884E+03  0.21688535159E+03  0.57113638122E+03  0.00000000000E+00 0. -1.
        -11    1    3    3    0    0  0.17023438107E+03  0.15646381423E+03  0.33743717866E+02  0.23366494850E+03  0.00000000000E+00 0.  1.
          4    1    6    6  502    0  0.20222293097E+02 -0.12443257704E+03  0.61417257964E+03  0.62697716461E+03  0.00000000000E+00 0. -1.
          1    1    5    5  503    0 -0.37729425925E+03 -0.18687783023E+03  0.77054588511E+02  0.42803234820E+03  0.00000000000E+00 0. -1.
         -2    1    5    5    0  503 -0.18276418605E+03 -0.14992404576E+03  0.16977075849E+02  0.23699828756E+03  0.00000000000E+00 0.  1.
         -3    1    6    6    0  502  0.16185576602E+01 -0.74367680046E+02  0.14681575003E+03  0.16458443432E+03  0.00000000000E+00 0.  1.
<mgrwt>
<rscale>  0 0.19726736E+04</rscale>
<asrwt>0</asrwt>
<pdfrwt beam="1">  1        2 0.25900328E+00 0.19726736E+04</pdfrwt>
<pdfrwt beam="2">  1       -2 0.88903424E-01 0.19726736E+04</pdfrwt>
<totfact> 0.10138729E+01</totfact>
</mgrwt>
</event>
<event>
12    1  0.2466539E-007  0.1914956E+04  0.7818608E-02  0.8647448E-01
         -2   -1    0    0    0  501 -0.00000000000E+00  0.00000000000E+00  0.57613815924E+03  0.57613815924E+03  0.00000000000E+00 0.  1.
          2   -1    0    0  501    0  0.00000000000E+00 -0.00000000000E+00 -0.15912219860E+04  0.15912219860E+04  0.00000000000E+00 0. -1.
         23    2    1    2    0    0  0.60840578561E+02  0.76163529065E+02  0.43596723035E+03  0.45632395550E+03  0.93068078637E+02 0.  0.
        254    2    1    2    0    0 -0.60840578561E+02 -0.76163529065E+02 -0.14510510571E+04  0.17110361898E+04  0.90143952273E+03 0.  0.
        -24    2    4    4    0    0 -0.24752130805E+03 -0.10775975181E+03 -0.14770075340E+04  0.15040052293E+04  0.87186651324E+02 0.  0.
         24    2    4    4    0    0  0.18668072949E+03  0.31596222744E+02  0.25956476883E+02  0.20703096048E+03  0.79624517899E+02 0.  0.
         13    1    3    3    0    0  0.44400142891E+02  0.75094308734E+02  0.18205266516E+03  0.20187545860E+03  0.00000000000E+00 0. -1.
        -13    1    3    3    0    0  0.16440435670E+02  0.10692203309E+01  0.25391456519E+03  0.25444849690E+03  0.00000000000E+00 0.  1.
          2    1    6    6  502    0  0.18094769022E+03  0.47898136479E+02  0.29214178350E+02  0.18944594556E+03  0.00000000000E+00 0. -1.
          3    1    5    5  503    0 -0.24022473511E+03 -0.11376768096E+03 -0.14639571329E+04  0.14878916277E+04  0.00000000000E+00 0. -1.
         -4    1    5    5    0  503 -0.72965729369E+01  0.60079291489E+01 -0.13050401063E+02  0.16113601621E+02  0.00000000000E+00 0.  1.
         -1    1    6    6    0  502  0.57330392663E+01 -0.16301913735E+02 -0.32577014669E+01  0.17585014913E+02  0.00000000000E+00 0.  1.
<mgrwt>
<rscale>  0 0.19149556E+04</rscale>
<asrwt>0</asrwt>
<pdfrwt beam="1">  1        2 0.24480338E+00 0.19149556E+04</pdfrwt>
<pdfrwt beam="2">  1       -2 0.88636641E-01 0.19149556E+04</pdfrwt>
<totfact> 0.11549699E+01</totfact>
</mgrwt>
</event>
<event>
12    1  0.1532786E-007  0.3714952E+04  0.7818608E-02  0.8064656E-01
         -2   -1    0    0    0  501 -0.00000000000E+00  0.00000000000E+00  0.13187788315E+04  0.13187788315E+04  0.00000000000E+00 0.  1.
          2   -1    0    0  501    0  0.00000000000E+00 -0.00000000000E+00 -0.26162213929E+04  0.26162213929E+04  0.00000000000E+00 0. -1.
         23    2    1    2    0    0 -0.10402043407E+04 -0.13598815174E+04 -0.26991746795E+03  0.17356060179E+04  0.90388040755E+02 0.  0.
        254    2    1    2    0    0  0.10402043407E+04  0.13598815174E+04 -0.10275250935E+04  0.21993942065E+04  0.92207605220E+03 0.  0.
        -24    2    4    4    0    0 -0.15003838963E+03  0.21198604354E+03 -0.25385657147E+03  0.37199483016E+03  0.80544358999E+02 0.  0.
         24    2    4    4    0    0  0.11902427304E+04  0.11478954739E+04 -0.77366852205E+03  0.18273993764E+04  0.80521566472E+02 0.  0.
         11    1    3    3    0    0 -0.87315963140E+03 -0.11354636996E+04 -0.19189871871E+03  0.14451680433E+04  0.00000000000E+00 0.  1.
        -11    1    3    3    0    0 -0.16704470935E+03 -0.22441781780E+03 -0.78018749241E+02  0.29043797462E+03  0.00000000000E+00 0. -1.
          4    1    6    6  502    0  0.81320681645E+03  0.73134902236E+03 -0.50954541091E+03  0.12065708618E+04  0.00000000000E+00 0. -1.
          1    1    5    5  503    0 -0.77384025647E+02  0.16107875314E+03 -0.13645209438E+03  0.22484178037E+03  0.00000000000E+00 0. -1.
         -2    1    5    5    0  503 -0.72654363979E+02  0.50907290400E+02 -0.11740447708E+03  0.14715304978E+03  0.00000000000E+00 0.  1.
         -3    1    6    6    0  502  0.37703591393E+03  0.41654645150E+03 -0.26412311114E+03  0.62082851456E+03  0.00000000000E+00 0.  1.
<mgrwt>
<rscale>  0 0.37149522E+04</rscale>
<asrwt>0</asrwt>
<pdfrwt beam="1">  1        2 0.40249560E+00 0.37149522E+04</pdfrwt>
<pdfrwt beam="2">  1       -2 0.20288905E+00 0.37149522E+04</pdfrwt>
<totfact> 0.30601739E-01</totfact>
</mgrwt>
</event>
<event>
12    1  0.1532786E-007  0.1685219E+04  0.7818608E-02  0.8769840E-01
         -1   -1    0    0    0  501 -0.00000000000E+00  0.00000000000E+00  0.35567519320E+03  0.35567519320E+03  0.00000000000E+00 0.  1.
          1   -1    0    0  501    0  0.00000000000E+00 -0.00000000000E+00 -0.19961775110E+04  0.19961775110E+04  0.00000000000E+00 0. -1.
         23    2    1    2    0    0  0.20856947446E+02 -0.47416562622E+03 -0.86656576673E+02  0.49108435346E+03  0.91577434935E+02 0.  0.
        254    2    1    2    0    0 -0.20856947446E+02  0.47416562622E+03 -0.15538457412E+04  0.18607683508E+04  0.90705799956E+03 0.  0.
        -24    2    4    4    0    0 -0.93477252994E+02  0.59706809637E+03 -0.15808119731E+04  0.16942634680E+04  0.79585779450E+02 0.  0.
         24    2    4    4    0    0  0.72620305547E+02 -0.12290247015E+03  0.26966231895E+02  0.16650488278E+03  0.81350921196E+02 0.  0.
         13    1    3    3    0    0 -0.25107463259E+02 -0.30780896476E+03 -0.76669078924E+02  0.31820573715E+03  0.00000000000E+00 0.  1.
        -13    1    3    3    0    0  0.45964410705E+02 -0.16635666146E+03 -0.99874977493E+01  0.17287861631E+03  0.00000000000E+00 0. -1.
          4    1    6    6  502    0  0.55140540845E+02 -0.10502911215E+03  0.53428645839E+02  0.13010078339E+03  0.00000000000E+00 0. -1.
          1    1    5    5  503    0 -0.59131303256E+02  0.49214467726E+03 -0.13571237850E+04  0.14448141272E+04  0.00000000000E+00 0. -1.
         -2    1    5    5    0  503 -0.34345949738E+02  0.10492341911E+03 -0.22368818810E+03  0.24944934082E+03  0.00000000000E+00 0.  1.
         -3    1    6    6    0  502  0.17479764702E+02 -0.17873358002E+02 -0.26462413943E+02  0.36404099385E+02  0.00000000000E+00 0.  1.
<mgrwt>
<rscale>  0 0.16852191E+04</rscale>
<asrwt>0</asrwt>
<pdfrwt beam="1">  1        1 0.30710423E+00 0.16852191E+04</pdfrwt>
<pdfrwt beam="2">  1       -1 0.54719260E-01 0.16852191E+04</pdfrwt>
<totfact> 0.96412868E+00</totfact>
</mgrwt>
</event>
<event>
12    1  0.1532786E-007  0.1235241E+04  0.7818608E-02  0.9082557E-01
          1   -1    0    0  501    0  0.00000000000E+00  0.00000000000E+00  0.81185681761E+03  0.81185681761E+03  0.00000000000E+00 0. -1.
         -1   -1    0    0    0  501 -0.00000000000E+00 -0.00000000000E+00 -0.46985536720E+03  0.46985536720E+03  0.00000000000E+00 0.  1.
         23    2    1    2    0    0  0.38891841598E+02 -0.10909324199E+03 -0.18098683193E+03  0.23546569181E+03  0.96301339017E+02 0.  0.
        254    2    1    2    0    0 -0.38891841598E+02  0.10909324199E+03  0.52298828233E+03  0.10462464930E+04  0.89872190908E+03 0.  0.
        -24    2    4    4    0    0  0.95408283882E+02 -0.44565598879E+02 -0.22849634716E+03  0.26372733924E+03  0.79073987905E+02 0.  0.
         24    2    4    4    0    0 -0.13430012548E+03  0.15365884087E+03  0.75148462949E+03  0.78251915376E+03  0.77197892214E+02 0.  0.
         11    1    3    3    0    0 -0.23946963373E+01  0.11218020840E+02 -0.55907985837E+02  0.57072598000E+02  0.00000000000E+00 0. -1.
        -11    1    3    3    0    0  0.41286537935E+02 -0.12031126283E+03 -0.12507884609E+03  0.17839309381E+03  0.00000000000E+00 0.  1.
          2    1    6    6  502    0 -0.38674173193E+02  0.55832385759E+01  0.93582558071E+02  0.10141281675E+03  0.00000000000E+00 0. -1.
          3    1    5    5  503    0 -0.98352017956E+01 -0.19768729342E+02 -0.55370491977E+02  0.59610613451E+02  0.00000000000E+00 0. -1.
         -4    1    5    5    0  503  0.10524348568E+03 -0.24796869537E+02 -0.17312585518E+03  0.20411672579E+03  0.00000000000E+00 0.  1.
         -1    1    6    6    0  502 -0.95625952286E+02  0.14807560230E+03  0.65790207141E+03  0.68110633701E+03  0.00000000000E+00 0.  1.
<mgrwt>
<rscale>  0 0.12352413E+04</rscale>
<asrwt>0</asrwt>
<pdfrwt beam="1">  1        1 0.12490105E+00 0.12352413E+04</pdfrwt>
<pdfrwt beam="2">  1       -1 0.72285441E-01 0.12352413E+04</pdfrwt>
<totfact> 0.41166591E+01</totfact>
</mgrwt>
</event>
<event>
12    1  0.1532786E-007  0.3123577E+04  0.7818608E-02  0.8209297E-01
         -1   -1    0    0    0  501 -0.00000000000E+00  0.00000000000E+00  0.15705456508E+04  0.15705456508E+04  0.00000000000E+00 0.  1.
          1   -1    0    0  501    0  0.00000000000E+00 -0.00000000000E+00 -0.15530802211E+04  0.15530802211E+04  0.00000000000E+00 0. -1.
         23    2    1    2    0    0  0.41105924983E+03  0.62415218072E+03  0.12285536232E+04  0.14407523438E+04  0.88812497028E+02 0.  0.
        254    2    1    2    0    0 -0.41105924983E+03 -0.62415218072E+03 -0.12110881935E+04  0.16828735280E+04  0.89821659269E+03 0.  0.
        -24    2    4    4    0    0  0.27034327048E+03 -0.21794121434E+03 -0.25715010916E+03  0.43961470105E+03  0.80938556571E+02 0.  0.
         24    2    4    4    0    0 -0.68140252031E+03 -0.40621096638E+03 -0.95393808435E+03  0.12432588270E+04  0.79861744577E+02 0.  0.
         13    1    3    3    0    0  0.85038393777E+01  0.46142566761E+02  0.99319524162E+02  0.10984452481E+03  0.00000000000E+00 0. -1.
        -13    1    3    3    0    0  0.40255541045E+03  0.57800961395E+03  0.11292340990E+04  0.13309078190E+04  0.00000000000E+00 0.  1.
          2    1    6    6  502    0 -0.31283267793E+03 -0.23003102121E+03 -0.48665090441E+03  0.62258144677E+03  0.00000000000E+00 0. -1.
          3    1    5    5  503    0  0.23197157343E+03 -0.14338527246E+03 -0.19670301616E+03  0.33624726587E+03  0.00000000000E+00 0. -1.
         -4    1    5    5    0  503  0.38371697043E+02 -0.74555941880E+02 -0.60447093005E+02  0.10336743518E+03  0.00000000000E+00 0.  1.
         -1    1    6    6    0  502 -0.36856984238E+03 -0.17617994517E+03 -0.46728717995E+03  0.62067738023E+03  0.00000000000E+00 0.  1.
<mgrwt>
<rscale>  0 0.31235770E+04</rscale>
<asrwt>0</asrwt>
<pdfrwt beam="1">  1        1 0.23893542E+00 0.31235770E+04</pdfrwt>
<pdfrwt beam="2">  1       -1 0.24162241E+00 0.31235770E+04</pdfrwt>
<totfact> 0.40046412E-01</totfact>
</mgrwt>
</event>
<event>
12    1  0.1532786E-007  0.1954548E+04  0.7818608E-02  0.8628171E-01
          1   -1    0    0  501    0  0.00000000000E+00  0.00000000000E+00  0.12375988319E+04  0.12375988319E+04  0.00000000000E+00 0. -1.
         -1   -1    0    0    0  501 -0.00000000000E+00 -0.00000000000E+00 -0.77170765152E+03  0.77170765152E+03  0.00000000000E+00 0.  1.
         23    2    1    2    0    0 -0.23365663195E+03  0.17920307651E+03  0.90777795790E+03  0.95866656442E+03  0.90948318270E+02 0.  0.
        254    2    1    2    0    0  0.23365663195E+03 -0.17920307651E+03 -0.44188677749E+03  0.10506399190E+04  0.90657109542E+03 0.  0.
        -24    2    4    4    0    0  0.25024243580E+03 -0.50820687635E+03 -0.12306260999E+03  0.58538440150E+03  0.81455421512E+02 0.  0.
         24    2    4    4    0    0 -0.16585803848E+02  0.32900379984E+03 -0.31882416750E+03  0.46525551753E+03  0.79342659410E+02 0.  0.
         13    1    3    3    0    0 -0.17663733558E+03  0.80328499306E+02  0.57470156894E+03  0.60657671359E+03  0.00000000000E+00 0. -1.
        -13    1    3    3    0    0 -0.57019296370E+02  0.98874577204E+02  0.33307638896E+03  0.35208985083E+03  0.00000000000E+00 0.  1.
          4    1    6    6  502    0  0.25999801358E+02  0.52544635896E+02 -0.65089839035E+02  0.87599175668E+02  0.00000000000E+00 0. -1.
          3    1    5    5  503    0  0.27829824060E+02 -0.13453869086E+03 -0.33322402769E+02  0.14137022661E+03  0.00000000000E+00 0. -1.
         -4    1    5    5    0  503  0.22241261174E+03 -0.37366818549E+03 -0.89740207218E+02  0.44401417489E+03  0.00000000000E+00 0.  1.
         -1    1    6    6    0  502 -0.42585605206E+02  0.27645916395E+03 -0.25373432847E+03  0.37765634186E+03  0.00000000000E+00 0.  1.
<mgrwt>
<rscale>  0 0.19545480E+04</rscale>
<asrwt>0</asrwt>
<pdfrwt beam="1">  1        1 0.19039982E+00 0.19545480E+04</pdfrwt>
<pdfrwt beam="2">  1       -1 0.11872425E+00 0.19545480E+04</pdfrwt>
<totfact> 0.59378372E+00</totfact>
</mgrwt>
</event>
<event>
12    1  0.1532786E-007  0.1854248E+04  0.7818608E-02  0.8677971E-01
         -2   -1    0    0    0  501 -0.00000000000E+00  0.00000000000E+00  0.70146022894E+03  0.70146022894E+03  0.00000000000E+00 0.  1.
          2   -1    0    0  501    0  0.00000000000E+00 -0.00000000000E+00 -0.12253852446E+04  0.12253852446E+04  0.00000000000E+00 0. -1.
         23    2    1    2    0    0  0.20241537451E+03  0.62203504533E+03  0.80259721853E+02  0.66524475842E+03  0.90605652099E+02 0.  0.
        254    2    1    2    0    0 -0.20241537451E+03 -0.62203504533E+03 -0.60418473749E+03  0.12616007151E+04  0.89369882279E+03 0.  0.
        -24    2    4    4    0    0  0.23873114852E+03 -0.29920571630E+03  0.62683813125E+02  0.39567697371E+03  0.78194534071E+02 0.  0.
         24    2    4    4    0    0 -0.44114652303E+03 -0.32282932903E+03 -0.66686855062E+03  0.86592374139E+03  0.79254221527E+02 0.  0.
         11    1    3    3    0    0  0.20032954428E+03  0.62522933881E+03  0.80284323256E+02  0.66142968256E+03  0.00000000000E+00 0.  1.
        -11    1    3    3    0    0  0.20858302306E+01 -0.31942934743E+01 -0.24601403075E-01  0.38150758551E+01  0.00000000000E+00 0. -1.
          4    1    6    6  502    0 -0.37626533754E+03 -0.23865184300E+03 -0.55288015254E+03  0.71007518579E+03  0.00000000000E+00 0. -1.
          3    1    5    5  503    0  0.39471271105E+02 -0.89384616321E+02 -0.72670413302E+01  0.97981634847E+02  0.00000000000E+00 0. -1.
         -4    1    5    5    0  503  0.19925987742E+03 -0.20982109998E+03  0.69950854455E+02  0.29769533887E+03  0.00000000000E+00 0.  1.
         -3    1    6    6    0  502 -0.64881185488E+02 -0.84177486034E+02 -0.11398839808E+03  0.15584855560E+03  0.00000000000E+00 0.  1.
<mgrwt>
<rscale>  0 0.18542481E+04</rscale>
<asrwt>0</asrwt>
<pdfrwt beam="1">  1        2 0.18852081E+00 0.18542481E+04</pdfrwt>
<pdfrwt beam="2">  1       -2 0.10791696E+00 0.18542481E+04</pdfrwt>
<totfact> 0.11833823E+01</totfact>
</mgrwt>
</event>
<event>
12    1  0.1532786E-007  0.1961053E+04  0.7818608E-02  0.8625049E-01
         -1   -1    0    0    0  501 -0.00000000000E+00  0.00000000000E+00  0.46203525500E+03  0.46203525500E+03  0.00000000000E+00 0.  1.
          1   -1    0    0  501    0  0.00000000000E+00 -0.00000000000E+00 -0.20808628225E+04  0.20808628225E+04  0.00000000000E+00 0. -1.
         23    2    1    2    0    0  0.22574894422E+03  0.41577388458E+03  0.14523542802E+03  0.50347427696E+03  0.92533826774E+02 0.  0.
        254    2    1    2    0    0 -0.22574894422E+03 -0.41577388458E+03 -0.17640629955E+04  0.20394238006E+04  0.90746938085E+03 0.  0.
        -24    2    4    4    0    0  0.96702413218E+02 -0.19829352165E+03 -0.38184220319E+01  0.23502897970E+03  0.80946670726E+02 0.  0.
         24    2    4    4    0    0 -0.32245135744E+03 -0.21748036293E+03 -0.17602445735E+04  0.18043948209E+04  0.78148095506E+02 0.  0.
         11    1    3    3    0    0  0.12066792178E+03  0.28402390236E+03  0.59055895192E+02  0.31419408526E+03  0.00000000000E+00 0.  1.
        -11    1    3    3    0    0  0.10508102244E+03  0.13174998222E+03  0.86179532824E+02  0.18928019170E+03  0.00000000000E+00 0. -1.
          2    1    6    6  502    0 -0.26847810870E+03 -0.17384604300E+03 -0.15603290984E+04  0.15927742580E+04  0.00000000000E+00 0. -1.
          3    1    5    5  503    0  0.89931729060E+02 -0.19505673678E+03 -0.21457951400E+02  0.21585942215E+03  0.00000000000E+00 0. -1.
         -4    1    5    5    0  503  0.67706841581E+01 -0.32367848742E+01  0.17639529368E+02  0.19169557549E+02  0.00000000000E+00 0.  1.
         -1    1    6    6    0  502 -0.53973248735E+02 -0.43634319931E+02 -0.19991547507E+03  0.21162056286E+03  0.00000000000E+00 0.  1.
<mgrwt>
<rscale>  0 0.19610528E+04</rscale>
<asrwt>0</asrwt>
<pdfrwt beam="1">  1        1 0.32013274E+00 0.19610528E+04</pdfrwt>
<pdfrwt beam="2">  1       -1 0.71082347E-01 0.19610528E+04</pdfrwt>
<totfact> 0.48858273E+00</totfact>
</mgrwt>
</event>
<event>
12    1  0.1532786E-007  0.2085947E+04  0.7818608E-02  0.8567459E-01
         -1   -1    0    0    0  501 -0.00000000000E+00  0.00000000000E+00  0.11100302911E+04  0.11100302911E+04  0.00000000000E+00 0.  1.
          1   -1    0    0  501    0  0.00000000000E+00 -0.00000000000E+00 -0.97996762390E+03  0.97996762390E+03  0.00000000000E+00 0. -1.
         23    2    1    2    0    0  0.36859673835E+02 -0.36077569079E+03 -0.71374138696E+03  0.80573260730E+03  0.90887471043E+02 0.  0.
        254    2    1    2    0    0 -0.36859673835E+02  0.36077569079E+03  0.84380405412E+03  0.12842653077E+04  0.89767163489E+03 0.  0.
        -24    2    4    4    0    0 -0.19162825267E+03  0.62128606672E+03  0.56024472072E+03  0.86204786149E+03  0.80836900566E+02 0.  0.
         24    2    4    4    0    0  0.15476857883E+03 -0.26051037593E+03  0.28355933340E+03  0.42221744616E+03  0.77734852725E+02 0.  0.
         13    1    3    3    0    0  0.42520780456E+02 -0.28471496520E+03 -0.47833426660E+03  0.55827797626E+03  0.00000000000E+00 0.  1.
        -13    1    3    3    0    0 -0.56611066211E+01 -0.76060725587E+02 -0.23540712037E+03  0.24745463104E+03  0.00000000000E+00 0. -1.
          2    1    6    6  502    0  0.79414053404E+02 -0.62799113320E+02  0.91859509650E+02  0.13670585220E+03  0.00000000000E+00 0. -1.
          3    1    5    5  503    0 -0.26277940017E+02  0.20164309917E+03  0.19382428590E+03  0.28092405269E+03  0.00000000000E+00 0. -1.
         -4    1    5    5    0  503 -0.16535031265E+03  0.41964296754E+03  0.36642043482E+03  0.58112380880E+03  0.00000000000E+00 0.  1.
         -1    1    6    6    0  502  0.75354525430E+02 -0.19771126261E+03  0.19169982375E+03  0.28551159397E+03  0.00000000000E+00 0.  1.
<mgrwt>
<rscale>  0 0.20859470E+04</rscale>
<asrwt>0</asrwt>
<pdfrwt beam="1">  1        1 0.15076425E+00 0.20859470E+04</pdfrwt>
<pdfrwt beam="2">  1       -1 0.17077389E+00 0.20859470E+04</pdfrwt>
<totfact> 0.35087377E+00</totfact>
</mgrwt>
</event>
<event>
12    1  0.1532786E-007  0.2089891E+04  0.7818608E-02  0.8565710E-01
          2   -1    0    0  501    0  0.00000000000E+00  0.00000000000E+00  0.16077804071E+04  0.16077804071E+04  0.00000000000E+00 0. -1.
         -2   -1    0    0    0  501 -0.00000000000E+00 -0.00000000000E+00 -0.67914197261E+03  0.67914197261E+03  0.00000000000E+00 0.  1.
         23    2    1    2    0    0 -0.37741146058E+03  0.63503868742E+03  0.83347281565E+03  0.11176191520E+04  0.93177729643E+02 0.  0.
        254    2    1    2    0    0  0.37741146058E+03 -0.63503868742E+03  0.95165618870E+02  0.11693032278E+04  0.90138781797E+03 0.  0.
        -24    2    4    4    0    0 -0.14724130367E+03 -0.40895273282E+03 -0.23897505448E+03  0.50273022892E+03  0.81891801889E+02 0.  0.
         24    2    4    4    0    0  0.52465276425E+03 -0.22608595460E+03  0.33414067335E+03  0.66657299887E+03  0.79335939723E+02 0.  0.
         13    1    3    3    0    0 -0.17640054809E+03  0.28150908591E+03  0.44395764397E+03  0.55449337999E+03  0.00000000000E+00 0.  1.
        -13    1    3    3    0    0 -0.20101091249E+03  0.35352960152E+03  0.38951517169E+03  0.56312577198E+03  0.00000000000E+00 0. -1.
          2    1    6    6  502    0  0.74283229616E+02 -0.63024005346E+02  0.65669031412E+02  0.11748380798E+03  0.00000000000E+00 0. -1.
          1    1    5    5  503    0 -0.93188523120E+02 -0.23539494322E+03 -0.18348753617E+03  0.31267004344E+03  0.00000000000E+00 0. -1.
         -2    1    5    5    0  503 -0.54052780547E+02 -0.17355778960E+03 -0.55487518312E+02  0.19006018548E+03  0.00000000000E+00 0.  1.
         -1    1    6    6    0  502  0.45036953464E+03 -0.16306194926E+03  0.26847164194E+03  0.54908919089E+03  0.00000000000E+00 0.  1.
<mgrwt>
<rscale>  0 0.20898911E+04</rscale>
<asrwt>0</asrwt>
<pdfrwt beam="1">  1        2 0.24735083E+00 0.20898911E+04</pdfrwt>
<pdfrwt beam="2">  1       -2 0.10448338E+00 0.20898911E+04</pdfrwt>
<totfact> 0.75751435E+00</totfact>
</mgrwt>
</event>
<event>
12    1  0.1532786E-007  0.1915009E+04  0.7818608E-02  0.8647421E-01
         -1   -1    0    0    0  501 -0.00000000000E+00  0.00000000000E+00  0.35148501683E+03  0.35148501683E+03  0.00000000000E+00 0.  1.
          1   -1    0    0  501    0  0.00000000000E+00 -0.00000000000E+00 -0.26084046073E+04  0.26084046073E+04  0.00000000000E+00 0. -1.
         23    2    1    2    0    0 -0.29636476059E+03 -0.62049446848E+03 -0.45652167353E+03  0.83022420142E+03  0.89525021473E+02 0.  0.
        254    2    1    2    0    0  0.29636476059E+03  0.62049446848E+03 -0.18003979170E+04  0.21296654227E+04  0.90619903811E+03 0.  0.
        -24    2    4    4    0    0  0.99876955202E+02  0.57959463639E+03 -0.18185214810E+04  0.19129336957E+04  0.79934964206E+02 0.  0.
         24    2    4    4    0    0  0.19648780539E+03  0.40899832090E+02  0.18123564061E+02  0.21673172704E+03  0.79774206335E+02 0.  0.
         11    1    3    3    0    0 -0.29245608273E+03 -0.60927661015E+03 -0.46037342344E+03  0.81773604360E+03  0.00000000000E+00 0.  1.
        -11    1    3    3    0    0 -0.39086778666E+01 -0.11217858336E+02  0.38517499022E+01  0.12488157816E+02  0.00000000000E+00 0. -1.
          2    1    6    6  502    0  0.34024831171E+02  0.24901253320E+02  0.31945631870E+02  0.52898818027E+02  0.00000000000E+00 0. -1.
          1    1    5    5  503    0 -0.12488194409E+02  0.71225215267E+02 -0.25116410385E+03  0.26136639675E+03  0.00000000000E+00 0. -1.
         -2    1    5    5    0  503  0.11236514961E+03  0.50836942113E+03 -0.15673573772E+04  0.16515672990E+04  0.00000000000E+00 0.  1.
         -1    1    6    6    0  502  0.16246297422E+03  0.15998578771E+02 -0.13822067809E+02  0.16383290901E+03  0.00000000000E+00 0.  1.
<mgrwt>
<rscale>  0 0.19150093E+04</rscale>
<asrwt>0</asrwt>
<pdfrwt beam="1">  1        1 0.40129301E+00 0.19150093E+04</pdfrwt>
<pdfrwt beam="2">  1       -1 0.54074619E-01 0.19150093E+04</pdfrwt>
<totfact> 0.36763597E+00</totfact>
</mgrwt>
</event>
<event>
12    1  0.1532786E-007  0.3035375E+04  0.7818608E-02  0.8233701E-01
         -1   -1    0    0    0  501 -0.00000000000E+00  0.00000000000E+00  0.14494061957E+04  0.14494061957E+04  0.00000000000E+00 0.  1.
          1   -1    0    0  501    0  0.00000000000E+00 -0.00000000000E+00 -0.15891856026E+04  0.15891856026E+04  0.00000000000E+00 0. -1.
         23    2    1    2    0    0 -0.62039013943E+03 -0.10740976767E+03  0.11683239247E+04  0.13304050313E+04  0.92606537748E+02 0.  0.
        254    2    1    2    0    0  0.62039013943E+03  0.10740976767E+03 -0.13081033317E+04  0.17081867671E+04  0.90019271367E+03 0.  0.
        -24    2    4    4    0    0 -0.60385209988E+02  0.35329366303E+03 -0.38528453392E+03  0.53272991742E+03  0.83031361024E+02 0.  0.
         24    2    4    4    0    0  0.68077534942E+03 -0.24588389536E+03 -0.92281879773E+03  0.11754568497E+04  0.78678495504E+02 0.  0.
         11    1    3    3    0    0 -0.74297232397E+02 -0.24295884112E+02  0.21284362530E+03  0.22674385892E+03  0.00000000000E+00 0. -1.
        -11    1    3    3    0    0 -0.54609290703E+03 -0.83113883555E+02  0.95548029942E+03  0.11036611723E+04  0.00000000000E+00 0.  1.
          2    1    6    6  502    0  0.57496439898E+03 -0.17611754825E+03 -0.76431899396E+03  0.97251476874E+03  0.00000000000E+00 0. -1.
          3    1    5    5  503    0 -0.27890085831E+02  0.71762263376E+02 -0.42427675682E+02  0.87907832394E+02  0.00000000000E+00 0. -1.
         -4    1    5    5    0  503 -0.32495124157E+02  0.28153139965E+03 -0.34285685824E+03  0.44482208503E+03  0.00000000000E+00 0.  1.
         -1    1    6    6    0  502  0.10581095044E+03 -0.69766347111E+02 -0.15849980377E+03  0.20294208094E+03  0.00000000000E+00 0.  1.
<mgrwt>
<rscale>  0 0.30353751E+04</rscale>
<asrwt>0</asrwt>
<pdfrwt beam="1">  1        1 0.24449009E+00 0.30353751E+04</pdfrwt>
<pdfrwt beam="2">  1       -1 0.22298557E+00 0.30353751E+04</pdfrwt>
<totfact> 0.50624309E-01</totfact>
</mgrwt>
</event>
<event>
12    1  0.1532786E-007  0.1849892E+04  0.7818608E-02  0.8680209E-01
         -2   -1    0    0    0  501 -0.00000000000E+00  0.00000000000E+00  0.10220764244E+04  0.10220764244E+04  0.00000000000E+00 0.  1.
          2   -1    0    0  501    0  0.00000000000E+00 -0.00000000000E+00 -0.83704582768E+03  0.83704582768E+03  0.00000000000E+00 0. -1.
         23    2    1    2    0    0 -0.37637153555E+03  0.51912876877E+03 -0.20982249257E+03  0.68088256014E+03  0.91789819590E+02 0.  0.
        254    2    1    2    0    0  0.37637153555E+03 -0.51912876877E+03  0.39485308933E+03  0.11782396920E+04  0.90619512151E+03 0.  0.
        -24    2    4    4    0    0 -0.19510740483E+03 -0.36181562096E+03  0.40215296219E+03  0.58034605937E+03  0.78083933317E+02 0.  0.
         24    2    4    4    0    0  0.57147894038E+03 -0.15731314781E+03 -0.72998728573E+01  0.59789363260E+03  0.78025008770E+02 0.  0.
         13    1    3    3    0    0 -0.13344043718E+03  0.19852540420E+03 -0.32934521715E+02  0.24146090596E+03  0.00000000000E+00 0. -1.
        -13    1    3    3    0    0 -0.24293109837E+03  0.32060336457E+03 -0.17688797086E+03  0.43942165418E+03  0.00000000000E+00 0.  1.
          4    1    6    6  502    0  0.54316169271E+03 -0.16414334471E+03  0.16366746668E+01  0.56742430398E+03  0.00000000000E+00 0. -1.
          1    1    5    5  503    0 -0.20078360574E+03 -0.34161936616E+03  0.39056272393E+03  0.55637854828E+03  0.00000000000E+00 0. -1.
         -4    1    5    5    0  503  0.56762009107E+01 -0.20196254801E+02  0.11590238254E+02  0.23967511084E+02  0.00000000000E+00 0.  1.
         -3    1    6    6    0  502  0.28317247666E+02  0.68301969013E+01 -0.89365475241E+01  0.30469328623E+02  0.00000000000E+00 0.  1.
<mgrwt>
<rscale>  0 0.18498917E+04</rscale>
<asrwt>0</asrwt>
<pdfrwt beam="1">  1        2 0.12877628E+00 0.18498917E+04</pdfrwt>
<pdfrwt beam="2">  1       -2 0.15724253E+00 0.18498917E+04</pdfrwt>
<totfact> 0.80449384E+00</totfact>
</mgrwt>
</event>
<event>
12    1  0.1794460E-007  0.3601233E+04  0.7818608E-02  0.8090209E-01
          1   -1    0    0  501    0  0.00000000000E+00  0.00000000000E+00  0.24092854754E+04  0.24092854754E+04  0.00000000000E+00 0. -1.
         -1   -1    0    0    0  501 -0.00000000000E+00 -0.00000000000E+00 -0.13457181184E+04  0.13457181184E+04  0.00000000000E+00 0.  1.
         23    2    1    2    0    0  0.17207030006E+03  0.17606687322E+03  0.22168301306E+04  0.22323239479E+04  0.91250470504E+02 0.  0.
        254    2    1    2    0    0 -0.17207030006E+03 -0.17606687322E+03 -0.11532627736E+04  0.15226796459E+04  0.96329151715E+03 0.  0.
        -24    2    4    4    0    0 -0.10794324831E+03  0.38675559382E+03 -0.60113416073E+03  0.72745412138E+03  0.81213208959E+02 0.  0.
         24    2    4    4    0    0 -0.64127051748E+02 -0.56282246704E+03 -0.55212861284E+03  0.79522552448E+03  0.81585669662E+02 0.  0.
         11    1    3    3    0    0  0.17619212219E+03  0.13678383271E+03  0.18833981920E+04  0.18965606319E+04  0.00000000000E+00 0. -1.
        -11    1    3    3    0    0 -0.41218221369E+01  0.39283040510E+02  0.33343193857E+03  0.33576331597E+03  0.00000000000E+00 0.  1.
          4    1    6    6  502    0  0.14998047878E+01 -0.29548396158E+02 -0.58690469265E+02  0.65726161553E+02  0.00000000000E+00 0. -1.
          3    1    5    5  503    0 -0.72034642738E+01  0.35271671014E+02 -0.20904285967E+02  0.41628954412E+02  0.00000000000E+00 0. -1.
         -4    1    5    5    0  503 -0.10073978404E+03  0.35148392281E+03 -0.58022987477E+03  0.68582516697E+03  0.00000000000E+00 0.  1.
         -1    1    6    6    0  502 -0.65626856536E+02 -0.53327407088E+03 -0.49343814357E+03  0.72949936292E+03  0.00000000000E+00 0.  1.
<mgrwt>
<rscale>  0 0.36012326E+04</rscale>
<asrwt>0</asrwt>
<pdfrwt beam="1">  1        1 0.37065930E+00 0.36012326E+04</pdfrwt>
<pdfrwt beam="2">  1       -1 0.20703356E+00 0.36012326E+04</pdfrwt>
<totfact> 0.17054448E-01</totfact>
</mgrwt>
</event>
<event>
12    1  0.1532786E-007  0.1643496E+04  0.7818608E-02  0.8794264E-01
         -2   -1    0    0    0  501 -0.00000000000E+00  0.00000000000E+00  0.57379058580E+03  0.57379058580E+03  0.00000000000E+00 0.  1.
          2   -1    0    0  501    0  0.00000000000E+00 -0.00000000000E+00 -0.11768571934E+04  0.11768571934E+04  0.00000000000E+00 0. -1.
         23    2    1    2    0    0 -0.10177174720E+02 -0.43291216666E+03  0.17829434382E+03  0.48066252680E+03  0.10831007665E+03 0.  0.
        254    2    1    2    0    0  0.10177174720E+02  0.43291216666E+03 -0.78136095147E+03  0.12699852524E+04  0.90267440754E+03 0.  0.
        -24    2    4    4    0    0  0.68627992066E+02  0.66786698954E+03 -0.75578171542E+03  0.10141687801E+04  0.81093749388E+02 0.  0.
         24    2    4    4    0    0 -0.58450817346E+02 -0.23495482288E+03 -0.25579236053E+02  0.25581647233E+03  0.78533453746E+02 0.  0.
         13    1    3    3    0    0 -0.31399361692E+02 -0.13567349729E+03  0.12926996136E+02  0.13985823183E+03  0.00000000000E+00 0. -1.
        -13    1    3    3    0    0  0.21222186972E+02 -0.29723866936E+03  0.16536734769E+03  0.34080429496E+03  0.00000000000E+00 0.  1.
          4    1    6    6  502    0 -0.61341863344E+02 -0.21452409136E+03 -0.21881322250E+00  0.22312206939E+03  0.00000000000E+00 0. -1.
          3    1    5    5  503    0  0.61239185473E+02  0.30413263296E+03 -0.38895296840E+03  0.49752518317E+03  0.00000000000E+00 0. -1.
         -4    1    5    5    0  503  0.73888065929E+01  0.36373435658E+03 -0.36682874702E+03  0.51664359694E+03  0.00000000000E+00 0.  1.
         -3    1    6    6    0  502  0.28910459980E+01 -0.20430731525E+02 -0.25360422831E+02  0.32694402943E+02  0.00000000000E+00 0.  1.
<mgrwt>
<rscale>  0 0.16434958E+04</rscale>
<asrwt>0</asrwt>
<pdfrwt beam="1">  1        2 0.18105495E+00 0.16434958E+04</pdfrwt>
<pdfrwt beam="2">  1       -2 0.88275475E-01 0.16434958E+04</pdfrwt>
<totfact> 0.20656977E+01</totfact>
</mgrwt>
</event>
<event>
12    1  0.1532786E-007  0.3563582E+04  0.7818608E-02  0.8098885E-01
          2   -1    0    0  501    0  0.00000000000E+00  0.00000000000E+00  0.20390884234E+04  0.20390884234E+04  0.00000000000E+00 0. -1.
         -2   -1    0    0    0  501 -0.00000000000E+00 -0.00000000000E+00 -0.15569604483E+04  0.15569604483E+04  0.00000000000E+00 0.  1.
         23    2    1    2    0    0 -0.92638945256E+02 -0.12060969366E+04 -0.92986808866E+03  0.15283827122E+04  0.89706510844E+02 0.  0.
        254    2    1    2    0    0  0.92638945256E+02  0.12060969366E+04  0.14119960637E+04  0.20676661594E+04  0.90457651318E+03 0.  0.
        -24    2    4    4    0    0  0.39498549185E+03  0.73061857156E+03  0.11967578607E+04  0.14589250092E+04  0.80098498414E+02 0.  0.
         24    2    4    4    0    0 -0.30234654659E+03  0.47547836502E+03  0.21523820302E+03  0.60874115021E+03  0.82129130481E+02 0.  0.
         11    1    3    3    0    0 -0.87420538584E+02 -0.10872940366E+04 -0.80300667071E+03  0.13545000501E+04  0.00000000000E+00 0.  1.
        -11    1    3    3    0    0 -0.52184066719E+01 -0.11880290001E+03 -0.12686141795E+03  0.17388266212E+03  0.00000000000E+00 0. -1.
          4    1    6    6  502    0 -0.21561759857E+03  0.34633015371E+03  0.19395950491E+03  0.45172537423E+03  0.00000000000E+00 0. -1.
          3    1    5    5  503    0  0.12787414232E+03  0.18222801234E+03  0.36364130330E+03  0.42637289104E+03  0.00000000000E+00 0. -1.
         -4    1    5    5    0  503  0.26711134953E+03  0.54839055922E+03  0.83311655742E+03  0.10325521182E+04  0.00000000000E+00 0.  1.
         -3    1    6    6    0  502 -0.86728948028E+02  0.12914821132E+03  0.21278698108E+02  0.15701577598E+03  0.00000000000E+00 0.  1.
<mgrwt>
<rscale>  0 0.35635825E+04</rscale>
<asrwt>0</asrwt>
<pdfrwt beam="1">  1        2 0.31370591E+00 0.35635825E+04</pdfrwt>
<pdfrwt beam="2">  1       -2 0.23953238E+00 0.35635825E+04</pdfrwt>
<totfact> 0.38739023E-01</totfact>
</mgrwt>
</event>
<event>
12    1  0.1532786E-007  0.1539011E+04  0.7818608E-02  0.8858917E-01
         -2   -1    0    0    0  501 -0.00000000000E+00  0.00000000000E+00  0.53926860982E+03  0.53926860982E+03  0.00000000000E+00 0.  1.
          2   -1    0    0  501    0  0.00000000000E+00 -0.00000000000E+00 -0.10980410206E+04  0.10980410206E+04  0.00000000000E+00 0. -1.
         23    2    1    2    0    0 -0.46771963074E+03 -0.46670636671E+02 -0.79064117461E+01  0.47893618854E+03  0.91529011968E+02 0.  0.
        254    2    1    2    0    0  0.46771963074E+03  0.46670636671E+02 -0.55086599904E+03  0.11583734419E+04  0.90412160724E+03 0.  0.
        -24    2    4    4    0    0  0.12234994904E+03  0.28711489472E+03  0.13557702667E+03  0.34948889881E+03  0.79730091120E+02 0.  0.
         24    2    4    4    0    0  0.34536968170E+03 -0.24044425805E+03 -0.68644302571E+03  0.80888454309E+03  0.77437188956E+02 0.  0.
         13    1    3    3    0    0  0.33701739126E+01 -0.47942942863E+01 -0.95564876845E+00  0.59377263724E+01  0.00000000000E+00 0. -1.
        -13    1    3    3    0    0 -0.47108980466E+03 -0.41876342384E+02 -0.69507629777E+01  0.47299846216E+03  0.00000000000E+00 0.  1.
          2    1    6    6  502    0  0.17599868442E+03 -0.75960397646E+02 -0.31643067221E+03  0.36996471352E+03  0.00000000000E+00 0. -1.
          1    1    5    5  503    0 -0.37093545335E+01  0.65679376547E+02  0.14411895537E+02  0.67344209459E+02  0.00000000000E+00 0. -1.
         -2    1    5    5    0  503  0.12605930357E+03  0.22143551817E+03  0.12116513113E+03  0.28214468935E+03  0.00000000000E+00 0.  1.
         -1    1    6    6    0  502  0.16937099728E+03 -0.16448386040E+03 -0.37001235349E+03  0.43891982957E+03  0.00000000000E+00 0.  1.
<mgrwt>
<rscale>  0 0.15390114E+04</rscale>
<asrwt>0</asrwt>
<pdfrwt beam="1">  1        2 0.16892939E+00 0.15390114E+04</pdfrwt>
<pdfrwt beam="2">  1       -2 0.82964402E-01 0.15390114E+04</pdfrwt>
<totfact> 0.26801309E+01</totfact>
</mgrwt>
</event>
<event>
12    1  0.1532786E-007  0.2597866E+04  0.7818608E-02  0.8368926E-01
          1   -1    0    0  501    0  0.00000000000E+00  0.00000000000E+00  0.19766498183E+04  0.19766498183E+04  0.00000000000E+00 0. -1.
         -1   -1    0    0    0  501 -0.00000000000E+00 -0.00000000000E+00 -0.85357931322E+03  0.85357931322E+03  0.00000000000E+00 0.  1.
         23    2    1    2    0    0 -0.69213983279E+03  0.30751717970E+03 -0.43676756059E+03  0.88004980052E+03  0.10048574760E+03 0.  0.
        254    2    1    2    0    0  0.69213983279E+03 -0.30751717970E+03  0.15598380657E+04  0.19501793310E+04  0.89245743205E+03 0.  0.
        -24    2    4    4    0    0  0.85193663513E+03 -0.42603840755E+03  0.12915745155E+04  0.16067973945E+04  0.79551133393E+02 0.  0.
         24    2    4    4    0    0 -0.15979680235E+03  0.11852122785E+03  0.26826355015E+03  0.34338193651E+03  0.79771689783E+02 0.  0.
         11    1    3    3    0    0 -0.67591567584E+03  0.31550662033E+03 -0.42694038629E+03  0.85946758041E+03  0.00000000000E+00 0.  1.
        -11    1    3    3    0    0 -0.16224156944E+02 -0.79894406301E+01 -0.98271743049E+01  0.20582220117E+02  0.00000000000E+00 0. -1.
          4    1    6    6  502    0 -0.16691435806E+03  0.10029750216E+03  0.24595450413E+03  0.31370943558E+03  0.00000000000E+00 0. -1.
          3    1    5    5  503    0  0.79284038213E+03 -0.37211377379E+03  0.11807256390E+04  0.14700944075E+04  0.00000000000E+00 0. -1.
         -4    1    5    5    0  503  0.59096253000E+02 -0.53924633761E+02  0.11084887648E+03  0.13670298703E+03  0.00000000000E+00 0.  1.
         -3    1    6    6    0  502  0.71175557164E+01  0.18223725690E+02  0.22309046022E+02  0.29672500936E+02  0.00000000000E+00 0.  1.
<mgrwt>
<rscale>  0 0.25978664E+04</rscale>
<asrwt>0</asrwt>
<pdfrwt beam="1">  1        1 0.30409997E+00 0.25978664E+04</pdfrwt>
<pdfrwt beam="2">  1       -1 0.13131990E+00 0.25978664E+04</pdfrwt>
<totfact> 0.13456851E+00</totfact>
</mgrwt>
</event>
<event>
12    1  0.1532786E-007  0.1427235E+04  0.7818608E-02  0.8934337E-01
         -1   -1    0    0    0  501 -0.00000000000E+00  0.00000000000E+00  0.58010712383E+03  0.58010712383E+03  0.00000000000E+00 0.  1.
          1   -1    0    0  501    0  0.00000000000E+00 -0.00000000000E+00 -0.87785510635E+03  0.87785510635E+03  0.00000000000E+00 0. -1.
         23    2    1    2    0    0  0.21033715093E+03 -0.59467926093E+02 -0.47152631313E+03  0.52733186737E+03  0.89239470413E+02 0.  0.
        254    2    1    2    0    0 -0.21033715093E+03  0.59467926093E+02  0.17377833061E+03  0.93063036281E+03  0.88774760642E+03 0.  0.
        -24    2    4    4    0    0  0.11206644674E+03 -0.35594267049E+03  0.58012600559E+02  0.38586621772E+03  0.79203554183E+02 0.  0.
         24    2    4    4    0    0 -0.32240359767E+03  0.41541059658E+03  0.11576573005E+03  0.54476414509E+03  0.82802330743E+02 0.  0.
         13    1    3    3    0    0  0.20755834706E+03 -0.36456622472E+02 -0.39959672351E+03  0.45175999623E+03  0.00000000000E+00 0. -1.
        -13    1    3    3    0    0  0.27788038742E+01 -0.23011303620E+02 -0.71929589612E+02  0.75571871137E+02  0.00000000000E+00 0.  1.
          2    1    6    6  502    0 -0.21428097670E+03  0.30545035931E+03  0.47541771766E+02  0.37613359202E+03  0.00000000000E+00 0. -1.
          3    1    5    5  503    0  0.80137149960E+02 -0.20643643081E+03 -0.24700893893E+01  0.22145894453E+03  0.00000000000E+00 0. -1.
         -4    1    5    5    0  503  0.31929296778E+02 -0.14950623968E+03  0.60482689948E+02  0.16440727319E+03  0.00000000000E+00 0.  1.
         -1    1    6    6    0  502 -0.10812262097E+03  0.10996023727E+03  0.68223958283E+02  0.16863055307E+03  0.00000000000E+00 0.  1.
<mgrwt>
<rscale>  0 0.14272351E+04</rscale>
<asrwt>0</asrwt>
<pdfrwt beam="1">  1        1 0.13505463E+00 0.14272351E+04</pdfrwt>
<pdfrwt beam="2">  1       -1 0.89247251E-01 0.14272351E+04</pdfrwt>
<totfact> 0.22732354E+01</totfact>
</mgrwt>
</event>
<event>
12    1  0.1532786E-007  0.1568186E+04  0.7818608E-02  0.8840335E-01
          2   -1    0    0  501    0  0.00000000000E+00  0.00000000000E+00  0.22427372840E+04  0.22427372840E+04  0.00000000000E+00 0. -1.
         -2   -1    0    0    0  501 -0.00000000000E+00 -0.00000000000E+00 -0.27412999212E+03  0.27412999212E+03  0.00000000000E+00 0.  1.
         23    2    1    2    0    0  0.19008310524E+03 -0.42340479678E+03  0.10144322733E+04  0.11200111004E+04  0.99743766930E+02 0.  0.
        254    2    1    2    0    0 -0.19008310524E+03  0.42340479678E+03  0.95417501855E+03  0.13968561757E+04  0.90848995631E+03 0.  0.
        -24    2    4    4    0    0  0.80684253333E+02  0.51932477355E+03  0.16965939307E+03  0.55808810214E+03  0.80435383549E+02 0.  0.
         24    2    4    4    0    0 -0.27076735858E+03 -0.95919976773E+02  0.78451562548E+03  0.83876807356E+03  0.74508457126E+02 0.  0.
         13    1    3    3    0    0  0.32332023557E+02 -0.13373815029E+02  0.87496431629E+02  0.94232925368E+02  0.00000000000E+00 0.  1.
        -13    1    3    3    0    0  0.15775108169E+03 -0.41003098175E+03  0.92693584168E+03  0.10257781750E+04  0.00000000000E+00 0. -1.
          4    1    6    6  502    0 -0.19461877896E+03 -0.10282310219E+03  0.59509993099E+03  0.63450215708E+03  0.00000000000E+00 0. -1.
          3    1    5    5  503    0  0.91079579656E+02  0.35197332521E+03  0.10557877433E+03  0.37858630334E+03  0.00000000000E+00 0. -1.
         -4    1    5    5    0  503 -0.10395326323E+02  0.16735144835E+03  0.64080618735E+02  0.17950179879E+03  0.00000000000E+00 0.  1.
         -1    1    6    6    0  502 -0.76148579614E+02  0.69031254126E+01  0.18941569449E+03  0.20426591648E+03  0.00000000000E+00 0.  1.
<mgrwt>
<rscale>  0 0.15681856E+04</rscale>
<asrwt>0</asrwt>
<pdfrwt beam="1">  1        2 0.34503649E+00 0.15681856E+04</pdfrwt>
<pdfrwt beam="2">  1       -2 0.42173846E-01 0.15681856E+04</pdfrwt>
<totfact> 0.25048454E+01</totfact>
</mgrwt>
</event>
<event>
12    1  0.1532786E-007  0.2199717E+04  0.7818608E-02  0.8518546E-01
         -1   -1    0    0    0  501 -0.00000000000E+00  0.00000000000E+00  0.91646700335E+03  0.91646700335E+03  0.00000000000E+00 0.  1.
          1   -1    0    0  501    0  0.00000000000E+00 -0.00000000000E+00 -0.13199484041E+04  0.13199484041E+04  0.00000000000E+00 0. -1.
         23    2    1    2    0    0 -0.67144691878E+03 -0.40390341344E+03  0.30640521800E+03  0.84608315025E+03  0.89406976157E+02 0.  0.
        254    2    1    2    0    0  0.67144691878E+03  0.40390341344E+03 -0.70988661873E+03  0.13903322572E+04  0.90283212272E+03 0.  0.
        -24    2    4    4    0    0  0.75927583267E+03  0.29797826223E+03 -0.18267149108E+03  0.83964770002E+03  0.79677799023E+02 0.  0.
         24    2    4    4    0    0 -0.87828913893E+02  0.10592515121E+03 -0.52721512765E+03  0.55068455717E+03  0.79772394425E+02 0.  0.
         13    1    3    3    0    0 -0.61206632766E+03 -0.35422486282E+03  0.24912352250E+03  0.74977528123E+03  0.00000000000E+00 0.  1.
        -13    1    3    3    0    0 -0.59380591125E+02 -0.49678550620E+02  0.57281695500E+02  0.96307869011E+02  0.00000000000E+00 0. -1.
          2    1    6    6  502    0 -0.49284610425E+02  0.10965000450E+03 -0.40743784955E+03  0.42480312800E+03  0.00000000000E+00 0. -1.
          3    1    5    5  503    0  0.55699095652E+03  0.19402361272E+03 -0.15971639324E+03  0.61105925588E+03  0.00000000000E+00 0. -1.
         -4    1    5    5    0  503  0.20228487616E+03  0.10395464951E+03 -0.22955097846E+02  0.22858844414E+03  0.00000000000E+00 0.  1.
         -1    1    6    6    0  502 -0.38544303468E+02 -0.37248532943E+01 -0.11977727809E+03  0.12588142917E+03  0.00000000000E+00 0.  1.
<mgrwt>
<rscale>  0 0.21997174E+04</rscale>
<asrwt>0</asrwt>
<pdfrwt beam="1">  1        1 0.20306898E+00 0.21997174E+04</pdfrwt>
<pdfrwt beam="2">  1       -1 0.14099492E+00 0.21997174E+04</pdfrwt>
<totfact> 0.32840159E+00</totfact>
</mgrwt>
</event>
<event>
12    1  0.1532786E-007  0.2184856E+04  0.7818608E-02  0.8524758E-01
          1   -1    0    0  501    0  0.00000000000E+00  0.00000000000E+00  0.51319435613E+03  0.51319435613E+03  0.00000000000E+00 0. -1.
         -1   -1    0    0    0  501 -0.00000000000E+00 -0.00000000000E+00 -0.23254327508E+04  0.23254327508E+04  0.00000000000E+00 0.  1.
         23    2    1    2    0    0  0.22739319392E+02  0.23320118462E+03  0.38042038588E+03  0.45612224051E+03  0.91803916795E+02 0.  0.
        254    2    1    2    0    0 -0.22739319392E+02 -0.23320118462E+03 -0.21926587806E+04  0.23825048664E+04  0.90204048770E+03 0.  0.
        -24    2    4    4    0    0  0.37985679973E+03 -0.10233111319E+03 -0.52880704631E+03  0.66393491164E+03  0.80061411726E+02 0.  0.
         24    2    4    4    0    0 -0.40259611912E+03 -0.13087007143E+03 -0.16638517343E+04  0.17185699548E+04  0.76612565576E+02 0.  0.
         11    1    3    3    0    0  0.87639336473E+01  0.13559192768E+03  0.29834444770E+03  0.32782828868E+03  0.00000000000E+00 0. -1.
        -11    1    3    3    0    0  0.13975385745E+02  0.97609256944E+02  0.82075938173E+02  0.12829395182E+03  0.00000000000E+00 0.  1.
          2    1    6    6  502    0 -0.88764275725E+02 -0.23551195272E+02 -0.50076089072E+03  0.50911219305E+03  0.00000000000E+00 0. -1.
          3    1    5    5  503    0  0.23269582137E+02 -0.29091516491E+02 -0.55045661527E+02  0.66466643044E+02  0.00000000000E+00 0. -1.
         -4    1    5    5    0  503  0.35658721759E+03 -0.73239596699E+02 -0.47376138478E+03  0.59746826860E+03  0.00000000000E+00 0.  1.
         -1    1    6    6    0  502 -0.31383184340E+03 -0.10731887616E+03 -0.11630908435E+04  0.12094577617E+04  0.00000000000E+00 0.  1.
<mgrwt>
<rscale>  0 0.21848560E+04</rscale>
<asrwt>0</asrwt>
<pdfrwt beam="1">  1        1 0.78952977E-01 0.21848560E+04</pdfrwt>
<pdfrwt beam="2">  1       -1 0.35775889E+00 0.21848560E+04</pdfrwt>
<totfact> 0.53902782E-01</totfact>
</mgrwt>
</event>
<event>
12    1  0.1532786E-007  0.1778091E+04  0.7818608E-02  0.8718038E-01
         -1   -1    0    0    0  501 -0.00000000000E+00  0.00000000000E+00  0.12316927130E+04  0.12316927130E+04  0.00000000000E+00 0.  1.
          1   -1    0    0  501    0  0.00000000000E+00 -0.00000000000E+00 -0.64171970589E+03  0.64171970589E+03  0.00000000000E+00 0. -1.
         23    2    1    2    0    0  0.53712318042E+02 -0.46229092038E+03  0.72737569391E+03  0.86835464897E+03  0.91468508882E+02 0.  0.
        254    2    1    2    0    0 -0.53712318042E+02  0.46229092038E+03 -0.13740268684E+03  0.10050577699E+04  0.88014982489E+03 0.  0.
        -24    2    4    4    0    0 -0.28066202588E+03  0.62000927140E+03  0.30595323852E+01  0.68506920640E+03  0.78280185373E+02 0.  0.
         24    2    4    4    0    0  0.22694970784E+03 -0.15771835102E+03 -0.14046221923E+03  0.31998856348E+03  0.79257791962E+02 0.  0.
         11    1    3    3    0    0 -0.12634740415E+02 -0.29942214813E+02  0.25375378843E+02  0.41232059671E+02  0.00000000000E+00 0. -1.
        -11    1    3    3    0    0  0.66347058457E+02 -0.43234870556E+03  0.70200031507E+03  0.82712258930E+03  0.00000000000E+00 0.  1.
          4    1    6    6  502    0  0.14279731256E+03 -0.13692402818E+03 -0.11833143371E+03  0.23052459776E+03  0.00000000000E+00 0. -1.
          3    1    5    5  503    0 -0.22168559927E+03  0.53824841533E+03  0.21839932094E+02  0.58252282716E+03  0.00000000000E+00 0. -1.
         -2    1    5    5    0  503 -0.58976426617E+02  0.81760856066E+02 -0.18780399709E+02  0.10254637924E+03  0.00000000000E+00 0.  1.
         -3    1    6    6    0  502  0.84152395281E+02 -0.20794322839E+02 -0.22130785513E+02  0.89463965714E+02  0.00000000000E+00 0.  1.
<mgrwt>
<rscale>  0 0.17780905E+04</rscale>
<asrwt>0</asrwt>
<pdfrwt beam="1">  1        1 0.98726109E-01 0.17780905E+04</pdfrwt>
<pdfrwt beam="2">  1       -1 0.18949119E+00 0.17780905E+04</pdfrwt>
<totfact> 0.52272811E+00</totfact>
</mgrwt>
</event>
<event>
12    1  0.1532786E-007  0.2336288E+04  0.7818608E-02  0.8463749E-01
         -1   -1    0    0    0  501 -0.00000000000E+00  0.00000000000E+00  0.12149234112E+04  0.12149234112E+04  0.00000000000E+00 0.  1.
          1   -1    0    0  501    0  0.00000000000E+00 -0.00000000000E+00 -0.11231661936E+04  0.11231661936E+04  0.00000000000E+00 0. -1.
         23    2    1    2    0    0 -0.53959655352E+02 -0.66989334277E+03  0.76901333016E+03  0.10254717470E+04  0.92423302777E+02 0.  0.
        254    2    1    2    0    0  0.53959655352E+02  0.66989334277E+03 -0.67725611255E+03  0.13126178577E+04  0.90145497018E+03 0.  0.
        -24    2    4    4    0    0 -0.72887195758E+02  0.74166614277E+03 -0.15655844423E+03  0.76617196526E+03  0.84425844731E+02 0.  0.
         24    2    4    4    0    0  0.12684685111E+03 -0.71772799993E+02 -0.52069766832E+03  0.54644589244E+03  0.78965771754E+02 0.  0.
         13    1    3    3    0    0 -0.38064813814E+02 -0.46646946091E+03  0.46838681290E+03  0.66213963370E+03  0.00000000000E+00 0. -1.
        -13    1    3    3    0    0 -0.15894841537E+02 -0.20342388186E+03  0.30062651726E+03  0.36333211334E+03  0.00000000000E+00 0.  1.
          4    1    6    6  502    0  0.54219343047E+02 -0.60221848386E+02 -0.36989968592E+03  0.37867160684E+03  0.00000000000E+00 0. -1.
          3    1    5    5  503    0 -0.37945471673E+02  0.43341226418E+03 -0.48969693694E+02  0.43781740539E+03  0.00000000000E+00 0. -1.
         -4    1    5    5    0  503 -0.34941724085E+02  0.30825387859E+03 -0.10758875053E+03  0.32835455987E+03  0.00000000000E+00 0.  1.
         -1    1    6    6    0  502  0.72627508063E+02 -0.11550951607E+02 -0.15079798240E+03  0.16777428559E+03  0.00000000000E+00 0.  1.
<mgrwt>
<rscale>  0 0.23362884E+04</rscale>
<asrwt>0</asrwt>
<pdfrwt beam="1">  1        1 0.17279480E+00 0.23362884E+04</pdfrwt>
<pdfrwt beam="2">  1       -1 0.18691129E+00 0.23362884E+04</pdfrwt>
<totfact> 0.20391408E+00</totfact>
</mgrwt>
</event>
<event>
12    1  0.1532786E-007  0.1750920E+04  0.7818608E-02  0.8732844E-01
          2   -1    0    0  501    0  0.00000000000E+00  0.00000000000E+00  0.25016314976E+04  0.25016314976E+04  0.00000000000E+00 0.  1.
         -2   -1    0    0    0  501 -0.00000000000E+00 -0.00000000000E+00 -0.30637202642E+03  0.30637202642E+03  0.00000000000E+00 0. -1.
         23    2    1    2    0    0  0.62634742642E+03  0.97678214720E+02  0.96610072527E+03  0.11590060658E+04  0.89957306715E+02 0.  0.
        254    2    1    2    0    0 -0.62634742642E+03 -0.97678214720E+02  0.12291587459E+04  0.16489974581E+04  0.89805860736E+03 0.  0.
        -24    2    4    4    0    0  0.13139746108E+03  0.27174250024E+02 -0.41717998191E+02  0.16216592308E+03  0.80954694675E+02 0.  0.
         24    2    4    4    0    0 -0.75774488750E+03 -0.12485246474E+03  0.12708767440E+04  0.14868315351E+04  0.75992516994E+02 0.  0.
         11    1    3    3    0    0  0.53122957378E+03  0.51894964546E+02  0.82905893145E+03  0.98602061805E+03  0.00000000000E+00 0.  1.
        -11    1    3    3    0    0  0.95117852634E+02  0.45783250174E+02  0.13704179382E+03  0.17298544777E+03  0.00000000000E+00 0. -1.
          2    1    6    6  502    0 -0.19246847328E+03 -0.45584930637E+02  0.27114143649E+03  0.33561850022E+03  0.00000000000E+00 0. -1.
          1    1    5    5  503    0  0.86007699197E+02 -0.78972684325E+01  0.73496448026E+01  0.86681650011E+02  0.00000000000E+00 0. -1.
         -2    1    5    5    0  503  0.45389761887E+02  0.35071518457E+02 -0.49067642994E+02  0.75484273064E+02  0.00000000000E+00 0.  1.
         -1    1    6    6    0  502 -0.56527641422E+03 -0.79267534107E+02  0.99973530756E+03  0.11512130349E+04  0.00000000000E+00 0.  1.
<mgrwt>
<rscale>  0 0.17509197E+04</rscale>
<asrwt>0</asrwt>
<pdfrwt beam="1">  1        2 0.38486637E+00 0.17509197E+04</pdfrwt>
<pdfrwt beam="2">  1       -2 0.47134160E-01 0.17509197E+04</pdfrwt>
<totfact> 0.14064917E+01</totfact>
</mgrwt>
</event>
<event>
12    1  0.1532786E-007  0.2196750E+04  0.7818608E-02  0.8519782E-01
         -1   -1    0    0    0  501 -0.00000000000E+00  0.00000000000E+00  0.59219854867E+03  0.59219854867E+03  0.00000000000E+00 0.  1.
          1   -1    0    0  501    0  0.00000000000E+00 -0.00000000000E+00 -0.20372006762E+04  0.20372006762E+04  0.00000000000E+00 0. -1.
         23    2    1    2    0    0  0.63359898721E+03 -0.24128160826E+03  0.12330124524E+03  0.69512648849E+03  0.91286071496E+02 0.  0.
        254    2    1    2    0    0 -0.63359898721E+03  0.24128160826E+03 -0.15683033728E+04  0.19342727364E+04  0.90673648796E+03 0.  0.
        -24    2    4    4    0    0 -0.69461192440E+03  0.35246364907E+03 -0.69179083919E+03  0.10449286861E+04  0.81148286431E+02 0.  0.
         24    2    4    4    0    0  0.61012937196E+02 -0.11118204081E+03 -0.87651253357E+03  0.88934405029E+03  0.81083867504E+02 0.  0.
         13    1    3    3    0    0  0.12859439775E+03 -0.88284347349E+02  0.17610698079E+02  0.15697382523E+03  0.00000000000E+00 0. -1.
        -13    1    3    3    0    0  0.50500458946E+03 -0.15299726091E+03  0.10569054716E+03  0.53815266326E+03  0.00000000000E+00 0.  1.
          4    1    6    6  502    0  0.42534775861E+02 -0.51705278726E+01 -0.26203617778E+03  0.26551628948E+03  0.00000000000E+00 0. -1.
          3    1    5    5  503    0 -0.13600216568E+03  0.10497447129E+03 -0.16500146620E+03  0.23820518999E+03  0.00000000000E+00 0. -1.
         -4    1    5    5    0  503 -0.55860975873E+03  0.24748917778E+03 -0.52678937300E+03  0.80672349611E+03  0.00000000000E+00 0.  1.
         -3    1    6    6    0  502  0.18478161335E+02 -0.10601151293E+03 -0.61447635580E+03  0.62382776081E+03  0.00000000000E+00 0.  1.
<mgrwt>
<rscale>  0 0.21967497E+04</rscale>
<asrwt>0</asrwt>
<pdfrwt beam="1">  1        1 0.31341550E+00 0.21967497E+04</pdfrwt>
<pdfrwt beam="2">  1       -1 0.91107466E-01 0.21967497E+04</pdfrwt>
<totfact> 0.30140432E+00</totfact>
</mgrwt>
</event>
<event>
12    1  0.1532786E-007  0.2041919E+04  0.7818608E-02  0.8587269E-01
          4   -1    0    0  501    0  0.00000000000E+00  0.00000000000E+00  0.18857678915E+04  0.18857678915E+04  0.00000000000E+00 0. -1.
         -4   -1    0    0    0  501 -0.00000000000E+00 -0.00000000000E+00 -0.55274987650E+03  0.55274987650E+03  0.00000000000E+00 0.  1.
         23    2    1    2    0    0 -0.56554049966E+03  0.59112947509E+03  0.63329086895E+03  0.10385252810E+04  0.90594268433E+02 0.  0.
        254    2    1    2    0    0  0.56554049966E+03 -0.59112947509E+03  0.69972714609E+03  0.13999924871E+04  0.89503674324E+03 0.  0.
        -24    2    4    4    0    0 -0.13107001988E+03  0.11042601279E+03  0.59233810007E+01  0.18930593617E+03  0.80177282411E+02 0.  0.
         24    2    4    4    0    0  0.69661051954E+03 -0.70155548788E+03  0.69380376508E+03  0.12106865509E+04  0.83378303642E+02 0.  0.
         13    1    3    3    0    0 -0.24659578430E+03  0.23047875668E+03  0.21056221818E+03  0.39782708032E+03  0.00000000000E+00 0.  1.
        -13    1    3    3    0    0 -0.31894471536E+03  0.36065071841E+03  0.42272865078E+03  0.64069820066E+03  0.00000000000E+00 0. -1.
          2    1    6    6  502    0  0.72028764358E+02 -0.10977821329E+03  0.10460982438E+03  0.16787678328E+03  0.00000000000E+00 0. -1.
          3    1    5    5  503    0 -0.43938568564E+02  0.81567938177E+02  0.24110731980E+02  0.95735331735E+02  0.00000000000E+00 0. -1.
         -4    1    5    5    0  503 -0.87131451316E+02  0.28858074615E+02 -0.18187350979E+02  0.93570604437E+02  0.00000000000E+00 0.  1.
         -1    1    6    6    0  502  0.62458175518E+03 -0.59177727459E+03  0.58919394070E+03  0.10428097676E+04  0.00000000000E+00 0.  1.
<mgrwt>
<rscale>  0 0.20419187E+04</rscale>
<asrwt>0</asrwt>
<pdfrwt beam="1">  1        4 0.29011813E+00 0.20419187E+04</pdfrwt>
<pdfrwt beam="2">  1       -4 0.85038444E-01 0.20419187E+04</pdfrwt>
<totfact> 0.79640965E-02</totfact>
</mgrwt>
</event>
<event>
12    1  0.1532786E-007  0.1782000E+04  0.7818608E-02  0.8715931E-01
          2   -1    0    0  501    0  0.00000000000E+00  0.00000000000E+00  0.93323456864E+03  0.93323456864E+03  0.00000000000E+00 0. -1.
         -2   -1    0    0    0  501 -0.00000000000E+00 -0.00000000000E+00 -0.85067698149E+03  0.85067698149E+03  0.00000000000E+00 0.  1.
         23    2    1    2    0    0 -0.19918921128E+03 -0.49780959216E+03  0.40844005140E+03  0.68004546168E+03  0.90265289129E+02 0.  0.
        254    2    1    2    0    0  0.19918921128E+03  0.49780959216E+03 -0.32588246425E+03  0.11038660885E+04  0.90820164545E+03 0.  0.
        -24    2    4    4    0    0  0.29708852229E+03  0.49621820257E+03 -0.57815289317E+03  0.82168067631E+03  0.80026691161E+02 0.  0.
         24    2    4    4    0    0 -0.97899311013E+02  0.15913895938E+01  0.25227042892E+03  0.28218541215E+03  0.80008936389E+02 0.  0.
         11    1    3    3    0    0 -0.15464224660E+03 -0.44374442234E+03  0.32633895932E+03  0.57211926480E+03  0.00000000000E+00 0. -1.
        -11    1    3    3    0    0 -0.44546964682E+02 -0.54065169818E+02  0.82101092083E+02  0.10792619687E+03  0.00000000000E+00 0.  1.
          2    1    6    6  502    0 -0.22209784117E+02  0.22490665446E+02  0.21000668600E+02  0.37949079361E+02  0.00000000000E+00 0. -1.
          1    1    5    5  503    0  0.12207139560E+03  0.15743709728E+03 -0.24105298332E+03  0.31272097146E+03  0.00000000000E+00 0. -1.
         -2    1    5    5    0  503  0.17501712669E+03  0.33878110529E+03 -0.33709990984E+03  0.50895970484E+03  0.00000000000E+00 0.  1.
         -1    1    6    6    0  502 -0.75689526896E+02 -0.20899275852E+02  0.23126976032E+03  0.24423633279E+03  0.00000000000E+00 0.  1.
<mgrwt>
<rscale>  0 0.17820002E+04</rscale>
<asrwt>0</asrwt>
<pdfrwt beam="1">  1        2 0.14357455E+00 0.17820002E+04</pdfrwt>
<pdfrwt beam="2">  1       -2 0.13087338E+00 0.17820002E+04</pdfrwt>
<totfact> 0.11243120E+01</totfact>
</mgrwt>
</event>
<event>
12    1  0.1532786E-007  0.1803402E+04  0.7818608E-02  0.8704492E-01
          1   -1    0    0  501    0  0.00000000000E+00  0.00000000000E+00  0.18714442165E+04  0.18714442165E+04  0.00000000000E+00 0. -1.
         -1   -1    0    0    0  501 -0.00000000000E+00 -0.00000000000E+00 -0.43445838728E+03  0.43445838728E+03  0.00000000000E+00 0.  1.
         23    2    1    2    0    0 -0.16205882440E+03 -0.27242962304E+03 -0.20941777911E+03  0.39017783361E+03  0.88893045603E+02 0.  0.
        254    2    1    2    0    0  0.16205882440E+03  0.27242962304E+03  0.16464036083E+04  0.19157247702E+04  0.92675541081E+03 0.  0.
        -24    2    4    4    0    0  0.13461338279E+03  0.45556293685E+03  0.16452845620E+04  0.17143970170E+04  0.80854745672E+02 0.  0.
         24    2    4    4    0    0  0.27445441613E+02 -0.18313331381E+03  0.11190463270E+01  0.20132775311E+03  0.78997145631E+02 0.  0.
         11    1    3    3    0    0 -0.25263348123E+01 -0.58385813747E+02 -0.62088671450E+02  0.85265988160E+02  0.00000000000E+00 0. -1.
        -11    1    3    3    0    0 -0.15953248959E+03 -0.21404380929E+03 -0.14732910766E+03  0.30491184545E+03  0.00000000000E+00 0.  1.
          2    1    6    6  502    0  0.97869168458E+01 -0.18325354358E+03  0.32297942941E+01  0.18354311904E+03  0.00000000000E+00 0. -1.
          3    1    5    5  503    0  0.68050739307E+02  0.32308456796E+03  0.12255769047E+04  0.12692727408E+04  0.00000000000E+00 0. -1.
         -4    1    5    5    0  503  0.66562643483E+02  0.13247836889E+03  0.41970765726E+03  0.44512427623E+03  0.00000000000E+00 0.  1.
         -1    1    6    6    0  502  0.17658524767E+02  0.12022977301E+00 -0.21107479671E+01  0.17784634073E+02  0.00000000000E+00 0.  1.
<mgrwt>
<rscale>  0 0.18034019E+04</rscale>
<asrwt>0</asrwt>
<pdfrwt beam="1">  1        1 0.28791449E+00 0.18034019E+04</pdfrwt>
<pdfrwt beam="2">  1       -1 0.66839753E-01 0.18034019E+04</pdfrwt>
<totfact> 0.77934555E+00</totfact>
</mgrwt>
</event>
<event>
12    1  0.1532786E-007  0.1578417E+04  0.7818608E-02  0.8833918E-01
         -2   -1    0    0    0  501 -0.00000000000E+00  0.00000000000E+00  0.34668606950E+03  0.34668606950E+03  0.00000000000E+00 0. -1.
          2   -1    0    0  501    0  0.00000000000E+00 -0.00000000000E+00 -0.17965827458E+04  0.17965827458E+04  0.00000000000E+00 0.  1.
         23    2    1    2    0    0 -0.81317263822E+02  0.49971108959E+03 -0.68581635019E+03  0.85731126188E+03  0.91185871179E+02 0.  0.
        254    2    1    2    0    0  0.81317263822E+02 -0.49971108959E+03 -0.76408032609E+03  0.12859575534E+04  0.90196696946E+03 0.  0.
        -24    2    4    4    0    0  0.42000430754E+02 -0.74471699061E+03 -0.43832381204E+03  0.86869080853E+03  0.78284892136E+02 0.  0.
         24    2    4    4    0    0  0.39316833068E+02  0.24500590102E+03 -0.32575651405E+03  0.41726674487E+03  0.80128178761E+02 0.  0.
         13    1    3    3    0    0 -0.18578704523E+01  0.58388861672E+02 -0.13463129781E+03  0.14675931725E+03  0.00000000000E+00 0. -1.
        -13    1    3    3    0    0 -0.79459393370E+02  0.44132222792E+03 -0.55118505238E+03  0.71055194463E+03  0.00000000000E+00 0.  1.
          4    1    6    6  502    0  0.15041640450E+01 -0.63655357272E+01 -0.89299330214E+01  0.11069157978E+02  0.00000000000E+00 0. -1.
          1    1    5    5  503    0 -0.23116899979E+02 -0.22178305009E+03 -0.12623026884E+03  0.25623464470E+03  0.00000000000E+00 0. -1.
         -2    1    5    5    0  503  0.65117330733E+02 -0.52293394052E+03 -0.31209354319E+03  0.61245616383E+03  0.00000000000E+00 0.  1.
         -3    1    6    6    0  502  0.37812669023E+02  0.25137143675E+03 -0.31682658103E+03  0.40619758690E+03  0.00000000000E+00 0.  1.
<mgrwt>
<rscale>  0 0.15784172E+04</rscale>
<asrwt>0</asrwt>
<pdfrwt beam="1">  1        2 0.27639735E+00 0.15784172E+04</pdfrwt>
<pdfrwt beam="2">  1       -2 0.53336318E-01 0.15784172E+04</pdfrwt>
<totfact> 0.27581990E+01</totfact>
</mgrwt>
</event>
<event>
12    1  0.1532786E-007  0.1425163E+04  0.7818608E-02  0.8935803E-01
         -2   -1    0    0    0  501 -0.00000000000E+00  0.00000000000E+00  0.26393534314E+03  0.26393534314E+03  0.00000000000E+00 0.  1.
          2   -1    0    0  501    0  0.00000000000E+00 -0.00000000000E+00 -0.19238501702E+04  0.19238501702E+04  0.00000000000E+00 0. -1.
         23    2    1    2    0    0  0.30265279315E+03 -0.19040223399E+03 -0.81496671462E+03  0.89461731190E+03  0.91201232992E+02 0.  0.
        254    2    1    2    0    0 -0.30265279315E+03  0.19040223399E+03 -0.84494811246E+03  0.12931682015E+04  0.91131496234E+03 0.  0.
        -24    2    4    4    0    0 -0.11423640903E+03 -0.33301523158E+03 -0.55102000372E+03  0.65883109567E+03  0.80537360984E+02 0.  0.
         24    2    4    4    0    0 -0.18841638412E+03  0.52341746557E+03 -0.29392810874E+03  0.63433710578E+03  0.80766661404E+02 0.  0.
         13    1    3    3    0    0  0.11461433401E+03 -0.23219695265E+02 -0.23824025120E+03  0.26539407887E+03  0.00000000000E+00 0.  1.
        -13    1    3    3    0    0  0.18803845915E+03 -0.16718253873E+03 -0.57672646342E+03  0.62922323303E+03  0.00000000000E+00 0. -1.
          2    1    6    6  502    0  0.77471575498E+01  0.32411739774E+02 -0.15190805140E+02  0.36623761222E+02  0.00000000000E+00 0. -1.
          3    1    5    5  503    0 -0.21871536148E+02 -0.76316479426E+02 -0.19319760284E+03  0.20887288687E+03  0.00000000000E+00 0. -1.
         -4    1    5    5    0  503 -0.92364872883E+02 -0.25669875215E+03 -0.35782240088E+03  0.44995820881E+03  0.00000000000E+00 0.  1.
         -1    1    6    6    0  502 -0.19616354167E+03  0.49100572580E+03 -0.27873730360E+03  0.59771334456E+03  0.00000000000E+00 0.  1.
<mgrwt>
<rscale>  0 0.14251625E+04</rscale>
<asrwt>0</asrwt>
<pdfrwt beam="1">  1        2 0.29597694E+00 0.14251625E+04</pdfrwt>
<pdfrwt beam="2">  1       -2 0.40605439E-01 0.14251625E+04</pdfrwt>
<totfact> 0.41103623E+01</totfact>
</mgrwt>
</event>
<event>
12    1  0.1532786E-007  0.1681052E+04  0.7818608E-02  0.8772246E-01
          2   -1    0    0  501    0  0.00000000000E+00  0.00000000000E+00  0.13099962356E+04  0.13099962356E+04  0.00000000000E+00 0.  1.
         -2   -1    0    0    0  501 -0.00000000000E+00 -0.00000000000E+00 -0.53930220124E+03  0.53930220124E+03  0.00000000000E+00 0. -1.
         23    2    1    2    0    0  0.52356923635E+03 -0.68018053353E+02 -0.20317644909E+02  0.53602285660E+03  0.90313317200E+02 0.  0.
        254    2    1    2    0    0 -0.52356923635E+03  0.68018053353E+02  0.79101167927E+03  0.13132755802E+04  0.90567216589E+03 0.  0.
        -24    2    4    4    0    0 -0.25695475071E+03  0.48042981385E+03  0.43799794561E+03  0.70336259661E+03  0.77705804187E+02 0.  0.
         24    2    4    4    0    0 -0.26661448565E+03 -0.41241176049E+03  0.35301373366E+03  0.60991298363E+03  0.78793447060E+02 0.  0.
         11    1    3    3    0    0  0.10656962751E+03  0.20690644541E+02 -0.15533245043E+02  0.10966526333E+03  0.00000000000E+00 0.  1.
        -11    1    3    3    0    0  0.41699960884E+03 -0.88708697894E+02 -0.47843998660E+01  0.42635759327E+03  0.00000000000E+00 0. -1.
          2    1    6    6  502    0 -0.27092576900E+03 -0.39566046520E+03  0.33511044497E+03  0.58501879146E+03  0.00000000000E+00 0. -1.
          3    1    5    5  503    0 -0.11540808984E+03  0.29428488223E+03  0.26476199531E+03  0.41233667466E+03  0.00000000000E+00 0. -1.
         -4    1    5    5    0  503 -0.14154666086E+03  0.18614493161E+03  0.17323595030E+03  0.29102592195E+03  0.00000000000E+00 0.  1.
         -1    1    6    6    0  502  0.43112833515E+01 -0.16751295293E+02  0.17903288686E+02  0.24894192172E+02  0.00000000000E+00 0.  1.
<mgrwt>
<rscale>  0 0.16810519E+04</rscale>
<asrwt>0</asrwt>
<pdfrwt beam="1">  1        2 0.20153788E+00 0.16810519E+04</pdfrwt>
<pdfrwt beam="2">  1       -2 0.82969569E-01 0.16810519E+04</pdfrwt>
<totfact> 0.19788633E+01</totfact>
</mgrwt>
</event>
<event>
12    1  0.1532786E-007  0.1969940E+04  0.7818608E-02  0.8620805E-01
          1   -1    0    0  501    0  0.00000000000E+00  0.00000000000E+00  0.91610309232E+03  0.91610309232E+03  0.00000000000E+00 0. -1.
         -1   -1    0    0    0  501 -0.00000000000E+00 -0.00000000000E+00 -0.10590138525E+04  0.10590138525E+04  0.00000000000E+00 0.  1.
         23    2    1    2    0    0 -0.75984938573E+03 -0.10146484447E+03  0.78916979556E+02  0.77587850540E+03  0.89963113634E+02 0.  0.
        254    2    1    2    0    0  0.75984938573E+03  0.10146484447E+03 -0.22182773974E+03  0.11992384394E+04  0.89515310692E+03 0.  0.
        -24    2    4    4    0    0  0.40229776698E+03 -0.18624198898E+03 -0.48680635524E+03  0.66328250060E+03  0.80210200906E+02 0.  0.
         24    2    4    4    0    0  0.35755161875E+03  0.28770683345E+03  0.26497861549E+03  0.53595593883E+03  0.80104429425E+02 0.  0.
         13    1    3    3    0    0 -0.71481760559E+03 -0.77146692739E+02  0.60588286045E+02  0.72151698654E+03  0.00000000000E+00 0.  1.
        -13    1    3    3    0    0 -0.45031780137E+02 -0.24318151732E+02  0.18328693511E+02  0.54361518851E+02  0.00000000000E+00 0. -1.
          2    1    6    6  502    0  0.29291766125E+03  0.27096723455E+03  0.22359688568E+03  0.45740525331E+03  0.00000000000E+00 0. -1.
          3    1    5    5  503    0  0.36133945578E+03 -0.17540365186E+03 -0.40090535222E+03  0.56750131703E+03  0.00000000000E+00 0. -1.
         -4    1    5    5    0  503  0.40958311207E+02 -0.10838337117E+02 -0.85901003013E+02  0.95781183575E+02  0.00000000000E+00 0.  1.
         -1    1    6    6    0  502  0.64633957492E+02  0.16739598906E+02  0.41381729818E+02  0.78550685518E+02  0.00000000000E+00 0.  1.
<mgrwt>
<rscale>  0 0.19699400E+04</rscale>
<asrwt>0</asrwt>
<pdfrwt beam="1">  1        1 0.14093894E+00 0.19699400E+04</pdfrwt>
<pdfrwt beam="2">  1       -1 0.16292521E+00 0.19699400E+04</pdfrwt>
<totfact> 0.45602966E+00</totfact>
</mgrwt>
</event>
<event>
12    1  0.1532786E-007  0.1403259E+04  0.7818608E-02  0.8951463E-01
          4   -1    0    0  501    0  0.00000000000E+00  0.00000000000E+00  0.60642291274E+03  0.60642291274E+03  0.00000000000E+00 0. -1.
         -4   -1    0    0    0  501 -0.00000000000E+00 -0.00000000000E+00 -0.81178312021E+03  0.81178312021E+03  0.00000000000E+00 0.  1.
         23    2    1    2    0    0 -0.12891650646E+03 -0.21689820511E+03 -0.37817777973E+03  0.46415760519E+03  0.93592480218E+02 0.  0.
        254    2    1    2    0    0  0.12891650646E+03  0.21689820511E+03  0.17281757226E+03  0.95404842776E+03  0.90370249099E+03 0.  0.
        -24    2    4    4    0    0  0.29306846072E+03 -0.57401694589E+02  0.43463643699E+03  0.53309248363E+03  0.78068473364E+02 0.  0.
         24    2    4    4    0    0 -0.16415195426E+03  0.27429989970E+03 -0.26181886473E+03  0.42095594413E+03  0.80426922794E+02 0.  0.
         11    1    3    3    0    0 -0.84199632980E+02 -0.11955759815E+03 -0.13752457215E+03  0.20074014400E+03  0.00000000000E+00 0.  1.
        -11    1    3    3    0    0 -0.44716873485E+02 -0.97340606954E+02 -0.24065320758E+03  0.26341746118E+03  0.00000000000E+00 0. -1.
          2    1    6    6  502    0 -0.11422032259E+03  0.17082841555E+03 -0.21347160371E+03  0.29630854736E+03  0.00000000000E+00 0. -1.
          3    1    5    5  503    0  0.15311586176E+03  0.63572987243E+01  0.24431803071E+03  0.28840281291E+03  0.00000000000E+00 0. -1.
         -4    1    5    5    0  503  0.13995259896E+03 -0.63758993313E+02  0.19031840629E+03  0.24468967072E+03  0.00000000000E+00 0.  1.
         -1    1    6    6    0  502 -0.49931631670E+02  0.10347148415E+03 -0.48347261028E+02  0.12464739677E+03  0.00000000000E+00 0.  1.
<mgrwt>
<rscale>  0 0.14032589E+04</rscale>
<asrwt>0</asrwt>
<pdfrwt beam="1">  1        4 0.93295832E-01 0.14032589E+04</pdfrwt>
<pdfrwt beam="2">  1       -4 0.12488971E+00 0.14032589E+04</pdfrwt>
<totfact> 0.90592968E-01</totfact>
</mgrwt>
</event>
<event>
12    1  0.1532786E-007  0.2105146E+04  0.7818608E-02  0.8558980E-01
          1   -1    0    0  501    0  0.00000000000E+00  0.00000000000E+00  0.88142617437E+03  0.88142617437E+03  0.00000000000E+00 0. -1.
         -1   -1    0    0    0  501 -0.00000000000E+00 -0.00000000000E+00 -0.12569514880E+04  0.12569514880E+04  0.00000000000E+00 0.  1.
         23    2    1    2    0    0 -0.17046358461E+03  0.23508807518E+03 -0.97417439150E+03  0.10204939713E+04  0.89821844137E+02 0.  0.
        254    2    1    2    0    0  0.17046358461E+03 -0.23508807518E+03  0.59864907791E+03  0.11178836910E+04  0.89830896209E+03 0.  0.
        -24    2    4    4    0    0  0.34983371880E+02  0.33745711666E+03  0.25421232238E+03  0.43145696382E+03  0.80187685369E+02 0.  0.
         24    2    4    4    0    0  0.13548021273E+03 -0.57254519184E+03  0.34443675552E+03  0.68642672718E+03  0.79887974645E+02 0.  0.
         13    1    3    3    0    0 -0.55075784917E+02  0.92410220741E+02 -0.22825515824E+03  0.25233590360E+03  0.00000000000E+00 0. -1.
        -13    1    3    3    0    0 -0.11538779970E+03  0.14267785444E+03 -0.74591923326E+03  0.76815806772E+03  0.00000000000E+00 0.  1.
          2    1    6    6  502    0  0.96367281229E+01 -0.15322926731E+03  0.11734139222E+03  0.19323839478E+03  0.00000000000E+00 0. -1.
          1    1    5    5  503    0 -0.34588784233E+01  0.19572149252E+02  0.44380951420E+02  0.48628198766E+02  0.00000000000E+00 0. -1.
         -2    1    5    5    0  503  0.38442250303E+02  0.31788496741E+03  0.20983137096E+03  0.38282876505E+03  0.00000000000E+00 0.  1.
         -1    1    6    6    0  502  0.12584348461E+03 -0.41931592453E+03  0.22709536330E+03  0.49318833240E+03  0.00000000000E+00 0.  1.
<mgrwt>
<rscale>  0 0.21051460E+04</rscale>
<asrwt>0</asrwt>
<pdfrwt beam="1">  1        1 0.13560403E+00 0.21051460E+04</pdfrwt>
<pdfrwt beam="2">  1       -1 0.19337715E+00 0.21051460E+04</pdfrwt>
<totfact> 0.28993806E+00</totfact>
</mgrwt>
</event>
<event>
12    1  0.1532786E-007  0.2065739E+04  0.7818608E-02  0.8576487E-01
         -2   -1    0    0    0  501 -0.00000000000E+00  0.00000000000E+00  0.19730443151E+03  0.19730443151E+03  0.00000000000E+00 0. -1.
          2   -1    0    0  501    0  0.00000000000E+00 -0.00000000000E+00 -0.54069736481E+04  0.54069736481E+04  0.00000000000E+00 0.  1.
         23    2    1    2    0    0  0.57371366660E+03  0.44994525568E+03 -0.11587398696E+04  0.13721121829E+04  0.91736867005E+02 0.  0.
        254    2    1    2    0    0 -0.57371366660E+03 -0.44994525568E+03 -0.40509293470E+04  0.42321658967E+04  0.98468345088E+03 0.  0.
        -24    2    4    4    0    0 -0.36121867199E+03 -0.62912202332E+03 -0.37284573618E+04  0.37992131669E+04  0.79705330828E+02 0.  0.
         24    2    4    4    0    0 -0.21249499461E+03  0.17917676764E+03 -0.32247198519E+03  0.43295272976E+03  0.78749274185E+02 0.  0.
         11    1    3    3    0    0  0.47839743959E+03  0.39528216566E+03 -0.92566923165E+03  0.11144396023E+04  0.00000000000E+00 0. -1.
        -11    1    3    3    0    0  0.95316227005E+02  0.54663090019E+02 -0.23307063796E+03  0.25767258065E+03  0.00000000000E+00 0.  1.
          4    1    6    6  502    0 -0.74288824406E+02  0.18141077625E+02 -0.78219967436E+02  0.10939054545E+03  0.00000000000E+00 0. -1.
          3    1    5    5  503    0 -0.10194916005E+02 -0.38116379302E+02 -0.13713909646E+03  0.14270223005E+03  0.00000000000E+00 0. -1.
         -4    1    5    5    0  503 -0.35102375598E+03 -0.59100564402E+03 -0.35913182653E+04  0.36565109369E+04  0.00000000000E+00 0.  1.
         -3    1    6    6    0  502 -0.13820617020E+03  0.16103569001E+03 -0.24425201775E+03  0.32356218431E+03  0.00000000000E+00 0.  1.
<mgrwt>
<rscale>  0 0.20657394E+04</rscale>
<asrwt>0</asrwt>
<pdfrwt beam="1">  1        2 0.83184205E+00 0.20657394E+04</pdfrwt>
<pdfrwt beam="2">  1       -2 0.30354530E-01 0.20657394E+04</pdfrwt>
<totfact> 0.83709794E-02</totfact>
</mgrwt>
</event>
<event>
12    1  0.1532786E-007  0.2229699E+04  0.7818608E-02  0.8506168E-01
         -2   -1    0    0    0  501 -0.00000000000E+00  0.00000000000E+00  0.60837762223E+03  0.60837762223E+03  0.00000000000E+00 0. -1.
          2   -1    0    0  501    0  0.00000000000E+00 -0.00000000000E+00 -0.20429568490E+04  0.20429568490E+04  0.00000000000E+00 0.  1.
         23    2    1    2    0    0  0.47606278142E+03 -0.42583783780E+03  0.19796683214E+03  0.67495447456E+03  0.91646277336E+02 0.  0.
        254    2    1    2    0    0 -0.47606278142E+03  0.42583783780E+03 -0.16325460589E+04  0.19763799966E+04  0.91263224838E+03 0.  0.
        -24    2    4    4    0    0 -0.20599990136E+03 -0.14092055411E+03 -0.45419596174E+02  0.26752857761E+03  0.84935494296E+02 0.  0.
         24    2    4    4    0    0 -0.27006288006E+03  0.56675839191E+03 -0.15871264627E+04  0.17088514190E+04  0.83986485110E+02 0.  0.
         13    1    3    3    0    0  0.26508201073E+03 -0.25314789363E+03  0.67507898691E+02  0.37270584225E+03  0.00000000000E+00 0.  1.
        -13    1    3    3    0    0  0.21098077069E+03 -0.17268994417E+03  0.13045893345E+03  0.30224863231E+03  0.00000000000E+00 0. -1.
          4    1    6    6  502    0 -0.18892009411E+03  0.29976397822E+03 -0.89527562706E+03  0.96284354544E+03  0.00000000000E+00 0. -1.
          3    1    5    5  503    0 -0.14088380771E+03 -0.73699861949E+02  0.90312872954E+01  0.15925288404E+03  0.00000000000E+00 0. -1.
         -2    1    5    5    0  503 -0.65116093649E+02 -0.67220692163E+02 -0.54450883470E+02  0.10827569357E+03  0.00000000000E+00 0.  1.
         -3    1    6    6    0  502 -0.81142785947E+02  0.26699441369E+03 -0.69185083566E+03  0.74600787358E+03  0.00000000000E+00 0.  1.
<mgrwt>
<rscale>  0 0.22296988E+04</rscale>
<asrwt>0</asrwt>
<pdfrwt beam="1">  1        2 0.31430105E+00 0.22296988E+04</pdfrwt>
<pdfrwt beam="2">  1       -2 0.93596557E-01 0.22296988E+04</pdfrwt>
<totfact> 0.55629179E+00</totfact>
</mgrwt>
</event>
<event>
12    1  0.1532786E-007  0.1843757E+04  0.7818608E-02  0.8683370E-01
         -2   -1    0    0    0  501 -0.00000000000E+00  0.00000000000E+00  0.32332557484E+03  0.32332557484E+03  0.00000000000E+00 0.  1.
          2   -1    0    0  501    0  0.00000000000E+00 -0.00000000000E+00 -0.26284961048E+04  0.26284961048E+04  0.00000000000E+00 0. -1.
         23    2    1    2    0    0 -0.61494690859E+03  0.32252837010E+03 -0.80683306057E+03  0.10684539860E+04  0.91815481945E+02 0.  0.
        254    2    1    2    0    0  0.61494690859E+03 -0.32252837010E+03 -0.14983374694E+04  0.18833676936E+04  0.90546918626E+03 0.  0.
        -24    2    4    4    0    0  0.91549478746E+02 -0.39489869860E+03 -0.12028336502E+04  0.12717451083E+04  0.78743515324E+02 0.  0.
         24    2    4    4    0    0  0.52339742984E+03  0.72370328504E+02 -0.29550381924E+03  0.61162258536E+03  0.87047950690E+02 0.  0.
         11    1    3    3    0    0 -0.42842413863E+02  0.36708794547E+02 -0.36261174747E+02  0.67066242005E+02  0.00000000000E+00 0.  1.
        -11    1    3    3    0    0 -0.57210449473E+03  0.28581957555E+03 -0.77057188582E+03  0.10013877440E+04  0.00000000000E+00 0. -1.
          2    1    6    6  502    0  0.24521273772E+03  0.73183175624E+02 -0.11943675199E+03  0.28240078198E+03  0.00000000000E+00 0. -1.
          1    1    5    5  503    0  0.88541486213E+02 -0.21262904704E+03 -0.64618457975E+03  0.68600671828E+03  0.00000000000E+00 0. -1.
         -2    1    5    5    0  503  0.30079925325E+01 -0.18226965156E+03 -0.55664907044E+03  0.58573839000E+03  0.00000000000E+00 0.  1.
         -1    1    6    6    0  502  0.27818469212E+03 -0.81284711949E+00 -0.17606706724E+03  0.32922180338E+03  0.00000000000E+00 0.  1.
<mgrwt>
<rscale>  0 0.18437570E+04</rscale>
<asrwt>0</asrwt>
<pdfrwt beam="1">  1        2 0.40438400E+00 0.18437570E+04</pdfrwt>
<pdfrwt beam="2">  1       -2 0.49742398E-01 0.18437570E+04</pdfrwt>
<totfact> 0.10549948E+01</totfact>
</mgrwt>
</event>
<event>
12    1  0.1532786E-007  0.1864825E+04  0.7818608E-02  0.8672566E-01
          2   -1    0    0  501    0  0.00000000000E+00  0.00000000000E+00  0.18954434678E+04  0.18954434678E+04  0.00000000000E+00 0. -1.
         -2   -1    0    0    0  501 -0.00000000000E+00 -0.00000000000E+00 -0.45867520964E+03  0.45867520964E+03  0.00000000000E+00 0.  1.
         23    2    1    2    0    0  0.16495731457E+03 -0.12959459880E+03 -0.30259065589E+03  0.37998728155E+03  0.93933771581E+02 0.  0.
        254    2    1    2    0    0 -0.16495731457E+03  0.12959459880E+03  0.17393589140E+04  0.19741313958E+04  0.90984595437E+03 0.  0.
        -24    2    4    4    0    0 -0.37411766505E+03  0.10113186223E+03  0.16998254790E+04  0.17453195438E+04  0.80882446150E+02 0.  0.
         24    2    4    4    0    0  0.20916035049E+03  0.28462736570E+02  0.39533435004E+02  0.22881185204E+03  0.78954363786E+02 0.  0.
         13    1    3    3    0    0 -0.49440867813E+01 -0.48387367621E+01 -0.52331616640E+02  0.52786887270E+02  0.00000000000E+00 0. -1.
        -13    1    3    3    0    0  0.16990140135E+03 -0.12475586204E+03 -0.25025903925E+03  0.32720039428E+03  0.00000000000E+00 0.  1.
          4    1    6    6  502    0  0.19743865945E+03  0.29388307902E+02  0.57148065776E+02  0.20763332659E+03  0.00000000000E+00 0. -1.
          1    1    5    5  503    0 -0.26226624278E+03  0.32141008234E+02  0.11056148605E+04  0.11367501248E+04  0.00000000000E+00 0. -1.
         -2    1    5    5    0  503 -0.11185142228E+03  0.68990853996E+02  0.59421061850E+03  0.60856941900E+03  0.00000000000E+00 0.  1.
         -3    1    6    6    0  502  0.11721691033E+02 -0.92557133174E+00 -0.17614630772E+02  0.21178525449E+02  0.00000000000E+00 0.  1.
<mgrwt>
<rscale>  0 0.18648248E+04</rscale>
<asrwt>0</asrwt>
<pdfrwt beam="1">  1        2 0.29160668E+00 0.18648248E+04</pdfrwt>
<pdfrwt beam="2">  1       -2 0.70565418E-01 0.18648248E+04</pdfrwt>
<totfact> 0.13100823E+01</totfact>
</mgrwt>
</event>
<event>
12    1  0.1532786E-007  0.1652539E+04  0.7818608E-02  0.8788906E-01
          1   -1    0    0  501    0  0.00000000000E+00  0.00000000000E+00  0.30299402485E+04  0.30299402485E+04  0.00000000000E+00 0. -1.
         -1   -1    0    0    0  501 -0.00000000000E+00 -0.00000000000E+00 -0.22532502294E+03  0.22532502294E+03  0.00000000000E+00 0.  1.
         23    2    1    2    0    0  0.46011180432E+02 -0.57465340175E+03  0.95515445096E+03  0.11194795303E+04  0.92578791734E+02 0.  0.
        254    2    1    2    0    0 -0.46011180432E+02  0.57465340175E+03  0.18494607746E+04  0.21357857411E+04  0.89929528767E+03 0.  0.
        -24    2    4    4    0    0  0.31009003081E+03 -0.42784786760E+02  0.36590053151E+03  0.48803876039E+03  0.79449779663E+02 0.  0.
         24    2    4    4    0    0 -0.35610121125E+03  0.61743818851E+03  0.14835602431E+04  0.16477469807E+04  0.77981590518E+02 0.  0.
         11    1    3    3    0    0  0.70065728207E+02 -0.45990498157E+03  0.73012072295E+03  0.86573556495E+03  0.00000000000E+00 0.  1.
        -11    1    3    3    0    0 -0.24054547775E+02 -0.11474842018E+03  0.22503372801E+03  0.25374396533E+03  0.00000000000E+00 0. -1.
          4    1    6    6  502    0 -0.97408031182E+02  0.17537933807E+03  0.50169756094E+03  0.54032090411E+03  0.00000000000E+00 0. -1.
          3    1    5    5  503    0  0.19941441419E+03 -0.33614205125E+02  0.17619560234E+03  0.26821803380E+03  0.00000000000E+00 0. -1.
         -4    1    5    5    0  503  0.11067561663E+03 -0.91705816353E+01  0.18970492918E+03  0.21982072659E+03  0.00000000000E+00 0.  1.
         -3    1    6    6    0  502 -0.25869318006E+03  0.44205885044E+03  0.98186268212E+03  0.11074260766E+04  0.00000000000E+00 0.  1.
<mgrwt>
<rscale>  0 0.16525391E+04</rscale>
<asrwt>0</asrwt>
<pdfrwt beam="1">  1        1 0.46614462E+00 0.16525391E+04</pdfrwt>
<pdfrwt beam="2">  1       -1 0.34665390E-01 0.16525391E+04</pdfrwt>
<totfact> 0.43067190E+00</totfact>
</mgrwt>
</event>
<event>
12    1  0.1532786E-007  0.1662188E+04  0.7818608E-02  0.8783229E-01
          1   -1    0    0  501    0  0.00000000000E+00  0.00000000000E+00  0.69277394961E+03  0.69277394961E+03  0.00000000000E+00 0. -1.
         -1   -1    0    0    0  501 -0.00000000000E+00 -0.00000000000E+00 -0.99703140448E+03  0.99703140448E+03  0.00000000000E+00 0.  1.
         23    2    1    2    0    0  0.14684177036E+03  0.53933426593E+03 -0.26698942983E+03  0.62568222634E+03  0.88039404753E+02 0.  0.
        254    2    1    2    0    0 -0.14684177036E+03 -0.53933426593E+03 -0.37268025027E+02  0.10641231277E+04  0.90472380835E+03 0.  0.
        -24    2    4    4    0    0  0.28495982470E+03 -0.39523800697E+03  0.21383193227E+03  0.53816068668E+03  0.80483821875E+02 0.  0.
         24    2    4    4    0    0 -0.43180159507E+03 -0.14409625896E+03 -0.25109995730E+03  0.52596244107E+03  0.79805711026E+02 0.  0.
         13    1    3    3    0    0  0.29831086808E+02  0.31497234722E+02 -0.95488711503E+01  0.44420158436E+02  0.00000000000E+00 0. -1.
        -13    1    3    3    0    0  0.11701068355E+03  0.50783703120E+03 -0.25744055868E+03  0.58126206790E+03  0.00000000000E+00 0.  1.
          4    1    6    6  502    0 -0.81129475756E+02 -0.54263670914E+02 -0.76763180746E+02  0.12417376428E+03  0.00000000000E+00 0. -1.
          3    1    5    5  503    0  0.12535045596E+03 -0.19787805960E+03  0.14378338547E+03  0.27484927728E+03  0.00000000000E+00 0. -1.
         -4    1    5    5    0  503  0.15960936874E+03 -0.19735994736E+03  0.70048546800E+02  0.26331140940E+03  0.00000000000E+00 0.  1.
         -3    1    6    6    0  502 -0.35067211931E+03 -0.89832588045E+02 -0.17433677655E+03  0.40178867679E+03  0.00000000000E+00 0.  1.
<mgrwt>
<rscale>  0 0.16621882E+04</rscale>
<asrwt>0</asrwt>
<pdfrwt beam="1">  1        1 0.10658061E+00 0.16621882E+04</pdfrwt>
<pdfrwt beam="2">  1       -1 0.15338945E+00 0.16621882E+04</pdfrwt>
<totfact> 0.86764858E+00</totfact>
</mgrwt>
</event>
<event>
12    1  0.1532786E-007  0.1566122E+04  0.7818608E-02  0.8841635E-01
         -1   -1    0    0    0  501 -0.00000000000E+00  0.00000000000E+00  0.54203463368E+03  0.54203463368E+03  0.00000000000E+00 0.  1.
          1   -1    0    0  501    0  0.00000000000E+00 -0.00000000000E+00 -0.11312641536E+04  0.11312641536E+04  0.00000000000E+00 0. -1.
         23    2    1    2    0    0  0.22593488934E+03  0.28781305718E+03  0.19464145536E+03  0.42463719045E+03  0.92458192003E+02 0.  0.
        254    2    1    2    0    0 -0.22593488934E+03 -0.28781305718E+03 -0.78387097525E+03  0.12486615968E+04  0.90045496686E+03 0.  0.
        -24    2    4    4    0    0  0.21787590965E+03 -0.43379963285E+03 -0.33242189874E+03  0.59372461089E+03  0.79702956983E+02 0.  0.
         24    2    4    4    0    0 -0.44381079899E+03  0.14598657567E+03 -0.45144907651E+03  0.65493698590E+03  0.82801456774E+02 0.  0.
         11    1    3    3    0    0  0.10454669103E+03  0.18302692912E+03  0.14827174768E+03  0.25770793265E+03  0.00000000000E+00 0. -1.
        -11    1    3    3    0    0  0.12138819831E+03  0.10478612806E+03  0.46369707684E+02  0.16692925781E+03  0.00000000000E+00 0.  1.
          4    1    6    6  502    0 -0.12661652069E+03  0.85119456146E+01 -0.96216202535E+02  0.15925374143E+03  0.00000000000E+00 0. -1.
          3    1    5    5  503    0  0.68564249827E+02 -0.76400298062E+02 -0.91941729237E+02  0.13780908342E+03  0.00000000000E+00 0. -1.
         -4    1    5    5    0  503  0.14931165982E+03 -0.35739933478E+03 -0.24048016950E+03  0.45591552747E+03  0.00000000000E+00 0.  1.
         -3    1    6    6    0  502 -0.31719427829E+03  0.13747463005E+03 -0.35523287398E+03  0.49568324447E+03  0.00000000000E+00 0.  1.
<mgrwt>
<rscale>  0 0.15661218E+04</rscale>
<asrwt>0</asrwt>
<pdfrwt beam="1">  1        1 0.17404064E+00 0.15661218E+04</pdfrwt>
<pdfrwt beam="2">  1       -1 0.83389945E-01 0.15661218E+04</pdfrwt>
<totfact> 0.16495172E+01</totfact>
</mgrwt>
</event>
<event>
12    1  0.1532786E-007  0.1499382E+04  0.7818608E-02  0.8884864E-01
          1   -1    0    0  501    0  0.00000000000E+00  0.00000000000E+00  0.10155794216E+04  0.10155794216E+04  0.00000000000E+00 0. -1.
         -1   -1    0    0    0  501 -0.00000000000E+00 -0.00000000000E+00 -0.55341460554E+03  0.55341460554E+03  0.00000000000E+00 0.  1.
         23    2    1    2    0    0 -0.39759421893E+03 -0.26428652827E+03  0.17772306784E+03  0.51755203352E+03  0.91356918779E+02 0.  0.
        254    2    1    2    0    0  0.39759421893E+03  0.26428652827E+03  0.28444174823E+03  0.10514419936E+04  0.89257751814E+03 0.  0.
        -24    2    4    4    0    0  0.61514640543E+03  0.84683497436E+02  0.39309690693E+03  0.73903942237E+03  0.77959571039E+02 0.  0.
         24    2    4    4    0    0 -0.21755218651E+03  0.17960303083E+03 -0.10865515870E+03  0.31240257126E+03  0.78760526149E+02 0.  0.
         13    1    3    3    0    0 -0.31812572897E+03 -0.17243692002E+03  0.10857941734E+03  0.37779354241E+03  0.00000000000E+00 0.  1.
        -13    1    3    3    0    0 -0.79468489957E+02 -0.91849608251E+02  0.69143650508E+02  0.13975849111E+03  0.00000000000E+00 0. -1.
          2    1    6    6  502    0 -0.60763530787E+02  0.94406066932E+01 -0.21219473796E+02  0.65050732483E+02  0.00000000000E+00 0. -1.
          3    1    5    5  503    0  0.79394194221E+02  0.15141061359E+02  0.22497119574E+02  0.83897617393E+02  0.00000000000E+00 0. -1.
         -4    1    5    5    0  503  0.53575221121E+03  0.69542436077E+02  0.37059978735E+03  0.65514180497E+03  0.00000000000E+00 0.  1.
         -1    1    6    6    0  502 -0.15678865572E+03  0.17016242414E+03 -0.87435684905E+02  0.24735183878E+03  0.00000000000E+00 0.  1.
<mgrwt>
<rscale>  0 0.14993819E+04</rscale>
<asrwt>0</asrwt>
<pdfrwt beam="1">  1        1 0.15624299E+00 0.14993819E+04</pdfrwt>
<pdfrwt beam="2">  1       -1 0.85140708E-01 0.14993819E+04</pdfrwt>
<totfact> 0.19421707E+01</totfact>
</mgrwt>
</event>
<event>
12    1  0.1532786E-007  0.1485901E+04  0.7818608E-02  0.8893883E-01
         -4   -1    0    0    0  501 -0.00000000000E+00  0.00000000000E+00  0.12762776810E+04  0.12762776810E+04  0.00000000000E+00 0.  1.
          4   -1    0    0  501    0  0.00000000000E+00 -0.00000000000E+00 -0.43248828160E+03  0.43248828160E+03  0.00000000000E+00 0. -1.
         23    2    1    2    0    0 -0.10730764733E+03 -0.28659461352E+02  0.79786145510E+03  0.80950236034E+03  0.79842807794E+02 0.  0.
        254    2    1    2    0    0  0.10730764733E+03  0.28659461352E+02  0.45927944302E+02  0.89926360227E+03  0.89119546363E+03 0.  0.
        -24    2    4    4    0    0 -0.54117165428E+02  0.16489220954E+02  0.44785313762E+03  0.45882050366E+03  0.82117353220E+02 0.  0.
         24    2    4    4    0    0  0.16142481275E+03  0.12170240398E+02 -0.40192519332E+03  0.44044309861E+03  0.78994791985E+02 0.  0.
         11    1    3    3    0    0 -0.12878083827E+02 -0.27367193218E+02  0.37528351386E+03  0.37650036398E+03  0.00000000000E+00 0.  1.
        -11    1    3    3    0    0 -0.94429563499E+02 -0.12922681338E+01  0.42257794125E+03  0.43300199635E+03  0.00000000000E+00 0. -1.
          2    1    6    6  502    0  0.42681983525E+02  0.30508875663E+02 -0.18692410270E+03  0.19414727241E+03  0.00000000000E+00 0. -1.
          3    1    5    5  503    0 -0.16029431947E+02  0.76704689019E+01  0.12525559873E+02  0.21740939075E+02  0.00000000000E+00 0. -1.
         -4    1    5    5    0  503 -0.38087733480E+02  0.88187520518E+01  0.43532757775E+03  0.43707956459E+03  0.00000000000E+00 0.  1.
         -1    1    6    6    0  502  0.11874282923E+03 -0.18338635265E+02 -0.21500109062E+03  0.24629582620E+03  0.00000000000E+00 0.  1.
<mgrwt>
<rscale>  0 0.14859006E+04</rscale>
<asrwt>0</asrwt>
<pdfrwt beam="1">  1        4 0.66536659E-01 0.14859006E+04</pdfrwt>
<pdfrwt beam="2">  1       -4 0.19635041E+00 0.14859006E+04</pdfrwt>
<totfact> 0.56358138E-01</totfact>
</mgrwt>
</event>
<event>
12    1  0.1532786E-007  0.1163455E+04  0.7818608E-02  0.9145460E-01
          1   -1    0    0  501    0  0.00000000000E+00  0.00000000000E+00  0.15549151221E+04  0.15549151221E+04  0.00000000000E+00 0.  1.
         -1   -1    0    0    0  501 -0.00000000000E+00 -0.00000000000E+00 -0.21763689590E+03  0.21763689590E+03  0.00000000000E+00 0. -1.
         23    2    1    2    0    0  0.67762883608E+02  0.10761813288E+02 -0.78823790518E+02  0.13888201136E+03  0.91473483090E+02 0.  0.
        254    2    1    2    0    0 -0.67762883608E+02 -0.10761813288E+02  0.14161020167E+04  0.16336700066E+04  0.81168044440E+03 0.  0.
        -24    2    4    4    0    0 -0.34541977620E+03 -0.40078702764E+02  0.25917637465E+03  0.44084430244E+03  0.79058090123E+02 0.  0.
         24    2    4    4    0    0  0.27765689259E+03  0.29316889476E+02  0.11569256421E+04  0.11928257042E+04  0.80021180391E+02 0.  0.
         13    1    3    3    0    0  0.64835492385E+01  0.33169044587E+02  0.33410963316E+01  0.33961520199E+02  0.00000000000E+00 0.  1.
        -13    1    3    3    0    0  0.61279334370E+02 -0.22407231299E+02 -0.82164886849E+02  0.10492049116E+03  0.00000000000E+00 0. -1.
          4    1    6    6  502    0  0.21368523856E+03  0.36640496490E+02  0.99945073327E+03  0.10226952994E+04  0.00000000000E+00 0. -1.
          3    1    5    5  503    0 -0.22985205176E+03 -0.29757751036E+02  0.12454447519E+03  0.26311369357E+03  0.00000000000E+00 0. -1.
         -4    1    5    5    0  503 -0.11556772444E+03 -0.10320951728E+02  0.13463189946E+03  0.17773060887E+03  0.00000000000E+00 0.  1.
         -3    1    6    6    0  502  0.63971654033E+02 -0.73236070139E+01  0.15747490880E+03  0.17013040481E+03  0.00000000000E+00 0.  1.
<mgrwt>
<rscale>  0 0.11634550E+04</rscale>
<asrwt>0</asrwt>
<pdfrwt beam="1">  1        1 0.23921770E+00 0.11634550E+04</pdfrwt>
<pdfrwt beam="2">  1       -1 0.33482600E-01 0.11634550E+04</pdfrwt>
<totfact> 0.49953996E+01</totfact>
</mgrwt>
</event>
<event>
12    1  0.1532786E-007  0.1181782E+04  0.7818608E-02  0.9128954E-01
         -1   -1    0    0    0  501 -0.00000000000E+00  0.00000000000E+00  0.39263080399E+03  0.39263080399E+03  0.00000000000E+00 0.  1.
          1   -1    0    0  501    0  0.00000000000E+00 -0.00000000000E+00 -0.88926335167E+03  0.88926335167E+03  0.00000000000E+00 0. -1.
         23    2    1    2    0    0 -0.33115015804E+02 -0.76821533164E+02  0.13007644046E+03  0.17948936021E+03  0.91095542358E+02 0.  0.
        254    2    1    2    0    0  0.33115015804E+02  0.76821533164E+02 -0.62670898813E+03  0.11024047954E+04  0.90306922491E+03 0.  0.
        -24    2    4    4    0    0  0.29288743443E+03 -0.30955745189E+03 -0.33651422386E+03  0.54817057887E+03  0.75101900217E+02 0.  0.
         24    2    4    4    0    0 -0.25977241862E+03  0.38637898505E+03 -0.29019476428E+03  0.55423421658E+03  0.78690126709E+02 0.  0.
         11    1    3    3    0    0 -0.59856463506E+02 -0.56371740892E+02  0.60130824917E+02  0.10186405401E+03  0.00000000000E+00 0. -1.
        -11    1    3    3    0    0  0.26741447702E+02 -0.20449792272E+02  0.69945615538E+02  0.77625306197E+02  0.00000000000E+00 0.  1.
          2    1    6    6  502    0 -0.11398051030E+03  0.10387460181E+03 -0.99311067223E+02  0.18342349278E+03  0.00000000000E+00 0. -1.
          3    1    5    5  503    0  0.19543792376E+03 -0.16304029226E+03 -0.17123737137E+03  0.30675781375E+03  0.00000000000E+00 0. -1.
         -4    1    5    5    0  503  0.97449510670E+02 -0.14651715963E+03 -0.16527685248E+03  0.24141276512E+03  0.00000000000E+00 0.  1.
         -1    1    6    6    0  502 -0.14579190833E+03  0.28250438324E+03 -0.19088369705E+03  0.37081072380E+03  0.00000000000E+00 0.  1.
<mgrwt>
<rscale>  0 0.11817820E+04</rscale>
<asrwt>0</asrwt>
<pdfrwt beam="1">  1        1 0.13680974E+00 0.11817820E+04</pdfrwt>
<pdfrwt beam="2">  1       -1 0.60404740E-01 0.11817820E+04</pdfrwt>
<totfact> 0.51150508E+01</totfact>
</mgrwt>
</event>
<event>
12    1  0.1532786E-007  0.2226727E+04  0.7818608E-02  0.8507385E-01
         -2   -1    0    0    0  501 -0.00000000000E+00  0.00000000000E+00  0.38663032470E+03  0.38663032470E+03  0.00000000000E+00 0.  1.
          2   -1    0    0  501    0  0.00000000000E+00 -0.00000000000E+00 -0.32061084214E+04  0.32061084214E+04  0.00000000000E+00 0. -1.
         23    2    1    2    0    0  0.16264935542E+03 -0.69381477097E+03 -0.22070879374E+03  0.75161394706E+03  0.91528162633E+02 0.  0.
        254    2    1    2    0    0 -0.16264935542E+03  0.69381477097E+03 -0.25987693030E+04  0.28411247991E+04  0.90030799425E+03 0.  0.
        -24    2    4    4    0    0 -0.11863179143E+03 -0.19372962444E+03 -0.75876252249E+03  0.79622014854E+03  0.81494110808E+02 0.  0.
         24    2    4    4    0    0 -0.44017563993E+02  0.88754439541E+03 -0.18400067805E+04  0.20449046505E+04  0.79608276521E+02 0.  0.
         13    1    3    3    0    0  0.15791597865E+03 -0.49516434101E+03 -0.16301934365E+03  0.54470220059E+03  0.00000000000E+00 0.  1.
        -13    1    3    3    0    0  0.47333767690E+01 -0.19865042996E+03 -0.57689450086E+02  0.20691174647E+03  0.00000000000E+00 0. -1.
          2    1    6    6  502    0  0.15551719339E+02  0.40338158825E+03 -0.87360415344E+03  0.96236312202E+03  0.00000000000E+00 0. -1.
          1    1    5    5  503    0 -0.22671554297E+02 -0.17175331424E+02 -0.35107446444E+02  0.45183228964E+02  0.00000000000E+00 0. -1.
         -2    1    5    5    0  503 -0.95960237129E+02 -0.17655429302E+03 -0.72365507604E+03  0.75103691958E+03  0.00000000000E+00 0.  1.
         -1    1    6    6    0  502 -0.59569283333E+02  0.48416280716E+03 -0.96640262707E+03  0.10825415285E+04  0.00000000000E+00 0.  1.
<mgrwt>
<rscale>  0 0.22267274E+04</rscale>
<asrwt>0</asrwt>
<pdfrwt beam="1">  1        2 0.49324747E+00 0.22267274E+04</pdfrwt>
<pdfrwt beam="2">  1       -2 0.59481586E-01 0.22267274E+04</pdfrwt>
<totfact> 0.30970350E+00</totfact>
</mgrwt>
</event>
<event>
12    1  0.1532786E-007  0.1624395E+04  0.7818608E-02  0.8805700E-01
         -1   -1    0    0    0  501 -0.00000000000E+00  0.00000000000E+00  0.40092903516E+03  0.40092903516E+03  0.00000000000E+00 0.  1.
          1   -1    0    0  501    0  0.00000000000E+00 -0.00000000000E+00 -0.16453414503E+04  0.16453414503E+04  0.00000000000E+00 0. -1.
         23    2    1    2    0    0  0.27430830521E+03 -0.11948114934E+03  0.16116048956E+03  0.35236091146E+03  0.93084462616E+02 0.  0.
        254    2    1    2    0    0 -0.27430830521E+03  0.11948114934E+03 -0.14055729047E+04  0.16939095740E+04  0.89675730445E+03 0.  0.
        -24    2    4    4    0    0 -0.49022268872E+03  0.18327990350E+03 -0.13476736143E+04  0.14480811427E+04  0.82492530944E+02 0.  0.
         24    2    4    4    0    0  0.21591438351E+03 -0.63798754160E+02 -0.57899290376E+02  0.24582843125E+03  0.79937398918E+02 0.  0.
         13    1    3    3    0    0  0.83425569501E+01  0.10680676365E+02 -0.28733480628E+01  0.13853924829E+02  0.00000000000E+00 0. -1.
        -13    1    3    3    0    0  0.26596574826E+03 -0.13016182570E+03  0.16403383762E+03  0.33850698663E+03  0.00000000000E+00 0.  1.
          4    1    6    6  502    0  0.80954046267E+02  0.17093372982E+01 -0.50910506663E+02  0.95647054998E+02  0.00000000000E+00 0. -1.
          3    1    5    5  503    0 -0.85454834329E+02  0.57905967598E+02 -0.32821742880E+03  0.34406730499E+03  0.00000000000E+00 0. -1.
         -4    1    5    5    0  503 -0.40476785439E+03  0.12537393590E+03 -0.10194561855E+04  0.11040138377E+04  0.00000000000E+00 0.  1.
         -3    1    6    6    0  502  0.13496033725E+03 -0.65508091459E+02 -0.69887837129E+01  0.15018137625E+03  0.00000000000E+00 0.  1.
<mgrwt>
<rscale>  0 0.16243955E+04</rscale>
<asrwt>0</asrwt>
<pdfrwt beam="1">  1        1 0.25312945E+00 0.16243955E+04</pdfrwt>
<pdfrwt beam="2">  1       -1 0.61681391E-01 0.16243955E+04</pdfrwt>
<totfact> 0.13260345E+01</totfact>
</mgrwt>
</event>
<event>
12    1  0.1532786E-007  0.1476774E+04  0.7818608E-02  0.8900047E-01
          2   -1    0    0  501    0  0.00000000000E+00  0.00000000000E+00  0.12410068679E+04  0.12410068679E+04  0.00000000000E+00 0. -1.
         -2   -1    0    0    0  501 -0.00000000000E+00 -0.00000000000E+00 -0.43933296651E+03  0.43933296651E+03  0.00000000000E+00 0.  1.
         23    2    1    2    0    0  0.53837706214E+02 -0.62523134771E+02  0.75810307131E+03  0.77144039822E+03  0.11658636411E+03 0.  0.
        254    2    1    2    0    0 -0.53837706214E+02  0.62523134771E+02  0.43570830085E+02  0.90889943618E+03  0.90409741006E+03 0.  0.
        -24    2    4    4    0    0 -0.11168100152E+03  0.41296751554E+03  0.23600718120E+03  0.49529832962E+03  0.81278722638E+02 0.  0.
         24    2    4    4    0    0  0.57843295302E+02 -0.35044438077E+03 -0.19243635112E+03  0.41360110656E+03  0.88752550901E+02 0.  0.
         11    1    3    3    0    0  0.50969374709E+02 -0.80884699368E+02  0.34734331931E+03  0.36026045192E+03  0.00000000000E+00 0.  1.
        -11    1    3    3    0    0  0.28683315051E+01  0.18361564597E+02  0.41075975199E+03  0.41117994630E+03  0.00000000000E+00 0. -1.
          4    1    6    6  502    0  0.31766435749E+02 -0.33189191868E+03 -0.16805200152E+03  0.37336688034E+03  0.00000000000E+00 0. -1.
          1    1    5    5  503    0 -0.81798892813E+02  0.16932402573E+03  0.12565180401E+03  0.22616379111E+03  0.00000000000E+00 0. -1.
         -2    1    5    5    0  503 -0.29882108703E+02  0.24364348981E+03  0.11035537719E+03  0.26913453852E+03  0.00000000000E+00 0.  1.
         -3    1    6    6    0  502  0.26076859553E+02 -0.18552462095E+02 -0.24384349603E+02  0.40234226219E+02  0.00000000000E+00 0.  1.
<mgrwt>
<rscale>  0 0.14767738E+04</rscale>
<asrwt>0</asrwt>
<pdfrwt beam="1">  1        2 0.19092413E+00 0.14767738E+04</pdfrwt>
<pdfrwt beam="2">  1       -2 0.67589688E-01 0.14767738E+04</pdfrwt>
<totfact> 0.34772359E+01</totfact>
</mgrwt>
</event>
<event>
12    1  0.1532786E-007  0.2571315E+04  0.7818608E-02  0.8378011E-01
          2   -1    0    0  501    0  0.00000000000E+00  0.00000000000E+00  0.18217597695E+04  0.18217597695E+04  0.00000000000E+00 0. -1.
         -2   -1    0    0    0  501 -0.00000000000E+00 -0.00000000000E+00 -0.90731773339E+03  0.90731773339E+03  0.00000000000E+00 0.  1.
         23    2    1    2    0    0  0.47757113363E+03  0.71258779792E+02 -0.66959012601E+03  0.83012755566E+03  0.87228552890E+02 0.  0.
        254    2    1    2    0    0 -0.47757113363E+03 -0.71258779792E+02  0.15840321621E+04  0.18989499472E+04  0.92935515819E+03 0.  0.
        -24    2    4    4    0    0 -0.34844351080E+03  0.39315924933E+03  0.10392462121E+04  0.11671486296E+04  0.78842618849E+02 0.  0.
         24    2    4    4    0    0 -0.12912762283E+03 -0.46441802912E+03  0.54478594996E+03  0.73180131762E+03  0.79896110322E+02 0.  0.
         13    1    3    3    0    0  0.29191990872E+03  0.75554846008E+02 -0.46091393401E+03  0.55078800135E+03  0.00000000000E+00 0.  1.
        -13    1    3    3    0    0  0.18565122491E+03 -0.42960662163E+01 -0.20867619200E+03  0.27933955431E+03  0.00000000000E+00 0. -1.
          4    1    6    6  502    0 -0.10139796957E+03 -0.30176091371E+03  0.40782605007E+03  0.51736185054E+03  0.00000000000E+00 0. -1.
          3    1    5    5  503    0 -0.26726428378E+03  0.33374424175E+03  0.78831592972E+03  0.89680400386E+03  0.00000000000E+00 0. -1.
         -4    1    5    5    0  503 -0.81179227021E+02  0.59415007584E+02  0.25093028243E+03  0.27034462574E+03  0.00000000000E+00 0.  1.
         -3    1    6    6    0  502 -0.27729653252E+02 -0.16265711541E+03  0.13695989989E+03  0.21443946708E+03  0.00000000000E+00 0.  1.
<mgrwt>
<rscale>  0 0.25713148E+04</rscale>
<asrwt>0</asrwt>
<pdfrwt beam="1">  1        2 0.28027073E+00 0.25713148E+04</pdfrwt>
<pdfrwt beam="2">  1       -2 0.13958734E+00 0.25713148E+04</pdfrwt>
<totfact> 0.26933921E+00</totfact>
</mgrwt>
</event>
<event>
12    1  0.1532786E-007  0.1643473E+04  0.7818608E-02  0.8794277E-01
         -2   -1    0    0    0  501 -0.00000000000E+00  0.00000000000E+00  0.11188597047E+04  0.11188597047E+04  0.00000000000E+00 0.  1.
          2   -1    0    0  501    0  0.00000000000E+00 -0.00000000000E+00 -0.60351695039E+03  0.60351695039E+03  0.00000000000E+00 0. -1.
         23    2    1    2    0    0  0.49124152243E+03  0.28673003738E+03  0.13621069503E+03  0.59171815962E+03  0.89692136168E+02 0.  0.
        254    2    1    2    0    0 -0.49124152243E+03 -0.28673003738E+03  0.37913205931E+03  0.11306584955E+04  0.90061932433E+03 0.  0.
        -24    2    4    4    0    0 -0.14505429052E+03  0.24494743680E+03  0.39198850165E+03  0.49101744316E+03  0.80019685514E+02 0.  0.
         24    2    4    4    0    0 -0.34618723191E+03 -0.53167747418E+03 -0.12856442336E+02  0.63964105234E+03  0.80304742358E+02 0.  0.
         11    1    3    3    0    0  0.30478332919E+02  0.48020434173E+02  0.11834267112E+02  0.58094240281E+02  0.00000000000E+00 0.  1.
        -11    1    3    3    0    0  0.46076318951E+03  0.23870960321E+03  0.12437642792E+03  0.53362391934E+03  0.00000000000E+00 0. -1.
          4    1    6    6  502    0 -0.28660747446E+03 -0.48001028174E+03 -0.26102949275E+02  0.55967408280E+03  0.00000000000E+00 0. -1.
          3    1    5    5  503    0 -0.50462280912E+02  0.15027603001E+03  0.24892948492E+03  0.29511898525E+03  0.00000000000E+00 0. -1.
         -4    1    5    5    0  503 -0.94592009610E+02  0.94671406785E+02  0.14305901673E+03  0.19589845791E+03  0.00000000000E+00 0.  1.
         -3    1    6    6    0  502 -0.59579757446E+02 -0.51667192433E+02  0.13246506939E+02  0.79966969540E+02  0.00000000000E+00 0.  1.
<mgrwt>
<rscale>  0 0.16434729E+04</rscale>
<asrwt>0</asrwt>
<pdfrwt beam="1">  1        2 0.92848762E-01 0.16434729E+04</pdfrwt>
<pdfrwt beam="2">  1       -2 0.17213226E+00 0.16434729E+04</pdfrwt>
<totfact> 0.96793125E+00</totfact>
</mgrwt>
</event>
<event>
12    1  0.1532786E-007  0.1801887E+04  0.7818608E-02  0.8705297E-01
         -2   -1    0    0    0  501 -0.00000000000E+00  0.00000000000E+00  0.87896260795E+03  0.87896260795E+03  0.00000000000E+00 0.  1.
          2   -1    0    0  501    0  0.00000000000E+00 -0.00000000000E+00 -0.92347362523E+03  0.92347362523E+03  0.00000000000E+00 0. -1.
         23    2    1    2    0    0 -0.47780672263E+03  0.43322660771E+03  0.18050218162E+03  0.67630831884E+03  0.93953960752E+02 0.  0.
        254    2    1    2    0    0  0.47780672263E+03 -0.43322660771E+03 -0.22501319891E+03  0.11261279143E+04  0.89529245611E+03 0.  0.
        -24    2    4    4    0    0  0.56560412719E+03  0.58276673603E+02 -0.55541422709E+01  0.57475861340E+03  0.83740168352E+02 0.  0.
         24    2    4    4    0    0 -0.87797404557E+02 -0.49150328131E+03 -0.21945905663E+03  0.55136930095E+03  0.81005979421E+02 0.  0.
         13    1    3    3    0    0 -0.35282505695E+03  0.27094960970E+03  0.14853823909E+03  0.46900194059E+03  0.00000000000E+00 0.  1.
        -13    1    3    3    0    0 -0.12498166568E+03  0.16227699801E+03  0.31963942538E+02  0.20730637825E+03  0.00000000000E+00 0. -1.
          2    1    6    6  502    0  0.39696413879E+01  0.15708467274E+01 -0.19946362983E+01  0.47121318054E+01  0.00000000000E+00 0. -1.
          1    1    5    5  503    0  0.42903408336E+02  0.14415578974E+02  0.20255565963E+02  0.49586281535E+02  0.00000000000E+00 0. -1.
         -2    1    5    5    0  503  0.52270071885E+03  0.43861094629E+02 -0.25809708234E+02  0.52517233186E+03  0.00000000000E+00 0.  1.
         -3    1    6    6    0  502 -0.91767045945E+02 -0.49307412804E+03 -0.21746442034E+03  0.54665716914E+03  0.00000000000E+00 0.  1.
<mgrwt>
<rscale>  0 0.18018866E+04</rscale>
<asrwt>0</asrwt>
<pdfrwt beam="1">  1        2 0.14207286E+00 0.18018866E+04</pdfrwt>
<pdfrwt beam="2">  1       -2 0.13522502E+00 0.18018866E+04</pdfrwt>
<totfact> 0.10483066E+01</totfact>
</mgrwt>
</event>
<event>
12    1  0.1532786E-007  0.1730571E+04  0.7818608E-02  0.8744118E-01
         -2   -1    0    0    0  501 -0.00000000000E+00  0.00000000000E+00  0.62804907283E+03  0.62804907283E+03  0.00000000000E+00 0.  1.
          2   -1    0    0  501    0  0.00000000000E+00 -0.00000000000E+00 -0.11921343691E+04  0.11921343691E+04  0.00000000000E+00 0. -1.
         23    2    1    2    0    0  0.34368833959E+03  0.24739087917E+03 -0.70403237765E+03  0.82661963087E+03  0.91183899280E+02 0.  0.
        254    2    1    2    0    0 -0.34368833959E+03 -0.24739087917E+03  0.13994708138E+03  0.99356381106E+03  0.88784004144E+03 0.  0.
        -24    2    4    4    0    0 -0.61934314029E+03 -0.25218216881E+03  0.19466512125E+03  0.70122603446E+03  0.81496443377E+02 0.  0.
         24    2    4    4    0    0  0.27565480070E+03  0.47912896431E+01 -0.54718039877E+02  0.29233777660E+03  0.80366573497E+02 0.  0.
         11    1    3    3    0    0  0.16217759116E+03  0.62264349189E+02 -0.29449077093E+03  0.34191114989E+03  0.00000000000E+00 0. -1.
        -11    1    3    3    0    0  0.18151074843E+03  0.18512652998E+03 -0.40954160672E+03  0.48470848098E+03  0.00000000000E+00 0.  1.
          4    1    6    6  502    0  0.19352001906E+03  0.39307471315E+02 -0.28866805179E+02  0.19957045753E+03  0.00000000000E+00 0. -1.
          3    1    5    5  503    0 -0.61762273026E+03 -0.25292880565E+03  0.19905031170E+03  0.69645663486E+03  0.00000000000E+00 0. -1.
         -4    1    5    5    0  503 -0.17204100340E+01  0.74663683972E+00 -0.43851904483E+01  0.47693995978E+01  0.00000000000E+00 0.  1.
         -3    1    6    6    0  502  0.82134781638E+02 -0.34516181672E+02 -0.25851234698E+02  0.92767319069E+02  0.00000000000E+00 0.  1.
<mgrwt>
<rscale>  0 0.17305709E+04</rscale>
<asrwt>0</asrwt>
<pdfrwt beam="1">  1        2 0.18340529E+00 0.17305709E+04</pdfrwt>
<pdfrwt beam="2">  1       -2 0.96622934E-01 0.17305709E+04</pdfrwt>
<totfact> 0.16283742E+01</totfact>
</mgrwt>
</event>
<event>
12    1  0.1532786E-007  0.2591429E+04  0.7818608E-02  0.8371118E-01
         -2   -1    0    0    0  501 -0.00000000000E+00  0.00000000000E+00  0.12164529839E+04  0.12164529839E+04  0.00000000000E+00 0.  1.
          2   -1    0    0  501    0  0.00000000000E+00 -0.00000000000E+00 -0.13801409111E+04  0.13801409111E+04  0.00000000000E+00 0. -1.
         23    2    1    2    0    0  0.28088281861E+03 -0.88863079022E+03 -0.70735888463E+03  0.11736085039E+04  0.91872137650E+02 0.  0.
        254    2    1    2    0    0 -0.28088281861E+03  0.88863079022E+03  0.54367095743E+03  0.14229853911E+04  0.92776585097E+03 0.  0.
        -24    2    4    4    0    0  0.76472634292E+02  0.69923750008E+03  0.68740126284E+03  0.98673616656E+03  0.79665682301E+02 0.  0.
         24    2    4    4    0    0 -0.35735545290E+03  0.18939329014E+03 -0.14373030541E+03  0.43624922454E+03  0.77988762945E+02 0.  0.
         13    1    3    3    0    0  0.25916552503E+03 -0.70537629292E+03 -0.55295841480E+03  0.93299812030E+03  0.00000000000E+00 0. -1.
        -13    1    3    3    0    0  0.21717293581E+02 -0.18325449730E+03 -0.15440046983E+03  0.24061038362E+03  0.00000000000E+00 0.  1.
          4    1    6    6  502    0 -0.28621567338E+03  0.11536490387E+03 -0.11819209961E+03  0.33045097238E+03  0.00000000000E+00 0. -1.
          1    1    5    5  503    0  0.34917549312E+01  0.32999924176E+03  0.35331745479E+03  0.48347173214E+03  0.00000000000E+00 0. -1.
         -2    1    5    5    0  503  0.72980879361E+02  0.36923825831E+03  0.33408380806E+03  0.50326443443E+03  0.00000000000E+00 0.  1.
         -3    1    6    6    0  502 -0.71139779518E+02  0.74028386276E+02 -0.25538205800E+02  0.10579825216E+03  0.00000000000E+00 0.  1.
<mgrwt>
<rscale>  0 0.25914294E+04</rscale>
<asrwt>0</asrwt>
<pdfrwt beam="1">  1        2 0.21232937E+00 0.25914294E+04</pdfrwt>
<pdfrwt beam="2">  1       -2 0.18714661E+00 0.25914294E+04</pdfrwt>
<totfact> 0.21307658E+00</totfact>
</mgrwt>
</event>
<event>
12    1  0.1532786E-007  0.1837873E+04  0.7818608E-02  0.8686414E-01
         -2   -1    0    0    0  501 -0.00000000000E+00  0.00000000000E+00  0.46649911074E+03  0.46649911074E+03  0.00000000000E+00 0.  1.
          2   -1    0    0  501    0  0.00000000000E+00 -0.00000000000E+00 -0.18101728954E+04  0.18101728954E+04  0.00000000000E+00 0. -1.
         23    2    1    2    0    0 -0.58208486163E+03  0.30030703236E+03 -0.78141153821E+03  0.10235244932E+04  0.89394050762E+02 0.  0.
        254    2    1    2    0    0  0.58208486163E+03 -0.30030703236E+03 -0.56226224649E+03  0.12531475130E+04  0.90842322495E+03 0.  0.
        -24    2    4    4    0    0  0.57855285449E+03 -0.32081619199E+03 -0.77664297520E+03  0.10234483022E+04  0.81398291018E+02 0.  0.
         24    2    4    4    0    0  0.35320071453E+01  0.20509159627E+02  0.21438072871E+03  0.22969921083E+03  0.79809334723E+02 0.  0.
         11    1    3    3    0    0 -0.28008952497E+03  0.18663993582E+03 -0.36114254145E+03  0.49366845442E+03  0.00000000000E+00 0.  1.
        -11    1    3    3    0    0 -0.30199533666E+03  0.11366709654E+03 -0.42026899676E+03  0.52985603879E+03  0.00000000000E+00 0. -1.
          2    1    6    6  502    0  0.28255364863E+01  0.47606225964E+02  0.17831905159E+03  0.18458607902E+03  0.00000000000E+00 0. -1.
          3    1    5    5  503    0  0.54089025543E+03 -0.29698567061E+03 -0.75114392326E+03  0.97210079231E+03  0.00000000000E+00 0. -1.
         -4    1    5    5    0  503  0.37662599064E+02 -0.23830521377E+02 -0.25499051936E+02  0.51347509842E+02  0.00000000000E+00 0.  1.
         -1    1    6    6    0  502  0.70647065903E+00 -0.27097066337E+02  0.36061677118E+02  0.45113131807E+02  0.00000000000E+00 0.  1.
<mgrwt>
<rscale>  0 0.18378727E+04</rscale>
<asrwt>0</asrwt>
<pdfrwt beam="1">  1        2 0.27848815E+00 0.18378727E+04</pdfrwt>
<pdfrwt beam="2">  1       -2 0.71769091E-01 0.18378727E+04</pdfrwt>
<totfact> 0.14107168E+01</totfact>
</mgrwt>
</event>
<event>
12    1  0.1532786E-007  0.2654737E+04  0.7818608E-02  0.8349842E-01
          1   -1    0    0  501    0  0.00000000000E+00  0.00000000000E+00  0.21961468526E+04  0.21961468526E+04  0.00000000000E+00 0. -1.
         -1   -1    0    0    0  501 -0.00000000000E+00 -0.00000000000E+00 -0.80227223544E+03  0.80227223544E+03  0.00000000000E+00 0.  1.
         23    2    1    2    0    0  0.11056085882E+04 -0.26833641535E+03  0.87139294610E+03  0.14359828889E+04  0.91358680294E+02 0.  0.
        254    2    1    2    0    0 -0.11056085882E+04  0.26833641535E+03  0.52248167108E+03  0.15624361992E+04  0.93479676811E+03 0.  0.
        -24    2    4    4    0    0 -0.12094182545E+03  0.62444434763E+01 -0.24414943757E+03  0.28477477675E+03  0.82594233391E+02 0.  0.
         24    2    4    4    0    0 -0.98466676279E+03  0.26209197187E+03  0.76663110865E+03  0.12776614224E+04  0.80216071561E+02 0.  0.
         11    1    3    3    0    0  0.26675602986E+03 -0.38905125253E+02  0.24432783403E+03  0.36382479124E+03  0.00000000000E+00 0.  1.
        -11    1    3    3    0    0  0.83885255838E+03 -0.22943129009E+03  0.62706511208E+03  0.10721580976E+04  0.00000000000E+00 0. -1.
          2    1    6    6  502    0 -0.87152480404E+02  0.40747016067E+02  0.52961669531E+02  0.10982173099E+03  0.00000000000E+00 0. -1.
          1    1    5    5  503    0 -0.10559280211E+03 -0.15363685289E+02 -0.13302455454E+03  0.17053273818E+03  0.00000000000E+00 0. -1.
         -2    1    5    5    0  503 -0.15349023339E+02  0.21608128765E+02 -0.11112488303E+03  0.11424203856E+03  0.00000000000E+00 0.  1.
         -1    1    6    6    0  502 -0.89751428239E+03  0.22134495580E+03  0.71366943912E+03  0.11678396914E+04  0.00000000000E+00 0.  1.
<mgrwt>
<rscale>  0 0.26547374E+04</rscale>
<asrwt>0</asrwt>
<pdfrwt beam="1">  1        1 0.33786874E+00 0.26547374E+04</pdfrwt>
<pdfrwt beam="2">  1       -1 0.12342650E+00 0.26547374E+04</pdfrwt>
<totfact> 0.11092874E+00</totfact>
</mgrwt>
</event>
<event>
12    1  0.1532786E-007  0.1876345E+04  0.7818608E-02  0.8666721E-01
         -2   -1    0    0    0  501 -0.00000000000E+00  0.00000000000E+00  0.12703476381E+04  0.12703476381E+04  0.00000000000E+00 0.  1.
          2   -1    0    0  501    0  0.00000000000E+00 -0.00000000000E+00 -0.69285585584E+03  0.69285585584E+03  0.00000000000E+00 0. -1.
         23    2    1    2    0    0  0.25902532089E+03  0.62337655276E+03  0.47766562495E+03  0.83001890490E+03  0.71235453575E+02 0.  0.
        254    2    1    2    0    0 -0.25902532089E+03 -0.62337655276E+03  0.99826157335E+02  0.11331845891E+04  0.90468204791E+03 0.  0.
        -24    2    4    4    0    0  0.19182585027E+03  0.70951229417E+02  0.19780338310E+03  0.29575176812E+03  0.80695081603E+02 0.  0.
         24    2    4    4    0    0 -0.45085117116E+03 -0.69432778218E+03 -0.97977225760E+02  0.83743282094E+03  0.79601163126E+02 0.  0.
         11    1    3    3    0    0  0.20920283137E+02  0.11038830872E+03  0.63757225560E+02  0.12918289655E+03  0.00000000000E+00 0. -1.
        -11    1    3    3    0    0  0.23810503775E+03  0.51298824404E+03  0.41390839939E+03  0.70083600835E+03  0.00000000000E+00 0.  1.
          2    1    6    6  502    0 -0.14492111052E+03 -0.23748439286E+03  0.39965557378E+01  0.27823899365E+03  0.00000000000E+00 0. -1.
          1    1    5    5  503    0  0.15773880567E+02  0.93600396024E+01  0.63016640565E+02  0.65631719752E+02  0.00000000000E+00 0. -1.
         -2    1    5    5    0  503  0.17605196971E+03  0.61591189815E+02  0.13478674253E+03  0.23012004837E+03  0.00000000000E+00 0.  1.
         -3    1    6    6    0  502 -0.30593006065E+03 -0.45684338931E+03 -0.10197378150E+03  0.55919382729E+03  0.00000000000E+00 0.  1.
<mgrwt>
<rscale>  0 0.18763452E+04</rscale>
<asrwt>0</asrwt>
<pdfrwt beam="1">  1        2 0.10659321E+00 0.18763452E+04</pdfrwt>
<pdfrwt beam="2">  1       -2 0.19543810E+00 0.18763452E+04</pdfrwt>
<totfact> 0.55486113E+00</totfact>
</mgrwt>
</event>
<event>
12    1  0.1532786E-007  0.2189185E+04  0.7818608E-02  0.8522943E-01
          2   -1    0    0  501    0  0.00000000000E+00  0.00000000000E+00  0.11993623901E+04  0.11993623901E+04  0.00000000000E+00 0. -1.
         -2   -1    0    0    0  501 -0.00000000000E+00 -0.00000000000E+00 -0.99897518298E+03  0.99897518298E+03  0.00000000000E+00 0.  1.
         23    2    1    2    0    0 -0.68309599304E+03  0.14251440649E+03  0.67277019797E+03  0.97347987198E+03  0.90071250174E+02 0.  0.
        254    2    1    2    0    0  0.68309599304E+03 -0.14251440649E+03 -0.47238299086E+03  0.12248577011E+04  0.88893205932E+03 0.  0.
        -24    2    4    4    0    0  0.39226274393E+03  0.21534834693E+03 -0.58736014701E+03  0.74299451175E+03  0.82485946616E+02 0.  0.
         24    2    4    4    0    0  0.29083324911E+03 -0.35786275342E+03  0.11497715615E+03  0.48186318934E+03  0.79515141530E+02 0.  0.
         11    1    3    3    0    0 -0.16137295170E+03  0.26878371033E+02  0.10838060506E+03  0.19623973075E+03  0.00000000000E+00 0.  1.
        -11    1    3    3    0    0 -0.52172304134E+03  0.11563603546E+03  0.56438959291E+03  0.77724014123E+03  0.00000000000E+00 0. -1.
          2    1    6    6  502    0  0.81871926474E+02 -0.50255023049E+02  0.22379570668E+02  0.98637847044E+02  0.00000000000E+00 0. -1.
          3    1    5    5  503    0  0.52458260882E+01  0.20040017494E+02 -0.37024393577E+02  0.42425543158E+02  0.00000000000E+00 0. -1.
         -4    1    5    5    0  503  0.38701691784E+03  0.19530832943E+03 -0.55033575344E+03  0.70056896859E+03  0.00000000000E+00 0.  1.
         -1    1    6    6    0  502  0.20896132264E+03 -0.30760773037E+03  0.92597585483E+02  0.38322534229E+03  0.00000000000E+00 0.  1.
<mgrwt>
<rscale>  0 0.21891855E+04</rscale>
<asrwt>0</asrwt>
<pdfrwt beam="1">  1        2 0.18451729E+00 0.21891855E+04</pdfrwt>
<pdfrwt beam="2">  1       -2 0.15368849E+00 0.21891855E+04</pdfrwt>
<totfact> 0.48710969E+00</totfact>
</mgrwt>
</event>
<event>
12    1  0.1532786E-007  0.1366096E+04  0.7818608E-02  0.8978732E-01
          1   -1    0    0  501    0  0.00000000000E+00  0.00000000000E+00  0.47892675935E+03  0.47892675935E+03  0.00000000000E+00 0. -1.
         -1   -1    0    0    0  501 -0.00000000000E+00 -0.00000000000E+00 -0.97416754501E+03  0.97416754501E+03  0.00000000000E+00 0.  1.
         23    2    1    2    0    0 -0.16369779833E+03  0.14645428307E+03  0.17844067826E+03  0.29748543246E+03  0.91709763149E+02 0.  0.
        254    2    1    2    0    0  0.16369779833E+03 -0.14645428307E+03 -0.67368146391E+03  0.11556088719E+04  0.91287421028E+03 0.  0.
        -24    2    4    4    0    0 -0.83130709939E+02  0.34487662488E+03 -0.15379074557E+03  0.39468499352E+03  0.79208897006E+02 0.  0.
         24    2    4    4    0    0  0.24682850827E+03 -0.49133090795E+03 -0.51989071835E+03  0.76092387838E+03  0.79927567637E+02 0.  0.
         13    1    3    3    0    0 -0.87819647007E+02  0.12708359749E+03  0.14654600252E+03  0.21292783286E+03  0.00000000000E+00 0. -1.
        -13    1    3    3    0    0 -0.75878151328E+02  0.19370685574E+02  0.31894675739E+02  0.84557599594E+02  0.00000000000E+00 0.  1.
          4    1    6    6  502    0  0.90076841687E+02 -0.15623850895E+03 -0.22154143420E+03  0.28566574200E+03  0.00000000000E+00 0. -1.
          1    1    5    5  503    0 -0.51240321870E+00 -0.21469487182E+01  0.40417684988E+01  0.46051968964E+01  0.00000000000E+00 0. -1.
         -2    1    5    5    0  503 -0.82618306720E+02  0.34702357360E+03 -0.15783251407E+03  0.39007979662E+03  0.00000000000E+00 0.  1.
         -3    1    6    6    0  502  0.15675166659E+03 -0.33509239900E+03 -0.29834928415E+03  0.47525813638E+03  0.00000000000E+00 0.  1.
<mgrwt>
<rscale>  0 0.13660965E+04</rscale>
<asrwt>0</asrwt>
<pdfrwt beam="1">  1        1 0.73681041E-01 0.13660965E+04</pdfrwt>
<pdfrwt beam="2">  1       -1 0.14987193E+00 0.13660965E+04</pdfrwt>
<totfact> 0.16080307E+01</totfact>
</mgrwt>
</event>
<event>
12    1  0.1532786E-007  0.1759388E+04  0.7818608E-02  0.8728200E-01
         -1   -1    0    0    0  501 -0.00000000000E+00  0.00000000000E+00  0.45193096856E+03  0.45193096856E+03  0.00000000000E+00 0.  1.
          1   -1    0    0  501    0  0.00000000000E+00 -0.00000000000E+00 -0.17123438902E+04  0.17123438902E+04  0.00000000000E+00 0. -1.
         23    2    1    2    0    0  0.21609608470E+03 -0.44394978653E+03 -0.91719503611E+03  0.10455781897E+04  0.90543281244E+02 0.  0.
        254    2    1    2    0    0 -0.21609608470E+03  0.44394978653E+03 -0.34321788557E+03  0.11186966691E+04  0.94334235018E+03 0.  0.
        -24    2    4    4    0    0  0.57581672567E+01 -0.12382467410E+03 -0.46819858039E+03  0.49122909855E+03  0.82039077163E+02 0.  0.
         24    2    4    4    0    0 -0.22185425195E+03  0.56777446063E+03  0.12498069482E+03  0.62746757052E+03  0.80673606166E+02 0.  0.
         13    1    3    3    0    0  0.14498267022E+03 -0.31909675280E+03 -0.72828491274E+03  0.80823364594E+03  0.00000000000E+00 0. -1.
        -13    1    3    3    0    0  0.71113414480E+02 -0.12485303372E+03 -0.18891012337E+03  0.23734454378E+03  0.00000000000E+00 0.  1.
          2    1    6    6  502    0 -0.65054217570E+02  0.83431490896E+02  0.20410313676E+02  0.10774713825E+03  0.00000000000E+00 0. -1.
          3    1    5    5  503    0  0.18736758191E+02  0.43368702568E+01 -0.77089874059E+02  0.79452647744E+02  0.00000000000E+00 0. -1.
         -4    1    5    5    0  503 -0.12978590934E+02 -0.12816154435E+03 -0.39110870633E+03  0.41177645081E+03  0.00000000000E+00 0.  1.
         -1    1    6    6    0  502 -0.15680003438E+03  0.48434296973E+03  0.10457038114E+03  0.51972043227E+03  0.00000000000E+00 0.  1.
<mgrwt>
<rscale>  0 0.17593877E+04</rscale>
<asrwt>0</asrwt>
<pdfrwt beam="1">  1        1 0.26343752E+00 0.17593877E+04</pdfrwt>
<pdfrwt beam="2">  1       -1 0.69527843E-01 0.17593877E+04</pdfrwt>
<totfact> 0.92594784E+00</totfact>
</mgrwt>
</event>
<event>
12    1  0.1532786E-007  0.2561423E+04  0.7818608E-02  0.8381424E-01
          1   -1    0    0  501    0  0.00000000000E+00  0.00000000000E+00  0.87482773277E+03  0.87482773277E+03  0.00000000000E+00 0. -1.
         -1   -1    0    0    0  501 -0.00000000000E+00 -0.00000000000E+00 -0.18749086127E+04  0.18749086127E+04  0.00000000000E+00 0.  1.
         23    2    1    2    0    0 -0.19900672099E+03 -0.70321648292E+03  0.44276304191E+03  0.85931946580E+03  0.90960080096E+02 0.  0.
        254    2    1    2    0    0  0.19900672099E+03  0.70321648292E+03 -0.14428439219E+04  0.18904168797E+04  0.97865228725E+03 0.  0.
        -24    2    4    4    0    0  0.27003082224E+03  0.26103711942E+03 -0.68777862384E+01  0.38411443986E+03  0.80246970570E+02 0.  0.
         24    2    4    4    0    0 -0.71024101254E+02  0.44217936350E+03 -0.14359661356E+04  0.15063024399E+04  0.79882946426E+02 0.  0.
         13    1    3    3    0    0 -0.15505873389E+03 -0.38237532307E+03  0.25089588835E+03  0.48291080485E+03  0.00000000000E+00 0. -1.
        -13    1    3    3    0    0 -0.43947987100E+02 -0.32084115984E+03  0.19186715356E+03  0.37640866095E+03  0.00000000000E+00 0.  1.
          2    1    6    6  502    0 -0.38538018013E+01  0.25455304985E+03 -0.85571988704E+03  0.89278700262E+03  0.00000000000E+00 0. -1.
          3    1    5    5  503    0  0.18157186936E+03  0.22116545487E+03  0.61300569974E+01  0.28621684047E+03  0.00000000000E+00 0. -1.
         -4    1    5    5    0  503  0.88458952886E+02  0.39871664548E+02 -0.13007843236E+02  0.97897599385E+02  0.00000000000E+00 0.  1.
         -1    1    6    6    0  502 -0.67170299453E+02  0.18762631364E+03 -0.58024624861E+03  0.61351543724E+03  0.00000000000E+00 0.  1.
<mgrwt>
<rscale>  0 0.25614231E+04</rscale>
<asrwt>0</asrwt>
<pdfrwt beam="1">  1        1 0.13458888E+00 0.25614231E+04</pdfrwt>
<pdfrwt beam="2">  1       -1 0.28844747E+00 0.25614231E+04</pdfrwt>
<totfact> 0.66195768E-01</totfact>
</mgrwt>
</event>
<event>
12    1  0.1532786E-007  0.1620648E+04  0.7818608E-02  0.8807963E-01
          2   -1    0    0  501    0  0.00000000000E+00  0.00000000000E+00  0.82242697651E+03  0.82242697651E+03  0.00000000000E+00 0. -1.
         -2   -1    0    0    0  501 -0.00000000000E+00 -0.00000000000E+00 -0.79839899308E+03  0.79839899308E+03  0.00000000000E+00 0.  1.
         23    2    1    2    0    0 -0.26897624641E+03 -0.45015526451E+03  0.23888537973E+03  0.58334993061E+03  0.90790603000E+02 0.  0.
        254    2    1    2    0    0  0.26897624641E+03  0.45015526451E+03 -0.21485739630E+03  0.10374760390E+04  0.86902522830E+03 0.  0.
        -24    2    4    4    0    0  0.37751837376E+03 -0.12573959924E+03 -0.18324348083E+03  0.44521337219E+03  0.79411612345E+02 0.  0.
         24    2    4    4    0    0 -0.10854212734E+03  0.57589486375E+03 -0.31613915474E+02  0.59226266679E+03  0.79619968053E+02 0.  0.
         13    1    3    3    0    0 -0.40257380606E+02 -0.34951594248E+02  0.49938288900E+02  0.73048636756E+02  0.00000000000E+00 0.  1.
        -13    1    3    3    0    0 -0.22871886581E+03 -0.41520367027E+03  0.18894709083E+03  0.51030129386E+03  0.00000000000E+00 0. -1.
          4    1    6    6  502    0 -0.31199787961E+02  0.53594968767E+02 -0.15958623590E+02  0.64035342685E+02  0.00000000000E+00 0. -1.
          3    1    5    5  503    0  0.12419735289E+03 -0.66637874681E+02 -0.97264038645E+02  0.17124801319E+03  0.00000000000E+00 0. -1.
         -4    1    5    5    0  503  0.25332102087E+03 -0.59101724559E+02 -0.85979442181E+02  0.27396535901E+03  0.00000000000E+00 0.  1.
         -3    1    6    6    0  502 -0.77342339383E+02  0.52229989499E+03 -0.15655291884E+02  0.52822732410E+03  0.00000000000E+00 0.  1.
<mgrwt>
<rscale>  0 0.16206479E+04</rscale>
<asrwt>0</asrwt>
<pdfrwt beam="1">  1        2 0.12652723E+00 0.16206479E+04</pdfrwt>
<pdfrwt beam="2">  1       -2 0.12283061E+00 0.16206479E+04</pdfrwt>
<totfact> 0.15919929E+01</totfact>
</mgrwt>
</event>
<event>
12    1  0.1532786E-007  0.1440742E+04  0.7818608E-02  0.8924844E-01
          2   -1    0    0  501    0  0.00000000000E+00  0.00000000000E+00  0.41369659952E+03  0.41369659952E+03  0.00000000000E+00 0. -1.
         -2   -1    0    0    0  501 -0.00000000000E+00 -0.00000000000E+00 -0.12543835160E+04  0.12543835160E+04  0.00000000000E+00 0.  1.
         23    2    1    2    0    0  0.38841516268E+03  0.12649338721E+03 -0.78271212295E+02  0.42612168046E+03  0.92662766378E+02 0.  0.
        254    2    1    2    0    0 -0.38841516268E+03 -0.12649338721E+03 -0.76241570420E+03  0.12419584351E+04  0.89124414884E+03 0.  0.
        -24    2    4    4    0    0 -0.60517869526E+03 -0.17173064488E+03 -0.78055524243E+03  0.10055881358E+04  0.78793050772E+02 0.  0.
         24    2    4    4    0    0  0.21676353258E+03  0.45237257663E+02  0.18139538234E+02  0.23637029925E+03  0.80678603002E+02 0.  0.
         13    1    3    3    0    0  0.18116799662E+03  0.95566014017E+02 -0.69847933419E+02  0.21641035058E+03  0.00000000000E+00 0.  1.
        -13    1    3    3    0    0  0.20724716606E+03  0.30927373197E+02 -0.84232788757E+01  0.20971132988E+03  0.00000000000E+00 0. -1.
          2    1    6    6  502    0  0.72599792879E+01  0.23694979869E+02 -0.16330748645E+01  0.24835988077E+02  0.00000000000E+00 0. -1.
          3    1    5    5  503    0 -0.27375311440E+03 -0.10430835285E+03 -0.40980505967E+03  0.50374714595E+03  0.00000000000E+00 0. -1.
         -4    1    5    5    0  503 -0.33142558086E+03 -0.67422292030E+02 -0.37075018276E+03  0.50184098988E+03  0.00000000000E+00 0.  1.
         -1    1    6    6    0  502  0.20950355329E+03  0.21542277795E+02  0.19772613098E+02  0.21153431117E+03  0.00000000000E+00 0.  1.
<mgrwt>
<rscale>  0 0.14407417E+04</rscale>
<asrwt>0</asrwt>
<pdfrwt beam="1">  1        2 0.63645632E-01 0.14407417E+04</pdfrwt>
<pdfrwt beam="2">  1       -2 0.19298208E+00 0.14407417E+04</pdfrwt>
<totfact> 0.10984288E+01</totfact>
</mgrwt>
</event>
<event>
12    1  0.1532786E-007  0.2087668E+04  0.7818608E-02  0.8566695E-01
          1   -1    0    0  501    0  0.00000000000E+00  0.00000000000E+00  0.78618569970E+03  0.78618569970E+03  0.00000000000E+00 0. -1.
         -1   -1    0    0    0  501 -0.00000000000E+00 -0.00000000000E+00 -0.13859193051E+04  0.13859193051E+04  0.00000000000E+00 0.  1.
         23    2    1    2    0    0  0.82398157577E+03  0.13683974844E+03 -0.10764866975E+03  0.84652997965E+03  0.85755561859E+02 0.  0.
        254    2    1    2    0    0 -0.82398157577E+03 -0.13683974844E+03 -0.49208493562E+03  0.13255750251E+04  0.90406349853E+03 0.  0.
        -24    2    4    4    0    0 -0.22249507577E+03 -0.36398094532E+03 -0.52077408794E+03  0.67706441161E+03  0.72279869268E+02 0.  0.
         24    2    4    4    0    0 -0.60148650000E+03  0.22714119688E+03  0.28689152326E+02  0.64851061350E+03  0.79773525445E+02 0.  0.
         13    1    3    3    0    0  0.24323974454E+03  0.66462785967E+02 -0.25255663899E+01  0.25216909749E+03  0.00000000000E+00 0. -1.
        -13    1    3    3    0    0  0.58074183123E+03  0.70376962473E+02 -0.10512310336E+03  0.59436088216E+03  0.00000000000E+00 0.  1.
          4    1    6    6  502    0 -0.20412801050E+03  0.89895272034E+02 -0.26078852512E+02  0.22456516015E+03  0.00000000000E+00 0. -1.
          3    1    5    5  503    0 -0.11953533328E+03 -0.17429119004E+03 -0.20389855134E+03  0.29366772732E+03  0.00000000000E+00 0. -1.
         -4    1    5    5    0  503 -0.10295974248E+03 -0.18968975527E+03 -0.31687553660E+03  0.38339668429E+03  0.00000000000E+00 0.  1.
         -3    1    6    6    0  502 -0.39735848950E+03  0.13724592484E+03  0.54768004838E+02  0.42394545335E+03  0.00000000000E+00 0.  1.
<mgrwt>
<rscale>  0 0.20876685E+04</rscale>
<asrwt>0</asrwt>
<pdfrwt beam="1">  1        1 0.12095165E+00 0.20876685E+04</pdfrwt>
<pdfrwt beam="2">  1       -1 0.21321835E+00 0.20876685E+04</pdfrwt>
<totfact> 0.25587446E+00</totfact>
</mgrwt>
</event>
<event>
12    1  0.1532786E-007  0.1428105E+04  0.7818608E-02  0.8933722E-01
          3   -1    0    0  501    0  0.00000000000E+00  0.00000000000E+00  0.49434196774E+03  0.49434196774E+03  0.00000000000E+00 0. -1.
         -3   -1    0    0    0  501 -0.00000000000E+00 -0.00000000000E+00 -0.10314130376E+04  0.10314130376E+04  0.00000000000E+00 0.  1.
         23    2    1    2    0    0  0.32632802216E+03 -0.26880531655E+03 -0.15321163398E+03  0.45895974488E+03  0.91782168105E+02 0.  0.
        254    2    1    2    0    0 -0.32632802216E+03  0.26880531655E+03 -0.38385943589E+03  0.10667952605E+04  0.90108700189E+03 0.  0.
        -24    2    4    4    0    0 -0.59041700114E+03  0.54685821377E+02 -0.39568757282E+03  0.71729581054E+03  0.79761207654E+02 0.  0.
         24    2    4    4    0    0  0.26408897898E+03  0.21411949518E+03  0.11828136932E+02  0.34949944992E+03  0.80123739560E+02 0.  0.
         13    1    3    3    0    0  0.53296489460E+02 -0.95395109594E+01 -0.51902542167E+01  0.54391697868E+02  0.00000000000E+00 0. -1.
        -13    1    3    3    0    0  0.27303153270E+03 -0.25926580559E+03 -0.14802137976E+03  0.40456804701E+03  0.00000000000E+00 0.  1.
          4    1    6    6  502    0  0.24318669694E+03  0.20989141113E+03 -0.66125109385E+01  0.32130655041E+03  0.00000000000E+00 0. -1.
          1    1    5    5  503    0 -0.48025409870E+03  0.32733965111E+02 -0.35383513487E+03  0.59742348000E+03  0.00000000000E+00 0. -1.
         -4    1    5    5    0  503 -0.11016290244E+03  0.21951856265E+02 -0.41852437953E+02  0.11987233054E+03  0.00000000000E+00 0.  1.
         -3    1    6    6    0  502  0.20902282037E+02  0.42280840449E+01  0.18440647870E+02  0.28192899513E+02  0.00000000000E+00 0.  1.
<mgrwt>
<rscale>  0 0.14281047E+04</rscale>
<asrwt>0</asrwt>
<pdfrwt beam="1">  1        3 0.76052610E-01 0.14281047E+04</pdfrwt>
<pdfrwt beam="2">  1       -3 0.15867893E+00 0.14281047E+04</pdfrwt>
<totfact> 0.11526527E+00</totfact>
</mgrwt>
</event>
<event>
12    1  0.1532786E-007  0.1742658E+04  0.7818608E-02  0.8737402E-01
         -2   -1    0    0    0  501 -0.00000000000E+00  0.00000000000E+00  0.75026709480E+03  0.75026709480E+03  0.00000000000E+00 0.  1.
          2   -1    0    0  501    0  0.00000000000E+00 -0.00000000000E+00 -0.10119250896E+04  0.10119250896E+04  0.00000000000E+00 0. -1.
         23    2    1    2    0    0  0.10062995155E+03 -0.59930116952E+03 -0.28271885362E+03  0.67630559357E+03  0.90393731941E+02 0.  0.
        254    2    1    2    0    0 -0.10062995155E+03  0.59930116952E+03  0.21060858792E+02  0.10858865908E+04  0.89967652490E+03 0.  0.
        -24    2    4    4    0    0 -0.81173032678E+02  0.83165377220E+03  0.21054866737E+02  0.83941059860E+03  0.77005114063E+02 0.  0.
         24    2    4    4    0    0 -0.19456918869E+02 -0.23235260268E+03  0.59920547111E-02  0.24647599224E+03  0.79900632363E+02 0.  0.
         11    1    3    3    0    0  0.10984489230E+03 -0.57157308200E+03 -0.28277030707E+03  0.64708634276E+03  0.00000000000E+00 0. -1.
        -11    1    3    3    0    0 -0.92149407534E+01 -0.27728087521E+02  0.51453448591E-01  0.29219250814E+02  0.00000000000E+00 0.  1.
          4    1    6    6  502    0 -0.20543421009E+01 -0.22749255506E+03 -0.55596298247E+01  0.22756975285E+03  0.00000000000E+00 0. -1.
          3    1    5    5  503    0 -0.58876131624E+02  0.27176330349E+03 -0.96557263197E+01  0.27823537706E+03  0.00000000000E+00 0. -1.
         -4    1    5    5    0  503 -0.22296901055E+02  0.55989046870E+03  0.30710593057E+02  0.56117522154E+03  0.00000000000E+00 0.  1.
         -3    1    6    6    0  502 -0.17402576768E+02 -0.48600476213E+01  0.55656218794E+01  0.18906239392E+02  0.00000000000E+00 0.  1.
<mgrwt>
<rscale>  0 0.17426579E+04</rscale>
<asrwt>0</asrwt>
<pdfrwt beam="1">  1        2 0.15568078E+00 0.17426579E+04</pdfrwt>
<pdfrwt beam="2">  1       -2 0.11542571E+00 0.17426579E+04</pdfrwt>
<totfact> 0.13716348E+01</totfact>
</mgrwt>
</event>
<event>
12    1  0.1532786E-007  0.1497721E+04  0.7818608E-02  0.8885970E-01
          1   -1    0    0  501    0  0.00000000000E+00  0.00000000000E+00  0.31479779252E+04  0.31479779252E+04  0.00000000000E+00 0. -1.
         -1   -1    0    0    0  501 -0.00000000000E+00 -0.00000000000E+00 -0.17814365125E+03  0.17814365125E+03  0.00000000000E+00 0.  1.
         23    2    1    2    0    0 -0.34128027447E+03  0.31545654890E+03  0.92885069531E+03  0.10425656111E+04  0.90522810728E+02 0.  0.
        254    2    1    2    0    0  0.34128027447E+03 -0.31545654890E+03  0.20409835787E+04  0.22835559654E+04  0.91270412438E+03 0.  0.
        -24    2    4    4    0    0  0.77742435264E+02 -0.25493797440E+02 -0.68164678880E+02  0.13688119761E+03  0.86001272448E+02 0.  0.
         24    2    4    4    0    0  0.26353783920E+03 -0.28996275146E+03  0.21091482575E+04  0.21466747678E+04  0.78584962689E+02 0.  0.
         11    1    3    3    0    0 -0.14693224320E+03  0.15367077013E+03  0.52060841544E+03  0.56234945711E+03  0.00000000000E+00 0.  1.
        -11    1    3    3    0    0 -0.19434803127E+03  0.16178577877E+03  0.40824227987E+03  0.48021615398E+03  0.00000000000E+00 0. -1.
          2    1    6    6  502    0  0.23323668656E+03 -0.28261650148E+03  0.19934848159E+04  0.20268826187E+04  0.00000000000E+00 0. -1.
          3    1    5    5  503    0  0.40245922205E+02  0.30031334187E+02 -0.18637790312E+02  0.53562883743E+02  0.00000000000E+00 0. -1.
         -4    1    5    5    0  503  0.37496513059E+02 -0.55525131627E+02 -0.49526888568E+02  0.83318313863E+02  0.00000000000E+00 0.  1.
         -1    1    6    6    0  502  0.30301152649E+02 -0.73462499814E+01  0.11566344168E+03  0.11979214908E+03  0.00000000000E+00 0.  1.
<mgrwt>
<rscale>  0 0.14977213E+04</rscale>
<asrwt>0</asrwt>
<pdfrwt beam="1">  1        1 0.48430426E+00 0.14977213E+04</pdfrwt>
<pdfrwt beam="2">  1       -1 0.27406718E-01 0.14977213E+04</pdfrwt>
<totfact> 0.54171499E+00</totfact>
</mgrwt>
</event>
<event>
12    1  0.1532786E-007  0.1556027E+04  0.7818608E-02  0.8848027E-01
         -1   -1    0    0    0  501 -0.00000000000E+00  0.00000000000E+00  0.46199866124E+03  0.46199866124E+03  0.00000000000E+00 0.  1.
          1   -1    0    0  501    0  0.00000000000E+00 -0.00000000000E+00 -0.13101875311E+04  0.13101875311E+04  0.00000000000E+00 0. -1.
         23    2    1    2    0    0 -0.49904603668E+03  0.86340857039E+02 -0.12260755782E+03  0.52887341976E+03  0.90403487645E+02 0.  0.
        254    2    1    2    0    0  0.49904603668E+03 -0.86340857039E+02 -0.72558131208E+03  0.12433127726E+04  0.87341669312E+03 0.  0.
        -24    2    4    4    0    0  0.51867282583E+03  0.25129582287E+03 -0.20286346123E+03  0.61619915586E+03  0.79854398340E+02 0.  0.
         24    2    4    4    0    0 -0.19626789157E+02 -0.33763667991E+03 -0.52271785085E+03  0.62711361676E+03  0.75191743304E+02 0.  0.
         13    1    3    3    0    0 -0.29856712844E+03  0.25719637243E+02 -0.34501663673E+02  0.30165244027E+03  0.00000000000E+00 0. -1.
        -13    1    3    3    0    0 -0.20047890824E+03  0.60621219796E+02 -0.88105894148E+02  0.22722097949E+03  0.00000000000E+00 0.  1.
          4    1    6    6  502    0 -0.19448630577E+02 -0.27117308051E+03 -0.46705600969E+03  0.54042058159E+03  0.00000000000E+00 0. -1.
          3    1    5    5  503    0  0.23054546443E+03  0.10581238925E+03 -0.47888257964E+02  0.25814871322E+03  0.00000000000E+00 0. -1.
         -4    1    5    5    0  503  0.28812736140E+03  0.14548343362E+03 -0.15497520327E+03  0.35805044264E+03  0.00000000000E+00 0.  1.
         -3    1    6    6    0  502 -0.17815857975E+00 -0.66463599397E+02 -0.55661841162E+02  0.86693035169E+02  0.00000000000E+00 0.  1.
<mgrwt>
<rscale>  0 0.15560268E+04</rscale>
<asrwt>0</asrwt>
<pdfrwt beam="1">  1        1 0.20156731E+00 0.15560268E+04</pdfrwt>
<pdfrwt beam="2">  1       -1 0.71076716E-01 0.15560268E+04</pdfrwt>
<totfact> 0.17125967E+01</totfact>
</mgrwt>
</event>
<event>
12    1  0.1532786E-007  0.1955145E+04  0.7818608E-02  0.8627884E-01
          2   -1    0    0  501    0  0.00000000000E+00  0.00000000000E+00  0.51429137695E+03  0.51429137695E+03  0.00000000000E+00 0.  1.
         -2   -1    0    0    0  501 -0.00000000000E+00 -0.00000000000E+00 -0.18581838896E+04  0.18581838896E+04  0.00000000000E+00 0. -1.
         23    2    1    2    0    0  0.91372522638E+02 -0.49770520418E+03 -0.12308057631E+04  0.13338776815E+04  0.91035348562E+02 0.  0.
        254    2    1    2    0    0 -0.91372522638E+02  0.49770520418E+03 -0.11308674960E+03  0.10385975850E+04  0.89990939686E+03 0.  0.
        -24    2    4    4    0    0  0.29611923055E+03  0.65974574803E+01 -0.24675534749E+03  0.39363676247E+03  0.79571188920E+02 0.  0.
         24    2    4    4    0    0 -0.38749175319E+03  0.49110774670E+03  0.13366859789E+03  0.64496082257E+03  0.82282992956E+02 0.  0.
         13    1    3    3    0    0  0.10282417819E+03 -0.42227654365E+03 -0.98799241683E+03  0.10793606008E+04  0.00000000000E+00 0. -1.
        -13    1    3    3    0    0 -0.11451655550E+02 -0.75428660534E+02 -0.24281334624E+03  0.25451708068E+03  0.00000000000E+00 0.  1.
          4    1    6    6  502    0 -0.21450379188E+03  0.33335917897E+03  0.72456959046E+02  0.40297671130E+03  0.00000000000E+00 0. -1.
          3    1    5    5  503    0  0.57454396248E+02  0.28405201515E+02 -0.31125018185E+02  0.71250472829E+02  0.00000000000E+00 0. -1.
         -4    1    5    5    0  503  0.23866483430E+03 -0.21807744034E+02 -0.21563032931E+03  0.32238628964E+03  0.00000000000E+00 0.  1.
         -3    1    6    6    0  502 -0.17298796131E+03  0.15774856774E+03  0.61211638846E+02  0.24198411128E+03  0.00000000000E+00 0.  1.
<mgrwt>
<rscale>  0 0.19551450E+04</rscale>
<asrwt>0</asrwt>
<pdfrwt beam="1">  1        2 0.79121752E-01 0.19551450E+04</pdfrwt>
<pdfrwt beam="2">  1       -2 0.28587444E+00 0.19551450E+04</pdfrwt>
<totfact> 0.21559433E+00</totfact>
</mgrwt>
</event>
<event>
12    1  0.1532786E-007  0.1189871E+04  0.7818608E-02  0.9121769E-01
          1   -1    0    0  501    0  0.00000000000E+00  0.00000000000E+00  0.44147485763E+03  0.44147485763E+03  0.00000000000E+00 0. -1.
         -1   -1    0    0    0  501 -0.00000000000E+00 -0.00000000000E+00 -0.80173989616E+03  0.80173989616E+03  0.00000000000E+00 0.  1.
         23    2    1    2    0    0  0.19519235327E+03 -0.10874606568E+03 -0.88716075268E+02  0.25627758286E+03  0.88780042189E+02 0.  0.
        254    2    1    2    0    0 -0.19519235327E+03  0.10874606568E+03 -0.27154896326E+03  0.98693717094E+03  0.92216071178E+03 0.  0.
        -24    2    4    4    0    0  0.80623805024E+02  0.58146476808E+02 -0.56151629097E+03  0.57545205843E+03  0.77222508562E+02 0.  0.
         24    2    4    4    0    0 -0.27581615829E+03  0.50599588870E+02  0.28996732770E+03  0.41148511251E+03  0.81265460766E+02 0.  0.
         11    1    3    3    0    0  0.19335775012E+03 -0.11873213479E+03 -0.74522953749E+02  0.23882673636E+03  0.00000000000E+00 0.  1.
        -11    1    3    3    0    0  0.18346031455E+01  0.99860691165E+01 -0.14193121519E+02  0.17450846500E+02  0.00000000000E+00 0. -1.
          2    1    6    6  502    0 -0.22392747084E+03  0.35324250946E+02  0.18195890225E+03  0.29068945115E+03  0.00000000000E+00 0. -1.
          3    1    5    5  503    0  0.80628176297E+02  0.70975222596E+02 -0.53843487851E+03  0.54904508325E+03  0.00000000000E+00 0. -1.
         -4    1    5    5    0  503 -0.43712728202E-02 -0.12828745788E+02 -0.23081412451E+02  0.26406975183E+02  0.00000000000E+00 0.  1.
         -1    1    6    6    0  502 -0.51888687447E+02  0.15275337924E+02  0.10800842545E+03  0.12079566136E+03  0.00000000000E+00 0.  1.
<mgrwt>
<rscale>  0 0.11898706E+04</rscale>
<asrwt>0</asrwt>
<pdfrwt beam="1">  1        1 0.67919209E-01 0.11898706E+04</pdfrwt>
<pdfrwt beam="2">  1       -1 0.12334460E+00 0.11898706E+04</pdfrwt>
<totfact> 0.30118339E+01</totfact>
</mgrwt>
</event>
<event>
12    1  0.1532786E-007  0.1390983E+04  0.7818608E-02  0.8960372E-01
          2   -1    0    0  501    0  0.00000000000E+00  0.00000000000E+00  0.36150431134E+04  0.36150431134E+04  0.00000000000E+00 0. -1.
         -2   -1    0    0    0  501 -0.00000000000E+00 -0.00000000000E+00 -0.13380432562E+03  0.13380432562E+03  0.00000000000E+00 0.  1.
         23    2    1    2    0    0 -0.45711625710E+00 -0.34491826254E+03  0.49899263994E+03  0.61371966025E+03  0.93216682403E+02 0.  0.
        254    2    1    2    0    0  0.45711625710E+00  0.34491826254E+03  0.29822461478E+04  0.31351277787E+04  0.90347400961E+03 0.  0.
        -24    2    4    4    0    0 -0.25392055253E+03  0.99638976390E+02  0.24830836942E+03  0.37729861939E+03  0.79332397251E+02 0.  0.
         24    2    4    4    0    0  0.25437766879E+03  0.24527928615E+03  0.27339377784E+04  0.27578291593E+04  0.79598802924E+02 0.  0.
         11    1    3    3    0    0 -0.20305702066E+02 -0.37694745632E+02  0.10724697877E+03  0.11547783268E+03  0.00000000000E+00 0. -1.
        -11    1    3    3    0    0  0.19848585809E+02 -0.30722351691E+03  0.39174566116E+03  0.49824182757E+03  0.00000000000E+00 0.  1.
          4    1    6    6  502    0  0.31556965653E+01 -0.60380275418E+01  0.44950656758E+02  0.45464026883E+02  0.00000000000E+00 0. -1.
          3    1    5    5  503    0 -0.43636197096E+02  0.38806352407E+02  0.21895830200E+02  0.62365680180E+02  0.00000000000E+00 0. -1.
         -4    1    5    5    0  503 -0.21028435543E+03  0.60832623983E+02  0.22641253922E+03  0.31493293921E+03  0.00000000000E+00 0.  1.
         -3    1    6    6    0  502  0.25122197222E+03  0.25131731369E+03  0.26889871216E+04  0.27123651324E+04  0.00000000000E+00 0.  1.
<mgrwt>
<rscale>  0 0.13909830E+04</rscale>
<asrwt>0</asrwt>
<pdfrwt beam="1">  1        2 0.55616041E+00 0.13909830E+04</pdfrwt>
<pdfrwt beam="2">  1       -2 0.20585284E-01 0.13909830E+04</pdfrwt>
<totfact> 0.13590087E+01</totfact>
</mgrwt>
</event>
<event>
12    1  0.1532786E-007  0.2066785E+04  0.7818608E-02  0.8576018E-01
          2   -1    0    0  501    0  0.00000000000E+00  0.00000000000E+00  0.17194877172E+04  0.17194877172E+04  0.00000000000E+00 0. -1.
         -2   -1    0    0    0  501 -0.00000000000E+00 -0.00000000000E+00 -0.62105725583E+03  0.62105725583E+03  0.00000000000E+00 0.  1.
         23    2    1    2    0    0  0.65492421698E+03 -0.46760516837E+03  0.45819089574E+03  0.93071860318E+03  0.93369683992E+02 0.  0.
        254    2    1    2    0    0 -0.65492421698E+03  0.46760516837E+03  0.64023956563E+03  0.14098263698E+04  0.96442903743E+03 0.  0.
        -24    2    4    4    0    0 -0.82377965631E+03  0.16416738436E+03  0.62984184388E+03  0.10529619706E+04  0.80400939605E+02 0.  0.
         24    2    4    4    0    0  0.16885543933E+03  0.30343778401E+03  0.10397721753E+02  0.35686439920E+03  0.81593128637E+02 0.  0.
         11    1    3    3    0    0  0.61705693886E+03 -0.44644579900E+03  0.45508605991E+03  0.88722964286E+03  0.00000000000E+00 0.  1.
        -11    1    3    3    0    0  0.37867278114E+02 -0.21159369372E+02  0.31048358309E+01  0.43488960318E+02  0.00000000000E+00 0. -1.
          4    1    6    6  502    0  0.16079798611E+03  0.26412925944E+03 -0.14633341510E+02  0.30957130473E+03  0.00000000000E+00 0. -1.
          3    1    5    5  503    0 -0.26908992403E+03  0.20750699018E+02  0.17805956917E+03  0.32333448454E+03  0.00000000000E+00 0. -1.
         -4    1    5    5    0  503 -0.55468973228E+03  0.14341668534E+03  0.45178227471E+03  0.72962748610E+03  0.00000000000E+00 0.  1.
         -3    1    6    6    0  502  0.80574532245E+01  0.39308524576E+02  0.25031063263E+02  0.47293094474E+02  0.00000000000E+00 0.  1.
<mgrwt>
<rscale>  0 0.20667853E+04</rscale>
<asrwt>0</asrwt>
<pdfrwt beam="1">  1        2 0.26453657E+00 0.20667853E+04</pdfrwt>
<pdfrwt beam="2">  1       -2 0.95547271E-01 0.20667853E+04</pdfrwt>
<totfact> 0.81276833E+00</totfact>
</mgrwt>
</event>
<event>
12    1  0.1532786E-007  0.1607666E+04  0.7818608E-02  0.8815852E-01
         -2   -1    0    0    0  501 -0.00000000000E+00  0.00000000000E+00  0.12701255387E+03  0.12701255387E+03  0.00000000000E+00 0.  1.
          2   -1    0    0  501    0  0.00000000000E+00 -0.00000000000E+00 -0.50872730741E+04  0.50872730741E+04  0.00000000000E+00 0. -1.
         23    2    1    2    0    0  0.52761637146E+03  0.13337612712E+03 -0.14322385779E+04  0.15352804479E+04  0.98033070336E+02 0.  0.
        254    2    1    2    0    0 -0.52761637146E+03 -0.13337612712E+03 -0.35280219423E+04  0.36790051801E+04  0.88992812233E+03 0.  0.
        -24    2    4    4    0    0 -0.35749542340E+02 -0.34471072759E+03 -0.24154340934E+04  0.24414529227E+04  0.79164378808E+02 0.  0.
         24    2    4    4    0    0 -0.49186682912E+03  0.21133460047E+03 -0.11125878489E+04  0.12375522574E+04  0.84193688493E+02 0.  0.
         11    1    3    3    0    0  0.31744325943E+03  0.81723196104E+02 -0.99130297347E+03  0.10440931419E+04  0.00000000000E+00 0. -1.
        -11    1    3    3    0    0  0.21017311203E+03  0.51652931015E+02 -0.44093560446E+03  0.49118730601E+03  0.00000000000E+00 0.  1.
          2    1    6    6  502    0 -0.10967884065E+02  0.86472444061E+01 -0.85221369758E+01  0.16361422167E+02  0.00000000000E+00 0. -1.
          1    1    5    5  503    0  0.23582774503E+02 -0.61210392910E+02 -0.41170949093E+03  0.41690234393E+03  0.00000000000E+00 0. -1.
         -2    1    5    5    0  503 -0.59332316843E+02 -0.28350033468E+03 -0.20037246024E+04  0.20245505788E+04  0.00000000000E+00 0.  1.
         -1    1    6    6    0  502 -0.48089894506E+03  0.20268735606E+03 -0.11040657120E+04  0.12211908352E+04  0.00000000000E+00 0.  1.
<mgrwt>
<rscale>  0 0.16076661E+04</rscale>
<asrwt>0</asrwt>
<pdfrwt beam="1">  1        2 0.78265741E+00 0.16076661E+04</pdfrwt>
<pdfrwt beam="2">  1       -2 0.19540393E-01 0.16076661E+04</pdfrwt>
<totfact> 0.59164945E-01</totfact>
</mgrwt>
</event>
<event>
12    1  0.1532786E-007  0.2065593E+04  0.7818608E-02  0.8576553E-01
         -2   -1    0    0    0  501 -0.00000000000E+00  0.00000000000E+00  0.52173367414E+03  0.52173367414E+03  0.00000000000E+00 0.  1.
          2   -1    0    0  501    0  0.00000000000E+00 -0.00000000000E+00 -0.20444694477E+04  0.20444694477E+04  0.00000000000E+00 0. -1.
         23    2    1    2    0    0  0.32678908385E+03  0.59688011344E+03 -0.12170091253E+04  0.13973133530E+04  0.91194408785E+02 0.  0.
        254    2    1    2    0    0 -0.32678908385E+03 -0.59688011344E+03 -0.30572664820E+03  0.11688897688E+04  0.89987639877E+03 0.  0.
        -24    2    4    4    0    0 -0.19712430514E+03 -0.52593947987E+03 -0.60232586157E+03  0.82721297007E+03  0.77553376281E+02 0.  0.
         24    2    4    4    0    0 -0.12966477871E+03 -0.70940633571E+02  0.29659921337E+03  0.34167679874E+03  0.83225074921E+02 0.  0.
         11    1    3    3    0    0  0.15519453811E+02  0.66878481364E+01 -0.52930309543E+02  0.55562563184E+02  0.00000000000E+00 0. -1.
        -11    1    3    3    0    0  0.31126963004E+03  0.59019226530E+03 -0.11640788158E+04  0.13417507898E+04  0.00000000000E+00 0.  1.
          2    1    6    6  502    0 -0.71346091705E+02 -0.22747134747E+02  0.22642612856E+03  0.23848792136E+03  0.00000000000E+00 0. -1.
          3    1    5    5  503    0 -0.15374103528E+03 -0.44468439057E+03 -0.46241458714E+03  0.65970278425E+03  0.00000000000E+00 0. -1.
         -4    1    5    5    0  503 -0.43383269864E+02 -0.81255089295E+02 -0.13991127443E+03  0.16751018582E+03  0.00000000000E+00 0.  1.
         -1    1    6    6    0  502 -0.58318687005E+02 -0.48193498824E+02  0.70173084815E+02  0.10318887738E+03  0.00000000000E+00 0.  1.
<mgrwt>
<rscale>  0 0.20655929E+04</rscale>
<asrwt>0</asrwt>
<pdfrwt beam="1">  1        2 0.31453377E+00 0.20655929E+04</pdfrwt>
<pdfrwt beam="2">  1       -2 0.80266718E-01 0.20655929E+04</pdfrwt>
<totfact> 0.80006201E+00</totfact>
</mgrwt>
</event>
<event>
12    1  0.1532786E-007  0.1658682E+04  0.7818608E-02  0.8785287E-01
         -2   -1    0    0    0  501 -0.00000000000E+00  0.00000000000E+00  0.69343004217E+03  0.69343004217E+03  0.00000000000E+00 0.  1.
          2   -1    0    0  501    0  0.00000000000E+00 -0.00000000000E+00 -0.99189043027E+03  0.99189043027E+03  0.00000000000E+00 0. -1.
         23    2    1    2    0    0  0.32910010032E+03  0.44961591462E+03  0.60464606892E+02  0.56784383388E+03  0.91265022193E+02 0.  0.
        254    2    1    2    0    0 -0.32910010032E+03 -0.44961591462E+03 -0.35892499499E+03  0.11174766386E+04  0.89970302823E+03 0.  0.
        -24    2    4    4    0    0  0.13199799844E+03  0.20295084947E+03 -0.88249631300E+02  0.26970876150E+03  0.79638556698E+02 0.  0.
         24    2    4    4    0    0 -0.46109809876E+03 -0.65256676409E+03 -0.27067536369E+03  0.84776787706E+03  0.83608507877E+02 0.  0.
         11    1    3    3    0    0  0.59739889168E+02  0.59291460403E+02 -0.20766673475E+02  0.86692481576E+02  0.00000000000E+00 0. -1.
        -11    1    3    3    0    0  0.26936021115E+03  0.39032445422E+03  0.81231280367E+02  0.48115135230E+03  0.00000000000E+00 0.  1.
          4    1    6    6  502    0 -0.24912813454E+03 -0.37061534014E+03 -0.10865044682E+03  0.45959272988E+03  0.00000000000E+00 0. -1.
          1    1    5    5  503    0  0.10844064179E+03  0.17602990961E+03 -0.10303326077E+03  0.23100163353E+03  0.00000000000E+00 0. -1.
         -2    1    5    5    0  503  0.23557356651E+02  0.26920939865E+02  0.14783629472E+02  0.38707127974E+02  0.00000000000E+00 0.  1.
         -3    1    6    6    0  502 -0.21196996422E+03 -0.28195142395E+03 -0.16202491687E+03  0.38817514718E+03  0.00000000000E+00 0.  1.
<mgrwt>
<rscale>  0 0.16586822E+04</rscale>
<asrwt>0</asrwt>
<pdfrwt beam="1">  1        2 0.15259853E+00 0.16586822E+04</pdfrwt>
<pdfrwt beam="2">  1       -2 0.10668155E+00 0.16586822E+04</pdfrwt>
<totfact> 0.17220976E+01</totfact>
</mgrwt>
</event>
<event>
12    1  0.1576862E-007  0.1728101E+04  0.7818608E-02  0.8745498E-01
          2   -1    0    0  501    0  0.00000000000E+00  0.00000000000E+00  0.13405617453E+04  0.13405617453E+04  0.00000000000E+00 0. -1.
         -2   -1    0    0    0  501 -0.00000000000E+00 -0.00000000000E+00 -0.55691790727E+03  0.55691790727E+03  0.00000000000E+00 0.  1.
         23    2    1    2    0    0 -0.29304707138E+03  0.54709867885E+03  0.21296553706E+03  0.66268400864E+03  0.92748179987E+02 0.  0.
        254    2    1    2    0    0  0.29304707138E+03 -0.54709867885E+03  0.57067830102E+03  0.12347956440E+04  0.90213802084E+03 0.  0.
        -24    2    4    4    0    0  0.36008576600E+03  0.10930216111E+03  0.45633529685E+02  0.38725508076E+03  0.79217152457E+02 0.  0.
         24    2    4    4    0    0 -0.67038694615E+02 -0.65640083997E+03  0.52504477133E+03  0.84754056321E+03  0.85420987433E+02 0.  0.
         13    1    3    3    0    0 -0.21501517831E+03  0.38408714088E+03  0.19378331031E+03  0.48094327113E+03  0.00000000000E+00 0.  1.
        -13    1    3    3    0    0 -0.78031893069E+02  0.16301153797E+03  0.19182226750E+02  0.18174073751E+03  0.00000000000E+00 0. -1.
          4    1    6    6  502    0  0.17478328286E+02 -0.12435817194E+03  0.81306302690E+02  0.14960334804E+03  0.00000000000E+00 0. -1.
          3    1    5    5  503    0  0.11767395973E+02  0.20733908971E+02  0.10787460954E+02  0.26167458857E+02  0.00000000000E+00 0. -1.
         -4    1    5    5    0  503  0.34831837002E+03  0.88568252142E+02  0.34846068732E+02  0.36108762190E+03  0.00000000000E+00 0.  1.
         -1    1    6    6    0  502 -0.84517022902E+02 -0.53204266802E+03  0.44373846864E+03  0.69793721516E+03  0.00000000000E+00 0.  1.
<mgrwt>
<rscale>  0 0.17281005E+04</rscale>
<asrwt>0</asrwt>
<pdfrwt beam="1">  1        2 0.20624027E+00 0.17281005E+04</pdfrwt>
<pdfrwt beam="2">  1       -2 0.85679678E-01 0.17281005E+04</pdfrwt>
<totfact> 0.17591360E+01</totfact>
</mgrwt>
</event>
<event>
12    1  0.1532786E-007  0.2365598E+04  0.7818608E-02  0.8452497E-01
          2   -1    0    0  501    0  0.00000000000E+00  0.00000000000E+00  0.18000594627E+04  0.18000594627E+04  0.00000000000E+00 0. -1.
         -2   -1    0    0    0  501 -0.00000000000E+00 -0.00000000000E+00 -0.77720390850E+03  0.77720390850E+03  0.00000000000E+00 0.  1.
         23    2    1    2    0    0  0.75712519834E+03  0.37705060870E+03  0.10324197155E+04  0.13378690115E+04  0.92721602748E+02 0.  0.
        254    2    1    2    0    0 -0.75712519834E+03 -0.37705060870E+03 -0.95641613315E+01  0.12393943596E+04  0.90587039801E+03 0.  0.
        -24    2    4    4    0    0 -0.24530133447E+03  0.16909296697E+02  0.39592686194E+03  0.47255022197E+03  0.78018992964E+02 0.  0.
         24    2    4    4    0    0 -0.51182386386E+03 -0.39395990540E+03 -0.40549102327E+03  0.76684413765E+03  0.80367199842E+02 0.  0.
         13    1    3    3    0    0  0.63898664099E+03  0.33997245818E+03  0.92031281490E+03  0.11708376817E+04  0.00000000000E+00 0. -1.
        -13    1    3    3    0    0  0.11813855734E+03  0.37078150521E+02  0.11210690060E+03  0.16703132981E+03  0.00000000000E+00 0.  1.
          2    1    6    6  502    0 -0.18045945067E+03 -0.18427158075E+03 -0.14226171768E+03  0.29455054766E+03  0.00000000000E+00 0. -1.
          3    1    5    5  503    0 -0.15485383785E+03  0.10764009662E+02  0.17601115506E+03  0.23468170297E+03  0.00000000000E+00 0. -1.
         -4    1    5    5    0  503 -0.90447496621E+02  0.61452870348E+01  0.21991570688E+03  0.23786851900E+03  0.00000000000E+00 0.  1.
         -1    1    6    6    0  502 -0.33136441319E+03 -0.20968832465E+03 -0.26322930559E+03  0.47229358999E+03  0.00000000000E+00 0.  1.
<mgrwt>
<rscale>  0 0.23655978E+04</rscale>
<asrwt>0</asrwt>
<pdfrwt beam="1">  1        2 0.27693222E+00 0.23655978E+04</pdfrwt>
<pdfrwt beam="2">  1       -2 0.11956983E+00 0.23655978E+04</pdfrwt>
<totfact> 0.41688985E+00</totfact>
</mgrwt>
</event>
<event>
12    1  0.1532786E-007  0.1767409E+04  0.7818608E-02  0.8723826E-01
         -1   -1    0    0    0  501 -0.00000000000E+00  0.00000000000E+00  0.10578795669E+04  0.10578795669E+04  0.00000000000E+00 0.  1.
          1   -1    0    0  501    0  0.00000000000E+00 -0.00000000000E+00 -0.73820648207E+03  0.73820648207E+03  0.00000000000E+00 0. -1.
         23    2    1    2    0    0 -0.19889929666E+03  0.48372374295E+03 -0.26227904958E+03  0.59264261491E+03  0.94262290705E+02 0.  0.
        254    2    1    2    0    0  0.19889929666E+03 -0.48372374295E+03  0.58195213439E+03  0.12034434340E+04  0.91436219439E+03 0.  0.
        -24    2    4    4    0    0  0.36134232728E+03 -0.68216133492E+03  0.36248541064E+03  0.85650484563E+03  0.79325363678E+02 0.  0.
         24    2    4    4    0    0 -0.16244303062E+03  0.19843759197E+03  0.21946672375E+03  0.34693858842E+03  0.80221725218E+02 0.  0.
         11    1    3    3    0    0 -0.85549860604E+02  0.14963853904E+03 -0.12989582896E+03  0.21583187299E+03  0.00000000000E+00 0. -1.
        -11    1    3    3    0    0 -0.11334943605E+03  0.33408520391E+03 -0.13238322062E+03  0.37681074192E+03  0.00000000000E+00 0.  1.
          4    1    6    6  502    0 -0.14656398770E+03  0.15583927552E+03  0.14088878421E+03  0.25615724038E+03  0.00000000000E+00 0. -1.
          3    1    5    5  503    0  0.14116864245E+03 -0.22927948145E+03  0.16377584425E+03  0.31515106438E+03  0.00000000000E+00 0. -1.
         -4    1    5    5    0  503  0.22017368483E+03 -0.45288185347E+03  0.19870956639E+03  0.54135378125E+03  0.00000000000E+00 0.  1.
         -3    1    6    6    0  502 -0.15879042922E+02  0.42598316441E+02  0.78577939543E+02  0.90781348032E+02  0.00000000000E+00 0.  1.
<mgrwt>
<rscale>  0 0.17674089E+04</rscale>
<asrwt>0</asrwt>
<pdfrwt beam="1">  1        1 0.11357023E+00 0.17674089E+04</pdfrwt>
<pdfrwt beam="2">  1       -1 0.16275070E+00 0.17674089E+04</pdfrwt>
<totfact> 0.66179926E+00</totfact>
</mgrwt>
</event>
<event>
12    1  0.1532786E-007  0.1493522E+04  0.7818608E-02  0.8888772E-01
         -2   -1    0    0    0  501 -0.00000000000E+00  0.00000000000E+00  0.85439180210E+03  0.85439180210E+03  0.00000000000E+00 0.  1.
          2   -1    0    0  501    0  0.00000000000E+00 -0.00000000000E+00 -0.65268881344E+03  0.65268881344E+03  0.00000000000E+00 0. -1.
         23    2    1    2    0    0 -0.30731372931E+02 -0.46467458763E+03  0.98777415970E+02  0.48502090923E+03  0.92851574086E+02 0.  0.
        254    2    1    2    0    0  0.30731372931E+02  0.46467458763E+03  0.10292557269E+03  0.10220597063E+04  0.90396099477E+03 0.  0.
        -24    2    4    4    0    0 -0.35574184008E+03  0.44262219736E+03 -0.92859508364E+02  0.58101263601E+03  0.80536504303E+02 0.  0.
         24    2    4    4    0    0  0.38647321301E+03  0.22052390269E+02  0.19578508105E+03  0.44104707030E+03  0.79642124331E+02 0.  0.
         13    1    3    3    0    0  0.25610525869E+02 -0.29067002596E+03  0.66859522927E+02  0.29935791093E+03  0.00000000000E+00 0. -1.
        -13    1    3    3    0    0 -0.56341898800E+02 -0.17400456167E+03  0.31917893043E+02  0.18566299830E+03  0.00000000000E+00 0.  1.
          4    1    6    6  502    0  0.15922272929E+03 -0.30108851162E+02  0.79161344573E+02  0.18034671862E+03  0.00000000000E+00 0. -1.
          1    1    5    5  503    0 -0.54791095245E+01 -0.15758374820E+01  0.41780594051E+01  0.70682448559E+01  0.00000000000E+00 0. -1.
         -2    1    5    5    0  503 -0.35026273055E+03  0.44419803484E+03 -0.97037567769E+02  0.57394439115E+03  0.00000000000E+00 0.  1.
         -3    1    6    6    0  502  0.22725048371E+03  0.52161241431E+02  0.11662373648E+03  0.26070035168E+03  0.00000000000E+00 0.  1.
<mgrwt>
<rscale>  0 0.14935220E+04</rscale>
<asrwt>0</asrwt>
<pdfrwt beam="1">  1        2 0.10041366E+00 0.14935220E+04</pdfrwt>
<pdfrwt beam="2">  1       -2 0.13144489E+00 0.14935220E+04</pdfrwt>
<totfact> 0.18253574E+01</totfact>
</mgrwt>
</event>
<event>
12    1  0.1532786E-007  0.1340140E+04  0.7818608E-02  0.8998325E-01
         -1   -1    0    0    0  501 -0.00000000000E+00  0.00000000000E+00  0.22470871408E+03  0.22470871408E+03  0.00000000000E+00 0.  1.
          1   -1    0    0  501    0  0.00000000000E+00 -0.00000000000E+00 -0.19981161985E+04  0.19981161985E+04  0.00000000000E+00 0. -1.
         23    2    1    2    0    0 -0.16077494511E+03 -0.28700373483E+03 -0.48354235387E+03  0.59213244938E+03  0.92670938512E+02 0.  0.
        254    2    1    2    0    0  0.16077494511E+03  0.28700373483E+03 -0.12898651306E+04  0.16306924632E+04  0.94190558327E+03 0.  0.
        -24    2    4    4    0    0 -0.11845603595E+03  0.24886782523E+03  0.19841386819E+02  0.28850788076E+03  0.82922190901E+02 0.  0.
         24    2    4    4    0    0  0.27923098105E+03  0.38135909595E+02 -0.13097065174E+04  0.13421845825E+04  0.81877978374E+02 0.  0.
         11    1    3    3    0    0 -0.10550832266E+03 -0.18251639332E+03 -0.38195886220E+03  0.43627607360E+03  0.00000000000E+00 0. -1.
        -11    1    3    3    0    0 -0.55266622442E+02 -0.10448734151E+03 -0.10158349167E+03  0.15585637578E+03  0.00000000000E+00 0.  1.
          2    1    6    6  502    0  0.27948754498E+03  0.47948389220E+02 -0.12595350068E+04  0.12910618766E+04  0.00000000000E+00 0. -1.
          1    1    5    5  503    0 -0.50049642158E+02  0.38411974727E+02 -0.14042529543E+02  0.64634658803E+02  0.00000000000E+00 0. -1.
         -2    1    5    5    0  503 -0.68406393787E+02  0.21045585050E+03  0.33883916362E+02  0.22387322196E+03  0.00000000000E+00 0.  1.
         -1    1    6    6    0  502 -0.25656393185E+00 -0.98124796250E+01 -0.50171510601E+02  0.51122705889E+02  0.00000000000E+00 0.  1.
<mgrwt>
<rscale>  0 0.13401405E+04</rscale>
<asrwt>0</asrwt>
<pdfrwt beam="1">  1        1 0.30740249E+00 0.13401405E+04</pdfrwt>
<pdfrwt beam="2">  1       -1 0.34570572E-01 0.13401405E+04</pdfrwt>
<totfact> 0.23253119E+01</totfact>
</mgrwt>
</event>
<event>
12    1  0.1532786E-007  0.1164631E+04  0.7818608E-02  0.9144391E-01
          1   -1    0    0  501    0  0.00000000000E+00  0.00000000000E+00  0.19250080577E+04  0.19250080577E+04  0.00000000000E+00 0. -1.
         -1   -1    0    0    0  501 -0.00000000000E+00 -0.00000000000E+00 -0.17615047183E+03  0.17615047183E+03  0.00000000000E+00 0.  1.
         23    2    1    2    0    0  0.12417377214E+03  0.24625278699E+02  0.70376404601E+03  0.72040233018E+03  0.87579420198E+02 0.  0.
        254    2    1    2    0    0 -0.12417377214E+03 -0.24625278699E+02  0.10450935399E+04  0.13807561994E+04  0.89344369994E+03 0.  0.
        -24    2    4    4    0    0  0.31440596046E+03 -0.70560349669E+02  0.12225671284E+03  0.35476691550E+03  0.84160498911E+02 0.  0.
         24    2    4    4    0    0 -0.43857973260E+03  0.45935070970E+02  0.92283682707E+03  0.10259892839E+04  0.81018446559E+02 0.  0.
         11    1    3    3    0    0  0.91167141373E+01  0.27395266401E+02  0.61909859129E+02  0.68311388181E+02  0.00000000000E+00 0.  1.
        -11    1    3    3    0    0  0.11505705800E+03 -0.27699877019E+01  0.64185418688E+03  0.65209094200E+03  0.00000000000E+00 0. -1.
          2    1    6    6  502    0 -0.15580880635E+03 -0.20712988974E+02  0.35097862111E+03  0.38456651509E+03  0.00000000000E+00 0. -1.
          1    1    5    5  503    0  0.10039247542E+03  0.14269979095E+02  0.52682987635E+02  0.11427063757E+03  0.00000000000E+00 0. -1.
         -2    1    5    5    0  503  0.21401348504E+03 -0.84830328764E+02  0.69573725208E+02  0.24049627793E+03  0.00000000000E+00 0.  1.
         -1    1    6    6    0  502 -0.28277092625E+03  0.66648059944E+02  0.57185820596E+03  0.64142276881E+03  0.00000000000E+00 0.  1.
<mgrwt>
<rscale>  0 0.11646305E+04</rscale>
<asrwt>0</asrwt>
<pdfrwt beam="1">  1        1 0.29615507E+00 0.11646305E+04</pdfrwt>
<pdfrwt beam="2">  1       -1 0.27100074E-01 0.11646305E+04</pdfrwt>
<totfact> 0.40579839E+01</totfact>
</mgrwt>
</event>
<event>
12    1  0.1532786E-007  0.1602412E+04  0.7818608E-02  0.8819068E-01
          1   -1    0    0  501    0  0.00000000000E+00  0.00000000000E+00  0.40291435159E+03  0.40291435159E+03  0.00000000000E+00 0. -1.
         -1   -1    0    0    0  501 -0.00000000000E+00 -0.00000000000E+00 -0.15932191766E+04  0.15932191766E+04  0.00000000000E+00 0.  1.
         23    2    1    2    0    0 -0.12908257679E+03 -0.52770969278E+03 -0.72689092271E+03  0.91233285822E+03  0.94026587584E+02 0.  0.
        254    2    1    2    0    0  0.12908257679E+03  0.52770969278E+03 -0.46341390226E+03  0.10838006699E+04  0.81531074802E+03 0.  0.
        -24    2    4    4    0    0  0.15682160187E+03 -0.17549028559E+03 -0.22788568898E+03  0.33745181711E+03  0.80944341836E+02 0.  0.
         24    2    4    4    0    0 -0.27739025088E+02  0.70319997837E+03 -0.23552821328E+03  0.74634885282E+03  0.79394003314E+02 0.  0.
         13    1    3    3    0    0 -0.14111956172E+03 -0.49098090330E+03 -0.65449498207E+03  0.83026541519E+03  0.00000000000E+00 0.  1.
        -13    1    3    3    0    0  0.12036984938E+02 -0.36728789481E+02 -0.72395940643E+02  0.82067443025E+02  0.00000000000E+00 0. -1.
          2    1    6    6  502    0  0.17990854754E+02  0.14843209082E+03 -0.27081897247E+02  0.15195126060E+03  0.00000000000E+00 0. -1.
          1    1    5    5  503    0  0.40654056145E+02 -0.62321882970E+02 -0.26737957670E+02  0.79067615105E+02  0.00000000000E+00 0. -1.
         -2    1    5    5    0  503  0.11616754573E+03 -0.11316840262E+03 -0.20114773131E+03  0.25838420200E+03  0.00000000000E+00 0.  1.
         -1    1    6    6    0  502 -0.45729879842E+02  0.55476788755E+03 -0.20844631603E+03  0.59439759222E+03  0.00000000000E+00 0.  1.
<mgrwt>
<rscale>  0 0.16024118E+04</rscale>
<asrwt>0</asrwt>
<pdfrwt beam="1">  1        1 0.61986824E-01 0.16024118E+04</pdfrwt>
<pdfrwt beam="2">  1       -1 0.24511064E+00 0.16024118E+04</pdfrwt>
<totfact> 0.42791843E+00</totfact>
</mgrwt>
</event>
<event>
12    1  0.1532786E-007  0.2759534E+04  0.7818608E-02  0.8315943E-01
          2   -1    0    0  501    0  0.00000000000E+00  0.00000000000E+00  0.44577275002E+03  0.44577275002E+03  0.00000000000E+00 0. -1.
         -2   -1    0    0    0  501 -0.00000000000E+00 -0.00000000000E+00 -0.42706885735E+04  0.42706885735E+04  0.00000000000E+00 0.  1.
         23    2    1    2    0    0  0.42298928292E+03  0.10915541806E+04 -0.23653866179E+04  0.26406985238E+04  0.88455521372E+02 0.  0.
        254    2    1    2    0    0 -0.42298928292E+03 -0.10915541806E+04 -0.14595292056E+04  0.20757627996E+04  0.89897454683E+03 0.  0.
        -24    2    4    4    0    0 -0.23300422873E+03 -0.12116793910E+04 -0.12505550347E+04  0.17586802090E+04  0.81303540280E+02 0.  0.
         24    2    4    4    0    0 -0.18998505419E+03  0.12012521040E+03 -0.20897417090E+03  0.31708259064E+03  0.79666669287E+02 0.  0.
         13    1    3    3    0    0  0.37683788008E+03  0.10242923002E+04 -0.22269086322E+04  0.24799805564E+04  0.00000000000E+00 0.  1.
        -13    1    3    3    0    0  0.46151402837E+02  0.67261880382E+02 -0.13847798569E+03  0.16071796743E+03  0.00000000000E+00 0. -1.
          2    1    6    6  502    0 -0.11594359351E+03  0.30436977151E+02 -0.84059567395E+02  0.14640811906E+03  0.00000000000E+00 0. -1.
          3    1    5    5  503    0 -0.79070053959E+02 -0.29175320940E+03 -0.26889920221E+03  0.40457235394E+03  0.00000000000E+00 0. -1.
         -4    1    5    5    0  503 -0.15393417477E+03 -0.91992618157E+03 -0.98165583246E+03  0.13541078551E+04  0.00000000000E+00 0.  1.
         -3    1    6    6    0  502 -0.74041460678E+02  0.89688233247E+02 -0.12491460350E+03  0.17067447158E+03  0.00000000000E+00 0.  1.
<mgrwt>
<rscale>  0 0.27595337E+04</rscale>
<asrwt>0</asrwt>
<pdfrwt beam="1">  1        2 0.68580424E-01 0.27595337E+04</pdfrwt>
<pdfrwt beam="2">  1       -2 0.65702900E+00 0.27595337E+04</pdfrwt>
<totfact> 0.19273048E-02</totfact>
</mgrwt>
</event>
<event>
12    1  0.1532786E-007  0.1467927E+04  0.7818608E-02  0.8906066E-01
         -1   -1    0    0    0  501 -0.00000000000E+00  0.00000000000E+00  0.10675805703E+04  0.10675805703E+04  0.00000000000E+00 0. -1.
          1   -1    0    0  501    0  0.00000000000E+00 -0.00000000000E+00 -0.50460088340E+03  0.50460088340E+03  0.00000000000E+00 0.  1.
         23    2    1    2    0    0  0.16773147455E+03 -0.30764101058E+01 -0.27059227520E+03  0.33099710317E+03  0.90529503779E+02 0.  0.
        254    2    1    2    0    0 -0.16773147455E+03  0.30764101058E+01  0.83357196211E+03  0.12411843505E+04  0.90418641008E+03 0.  0.
        -24    2    4    4    0    0  0.11616688630E+03  0.28952427705E+03  0.75683623848E+03  0.82311101748E+03  0.85974430777E+02 0.  0.
         24    2    4    4    0    0 -0.28389836085E+03 -0.28644786694E+03  0.76735723629E+02  0.41807333307E+03  0.79033415511E+02 0.  0.
         13    1    3    3    0    0  0.12967746736E+02 -0.27470039129E+02 -0.23440332220E+02  0.38369449823E+02  0.00000000000E+00 0. -1.
        -13    1    3    3    0    0  0.15476372782E+03  0.24393629023E+02 -0.24715194298E+03  0.29262765334E+03  0.00000000000E+00 0.  1.
          2    1    6    6  502    0 -0.27465771802E+03 -0.26003203829E+03  0.54088311051E+02  0.38207207226E+03  0.00000000000E+00 0. -1.
          3    1    5    5  503    0  0.11530413578E+03  0.26050035862E+03  0.72982237673E+03  0.78345145487E+03  0.00000000000E+00 0. -1.
         -4    1    5    5    0  503  0.86275051943E+00  0.29023918431E+02  0.27013861753E+02  0.39659562609E+02  0.00000000000E+00 0.  1.
         -1    1    6    6    0  502 -0.92406428347E+01 -0.26415828653E+02  0.22647412578E+02  0.36001260810E+02  0.00000000000E+00 0.  1.
<mgrwt>
<rscale>  0 0.14679266E+04</rscale>
<asrwt>0</asrwt>
<pdfrwt beam="1">  1        1 0.77630905E-01 0.14679266E+04</pdfrwt>
<pdfrwt beam="2">  1       -1 0.16424316E+00 0.14679266E+04</pdfrwt>
<totfact> 0.11522994E+01</totfact>
</mgrwt>
</event>
<event>
12    1  0.1532786E-007  0.2213823E+04  0.7818608E-02  0.8512697E-01
          2   -1    0    0  501    0  0.00000000000E+00  0.00000000000E+00  0.17325817817E+04  0.17325817817E+04  0.00000000000E+00 0. -1.
         -2   -1    0    0    0  501 -0.00000000000E+00 -0.00000000000E+00 -0.70718308815E+03  0.70718308815E+03  0.00000000000E+00 0.  1.
         23    2    1    2    0    0 -0.55771917116E+02 -0.15658918415E+03  0.14413044343E+04  0.14539402545E+04  0.94620886355E+02 0.  0.
        254    2    1    2    0    0  0.55771917116E+02  0.15658918415E+03 -0.41590574070E+03  0.98582461536E+03  0.87820379627E+03 0.  0.
        -24    2    4    4    0    0 -0.20855171686E+03  0.12833059033E+03  0.19013709674E+03  0.32039054842E+03  0.80841999864E+02 0.  0.
         24    2    4    4    0    0  0.26432363398E+03  0.28258593820E+02 -0.60604283744E+03  0.66543406694E+03  0.69635084749E+02 0.  0.
         13    1    3    3    0    0  0.16226714773E+01  0.11839547751E+02  0.14306042021E+03  0.14355867018E+03  0.00000000000E+00 0.  1.
        -13    1    3    3    0    0 -0.57394588593E+02 -0.16842873190E+03  0.12982440141E+04  0.13103815843E+04  0.00000000000E+00 0. -1.
          2    1    6    6  502    0  0.68411570052E+02 -0.15544217590E+02 -0.21016849754E+03  0.22156841602E+03  0.00000000000E+00 0. -1.
          1    1    5    5  503    0 -0.88159819273E+02  0.10163122939E+03  0.10092795866E+03  0.16818892164E+03  0.00000000000E+00 0. -1.
         -4    1    5    5    0  503 -0.12039189759E+03  0.26699360934E+02  0.89209138085E+02  0.15220162679E+03  0.00000000000E+00 0.  1.
         -1    1    6    6    0  502  0.19591206392E+03  0.43802811410E+02 -0.39587433990E+03  0.44386565092E+03  0.00000000000E+00 0.  1.
<mgrwt>
<rscale>  0 0.22138225E+04</rscale>
<asrwt>0</asrwt>
<pdfrwt beam="1">  1        2 0.26655104E+00 0.22138225E+04</pdfrwt>
<pdfrwt beam="2">  1       -2 0.10879740E+00 0.22138225E+04</pdfrwt>
<totfact> 0.57948551E+00</totfact>
</mgrwt>
</event>
<event>
12    1  0.1532786E-007  0.3269017E+04  0.7818608E-02  0.8170824E-01
          2   -1    0    0  501    0  0.00000000000E+00  0.00000000000E+00  0.28718386132E+04  0.28718386132E+04  0.00000000000E+00 0. -1.
         -2   -1    0    0    0  501 -0.00000000000E+00 -0.00000000000E+00 -0.93028160316E+03  0.93028160316E+03  0.00000000000E+00 0.  1.
         23    2    1    2    0    0 -0.12360509103E+04  0.84964879109E+03  0.10746488277E+04  0.18474843264E+04  0.92754043090E+02 0.  0.
        254    2    1    2    0    0  0.12360509103E+04 -0.84964879109E+03  0.86690818232E+03  0.19546358899E+04  0.90517774203E+03 0.  0.
        -24    2    4    4    0    0  0.10556033101E+04 -0.81513022285E+03  0.10373770247E+04  0.16918810785E+04  0.87033693652E+02 0.  0.
         24    2    4    4    0    0  0.18044760013E+03 -0.34518568240E+02 -0.17046884236E+03  0.26275481145E+03  0.78915123891E+02 0.  0.
         13    1    3    3    0    0 -0.77638228601E+02  0.28265652482E+02  0.54712705017E+02  0.99096527390E+02  0.00000000000E+00 0. -1.
        -13    1    3    3    0    0 -0.11584126817E+04  0.82138313861E+03  0.10199361227E+04  0.17483877990E+04  0.00000000000E+00 0.  1.
          2    1    6    6  502    0  0.11604299558E+03  0.10826757738E+02 -0.12859068122E+03  0.17354756928E+03  0.00000000000E+00 0. -1.
          1    1    5    5  503    0  0.99215028704E+03 -0.78871831314E+03  0.99227815148E+03  0.16096753398E+04  0.00000000000E+00 0. -1.
         -2    1    5    5    0  503  0.63453023080E+02 -0.26411909716E+02  0.45098873195E+02  0.82205738707E+02  0.00000000000E+00 0.  1.
         -1    1    6    6    0  502  0.64404604547E+02 -0.45345325978E+02 -0.41878161140E+02  0.89207242169E+02  0.00000000000E+00 0.  1.
<mgrwt>
<rscale>  0 0.32690174E+04</rscale>
<asrwt>0</asrwt>
<pdfrwt beam="1">  1        2 0.44182132E+00 0.32690174E+04</pdfrwt>
<pdfrwt beam="2">  1       -2 0.14312025E+00 0.32690174E+04</pdfrwt>
<totfact> 0.59326596E-01</totfact>
</mgrwt>
</event>
<event>
12    1  0.1532786E-007  0.1290707E+04  0.7818608E-02  0.9036967E-01
          1   -1    0    0  501    0  0.00000000000E+00  0.00000000000E+00  0.63874185694E+03  0.63874185694E+03  0.00000000000E+00 0. -1.
         -1   -1    0    0    0  501 -0.00000000000E+00 -0.00000000000E+00 -0.65203380430E+03  0.65203380430E+03  0.00000000000E+00 0.  1.
         23    2    1    2    0    0 -0.11395692483E+03 -0.22536433901E+03  0.23310647013E+03  0.35543302977E+03  0.90657300995E+02 0.  0.
        254    2    1    2    0    0  0.11395692483E+03  0.22536433901E+03 -0.24639841749E+03  0.93534263146E+03  0.86624384100E+03 0.  0.
        -24    2    4    4    0    0 -0.25294128770E+03 -0.10034989972E+03  0.12961439548E+03  0.31203209999E+03  0.80713954850E+02 0.  0.
         24    2    4    4    0    0  0.36689821253E+03  0.32571423874E+03 -0.37601281297E+03  0.62331053147E+03  0.80164327810E+02 0.  0.
         11    1    3    3    0    0 -0.31555349184E+02 -0.15343337712E+03  0.11409254463E+03  0.19379022168E+03  0.00000000000E+00 0. -1.
        -11    1    3    3    0    0 -0.82401575643E+02 -0.71930961890E+02  0.11901392550E+03  0.16164280810E+03  0.00000000000E+00 0.  1.
          2    1    6    6  502    0  0.27426106954E+02  0.12108390935E+02 -0.47954280167E+02  0.56554552956E+02  0.00000000000E+00 0. -1.
          3    1    5    5  503    0 -0.62161077498E+02 -0.21581871649E+01  0.60087973946E+02  0.86482494995E+02  0.00000000000E+00 0. -1.
         -4    1    5    5    0  503 -0.19078021021E+03 -0.98191712559E+02  0.69526421534E+02  0.22554960499E+03  0.00000000000E+00 0.  1.
         -1    1    6    6    0  502  0.33947210558E+03  0.31360584780E+03 -0.32805853280E+03  0.56675597852E+03  0.00000000000E+00 0.  1.
<mgrwt>
<rscale>  0 0.12907072E+04</rscale>
<asrwt>0</asrwt>
<pdfrwt beam="1">  1        1 0.98267979E-01 0.12907072E+04</pdfrwt>
<pdfrwt beam="2">  1       -1 0.10031289E+00 0.12907072E+04</pdfrwt>
<totfact> 0.29094882E+01</totfact>
</mgrwt>
</event>
<event>
12    1  0.1532786E-007  0.1154153E+04  0.7818608E-02  0.9153961E-01
         -2   -1    0    0    0  501 -0.00000000000E+00  0.00000000000E+00  0.21395565101E+03  0.21395565101E+03  0.00000000000E+00 0.  1.
          2   -1    0    0  501    0  0.00000000000E+00 -0.00000000000E+00 -0.15564780416E+04  0.15564780416E+04  0.00000000000E+00 0. -1.
         23    2    1    2    0    0 -0.12636669051E+03  0.66311853207E+02 -0.71288575205E+03  0.73241378757E+03  0.88645690334E+02 0.  0.
        254    2    1    2    0    0  0.12636669051E+03 -0.66311853207E+02 -0.62963663855E+03  0.10380199050E+04  0.81282053636E+03 0.  0.
        -24    2    4    4    0    0  0.33566126946E+03  0.11778704995E+03 -0.65185420114E+03  0.74682445669E+03  0.79313256208E+02 0.  0.
         24    2    4    4    0    0 -0.20929457896E+03 -0.18409890316E+03  0.22217562586E+02  0.29119544836E+03  0.81268334135E+02 0.  0.
         11    1    3    3    0    0 -0.10783856826E+03  0.85793297893E+02 -0.53279699539E+03  0.55032925151E+03  0.00000000000E+00 0. -1.
        -11    1    3    3    0    0 -0.18528122242E+02 -0.19481444687E+02 -0.18008875666E+03  0.18208453607E+03  0.00000000000E+00 0.  1.
          2    1    6    6  502    0 -0.12882071952E+03 -0.98564043003E+02  0.51458628971E+02  0.17016944158E+03  0.00000000000E+00 0. -1.
          3    1    5    5  503    0  0.32389042306E+03  0.95647611213E+02 -0.58588046015E+03  0.67624654178E+03  0.00000000000E+00 0. -1.
         -4    1    5    5    0  503  0.11770846399E+02  0.22139438741E+02 -0.65973740988E+02  0.70577914907E+02  0.00000000000E+00 0.  1.
         -1    1    6    6    0  502 -0.80473859435E+02 -0.85534860157E+02 -0.29241066385E+02  0.12102600678E+03  0.00000000000E+00 0.  1.
<mgrwt>
<rscale>  0 0.11541530E+04</rscale>
<asrwt>0</asrwt>
<pdfrwt beam="1">  1        2 0.23945815E+00 0.11541530E+04</pdfrwt>
<pdfrwt beam="2">  1       -2 0.32916255E-01 0.11541530E+04</pdfrwt>
<totfact> 0.10047781E+02</totfact>
</mgrwt>
</event>
<event>
12    1  0.1532786E-007  0.1394498E+04  0.7818608E-02  0.8957811E-01
         -1   -1    0    0    0  501 -0.00000000000E+00  0.00000000000E+00  0.24233140961E+03  0.24233140961E+03  0.00000000000E+00 0.  1.
          1   -1    0    0  501    0  0.00000000000E+00 -0.00000000000E+00 -0.20061628179E+04  0.20061628179E+04  0.00000000000E+00 0. -1.
         23    2    1    2    0    0 -0.30664668922E+03 -0.13668312672E+03 -0.86711907758E+03  0.93422887469E+03  0.90408110615E+02 0.  0.
        254    2    1    2    0    0  0.30664668922E+03  0.13668312672E+03 -0.89671233070E+03  0.13142653528E+04  0.90026992866E+03 0.  0.
        -24    2    4    4    0    0  0.56320688518E+03  0.27682644864E+03 -0.73821585450E+03  0.97190064952E+03  0.76114036215E+02 0.  0.
         24    2    4    4    0    0 -0.25656019596E+03 -0.14014332192E+03 -0.15849647620E+03  0.34236470330E+03  0.81419729004E+02 0.  0.
         13    1    3    3    0    0  0.14644922115E+01 -0.12135275782E+02 -0.62416980167E+02  0.63602586967E+02  0.00000000000E+00 0.  1.
        -13    1    3    3    0    0 -0.30811118143E+03 -0.12454785094E+03 -0.80470209741E+03  0.87062628772E+03  0.00000000000E+00 0. -1.
          4    1    6    6  502    0 -0.39519810705E+02 -0.27129899482E+02 -0.64204336414E+02  0.80125175185E+02  0.00000000000E+00 0. -1.
          3    1    5    5  503    0  0.10433697329E+03  0.56283003140E+02 -0.97201139743E+02  0.15330375731E+03  0.00000000000E+00 0. -1.
         -4    1    5    5    0  503  0.45886991188E+03  0.22054344550E+03 -0.64101471476E+03  0.81859689220E+03  0.00000000000E+00 0.  1.
         -3    1    6    6    0  502 -0.21704038526E+03 -0.11301342244E+03 -0.94292139785E+02  0.26223952812E+03  0.00000000000E+00 0.  1.
<mgrwt>
<rscale>  0 0.13944981E+04</rscale>
<asrwt>0</asrwt>
<pdfrwt beam="1">  1        1 0.30864043E+00 0.13944981E+04</pdfrwt>
<pdfrwt beam="2">  1       -1 0.37281756E-01 0.13944981E+04</pdfrwt>
<totfact> 0.19954752E+01</totfact>
</mgrwt>
</event>
<event>
12    1  0.1532786E-007  0.1655987E+04  0.7818608E-02  0.8786873E-01
          1   -1    0    0  501    0  0.00000000000E+00  0.00000000000E+00  0.10522392707E+04  0.10522392707E+04  0.00000000000E+00 0. -1.
         -1   -1    0    0    0  501 -0.00000000000E+00 -0.00000000000E+00 -0.65153727107E+03  0.65153727107E+03  0.00000000000E+00 0.  1.
         23    2    1    2    0    0  0.19213147757E+03  0.58919823370E+02 -0.41589842635E+03  0.47101836329E+03  0.92199497045E+02 0.  0.
        254    2    1    2    0    0 -0.19213147757E+03 -0.58919823370E+02  0.81660042596E+03  0.12327581784E+04  0.90137141101E+03 0.  0.
        -24    2    4    4    0    0 -0.28879589916E+03 -0.26215327834E+03  0.89564007751E+03  0.98011478657E+03  0.79538881605E+02 0.  0.
         24    2    4    4    0    0  0.96664421594E+02  0.20323345497E+03 -0.79039651556E+02  0.25264339188E+03  0.83268057024E+02 0.  0.
         11    1    3    3    0    0  0.13250121552E+03  0.83206085633E+02 -0.28412339352E+03  0.32435463238E+03  0.00000000000E+00 0.  1.
        -11    1    3    3    0    0  0.59630262048E+02 -0.24286262262E+02 -0.13177503283E+03  0.14666373091E+03  0.00000000000E+00 0. -1.
          4    1    6    6  502    0 -0.56080833289E+01  0.12427515071E+02  0.11644802329E+02  0.17930285852E+02  0.00000000000E+00 0. -1.
          1    1    5    5  503    0 -0.36597720727E+01 -0.30402860486E+02  0.69737365826E+02  0.76164480237E+02  0.00000000000E+00 0. -1.
         -2    1    5    5    0  503 -0.28513612709E+03 -0.23175041785E+03  0.82590271169E+03  0.90395030633E+03  0.00000000000E+00 0.  1.
         -3    1    6    6    0  502  0.10227250492E+03  0.19080593990E+03 -0.90684453885E+02  0.23471310602E+03  0.00000000000E+00 0.  1.
<mgrwt>
<rscale>  0 0.16559868E+04</rscale>
<asrwt>0</asrwt>
<pdfrwt beam="1">  1        1 0.16188296E+00 0.16559868E+04</pdfrwt>
<pdfrwt beam="2">  1       -1 0.10023650E+00 0.16559868E+04</pdfrwt>
<totfact> 0.12483280E+01</totfact>
</mgrwt>
</event>
<event>
12    1  0.1532786E-007  0.1920006E+04  0.7818608E-02  0.8644962E-01
          2   -1    0    0  501    0  0.00000000000E+00  0.00000000000E+00  0.86254875269E+03  0.86254875269E+03  0.00000000000E+00 0. -1.
         -2   -1    0    0    0  501 -0.00000000000E+00 -0.00000000000E+00 -0.10684677487E+04  0.10684677487E+04  0.00000000000E+00 0.  1.
         23    2    1    2    0    0  0.42701971228E+03 -0.53195407120E+03  0.22238123183E+03  0.72323928159E+03  0.91108054619E+02 0.  0.
        254    2    1    2    0    0 -0.42701971228E+03  0.53195407120E+03 -0.42830022789E+03  0.12077772198E+04  0.89997986590E+03 0.  0.
        -24    2    4    4    0    0 -0.57345335393E+03  0.15630121095E+03 -0.51214746230E+03  0.78858918733E+03  0.79366652647E+02 0.  0.
         24    2    4    4    0    0  0.14643364165E+03  0.37565286025E+03  0.83847234410E+02  0.41918803252E+03  0.78296647893E+02 0.  0.
         13    1    3    3    0    0  0.29135026642E+02 -0.10934442103E+02  0.45378704818E+00  0.31122623993E+02  0.00000000000E+00 0. -1.
        -13    1    3    3    0    0  0.39788468564E+03 -0.52101962910E+03  0.22192744479E+03  0.69211665759E+03  0.00000000000E+00 0.  1.
          4    1    6    6  502    0 -0.48600367841E+01  0.60885644107E+02  0.19111842562E+02  0.63999563608E+02  0.00000000000E+00 0. -1.
          1    1    5    5  503    0 -0.26322490548E+03  0.45394781294E+02 -0.26928559154E+03  0.37929245556E+03  0.00000000000E+00 0. -1.
         -4    1    5    5    0  503 -0.31022844845E+03  0.11090642966E+03 -0.24286187076E+03  0.40929673177E+03  0.00000000000E+00 0.  1.
         -3    1    6    6    0  502  0.15129367843E+03  0.31476721614E+03  0.64735391848E+02  0.35518846891E+03  0.00000000000E+00 0.  1.
<mgrwt>
<rscale>  0 0.19200058E+04</rscale>
<asrwt>0</asrwt>
<pdfrwt beam="1">  1        2 0.13269981E+00 0.19200058E+04</pdfrwt>
<pdfrwt beam="2">  1       -2 0.16437965E+00 0.19200058E+04</pdfrwt>
<totfact> 0.68018421E+00</totfact>
</mgrwt>
</event>
<event>
12    1  0.1532786E-007  0.2199096E+04  0.7818608E-02  0.8518804E-01
          1   -1    0    0  501    0  0.00000000000E+00  0.00000000000E+00  0.17772813695E+04  0.17772813695E+04  0.00000000000E+00 0. -1.
         -1   -1    0    0    0  501 -0.00000000000E+00 -0.00000000000E+00 -0.68025566721E+03  0.68025566721E+03  0.00000000000E+00 0.  1.
         23    2    1    2    0    0  0.57153804567E+03 -0.65332572209E+03  0.76491852485E+03  0.11604848029E+04  0.90190860877E+02 0.  0.
        254    2    1    2    0    0 -0.57153804567E+03  0.65332572209E+03  0.33210717748E+03  0.12970522338E+04  0.90474255072E+03 0.  0.
        -24    2    4    4    0    0  0.10604517905E+03  0.35900601390E+02  0.35074597986E+03  0.37684318303E+03  0.80334357697E+02 0.  0.
         24    2    4    4    0    0 -0.67758322473E+03  0.61742512070E+03 -0.18638802381E+02  0.92020905077E+03  0.78131210583E+02 0.  0.
         13    1    3    3    0    0  0.17368930586E+03 -0.13928734818E+03  0.20088717091E+03  0.29987429995E+03  0.00000000000E+00 0.  1.
        -13    1    3    3    0    0  0.39784873981E+03 -0.51403837391E+03  0.56403135394E+03  0.86061050298E+03  0.00000000000E+00 0. -1.
          2    1    6    6  502    0 -0.11643005792E+03  0.11598157281E+03 -0.32517971151E+02  0.16752642200E+03  0.00000000000E+00 0. -1.
          1    1    5    5  503    0 -0.17096454305E+01 -0.17343849213E+02  0.38387582090E+02  0.42158492048E+02  0.00000000000E+00 0. -1.
         -2    1    5    5    0  503  0.10775482448E+03  0.53244450603E+02  0.31235839777E+03  0.33468469098E+03  0.00000000000E+00 0.  1.
         -1    1    6    6    0  502 -0.56115316680E+03  0.50144354789E+03  0.13879168770E+02  0.75268262878E+03  0.00000000000E+00 0.  1.
<mgrwt>
<rscale>  0 0.21990959E+04</rscale>
<asrwt>0</asrwt>
<pdfrwt beam="1">  1        1 0.27342790E+00 0.21990959E+04</pdfrwt>
<pdfrwt beam="2">  1       -1 0.10465472E+00 0.21990959E+04</pdfrwt>
<totfact> 0.33019477E+00</totfact>
</mgrwt>
</event>
<event>
12    1  0.1532786E-007  0.1241388E+04  0.7818608E-02  0.9077381E-01
         -2   -1    0    0    0  501 -0.00000000000E+00  0.00000000000E+00  0.24119831109E+03  0.24119831109E+03  0.00000000000E+00 0. -1.
          2   -1    0    0  501    0  0.00000000000E+00 -0.00000000000E+00 -0.15972798744E+04  0.15972798744E+04  0.00000000000E+00 0.  1.
         23    2    1    2    0    0  0.24801088295E+03 -0.11337965147E+03 -0.41177299968E+03  0.50263574774E+03  0.93388158864E+02 0.  0.
        254    2    1    2    0    0 -0.24801088295E+03  0.11337965147E+03 -0.94430856367E+03  0.13358424378E+04  0.90465021512E+03 0.  0.
        -24    2    4    4    0    0  0.17210670249E+03 -0.25412958842E+03 -0.12489080386E+03  0.34114314839E+03  0.81107151656E+02 0.  0.
         24    2    4    4    0    0 -0.42011758544E+03  0.36750923989E+03 -0.81941775982E+03  0.99469928939E+03  0.80121059743E+02 0.  0.
         11    1    3    3    0    0  0.34383367810E+02  0.74347967346E+01 -0.20364991293E+02  0.40647571328E+02  0.00000000000E+00 0. -1.
        -11    1    3    3    0    0  0.21362751514E+03 -0.12081444821E+03 -0.39140800838E+03  0.46198817641E+03  0.00000000000E+00 0.  1.
          2    1    6    6  502    0 -0.78022994610E+02  0.10879081640E+03 -0.22236490584E+03  0.25955573731E+03  0.00000000000E+00 0. -1.
          3    1    5    5  503    0  0.62475235517E+02 -0.14471509434E+03 -0.32983495744E+02  0.16103889150E+03  0.00000000000E+00 0. -1.
         -4    1    5    5    0  503  0.10963146697E+03 -0.10941449408E+03 -0.91907308113E+02  0.18010425689E+03  0.00000000000E+00 0.  1.
         -1    1    6    6    0  502 -0.34209459083E+03  0.25871842350E+03 -0.59705285398E+03  0.73514355209E+03  0.00000000000E+00 0.  1.
<mgrwt>
<rscale>  0 0.12413883E+04</rscale>
<asrwt>0</asrwt>
<pdfrwt beam="1">  1        2 0.24573537E+00 0.12413883E+04</pdfrwt>
<pdfrwt beam="2">  1       -2 0.37107432E-01 0.12413883E+04</pdfrwt>
<totfact> 0.75356102E+01</totfact>
</mgrwt>
</event>
<event>
12    1  0.1532786E-007  0.1156130E+04  0.7818608E-02  0.9152147E-01
          2   -1    0    0  501    0  0.00000000000E+00  0.00000000000E+00  0.69909915953E+03  0.69909915953E+03  0.00000000000E+00 0.  1.
         -2   -1    0    0    0  501 -0.00000000000E+00 -0.00000000000E+00 -0.47798499243E+03  0.47798499243E+03  0.00000000000E+00 0. -1.
         23    2    1    2    0    0  0.41884629098E+02  0.66286738962E+02 -0.16260499380E+03  0.20067631693E+03  0.87648994577E+02 0.  0.
        254    2    1    2    0    0 -0.41884629098E+02 -0.66286738962E+02  0.38371916090E+03  0.97640783503E+03  0.89441802976E+03 0.  0.
        -24    2    4    4    0    0 -0.12479607900E+03  0.35847224562E+03  0.37076854393E+03  0.53650260025E+03  0.79305199661E+02 0.  0.
         24    2    4    4    0    0  0.82911449899E+02 -0.42475898458E+03  0.12950616973E+02  0.43990523478E+03  0.77809983934E+02 0.  0.
         11    1    3    3    0    0 -0.18434825277E+02  0.21242895847E+02 -0.88591250892E+01  0.29488769122E+02  0.00000000000E+00 0.  1.
        -11    1    3    3    0    0  0.60319454375E+02  0.45043843114E+02 -0.15374586871E+03  0.17118754781E+03  0.00000000000E+00 0. -1.
          4    1    6    6  502    0  0.16741876627E+02 -0.18096082032E+03 -0.28354991766E+02  0.18393236388E+03  0.00000000000E+00 0. -1.
          1    1    5    5  503    0 -0.13372008301E+03  0.33623661740E+03  0.33289142495E+03  0.49168366282E+03  0.00000000000E+00 0. -1.
         -2    1    5    5    0  503  0.89240040149E+01  0.22235628226E+02  0.37877118976E+02  0.44818937428E+02  0.00000000000E+00 0.  1.
         -3    1    6    6    0  502  0.66169573272E+02 -0.24379816426E+03  0.41305608738E+02  0.25597287090E+03  0.00000000000E+00 0.  1.
<mgrwt>
<rscale>  0 0.11561296E+04</rscale>
<asrwt>0</asrwt>
<pdfrwt beam="1">  1        2 0.10755372E+00 0.11561296E+04</pdfrwt>
<pdfrwt beam="2">  1       -2 0.73536153E-01 0.11561296E+04</pdfrwt>
<totfact> 0.67775700E+01</totfact>
</mgrwt>
</event>
<event>
12    1  0.1533216E-007  0.1819817E+04  0.7818608E-02  0.8695831E-01
          2   -1    0    0  501    0  0.00000000000E+00  0.00000000000E+00  0.15703719220E+04  0.15703719220E+04  0.00000000000E+00 0.  1.
         -2   -1    0    0    0  501 -0.00000000000E+00 -0.00000000000E+00 -0.52722141899E+03  0.52722141899E+03  0.00000000000E+00 0. -1.
         23    2    1    2    0    0 -0.23373686421E+02 -0.66619165538E+03  0.14126550908E+03  0.68898958147E+03  0.10194630158E+03 0.  0.
        254    2    1    2    0    0  0.23373686421E+02  0.66619165538E+03  0.90188499396E+03  0.14086037595E+04  0.85229710675E+03 0.  0.
        -24    2    4    4    0    0  0.33543346379E+03  0.62298732428E+03  0.79147503698E+03  0.10645968993E+04  0.79404086496E+02 0.  0.
         24    2    4    4    0    0 -0.31205977737E+03  0.43204331096E+02  0.11040995698E+03  0.34400686027E+03  0.83080939036E+02 0.  0.
         13    1    3    3    0    0  0.20214876830E+02 -0.25964413816E+03  0.14173446582E+02  0.26081527239E+03  0.00000000000E+00 0.  1.
        -13    1    3    3    0    0 -0.43588563251E+02 -0.40654751722E+03  0.12709206250E+03  0.42817430908E+03  0.00000000000E+00 0. -1.
          2    1    6    6  502    0 -0.58397341558E+02  0.39164899045E+02  0.93884985857E+01  0.70938584170E+02  0.00000000000E+00 0. -1.
          3    1    5    5  503    0  0.19297510936E+02  0.26090349010E+02  0.64887068713E+02  0.72549513617E+02  0.00000000000E+00 0. -1.
         -4    1    5    5    0  503  0.31613595286E+03  0.59689697527E+03  0.72658796826E+03  0.99204738566E+03  0.00000000000E+00 0.  1.
         -3    1    6    6    0  502 -0.25366243581E+03  0.40394320505E+01  0.10102145840E+03  0.27306827610E+03  0.00000000000E+00 0.  1.
<mgrwt>
<rscale>  0 0.18198173E+04</rscale>
<asrwt>0</asrwt>
<pdfrwt beam="1">  1        2 0.24159568E+00 0.18198173E+04</pdfrwt>
<pdfrwt beam="2">  1       -2 0.81110988E-01 0.18198173E+04</pdfrwt>
<totfact> 0.14633935E+01</totfact>
</mgrwt>
</event>
<event>
12    1  0.1532786E-007  0.1942916E+04  0.7818608E-02  0.8633784E-01
         -1   -1    0    0    0  501 -0.00000000000E+00  0.00000000000E+00  0.50761162833E+03  0.50761162833E+03  0.00000000000E+00 0.  1.
          1   -1    0    0  501    0  0.00000000000E+00 -0.00000000000E+00 -0.18591583484E+04  0.18591583484E+04  0.00000000000E+00 0. -1.
         23    2    1    2    0    0 -0.62094947895E+02 -0.74524463548E+03 -0.70183090867E+03  0.10294577514E+04  0.89282071482E+02 0.  0.
        254    2    1    2    0    0  0.62094947895E+02  0.74524463548E+03 -0.64971581140E+03  0.13373122253E+04  0.89834737332E+03 0.  0.
        -24    2    4    4    0    0  0.23530537750E+03  0.89452318353E+03 -0.52119481246E+03  0.10647010095E+04  0.80024124670E+02 0.  0.
         24    2    4    4    0    0 -0.17321042961E+03 -0.14927854805E+03 -0.12852099894E+03  0.27261121583E+03  0.74251531924E+02 0.  0.
         13    1    3    3    0    0 -0.56995130750E+02 -0.49547062026E+03 -0.41273005119E+03  0.64736826894E+03  0.00000000000E+00 0. -1.
        -13    1    3    3    0    0 -0.50998171446E+01 -0.24977401522E+03 -0.28910085748E+03  0.38208948246E+03  0.00000000000E+00 0.  1.
          4    1    6    6  502    0 -0.16956425290E+03 -0.15604415810E+03 -0.11617070641E+03  0.25806481389E+03  0.00000000000E+00 0. -1.
          3    1    5    5  503    0  0.15156395245E+03  0.70582894999E+03 -0.40070730507E+03  0.82567092880E+03  0.00000000000E+00 0. -1.
         -2    1    5    5    0  503  0.83741425048E+02  0.18869423355E+03 -0.12048750739E+03  0.23903008070E+03  0.00000000000E+00 0.  1.
         -3    1    6    6    0  502 -0.36461767015E+01  0.67656100443E+01 -0.12350292529E+02  0.14546401938E+02  0.00000000000E+00 0.  1.
<mgrwt>
<rscale>  0 0.19429157E+04</rscale>
<asrwt>0</asrwt>
<pdfrwt beam="1">  1        1 0.28602436E+00 0.19429157E+04</pdfrwt>
<pdfrwt beam="2">  1       -1 0.78094098E-01 0.19429157E+04</pdfrwt>
<totfact> 0.56839276E+00</totfact>
</mgrwt>
</event>
<event>
12    1  0.1532786E-007  0.1480426E+04  0.7818608E-02  0.8897574E-01
         -2   -1    0    0    0  501 -0.00000000000E+00  0.00000000000E+00  0.47527646965E+03  0.47527646965E+03  0.00000000000E+00 0.  1.
          2   -1    0    0  501    0  0.00000000000E+00 -0.00000000000E+00 -0.11528354270E+04  0.11528354270E+04  0.00000000000E+00 0. -1.
         23    2    1    2    0    0  0.15456911080E+03  0.34844233536E+03  0.65238036819E+02  0.39777063663E+03  0.93068828468E+02 0.  0.
        254    2    1    2    0    0 -0.15456911080E+03 -0.34844233536E+03 -0.74279699419E+03  0.12303412600E+04  0.90370823305E+03 0.  0.
        -24    2    4    4    0    0  0.35714647771E+03 -0.23344367617E+02 -0.33128969750E+03  0.49296001546E+03  0.71820241779E+02 0.  0.
         24    2    4    4    0    0 -0.51171558851E+03 -0.32509796774E+03 -0.41150729669E+03  0.73738124457E+03  0.82772655294E+02 0.  0.
         13    1    3    3    0    0  0.86555123547E+02  0.26771885367E+03  0.76601724534E+02  0.29160418074E+03  0.00000000000E+00 0.  1.
        -13    1    3    3    0    0  0.68013987251E+02  0.80723481691E+02 -0.11363687715E+02  0.10616645589E+03  0.00000000000E+00 0. -1.
          4    1    6    6  502    0 -0.46526844190E+03 -0.29707335925E+03 -0.34264078811E+03  0.64971533265E+03  0.00000000000E+00 0. -1.
          3    1    5    5  503    0  0.27901135732E+03 -0.32698862506E+01 -0.28959983777E+03  0.40215183166E+03  0.00000000000E+00 0. -1.
         -4    1    5    5    0  503  0.78135120393E+02 -0.20074481366E+02 -0.41689859732E+02  0.90808183802E+02  0.00000000000E+00 0.  1.
         -3    1    6    6    0  502 -0.46447146615E+02 -0.28024608493E+02 -0.68866508581E+02  0.87665911927E+02  0.00000000000E+00 0.  1.
<mgrwt>
<rscale>  0 0.14804264E+04</rscale>
<asrwt>0</asrwt>
<pdfrwt beam="1">  1        2 0.17735929E+00 0.14804264E+04</pdfrwt>
<pdfrwt beam="2">  1       -2 0.73119459E-01 0.14804264E+04</pdfrwt>
<totfact> 0.33055514E+01</totfact>
</mgrwt>
</event>
<event>
12    1  0.1532786E-007  0.1974697E+04  0.7818608E-02  0.8618543E-01
         -1   -1    0    0    0  501 -0.00000000000E+00  0.00000000000E+00  0.33933671858E+04  0.33933671858E+04  0.00000000000E+00 0.  1.
          1   -1    0    0  501    0  0.00000000000E+00 -0.00000000000E+00 -0.28728306246E+03  0.28728306246E+03  0.00000000000E+00 0. -1.
         23    2    1    2    0    0 -0.68088379719E+03  0.21721957233E+03  0.61580562887E+03  0.94789238043E+03  0.92175400392E+02 0.  0.
        254    2    1    2    0    0  0.68088379719E+03 -0.21721957233E+03  0.24902784945E+04  0.27327578679E+04  0.86930518018E+03 0.  0.
        -24    2    4    4    0    0  0.36062758639E+03 -0.52919301286E+03  0.11616822563E+04  0.13288872134E+04  0.79611936316E+02 0.  0.
         24    2    4    4    0    0  0.32025621080E+03  0.31197344053E+03  0.13285962382E+04  0.14038706545E+04  0.76114270288E+02 0.  0.
         13    1    3    3    0    0 -0.15217188436E+03  0.52247075739E+02  0.19196972168E+03  0.25047637285E+03  0.00000000000E+00 0.  1.
        -13    1    3    3    0    0 -0.52871191283E+03  0.16497249659E+03  0.42383590719E+03  0.69741600758E+03  0.00000000000E+00 0. -1.
          2    1    6    6  502    0  0.27675843717E+03  0.24534098318E+03  0.10132415155E+04  0.10786314474E+04  0.00000000000E+00 0. -1.
          3    1    5    5  503    0  0.28272337888E+03 -0.36813721840E+03  0.88628959175E+03  0.10004832637E+04  0.00000000000E+00 0. -1.
         -4    1    5    5    0  503  0.77904207513E+02 -0.16105579446E+03  0.27539266455E+03  0.32840394968E+03  0.00000000000E+00 0.  1.
         -1    1    6    6    0  502  0.43497773631E+02  0.66632457351E+02  0.31535472275E+03  0.32523920711E+03  0.00000000000E+00 0.  1.
<mgrwt>
<rscale>  0 0.19746969E+04</rscale>
<asrwt>0</asrwt>
<pdfrwt beam="1">  1        1 0.44197397E-01 0.19746969E+04</pdfrwt>
<pdfrwt beam="2">  1       -1 0.52205646E+00 0.19746969E+04</pdfrwt>
<totfact> 0.92756041E-02</totfact>
</mgrwt>
</event>
<event>
12    1  0.1532786E-007  0.1141820E+04  0.7818608E-02  0.9165363E-01
         -4   -1    0    0    0  501 -0.00000000000E+00  0.00000000000E+00  0.62613398748E+03  0.62613398748E+03  0.00000000000E+00 0.  1.
          4   -1    0    0  501    0  0.00000000000E+00 -0.00000000000E+00 -0.52055650087E+03  0.52055650087E+03  0.00000000000E+00 0. -1.
         23    2    1    2    0    0 -0.81656867533E+02 -0.14673232749E+03  0.10068352497E+03  0.21682256318E+03  0.93148439387E+02 0.  0.
        254    2    1    2    0    0  0.81656867533E+02  0.14673232749E+03  0.48939616441E+01  0.92986792517E+03  0.91456666649E+03 0.  0.
        -24    2    4    4    0    0 -0.24943696766E+03  0.41287578125E+03  0.66381494554E+02  0.49310490238E+03  0.77850692705E+02 0.  0.
         24    2    4    4    0    0  0.33109383519E+03 -0.26614345376E+03 -0.61487532910E+02  0.43676302279E+03  0.80782149568E+02 0.  0.
         13    1    3    3    0    0  0.55994077302E+01 -0.71002281562E+02  0.63583974469E+02  0.95475646964E+02  0.00000000000E+00 0. -1.
        -13    1    3    3    0    0 -0.87256275263E+02 -0.75730045925E+02  0.37099550499E+02  0.12134691622E+03  0.00000000000E+00 0.  1.
          2    1    6    6  502    0  0.31317365300E+03 -0.22493322800E+03 -0.42279253244E+02  0.38789203298E+03  0.00000000000E+00 0. -1.
          3    1    5    5  503    0 -0.24714186803E+03  0.36691306381E+03  0.64345862710E+02  0.44703991922E+03  0.00000000000E+00 0. -1.
         -4    1    5    5    0  503 -0.22950996321E+01  0.45962717439E+02  0.20356318444E+01  0.46064983162E+02  0.00000000000E+00 0.  1.
         -1    1    6    6    0  502  0.17920182187E+02 -0.41210225763E+02 -0.19208279667E+02  0.48870989808E+02  0.00000000000E+00 0.  1.
<mgrwt>
<rscale>  0 0.11418198E+04</rscale>
<asrwt>0</asrwt>
<pdfrwt beam="1">  1        4 0.80085616E-01 0.11418198E+04</pdfrwt>
<pdfrwt beam="2">  1       -4 0.96328305E-01 0.11418198E+04</pdfrwt>
<totfact> 0.24647496E+00</totfact>
</mgrwt>
</event>
<event>
12    1  0.1532786E-007  0.2118101E+04  0.7818608E-02  0.8553312E-01
          1   -1    0    0  501    0  0.00000000000E+00  0.00000000000E+00  0.25055918725E+04  0.25055918725E+04  0.00000000000E+00 0. -1.
         -1   -1    0    0    0  501 -0.00000000000E+00 -0.00000000000E+00 -0.44763377358E+03  0.44763377358E+03  0.00000000000E+00 0.  1.
         23    2    1    2    0    0  0.59014334768E+03 -0.25238349434E+03  0.17283313553E+04  0.18454263280E+04  0.80637830009E+02 0.  0.
        254    2    1    2    0    0 -0.59014334768E+03  0.25238349434E+03  0.32962674368E+03  0.11077993181E+04  0.84059439679E+03 0.  0.
        -24    2    4    4    0    0 -0.49135117722E+03  0.47257406053E+03 -0.55453548454E+01  0.68642451033E+03  0.79972716518E+02 0.  0.
         24    2    4    4    0    0 -0.98792170462E+02 -0.22019056618E+03  0.33517209853E+03  0.42137480773E+03  0.83502183076E+02 0.  0.
         11    1    3    3    0    0  0.38710108858E+03 -0.19440461630E+03  0.10825666160E+04  0.11660149594E+04  0.00000000000E+00 0. -1.
        -11    1    3    3    0    0  0.20304225910E+03 -0.57978878045E+02  0.64576473929E+03  0.67941136860E+03  0.00000000000E+00 0.  1.
          4    1    6    6  502    0 -0.64981298134E+02 -0.14554063294E+03  0.28125555566E+03  0.32327903200E+03  0.00000000000E+00 0. -1.
          1    1    5    5  503    0 -0.20484237291E+03  0.21629420214E+03 -0.39579931744E+02  0.30051647312E+03  0.00000000000E+00 0. -1.
         -2    1    5    5    0  503 -0.28650880431E+03  0.25627985838E+03  0.34034576898E+02  0.38590803721E+03  0.00000000000E+00 0.  1.
         -3    1    6    6    0  502 -0.33810872328E+02 -0.74649933245E+02  0.53916542870E+02  0.98095775730E+02  0.00000000000E+00 0.  1.
<mgrwt>
<rscale>  0 0.21181006E+04</rscale>
<asrwt>0</asrwt>
<pdfrwt beam="1">  1        1 0.38547566E+00 0.21181006E+04</pdfrwt>
<pdfrwt beam="2">  1       -1 0.68866736E-01 0.21181006E+04</pdfrwt>
<totfact> 0.26309957E+00</totfact>
</mgrwt>
</event>
<event>
12    1  0.1532786E-007  0.1973181E+04  0.7818608E-02  0.8619263E-01
         -2   -1    0    0    0  501 -0.00000000000E+00  0.00000000000E+00  0.50468753179E+03  0.50468753179E+03  0.00000000000E+00 0.  1.
          2   -1    0    0  501    0  0.00000000000E+00 -0.00000000000E+00 -0.19286398532E+04  0.19286398532E+04  0.00000000000E+00 0. -1.
         23    2    1    2    0    0 -0.46582854018E+03  0.12552631560E+03 -0.13611423597E+04  0.14470979108E+04  0.92901859331E+02 0.  0.
        254    2    1    2    0    0  0.46582854018E+03 -0.12552631560E+03 -0.62809961712E+02  0.98622947414E+03  0.85787551522E+03 0.  0.
        -24    2    4    4    0    0 -0.13492599327E+03 -0.30551629424E+03 -0.86386977570E+02  0.35417454293E+03  0.80197676159E+02 0.  0.
         24    2    4    4    0    0  0.60075453345E+03  0.17998997864E+03  0.23577015857E+02  0.63205493121E+03  0.75067692967E+02 0.  0.
         11    1    3    3    0    0 -0.45978226650E+03  0.12616925767E+03 -0.13596720739E+04  0.14408423101E+04  0.00000000000E+00 0. -1.
        -11    1    3    3    0    0 -0.60462736745E+01 -0.64294206869E+00 -0.14702858045E+01  0.62556007064E+01  0.00000000000E+00 0.  1.
          4    1    6    6  502    0  0.34577196407E+03  0.64945395976E+02  0.17540809840E+02  0.35225535568E+03  0.00000000000E+00 0. -1.
          1    1    5    5  503    0  0.71062747943E+01 -0.75083840082E+01 -0.11877630981E+02  0.15746526271E+02  0.00000000000E+00 0. -1.
         -2    1    5    5    0  503 -0.14203226806E+03 -0.29800791023E+03 -0.74509346588E+02  0.33842801666E+03  0.00000000000E+00 0.  1.
         -3    1    6    6    0  502  0.25498256938E+03  0.11504458266E+03  0.60362060174E+01  0.27979957553E+03  0.00000000000E+00 0.  1.
<mgrwt>
<rscale>  0 0.19731807E+04</rscale>
<asrwt>0</asrwt>
<pdfrwt beam="1">  1        2 0.29671381E+00 0.19731807E+04</pdfrwt>
<pdfrwt beam="2">  1       -2 0.77644238E-01 0.19731807E+04</pdfrwt>
<totfact> 0.10074106E+01</totfact>
</mgrwt>
</event>
<event>
12    1  0.1532786E-007  0.1618166E+04  0.7818608E-02  0.8809465E-01
          1   -1    0    0  501    0  0.00000000000E+00  0.00000000000E+00  0.27247891060E+04  0.27247891060E+04  0.00000000000E+00 0. -1.
         -1   -1    0    0    0  501 -0.00000000000E+00 -0.00000000000E+00 -0.24024446448E+03  0.24024446448E+03  0.00000000000E+00 0.  1.
         23    2    1    2    0    0  0.13771407664E+03 -0.53028238926E+03  0.78739305884E+03  0.96343077883E+03  0.89702046857E+02 0.  0.
        254    2    1    2    0    0 -0.13771407664E+03  0.53028238926E+03  0.16971515827E+04  0.20016027917E+04  0.90880452339E+03 0.  0.
        -24    2    4    4    0    0 -0.13141243120E+03  0.58706204040E+03  0.17754870809E+04  0.18763230978E+04  0.79516829949E+02 0.  0.
         24    2    4    4    0    0 -0.63016454367E+01 -0.56779651138E+02 -0.78335498258E+02  0.12527969391E+03  0.79340480834E+02 0.  0.
         11    1    3    3    0    0  0.13199642232E+03 -0.49543486848E+03  0.76719319032E+03  0.92274815398E+03  0.00000000000E+00 0.  1.
        -11    1    3    3    0    0  0.57176543232E+01 -0.34847520784E+02  0.20199868525E+02  0.40682624844E+02  0.00000000000E+00 0. -1.
          2    1    6    6  502    0 -0.54773595435E+01 -0.56711241530E+02 -0.93824371073E+02  0.10976875234E+03  0.00000000000E+00 0. -1.
          3    1    5    5  503    0 -0.81446420491E+02  0.49703468752E+03  0.14916391607E+04  0.15743774598E+04  0.00000000000E+00 0. -1.
         -4    1    5    5    0  503 -0.49966010711E+02  0.90027352883E+02  0.28384792023E+03  0.30194563801E+03  0.00000000000E+00 0.  1.
         -1    1    6    6    0  502 -0.82428589319E+00 -0.68409608986E-01  0.15488872815E+02  0.15510941563E+02  0.00000000000E+00 0.  1.
<mgrwt>
<rscale>  0 0.16181662E+04</rscale>
<asrwt>0</asrwt>
<pdfrwt beam="1">  1        1 0.41919830E+00 0.16181662E+04</pdfrwt>
<pdfrwt beam="2">  1       -1 0.36960689E-01 0.16181662E+04</pdfrwt>
<totfact> 0.63711958E+00</totfact>
</mgrwt>
</event>
<event>
12    1  0.1641192E-007  0.1732167E+04  0.7818608E-02  0.8743228E-01
         -2   -1    0    0    0  501 -0.00000000000E+00  0.00000000000E+00  0.47209213076E+03  0.47209213076E+03  0.00000000000E+00 0.  1.
          2   -1    0    0  501    0  0.00000000000E+00 -0.00000000000E+00 -0.15888856864E+04  0.15888856864E+04  0.00000000000E+00 0. -1.
         23    2    1    2    0    0 -0.28741441118E+03  0.14868404353E+03  0.23351121123E+03  0.40931717559E+03  0.91099264059E+02 0.  0.
        254    2    1    2    0    0  0.28741441118E+03 -0.14868404353E+03 -0.13503047669E+04  0.16516606416E+04  0.89439696047E+03 0.  0.
        -24    2    4    4    0    0  0.37147560436E+03  0.13308017325E+03 -0.17792197575E+03  0.44016181371E+03  0.79885766216E+02 0.  0.
         24    2    4    4    0    0 -0.84061193176E+02 -0.28176421678E+03 -0.11723827911E+04  0.12114988279E+04  0.82405357393E+02 0.  0.
         11    1    3    3    0    0 -0.30369787363E+02  0.31348334307E+01  0.58459660156E+02  0.65952126809E+02  0.00000000000E+00 0. -1.
        -11    1    3    3    0    0 -0.25704462382E+03  0.14554921009E+03  0.17505155107E+03  0.34336504878E+03  0.00000000000E+00 0.  1.
          4    1    6    6  502    0 -0.57969268468E+02 -0.25488473351E+03 -0.92230507251E+03  0.95863095623E+03  0.00000000000E+00 0. -1.
          1    1    5    5  503    0  0.37249204704E+03  0.13788544356E+03 -0.17308382318E+03  0.43326750455E+03  0.00000000000E+00 0. -1.
         -2    1    5    5    0  503 -0.10164426803E+01 -0.48052703060E+01 -0.48381525733E+01  0.68943091574E+01  0.00000000000E+00 0.  1.
         -1    1    6    6    0  502 -0.26091924708E+02 -0.26879483266E+02 -0.25007771861E+03  0.25286787162E+03  0.00000000000E+00 0.  1.
<mgrwt>
<rscale>  0 0.17321668E+04</rscale>
<asrwt>0</asrwt>
<pdfrwt beam="1">  1        2 0.24444395E+00 0.17321668E+04</pdfrwt>
<pdfrwt beam="2">  1       -2 0.72629558E-01 0.17321668E+04</pdfrwt>
<totfact> 0.18406879E+01</totfact>
</mgrwt>
</event>
<event>
12    1  0.1532786E-007  0.1402131E+04  0.7818608E-02  0.8952277E-01
          3   -1    0    0  501    0  0.00000000000E+00  0.00000000000E+00  0.72550819657E+03  0.72550819657E+03  0.00000000000E+00 0. -1.
         -3   -1    0    0    0  501 -0.00000000000E+00 -0.00000000000E+00 -0.67744664654E+03  0.67744664654E+03  0.00000000000E+00 0.  1.
         23    2    1    2    0    0 -0.18305875174E+03 -0.63499642149E+02 -0.33493017033E+03  0.39758692466E+03  0.91402584867E+02 0.  0.
        254    2    1    2    0    0  0.18305875174E+03  0.63499642149E+02  0.38299172035E+03  0.10053679185E+04  0.90914205845E+03 0.  0.
        -24    2    4    4    0    0  0.16155966356E+03 -0.25802291487E+03 -0.17210977675E+03  0.35867414179E+03  0.79674432833E+02 0.  0.
         24    2    4    4    0    0  0.21499088182E+02  0.32152255702E+03  0.55510149710E+03  0.64669377666E+03  0.78969634793E+02 0.  0.
         13    1    3    3    0    0 -0.94875698396E+02 -0.37877133687E+02 -0.90508110828E+02  0.13648367495E+03  0.00000000000E+00 0. -1.
        -13    1    3    3    0    0 -0.88183053348E+02 -0.25622508462E+02 -0.24442205950E+03  0.26110324971E+03  0.00000000000E+00 0.  1.
          2    1    6    6  502    0 -0.19153740768E+02  0.23859419476E+03  0.39512188159E+03  0.46196899990E+03  0.00000000000E+00 0. -1.
          1    1    5    5  503    0  0.37318341154E+02 -0.13294777876E+03 -0.83419876327E+02  0.16132776026E+03  0.00000000000E+00 0. -1.
         -2    1    5    5    0  503  0.12424132241E+03 -0.12507513611E+03 -0.88689900428E+02  0.19734638154E+03  0.00000000000E+00 0.  1.
         -1    1    6    6    0  502  0.40652828950E+02  0.82928362258E+02  0.15997961552E+03  0.18472477676E+03  0.00000000000E+00 0.  1.
<mgrwt>
<rscale>  0 0.14021314E+04</rscale>
<asrwt>0</asrwt>
<pdfrwt beam="1">  1        3 0.11161665E+00 0.14021314E+04</pdfrwt>
<pdfrwt beam="2">  1       -3 0.10422256E+00 0.14021314E+04</pdfrwt>
<totfact> 0.13633038E+00</totfact>
</mgrwt>
</event>
<event>
12    1  0.1532786E-007  0.1319220E+04  0.7818608E-02  0.9014461E-01
         -1   -1    0    0    0  501 -0.00000000000E+00  0.00000000000E+00  0.20220668173E+03  0.20220668173E+03  0.00000000000E+00 0.  1.
          1   -1    0    0  501    0  0.00000000000E+00 -0.00000000000E+00 -0.21516873651E+04  0.21516873651E+04  0.00000000000E+00 0. -1.
         23    2    1    2    0    0 -0.10738003116E+03  0.15239619673E+03 -0.18448057862E+02  0.20929032179E+03  0.93311500295E+02 0.  0.
        254    2    1    2    0    0  0.10738003116E+03 -0.15239619673E+03 -0.19310326255E+04  0.21446037250E+04  0.91415702415E+03 0.  0.
        -24    2    4    4    0    0 -0.36120372538E+03 -0.24386113776E+03 -0.10379500891E+04  0.11286703713E+04  0.81363590790E+02 0.  0.
         24    2    4    4    0    0  0.46858375654E+03  0.91464941030E+02 -0.89308253635E+03  0.10159333537E+04  0.81163969955E+02 0.  0.
         13    1    3    3    0    0 -0.78681383358E+02  0.32437144514E+02 -0.59045803328E+01  0.85309978902E+02  0.00000000000E+00 0. -1.
        -13    1    3    3    0    0 -0.28698647800E+02  0.11995905222E+03 -0.12543477529E+02  0.12398034289E+03  0.00000000000E+00 0.  1.
          2    1    6    6  502    0  0.12230197934E+03 -0.10815255490E+02 -0.20845275355E+03  0.24192415003E+03  0.00000000000E+00 0. -1.
          3    1    5    5  503    0 -0.18089030830E+03 -0.10250699364E+03 -0.58931829964E+03  0.62492003142E+03  0.00000000000E+00 0. -1.
         -4    1    5    5    0  503 -0.18031341708E+03 -0.14135414412E+03 -0.44863178948E+03  0.50375033993E+03  0.00000000000E+00 0.  1.
         -1    1    6    6    0  502  0.34628177719E+03  0.10228019652E+03 -0.68462978280E+03  0.77400920363E+03  0.00000000000E+00 0.  1.
<mgrwt>
<rscale>  0 0.13192203E+04</rscale>
<asrwt>0</asrwt>
<pdfrwt beam="1">  1        1 0.33102883E+00 0.13192203E+04</pdfrwt>
<pdfrwt beam="2">  1       -1 0.31108720E-01 0.13192203E+04</pdfrwt>
<totfact> 0.22114164E+01</totfact>
</mgrwt>
</event>
<event>
12    1  0.1532786E-007  0.3435538E+04  0.7818608E-02  0.8129239E-01
         -2   -1    0    0    0  501 -0.00000000000E+00  0.00000000000E+00  0.18077806689E+04  0.18077806689E+04  0.00000000000E+00 0.  1.
          2   -1    0    0  501    0  0.00000000000E+00 -0.00000000000E+00 -0.16322389108E+04  0.16322389108E+04  0.00000000000E+00 0. -1.
         23    2    1    2    0    0  0.97767277312E+03 -0.10745396383E+04 -0.58675639174E+03  0.15693184430E+04  0.89430569472E+02 0.  0.
        254    2    1    2    0    0 -0.97767277312E+03  0.10745396383E+04  0.76229814980E+03  0.18707011366E+04  0.89885749027E+03 0.  0.
        -24    2    4    4    0    0 -0.27739963124E+03  0.75891819432E+03  0.39407359789E+02  0.81313483172E+03  0.82023981092E+02 0.  0.
         24    2    4    4    0    0 -0.70027314189E+03  0.31562144399E+03  0.72289079001E+03  0.10575663049E+04  0.76655240247E+02 0.  0.
         13    1    3    3    0    0 -0.16499819599E+01 -0.53020098421E+01 -0.21506625801E+01  0.59547542659E+01  0.00000000000E+00 0.  1.
        -13    1    3    3    0    0  0.97932275508E+03 -0.10692376285E+04 -0.58460572916E+03  0.15633636888E+04  0.00000000000E+00 0. -1.
          4    1    6    6  502    0 -0.45112000018E+03  0.20067292848E+03  0.51388310605E+03  0.71263926743E+03  0.00000000000E+00 0. -1.
          1    1    5    5  503    0 -0.22324889724E+03  0.52445325835E+03  0.50628750454E+02  0.57223645522E+03  0.00000000000E+00 0. -1.
         -2    1    5    5    0  503 -0.54150733997E+02  0.23446493597E+03 -0.11221390665E+02  0.24089837650E+03  0.00000000000E+00 0.  1.
         -3    1    6    6    0  502 -0.24915314170E+03  0.11494851551E+03  0.20900768396E+03  0.34492703749E+03  0.00000000000E+00 0.  1.
<mgrwt>
<rscale>  0 0.34355378E+04</rscale>
<asrwt>0</asrwt>
<pdfrwt beam="1">  1        2 0.25111368E+00 0.34355378E+04</pdfrwt>
<pdfrwt beam="2">  1       -2 0.27812010E+00 0.34355378E+04</pdfrwt>
<totfact> 0.38211212E-01</totfact>
</mgrwt>
</event>
<event>
12    1  0.1532786E-007  0.2652710E+04  0.7818608E-02  0.8350514E-01
          1   -1    0    0  501    0  0.00000000000E+00  0.00000000000E+00  0.21439828823E+04  0.21439828823E+04  0.00000000000E+00 0. -1.
         -1   -1    0    0    0  501 -0.00000000000E+00 -0.00000000000E+00 -0.82053714965E+03  0.82053714965E+03  0.00000000000E+00 0.  1.
         23    2    1    2    0    0 -0.25205943675E+03 -0.33405023179E+03 -0.63736328083E+03  0.76790900042E+03  0.91262063145E+02 0.  0.
        254    2    1    2    0    0  0.25205943675E+03  0.33405023179E+03  0.19608090135E+04  0.21966110315E+04  0.89733188927E+03 0.  0.
        -24    2    4    4    0    0  0.57327138117E+03  0.17139802160E+03  0.14102870651E+04  0.15340234507E+04  0.79378731627E+02 0.  0.
         24    2    4    4    0    0 -0.32121194441E+03  0.16265221019E+03  0.55052194835E+03  0.66258758081E+03  0.79467175088E+02 0.  0.
         13    1    3    3    0    0 -0.31385489115E+02 -0.94204976644E+02 -0.11216181745E+03  0.14979953219E+03  0.00000000000E+00 0. -1.
        -13    1    3    3    0    0 -0.22067394764E+03 -0.23984525514E+03 -0.52520146338E+03  0.61810946823E+03  0.00000000000E+00 0.  1.
          2    1    6    6  502    0 -0.32384150791E+03  0.15257067621E+03  0.52997995758E+03  0.63955444562E+03  0.00000000000E+00 0. -1.
          1    1    5    5  503    0  0.42873080226E+03  0.93549559082E+02  0.99529432846E+03  0.10877372941E+04  0.00000000000E+00 0. -1.
         -2    1    5    5    0  503  0.14454057890E+03  0.77848462521E+02  0.41499273665E+03  0.44628615656E+03  0.00000000000E+00 0.  1.
         -1    1    6    6    0  502  0.26295634993E+01  0.10081533976E+02  0.20541990771E+02  0.23033135183E+02  0.00000000000E+00 0.  1.
<mgrwt>
<rscale>  0 0.26527100E+04</rscale>
<asrwt>0</asrwt>
<pdfrwt beam="1">  1        1 0.32984352E+00 0.26527100E+04</pdfrwt>
<pdfrwt beam="2">  1       -1 0.12623649E+00 0.26527100E+04</pdfrwt>
<totfact> 0.11384992E+00</totfact>
</mgrwt>
</event>
<event>
12    1  0.1532786E-007  0.1678002E+04  0.7818608E-02  0.8774011E-01
          1   -1    0    0  501    0  0.00000000000E+00  0.00000000000E+00  0.12734414871E+04  0.12734414871E+04  0.00000000000E+00 0. -1.
         -1   -1    0    0    0  501 -0.00000000000E+00 -0.00000000000E+00 -0.55277185098E+03  0.55277185098E+03  0.00000000000E+00 0.  1.
         23    2    1    2    0    0 -0.15275919319E+03 -0.56914078721E+03  0.18760305527E+03  0.62521610195E+03  0.91889395599E+02 0.  0.
        254    2    1    2    0    0  0.15275919319E+03  0.56914078721E+03  0.53306658086E+03  0.12009972361E+04  0.90054304440E+03 0.  0.
        -24    2    4    4    0    0  0.77355807850E+02  0.57188013011E+03  0.75454985903E+03  0.95336856733E+03  0.80841395306E+02 0.  0.
         24    2    4    4    0    0  0.75403385341E+02 -0.27393429052E+01 -0.22148327817E+03  0.24762866881E+03  0.81067506355E+02 0.  0.
         11    1    3    3    0    0 -0.15369082100E+03 -0.47523864935E+03  0.18032751806E+03  0.53102792400E+03  0.00000000000E+00 0. -1.
        -11    1    3    3    0    0  0.93162780538E+00 -0.93902137857E+02  0.72755372119E+01  0.94188177953E+02  0.00000000000E+00 0.  1.
          4    1    6    6  502    0  0.79691281985E+02 -0.27644078990E+01 -0.10894496862E+03  0.13500869810E+03  0.00000000000E+00 0. -1.
          1    1    5    5  503    0 -0.16510701018E+02  0.82436950793E+02  0.98679135598E+02  0.12963805732E+03  0.00000000000E+00 0. -1.
         -2    1    5    5    0  503  0.93866508868E+02  0.48944317932E+03  0.65587072343E+03  0.82373051001E+03  0.00000000000E+00 0.  1.
         -3    1    6    6    0  502 -0.42878966442E+01  0.25064993785E-01 -0.11253830954E+03  0.11261997070E+03  0.00000000000E+00 0.  1.
<mgrwt>
<rscale>  0 0.16780019E+04</rscale>
<asrwt>0</asrwt>
<pdfrwt beam="1">  1        1 0.19591407E+00 0.16780019E+04</pdfrwt>
<pdfrwt beam="2">  1       -1 0.85041824E-01 0.16780019E+04</pdfrwt>
<totfact> 0.12323992E+01</totfact>
</mgrwt>
</event>
<event>
12    1  0.2269588E-007  0.2283010E+04  0.7818608E-02  0.8484650E-01
          2   -1    0    0  501    0  0.00000000000E+00  0.00000000000E+00  0.15631489912E+04  0.15631489912E+04  0.00000000000E+00 0. -1.
         -2   -1    0    0    0  501 -0.00000000000E+00 -0.00000000000E+00 -0.83359523978E+03  0.83359523978E+03  0.00000000000E+00 0.  1.
         23    2    1    2    0    0  0.91253709971E+03 -0.26968549010E+02  0.87587995370E+02  0.92142500617E+03  0.88888267409E+02 0.  0.
        254    2    1    2    0    0 -0.91253709971E+03  0.26968549010E+02  0.64196575608E+03  0.14753192249E+04  0.96488109229E+03 0.  0.
        -24    2    4    4    0    0 -0.59095027243E+03 -0.44247023632E+03  0.45567048681E+03  0.87133632820E+03  0.81174317212E+02 0.  0.
         24    2    4    4    0    0 -0.32158682728E+03  0.46943878533E+03  0.18629526928E+03  0.60398289666E+03  0.79363413763E+02 0.  0.
         13    1    3    3    0    0  0.86783869544E+03 -0.38678624689E+02  0.68388191344E+02  0.87138796298E+03  0.00000000000E+00 0.  1.
        -13    1    3    3    0    0  0.44698404261E+02  0.11710075679E+02  0.19199804026E+02  0.50037043183E+02  0.00000000000E+00 0. -1.
          4    1    6    6  502    0 -0.55091652392E+02  0.39068606123E+02  0.11865496912E+02  0.68572852971E+02  0.00000000000E+00 0. -1.
          1    1    5    5  503    0 -0.14887011922E+00 -0.13925704143E+01  0.94027421207E+01  0.95064701156E+01  0.00000000000E+00 0. -1.
         -2    1    5    5    0  503 -0.59080140231E+03 -0.44107766591E+03  0.44626774469E+03  0.86182985808E+03  0.00000000000E+00 0.  1.
         -3    1    6    6    0  502 -0.26649517489E+03  0.43037017921E+03  0.17442977236E+03  0.53541004369E+03  0.00000000000E+00 0.  1.
<mgrwt>
<rscale>  0 0.22830099E+04</rscale>
<asrwt>0</asrwt>
<pdfrwt beam="1">  1        2 0.24048446E+00 0.22830099E+04</pdfrwt>
<pdfrwt beam="2">  1       -2 0.12824542E+00 0.22830099E+04</pdfrwt>
<totfact> 0.47734950E+00</totfact>
</mgrwt>
</event>
<event>
12    1  0.1532786E-007  0.1404778E+04  0.7818608E-02  0.8950367E-01
          2   -1    0    0  501    0  0.00000000000E+00  0.00000000000E+00  0.12834060331E+04  0.12834060331E+04  0.00000000000E+00 0. -1.
         -2   -1    0    0    0  501 -0.00000000000E+00 -0.00000000000E+00 -0.38440715777E+03  0.38440715777E+03  0.00000000000E+00 0.  1.
         23    2    1    2    0    0  0.38047115003E+03  0.77937330459E+02  0.11180391686E+03  0.41412824591E+03  0.90385644599E+02 0.  0.
        254    2    1    2    0    0 -0.38047115003E+03 -0.77937330459E+02  0.78719495843E+03  0.12536849449E+04  0.89510754383E+03 0.  0.
        -24    2    4    4    0    0 -0.55227780355E+03 -0.57030365525E+02  0.87779117379E+03  0.10424056223E+04  0.88481081634E+02 0.  0.
         24    2    4    4    0    0  0.17180665352E+03 -0.20906964934E+02 -0.90596215363E+02  0.21127932257E+03  0.80477639942E+02 0.  0.
         13    1    3    3    0    0  0.12044116103E+03 -0.16169527681E+01  0.69109184884E+02  0.13886960518E+03  0.00000000000E+00 0. -1.
        -13    1    3    3    0    0  0.26002998900E+03  0.79554283227E+02  0.42694731975E+02  0.27525864073E+03  0.00000000000E+00 0.  1.
          4    1    6    6  502    0  0.16739538572E+03 -0.28694942607E+02 -0.61161922268E+02  0.18051425326E+03  0.00000000000E+00 0. -1.
          1    1    5    5  503    0 -0.43871369437E+03 -0.16011420223E+02  0.64602371711E+03  0.78107151675E+03  0.00000000000E+00 0. -1.
         -2    1    5    5    0  503 -0.11356410918E+03 -0.41018945301E+02  0.23176745668E+03  0.26133410559E+03  0.00000000000E+00 0.  1.
         -3    1    6    6    0  502  0.44112677950E+01  0.77879776730E+01 -0.29434293095E+02  0.30765069313E+02  0.00000000000E+00 0.  1.
<mgrwt>
<rscale>  0 0.14047782E+04</rscale>
<asrwt>0</asrwt>
<pdfrwt beam="1">  1        2 0.19744708E+00 0.14047782E+04</pdfrwt>
<pdfrwt beam="2">  1       -2 0.59139563E-01 0.14047782E+04</pdfrwt>
<totfact> 0.43917731E+01</totfact>
</mgrwt>
</event>
<event>
12    1  0.1532786E-007  0.5251475E+04  0.7818608E-02  0.7790844E-01
          2   -1    0    0  501    0  0.00000000000E+00  0.00000000000E+00  0.21543224955E+04  0.21543224955E+04  0.00000000000E+00 0.  1.
         -2   -1    0    0    0  501 -0.00000000000E+00 -0.00000000000E+00 -0.32003087170E+04  0.32003087170E+04  0.00000000000E+00 0. -1.
         23    2    1    2    0    0  0.58372977885E+03 -0.16309657818E+04  0.13990873619E+04  0.22285000952E+04  0.89316247893E+02 0.  0.
        254    2    1    2    0    0 -0.58372977885E+03  0.16309657818E+04 -0.24450735835E+04  0.31261311172E+04  0.89079801167E+03 0.  0.
        -24    2    4    4    0    0 -0.47109726777E+03  0.16378922498E+04 -0.24544170891E+04  0.29891713538E+04  0.79740062306E+02 0.  0.
         24    2    4    4    0    0 -0.11263251107E+03 -0.69264680294E+01  0.93435056262E+01  0.13695976343E+03  0.77049446407E+02 0.  0.
         13    1    3    3    0    0  0.55488031487E+03 -0.15252230241E+04  0.13350226029E+04  0.21015429540E+04  0.00000000000E+00 0.  1.
        -13    1    3    3    0    0  0.28849463973E+02 -0.10574275767E+03  0.64064759015E+02  0.12695714127E+03  0.00000000000E+00 0. -1.
          4    1    6    6  502    0 -0.10982993493E+03  0.10321095910E+02  0.25431998802E+02  0.11320744760E+03  0.00000000000E+00 0. -1.
          1    1    5    5  503    0 -0.20452160687E+03  0.57651013162E+03 -0.86454182017E+03  0.10590682595E+04  0.00000000000E+00 0. -1.
         -2    1    5    5    0  503 -0.26657566090E+03  0.10613821182E+04 -0.15898752689E+04  0.19301030943E+04  0.00000000000E+00 0.  1.
         -3    1    6    6    0  502 -0.28025761403E+01 -0.17247563939E+02 -0.16088493176E+02  0.23752315835E+02  0.00000000000E+00 0.  1.
<mgrwt>
<rscale>  0 0.52514749E+04</rscale>
<asrwt>0</asrwt>
<pdfrwt beam="1">  1        2 0.33143423E+00 0.52514749E+04</pdfrwt>
<pdfrwt beam="2">  1       -2 0.49235518E+00 0.52514749E+04</pdfrwt>
<totfact> 0.72529701E-03</totfact>
</mgrwt>
</event>
<event>
12    1  0.1532786E-007  0.1849534E+04  0.7818608E-02  0.8680393E-01
         -2   -1    0    0    0  501 -0.00000000000E+00  0.00000000000E+00  0.33836349364E+03  0.33836349364E+03  0.00000000000E+00 0.  1.
          2   -1    0    0  501    0  0.00000000000E+00 -0.00000000000E+00 -0.25274403699E+04  0.25274403699E+04  0.00000000000E+00 0. -1.
         23    2    1    2    0    0 -0.41960726815E+03 -0.52732780549E+03 -0.54278430226E+03  0.87002929406E+03  0.90505799914E+02 0.  0.
        254    2    1    2    0    0  0.41960726815E+03  0.52732780549E+03 -0.16462925739E+04  0.19957745694E+04  0.90481601390E+03 0.  0.
        -24    2    4    4    0    0  0.18806235098E+03  0.14289102912E+03  0.36700443267E+02  0.25203077897E+03  0.79920566508E+02 0.  0.
         24    2    4    4    0    0  0.23154491717E+03  0.38443677637E+03 -0.16829930172E+04  0.17437437905E+04  0.82293542183E+02 0.  0.
         11    1    3    3    0    0 -0.84139736403E+02 -0.80767501359E+02 -0.57073096230E+02  0.12984692076E+03  0.00000000000E+00 0.  1.
        -11    1    3    3    0    0 -0.33546753175E+03 -0.44656030413E+03 -0.48571120603E+03  0.74018237330E+03  0.00000000000E+00 0. -1.
          2    1    6    6  502    0  0.14331374534E+03  0.30574838404E+03 -0.12150535163E+04  0.12611010869E+04  0.00000000000E+00 0. -1.
          1    1    5    5  503    0  0.16402314354E+03  0.85897254037E+02  0.12386377288E+02  0.18556764861E+03  0.00000000000E+00 0. -1.
         -2    1    5    5    0  503  0.24039207441E+02  0.56993775081E+02  0.24314065979E+02  0.66463130356E+02  0.00000000000E+00 0.  1.
         -1    1    6    6    0  502  0.88231171829E+02  0.78688392336E+02 -0.46793950090E+03  0.48264270354E+03  0.00000000000E+00 0.  1.
<mgrwt>
<rscale>  0 0.18495335E+04</rscale>
<asrwt>0</asrwt>
<pdfrwt beam="1">  1        2 0.38883698E+00 0.18495335E+04</pdfrwt>
<pdfrwt beam="2">  1       -2 0.52055921E-01 0.18495335E+04</pdfrwt>
<totfact> 0.11005539E+01</totfact>
</mgrwt>
</event>
<event>
12    1  0.1532786E-007  0.1265983E+04  0.7818608E-02  0.9056985E-01
          2   -1    0    0  501    0  0.00000000000E+00  0.00000000000E+00  0.55130671894E+03  0.55130671894E+03  0.00000000000E+00 0. -1.
         -2   -1    0    0    0  501 -0.00000000000E+00 -0.00000000000E+00 -0.72677874007E+03  0.72677874007E+03  0.00000000000E+00 0.  1.
         23    2    1    2    0    0 -0.20328698214E+03 -0.16912687009E+03  0.11359905632E+03  0.30219315407E+03  0.92121992350E+02 0.  0.
        254    2    1    2    0    0  0.20328698214E+03  0.16912687009E+03 -0.28907107745E+03  0.97589230495E+03  0.89379763243E+03 0.  0.
        -24    2    4    4    0    0  0.90915369652E+02  0.41532373789E+03 -0.47134641886E+03  0.63981542767E+03  0.80230438200E+02 0.  0.
         24    2    4    4    0    0  0.11237161248E+03 -0.24619686780E+03  0.18227534141E+03  0.33607687728E+03  0.80517640007E+02 0.  0.
         11    1    3    3    0    0 -0.20754283167E+03 -0.17512360372E+03  0.11464832405E+03  0.29476523160E+03  0.00000000000E+00 0. -1.
        -11    1    3    3    0    0  0.42558495319E+01  0.59967336219E+01 -0.10492677271E+01  0.74279224642E+01  0.00000000000E+00 0.  1.
          2    1    6    6  502    0  0.61655886938E+02 -0.21026672920E+03  0.15381356747E+03  0.26771656531E+03  0.00000000000E+00 0. -1.
          1    1    5    5  503    0  0.10290971108E+03  0.36751335525E+03 -0.43423693518E+03  0.57811607034E+03  0.00000000000E+00 0. -1.
         -2    1    5    5    0  503 -0.11994341424E+02  0.47810382646E+02 -0.37109483684E+02  0.61699357324E+02  0.00000000000E+00 0.  1.
         -3    1    6    6    0  502  0.50715725545E+02 -0.35930138593E+02  0.28461773937E+02  0.68360311969E+02  0.00000000000E+00 0.  1.
<mgrwt>
<rscale>  0 0.12659826E+04</rscale>
<asrwt>0</asrwt>
<pdfrwt beam="1">  1        2 0.84816419E-01 0.12659826E+04</pdfrwt>
<pdfrwt beam="2">  1       -2 0.11181211E+00 0.12659826E+04</pdfrwt>
<totfact> 0.34055704E+01</totfact>
</mgrwt>
</event>
<event>
12    1  0.1532786E-007  0.1355728E+04  0.7818608E-02  0.8986503E-01
          4   -1    0    0  501    0  0.00000000000E+00  0.00000000000E+00  0.87697696105E+03  0.87697696105E+03  0.00000000000E+00 0. -1.
         -4   -1    0    0    0  501 -0.00000000000E+00 -0.00000000000E+00 -0.52395874455E+03  0.52395874455E+03  0.00000000000E+00 0.  1.
         23    2    1    2    0    0  0.34409483618E+02  0.17373394347E+03 -0.23819923346E+03  0.30996856601E+03  0.89298048232E+02 0.  0.
        254    2    1    2    0    0 -0.34409483618E+02 -0.17373394347E+03  0.59121744996E+03  0.10909671396E+04  0.89961310065E+03 0.  0.
        -24    2    4    4    0    0  0.14621806651E+03 -0.10938916639E+03 -0.19369618615E+03  0.27907075734E+03  0.83764923302E+02 0.  0.
         24    2    4    4    0    0 -0.18062755013E+03 -0.64344777076E+02  0.78491363611E+03  0.81189638225E+03  0.79496900284E+02 0.  0.
         11    1    3    3    0    0  0.54164004851E+02  0.58346003836E+02 -0.11650090513E+03  0.14110441694E+03  0.00000000000E+00 0.  1.
        -11    1    3    3    0    0 -0.19754521233E+02  0.11538793963E+03 -0.12169832834E+03  0.16886414907E+03  0.00000000000E+00 0. -1.
          4    1    6    6  502    0 -0.13788218108E+03 -0.67332928011E+02  0.70189210640E+03  0.71846903071E+03  0.00000000000E+00 0. -1.
          3    1    5    5  503    0  0.97460927374E+02 -0.90115707269E+02 -0.18215303646E+03  0.22538678256E+03  0.00000000000E+00 0. -1.
         -4    1    5    5    0  503  0.48757139137E+02 -0.19273459122E+02 -0.11543149688E+02  0.53683974779E+02  0.00000000000E+00 0.  1.
         -3    1    6    6    0  502 -0.42745369051E+02  0.29881509345E+01  0.83021529706E+02  0.93427351542E+02  0.00000000000E+00 0.  1.
<mgrwt>
<rscale>  0 0.13557282E+04</rscale>
<asrwt>0</asrwt>
<pdfrwt beam="1">  1        4 0.13491953E+00 0.13557282E+04</pdfrwt>
<pdfrwt beam="2">  1       -4 0.80609038E-01 0.13557282E+04</pdfrwt>
<totfact> 0.10462633E+00</totfact>
</mgrwt>
</event>
<event>
12    1  0.1532786E-007  0.2197824E+04  0.7818608E-02  0.8519334E-01
         -2   -1    0    0    0  501 -0.00000000000E+00  0.00000000000E+00  0.13818073765E+04  0.13818073765E+04  0.00000000000E+00 0.  1.
          2   -1    0    0  501    0  0.00000000000E+00 -0.00000000000E+00 -0.87393323238E+03  0.87393323238E+03  0.00000000000E+00 0. -1.
         23    2    1    2    0    0  0.67618441711E+03 -0.54791591997E+03  0.54791171998E+03  0.10323454987E+04  0.89959738041E+02 0.  0.
        254    2    1    2    0    0 -0.67618441711E+03  0.54791591997E+03 -0.40037575812E+02  0.12233951102E+04  0.85886865525E+03 0.  0.
        -24    2    4    4    0    0 -0.17555789618E+01  0.48068311508E+03  0.15882503436E+03  0.51260184984E+03  0.80473136765E+02 0.  0.
         24    2    4    4    0    0 -0.67442883815E+03  0.67232804889E+02 -0.19886261017E+03  0.71079326040E+03  0.79411671177E+02 0.  0.
         11    1    3    3    0    0  0.58210112917E+03 -0.43925075015E+03  0.43110403772E+03  0.84713259731E+03  0.00000000000E+00 0.  1.
        -11    1    3    3    0    0  0.94083287946E+02 -0.10866516982E+03  0.11680768226E+03  0.18521290138E+03  0.00000000000E+00 0. -1.
          2    1    6    6  502    0 -0.11947653570E+03  0.34925769604E+02 -0.15486115562E+02  0.12543632544E+03  0.00000000000E+00 0. -1.
          1    1    5    5  503    0 -0.10572147437E+02  0.69940152332E+02  0.52902764637E+02  0.88329483843E+02  0.00000000000E+00 0. -1.
         -2    1    5    5    0  503  0.88165684756E+01  0.41074296275E+03  0.10592226972E+03  0.42427236600E+03  0.00000000000E+00 0.  1.
         -1    1    6    6    0  502 -0.55495230245E+03  0.32307035285E+02 -0.18337649461E+03  0.58535693495E+03  0.00000000000E+00 0.  1.
<mgrwt>
<rscale>  0 0.21978238E+04</rscale>
<asrwt>0</asrwt>
<pdfrwt beam="1">  1        2 0.13445127E+00 0.21978238E+04</pdfrwt>
<pdfrwt beam="2">  1       -2 0.21258575E+00 0.21978238E+04</pdfrwt>
<totfact> 0.30766906E+00</totfact>
</mgrwt>
</event>
<event>
12    1  0.1532786E-007  0.1402069E+04  0.7818608E-02  0.8952323E-01
         -1   -1    0    0    0  501 -0.00000000000E+00  0.00000000000E+00  0.66488953707E+03  0.66488953707E+03  0.00000000000E+00 0.  1.
          1   -1    0    0  501    0  0.00000000000E+00 -0.00000000000E+00 -0.73914387533E+03  0.73914387533E+03  0.00000000000E+00 0. -1.
         23    2    1    2    0    0 -0.14060539764E+03 -0.35496004461E+03  0.10997673426E+03  0.40745997426E+03  0.90345101870E+02 0.  0.
        254    2    1    2    0    0  0.14060539764E+03  0.35496004461E+03 -0.18423107252E+03  0.99657343814E+03  0.90191519468E+03 0.  0.
        -24    2    4    4    0    0  0.16273658740E+03  0.44390619097E+02  0.33687325248E+03  0.38424607184E+03  0.75549530427E+02 0.  0.
         24    2    4    4    0    0 -0.22131189760E+02  0.31056942551E+03 -0.52110432501E+03  0.61232736629E+03  0.80323896471E+02 0.  0.
         13    1    3    3    0    0 -0.11447473913E+03 -0.34460641646E+03  0.10977246366E+03  0.37935213449E+03  0.00000000000E+00 0.  1.
        -13    1    3    3    0    0 -0.26130658512E+02 -0.10353628148E+02  0.20427060036E+00  0.28107839771E+02  0.00000000000E+00 0. -1.
          2    1    6    6  502    0 -0.32776012988E+02  0.29999611542E+03 -0.46572797819E+03  0.55495448999E+03  0.00000000000E+00 0. -1.
          1    1    5    5  503    0  0.10807100555E+03  0.10205148082E+02  0.27164308300E+03  0.29252940336E+03  0.00000000000E+00 0. -1.
         -2    1    5    5    0  503  0.54665581846E+02  0.34185471015E+02  0.65230169482E+02  0.91716668484E+02  0.00000000000E+00 0.  1.
         -1    1    6    6    0  502  0.10644823227E+02  0.10573310093E+02 -0.55376346820E+02  0.57372876300E+02  0.00000000000E+00 0.  1.
<mgrwt>
<rscale>  0 0.14020685E+04</rscale>
<asrwt>0</asrwt>
<pdfrwt beam="1">  1        1 0.11371444E+00 0.14020685E+04</pdfrwt>
<pdfrwt beam="2">  1       -1 0.10229070E+00 0.14020685E+04</pdfrwt>
<totfact> 0.22107670E+01</totfact>
</mgrwt>
</event>
<event>
12    1  0.1532786E-007  0.3149921E+04  0.7818608E-02  0.8202170E-01
         -2   -1    0    0    0  501 -0.00000000000E+00  0.00000000000E+00  0.10523784927E+04  0.10523784927E+04  0.00000000000E+00 0.  1.
          2   -1    0    0  501    0  0.00000000000E+00 -0.00000000000E+00 -0.23570422907E+04  0.23570422907E+04  0.00000000000E+00 0. -1.
         23    2    1    2    0    0 -0.38702132390E+03 -0.30908528183E+03 -0.20736105394E+04  0.21338577237E+04  0.90381964385E+02 0.  0.
        254    2    1    2    0    0  0.38702132390E+03  0.30908528183E+03  0.76894674136E+03  0.12755630597E+04  0.88907975546E+03 0.  0.
        -24    2    4    4    0    0  0.26233497549E+02  0.53840073047E+03  0.25449157301E+03  0.60150195799E+03  0.80468017094E+02 0.  0.
         24    2    4    4    0    0  0.36078782636E+03 -0.22931544864E+03  0.51445516835E+03  0.67406110169E+03  0.83311571387E+02 0.  0.
         13    1    3    3    0    0 -0.32397850705E+03 -0.24358896462E+03 -0.18157359348E+04  0.18604286177E+04  0.00000000000E+00 0. -1.
        -13    1    3    3    0    0 -0.63042816853E+02 -0.65496317211E+02 -0.25787460464E+03  0.27342910606E+03  0.00000000000E+00 0.  1.
          2    1    6    6  502    0  0.24621282665E+02 -0.24916738845E+02  0.14609376270E+02  0.37953725901E+02  0.00000000000E+00 0. -1.
          1    1    5    5  503    0  0.94865804894E+01  0.41551045543E+02 -0.84984507574E+00  0.42628709009E+02  0.00000000000E+00 0. -1.
         -2    1    5    5    0  503  0.16746917059E+02  0.49684968493E+03  0.25534141809E+03  0.55887324899E+03  0.00000000000E+00 0.  1.
         -1    1    6    6    0  502  0.33616654369E+03 -0.20439870980E+03  0.49984579208E+03  0.63610737578E+03  0.00000000000E+00 0.  1.
<mgrwt>
<rscale>  0 0.31499210E+04</rscale>
<asrwt>0</asrwt>
<pdfrwt beam="1">  1        2 0.36262189E+00 0.31499210E+04</pdfrwt>
<pdfrwt beam="2">  1       -2 0.16190438E+00 0.31499210E+04</pdfrwt>
<totfact> 0.86744173E-01</totfact>
</mgrwt>
</event>
<event>
12    1  0.1532786E-007  0.1729484E+04  0.7818608E-02  0.8744725E-01
          2   -1    0    0  501    0  0.00000000000E+00  0.00000000000E+00  0.71333653682E+03  0.71333653682E+03  0.00000000000E+00 0. -1.
         -2   -1    0    0    0  501 -0.00000000000E+00 -0.00000000000E+00 -0.10482830261E+04  0.10482830261E+04  0.00000000000E+00 0.  1.
         23    2    1    2    0    0 -0.36640144871E+03 -0.31365444651E+03 -0.50940117643E+03  0.70748702000E+03  0.91756152258E+02 0.  0.
        254    2    1    2    0    0  0.36640144871E+03  0.31365444651E+03  0.17445468719E+03  0.10541325429E+04  0.92094074004E+03 0.  0.
        -24    2    4    4    0    0 -0.20178768046E+03 -0.17934880931E+03  0.10060754811E+02  0.27987124342E+03  0.73091933375E+02 0.  0.
         24    2    4    4    0    0  0.56818912917E+03  0.49300325582E+03  0.16439393238E+03  0.77426129947E+03  0.81019121778E+02 0.  0.
         11    1    3    3    0    0 -0.71755552236E+01 -0.31144884015E+02 -0.19133499192E+02  0.37250277642E+02  0.00000000000E+00 0. -1.
        -11    1    3    3    0    0 -0.35922589349E+03 -0.28250956250E+03 -0.49026767724E+03  0.67023674235E+03  0.00000000000E+00 0.  1.
          4    1    6    6  502    0  0.39300491429E+03  0.29203646262E+03  0.11804527163E+03  0.50365945272E+03  0.00000000000E+00 0. -1.
          1    1    5    5  503    0 -0.20128754509E+03 -0.15528419976E+03  0.17084886977E+02  0.25479747225E+03  0.00000000000E+00 0. -1.
         -2    1    5    5    0  503 -0.50013536826E+00 -0.24064609552E+02 -0.70241321659E+01  0.25073771176E+02  0.00000000000E+00 0.  1.
         -3    1    6    6    0  502  0.17518421488E+03  0.20096679319E+03  0.46348660748E+02  0.27060184674E+03  0.00000000000E+00 0.  1.
<mgrwt>
<rscale>  0 0.17294838E+04</rscale>
<asrwt>0</asrwt>
<pdfrwt beam="1">  1        2 0.10974408E+00 0.17294838E+04</pdfrwt>
<pdfrwt beam="2">  1       -2 0.16127431E+00 0.17294838E+04</pdfrwt>
<totfact> 0.93547552E+00</totfact>
</mgrwt>
</event>
<event>
12    1  0.1532786E-007  0.2137958E+04  0.7818608E-02  0.8544704E-01
         -1   -1    0    0    0  501 -0.00000000000E+00  0.00000000000E+00  0.45556776942E+03  0.45556776942E+03  0.00000000000E+00 0.  1.
          1   -1    0    0  501    0  0.00000000000E+00 -0.00000000000E+00 -0.25083338262E+04  0.25083338262E+04  0.00000000000E+00 0. -1.
         23    2    1    2    0    0 -0.75622860839E+03 -0.22806350730E+03 -0.13629968510E+04  0.15774267672E+04  0.81364111266E+02 0.  0.
        254    2    1    2    0    0  0.75622860839E+03  0.22806350730E+03 -0.68976920576E+03  0.13864748284E+04  0.90699295535E+03 0.  0.
        -24    2    4    4    0    0 -0.66115045377E+02  0.37705465569E+02  0.15492788190E+03  0.18989663602E+03  0.79152905336E+02 0.  0.
         24    2    4    4    0    0  0.82234365376E+03  0.19035804173E+03 -0.84469708767E+03  0.11965781924E+04  0.76163847089E+02 0.  0.
         13    1    3    3    0    0 -0.52812306184E+03 -0.12596773757E+03 -0.97289770230E+03  0.11141417228E+04  0.00000000000E+00 0. -1.
        -13    1    3    3    0    0 -0.22810554654E+03 -0.10209576972E+03 -0.39009914869E+03  0.46328504441E+03  0.00000000000E+00 0.  1.
          2    1    6    6  502    0  0.31295584835E+03  0.10024990229E+03 -0.29266793154E+03  0.44005218336E+03  0.00000000000E+00 0. -1.
          3    1    5    5  503    0 -0.35539663171E+02 -0.73199895829E+01  0.14119645177E+02  0.38936028120E+02  0.00000000000E+00 0. -1.
         -4    1    5    5    0  503 -0.30575382206E+02  0.45025455152E+02  0.14080823673E+03  0.15096060790E+03  0.00000000000E+00 0.  1.
         -1    1    6    6    0  502  0.50938780542E+03  0.90108139438E+02 -0.55202915612E+03  0.75652600901E+03  0.00000000000E+00 0.  1.
<mgrwt>
<rscale>  0 0.21379579E+04</rscale>
<asrwt>0</asrwt>
<pdfrwt beam="1">  1        1 0.38589751E+00 0.21379579E+04</pdfrwt>
<pdfrwt beam="2">  1       -1 0.70087350E-01 0.21379579E+04</pdfrwt>
<totfact> 0.25222100E+00</totfact>
</mgrwt>
</event>
<event>
12    1  0.1532786E-007  0.3209139E+04  0.7818608E-02  0.8186408E-01
          2   -1    0    0  501    0  0.00000000000E+00  0.00000000000E+00  0.32433961131E+04  0.32433961131E+04  0.00000000000E+00 0. -1.
         -2   -1    0    0    0  501 -0.00000000000E+00 -0.00000000000E+00 -0.79381108152E+03  0.79381108152E+03  0.00000000000E+00 0.  1.
         23    2    1    2    0    0  0.73338225119E+03  0.67808451326E+03  0.24989806088E+04  0.26927856896E+04  0.92425933737E+02 0.  0.
        254    2    1    2    0    0 -0.73338225119E+03 -0.67808451326E+03 -0.49395577200E+02  0.13444215051E+04  0.89854389252E+03 0.  0.
        -24    2    4    4    0    0 -0.39479195183E+03 -0.54182920186E+03  0.38121188558E+03  0.77440012137E+03  0.70238714760E+02 0.  0.
         24    2    4    4    0    0 -0.33859029936E+03 -0.13625531140E+03 -0.43060746278E+03  0.57002138371E+03  0.79326478381E+02 0.  0.
         13    1    3    3    0    0  0.33828307291E+03  0.34616883763E+03  0.11046653144E+04  0.12060488209E+04  0.00000000000E+00 0. -1.
        -13    1    3    3    0    0  0.39509917828E+03  0.33191567564E+03  0.13943152945E+04  0.14867368687E+04  0.00000000000E+00 0.  1.
          4    1    6    6  502    0 -0.31556805400E+03 -0.11574395340E+03 -0.41879970053E+03  0.53700376966E+03  0.00000000000E+00 0. -1.
          1    1    5    5  503    0 -0.30579007599E+03 -0.40686855886E+03  0.25484075133E+03  0.56920418419E+03  0.00000000000E+00 0. -1.
         -2    1    5    5    0  503 -0.89001875836E+02 -0.13496064300E+03  0.12637113426E+03  0.20519593718E+03  0.00000000000E+00 0.  1.
         -3    1    6    6    0  502 -0.23022245356E+02 -0.20511358003E+02 -0.11807762251E+02  0.33017614053E+02  0.00000000000E+00 0.  1.
<mgrwt>
<rscale>  0 0.32091393E+04</rscale>
<asrwt>0</asrwt>
<pdfrwt beam="1">  1        2 0.49898401E+00 0.32091393E+04</pdfrwt>
<pdfrwt beam="2">  1       -2 0.12212478E+00 0.32091393E+04</pdfrwt>
<totfact> 0.51886781E-01</totfact>
</mgrwt>
</event>
<event>
12    1  0.1532786E-007  0.1433274E+04  0.7818608E-02  0.8930079E-01
         -3   -1    0    0    0  501 -0.00000000000E+00  0.00000000000E+00  0.19830487712E+03  0.19830487712E+03  0.00000000000E+00 0.  1.
          3   -1    0    0  501    0  0.00000000000E+00 -0.00000000000E+00 -0.25897938378E+04  0.25897938378E+04  0.00000000000E+00 0. -1.
         23    2    1    2    0    0 -0.35443163045E+03 -0.24994720542E+03 -0.95825134063E+03  0.10557894472E+04  0.91380188462E+02 0.  0.
        254    2    1    2    0    0  0.35443163045E+03  0.24994720542E+03 -0.14332376200E+04  0.17323092677E+04  0.87099364940E+03 0.  0.
        -24    2    4    4    0    0 -0.18222835941E+03 -0.32667376235E+02 -0.31891469128E+02  0.20318417007E+03  0.77410649925E+02 0.  0.
         24    2    4    4    0    0  0.53665998985E+03  0.28261458166E+03 -0.14013461509E+04  0.15291250976E+04  0.81102299886E+02 0.  0.
         13    1    3    3    0    0 -0.11464078292E+03 -0.58658036378E+02 -0.37983091074E+03  0.40106707056E+03  0.00000000000E+00 0. -1.
        -13    1    3    3    0    0 -0.23979084753E+03 -0.19128916904E+03 -0.57842042990E+03  0.65472237664E+03  0.00000000000E+00 0.  1.
          4    1    6    6  502    0  0.11079657894E+03  0.55634562354E+02 -0.37556094608E+03  0.39549603114E+03  0.00000000000E+00 0. -1.
          1    1    5    5  503    0 -0.17211913640E+03 -0.46980730308E+02 -0.15330335671E+02  0.17907318427E+03  0.00000000000E+00 0. -1.
         -2    1    5    5    0  503 -0.10109223009E+02  0.14313354073E+02 -0.16561133457E+02  0.24110985796E+02  0.00000000000E+00 0.  1.
         -3    1    6    6    0  502  0.42586341091E+03  0.22698001930E+03 -0.10257852048E+04  0.11336290665E+04  0.00000000000E+00 0.  1.
<mgrwt>
<rscale>  0 0.14332742E+04</rscale>
<asrwt>0</asrwt>
<pdfrwt beam="1">  1        3 0.39842983E+00 0.14332742E+04</pdfrwt>
<pdfrwt beam="2">  1       -3 0.30508442E-01 0.14332742E+04</pdfrwt>
<totfact> 0.30674547E-01</totfact>
</mgrwt>
</event>
<event>
12    1  0.1532786E-007  0.1299283E+04  0.7818608E-02  0.9030134E-01
         -1   -1    0    0    0  501 -0.00000000000E+00  0.00000000000E+00  0.54705678696E+03  0.54705678696E+03  0.00000000000E+00 0.  1.
          1   -1    0    0  501    0  0.00000000000E+00 -0.00000000000E+00 -0.77146333415E+03  0.77146333415E+03  0.00000000000E+00 0. -1.
         23    2    1    2    0    0  0.40042358499E+02 -0.31896531162E+03 -0.10031274491E+03  0.35155614991E+03  0.10092977387E+03 0.  0.
        254    2    1    2    0    0 -0.40042358499E+02  0.31896531162E+03 -0.12409380228E+03  0.96696397119E+03  0.90348092914E+03 0.  0.
        -24    2    4    4    0    0  0.40776705315E+03  0.10729622769E+03  0.58099645777E+02  0.43324162333E+03  0.80847295796E+02 0.  0.
         24    2    4    4    0    0 -0.44780941165E+03  0.21166908393E+03 -0.18219344806E+03  0.53372234786E+03  0.79548864452E+02 0.  0.
         11    1    3    3    0    0 -0.13757999446E+01 -0.24287022976E+03 -0.10542580780E+03  0.26476865804E+03  0.00000000000E+00 0.  1.
        -11    1    3    3    0    0  0.41418158443E+02 -0.76095081866E+02  0.51130628932E+01  0.86787491870E+02  0.00000000000E+00 0. -1.
          4    1    6    6  502    0 -0.34418340612E+02  0.31421494721E+02  0.18381177670E+01  0.46640231323E+02  0.00000000000E+00 0. -1.
          3    1    5    5  503    0  0.48462686482E+02  0.33691533943E+02  0.27752381559E+02  0.65222282410E+02  0.00000000000E+00 0. -1.
         -4    1    5    5    0  503  0.35930436667E+03  0.73604693751E+02  0.30347264218E+02  0.36801934092E+03  0.00000000000E+00 0.  1.
         -3    1    6    6    0  502 -0.41339107104E+03  0.18024758921E+03 -0.18403156582E+03  0.48708211654E+03  0.00000000000E+00 0.  1.
<mgrwt>
<rscale>  0 0.12992833E+04</rscale>
<asrwt>0</asrwt>
<pdfrwt beam="1">  1        1 0.11868667E+00 0.12992833E+04</pdfrwt>
<pdfrwt beam="2">  1       -1 0.84162582E-01 0.12992833E+04</pdfrwt>
<totfact> 0.32216357E+01</totfact>
</mgrwt>
</event>
<event>
12    1  0.1532786E-007  0.2146082E+04  0.7818608E-02  0.8541211E-01
         -2   -1    0    0    0  501 -0.00000000000E+00  0.00000000000E+00  0.12333098841E+04  0.12333098841E+04  0.00000000000E+00 0. -1.
          2   -1    0    0  501    0  0.00000000000E+00 -0.00000000000E+00 -0.93359892906E+03  0.93359892906E+03  0.00000000000E+00 0.  1.
         23    2    1    2    0    0 -0.43584513450E+03  0.29907526454E+03  0.83586162409E+03  0.99337531854E+03  0.93396326106E+02 0.  0.
        254    2    1    2    0    0  0.43584513450E+03 -0.29907526454E+03 -0.53615066906E+03  0.11735334946E+04  0.90017572057E+03 0.  0.
        -24    2    4    4    0    0 -0.12890002833E+03  0.17612512326E+03  0.35051905962E+02  0.23652887385E+03  0.84154594093E+02 0.  0.
         24    2    4    4    0    0  0.56474516282E+03 -0.47520038780E+03 -0.57120257503E+03  0.93700462075E+03  0.83383272300E+02 0.  0.
         11    1    3    3    0    0 -0.41748111204E+03  0.27409235152E+03  0.74110101754E+03  0.89367097652E+03  0.00000000000E+00 0. -1.
        -11    1    3    3    0    0 -0.18364022455E+02  0.24982913018E+02  0.94760606552E+02  0.99704342020E+02  0.00000000000E+00 0.  1.
          4    1    6    6  502    0  0.10500420683E+03 -0.76408817421E+02 -0.14109583268E+03  0.19176085323E+03  0.00000000000E+00 0. -1.
          1    1    5    5  503    0 -0.36470884814E+02  0.13169402341E+02 -0.16623431480E+02  0.42188826380E+02  0.00000000000E+00 0. -1.
         -2    1    5    5    0  503 -0.92429143516E+02  0.16295572092E+03  0.51675337442E+02  0.19434004747E+03  0.00000000000E+00 0.  1.
         -3    1    6    6    0  502  0.45974095599E+03 -0.39879157038E+03 -0.43010674235E+03  0.74524376753E+03  0.00000000000E+00 0.  1.
<mgrwt>
<rscale>  0 0.21460818E+04</rscale>
<asrwt>0</asrwt>
<pdfrwt beam="1">  1        2 0.14363060E+00 0.21460818E+04</pdfrwt>
<pdfrwt beam="2">  1       -2 0.18973998E+00 0.21460818E+04</pdfrwt>
<totfact> 0.39761238E+00</totfact>
</mgrwt>
</event>
<event>
12    1  0.1532786E-007  0.2246943E+04  0.7818608E-02  0.8499139E-01
          2   -1    0    0  501    0  0.00000000000E+00  0.00000000000E+00  0.14852762040E+04  0.14852762040E+04  0.00000000000E+00 0. -1.
         -2   -1    0    0    0  501 -0.00000000000E+00 -0.00000000000E+00 -0.84980055812E+03  0.84980055812E+03  0.00000000000E+00 0.  1.
         23    2    1    2    0    0  0.14398376997E+03 -0.56225183385E+03  0.10358249614E+04  0.11907044646E+04  0.89360621183E+02 0.  0.
        254    2    1    2    0    0 -0.14398376997E+03  0.56225183385E+03 -0.40034931548E+03  0.11443722976E+04  0.90136004481E+03 0.  0.
        -24    2    4    4    0    0  0.13213465202E+02  0.16031368743E+03  0.28125164004E+03  0.33369209043E+03  0.79830145609E+02 0.  0.
         24    2    4    4    0    0 -0.15719723517E+03  0.40193814642E+03 -0.68160095552E+03  0.81068020715E+03  0.79732624485E+02 0.  0.
         13    1    3    3    0    0  0.66024024038E+02 -0.11012058417E+03  0.22122430649E+03  0.25578488733E+03  0.00000000000E+00 0. -1.
        -13    1    3    3    0    0  0.77959745929E+02 -0.45213124968E+03  0.81460065490E+03  0.93491957723E+03  0.00000000000E+00 0.  1.
          4    1    6    6  502    0 -0.39847611709E+02  0.49005563481E+02 -0.65308402388E+02  0.90854635729E+02  0.00000000000E+00 0. -1.
          3    1    5    5  503    0  0.11131834973E+02  0.66032963501E+02  0.19393997866E+03  0.20517549888E+03  0.00000000000E+00 0. -1.
         -4    1    5    5    0  503  0.20816302290E+01  0.94280723932E+02  0.87311661377E+02  0.12851659154E+03  0.00000000000E+00 0.  1.
         -3    1    6    6    0  502 -0.11734962346E+03  0.35293258294E+03 -0.61629255313E+03  0.71982557142E+03  0.00000000000E+00 0.  1.
<mgrwt>
<rscale>  0 0.22469433E+04</rscale>
<asrwt>0</asrwt>
<pdfrwt beam="1">  1        2 0.22850403E+00 0.22469433E+04</pdfrwt>
<pdfrwt beam="2">  1       -2 0.13073855E+00 0.22469433E+04</pdfrwt>
<totfact> 0.50448766E+00</totfact>
</mgrwt>
</event>
<event>
12    1  0.1532786E-007  0.2014384E+04  0.7818608E-02  0.8599925E-01
          1   -1    0    0  501    0  0.00000000000E+00  0.00000000000E+00  0.33972778272E+04  0.33972778272E+04  0.00000000000E+00 0. -1.
         -1   -1    0    0    0  501 -0.00000000000E+00 -0.00000000000E+00 -0.29860258478E+03  0.29860258478E+03  0.00000000000E+00 0.  1.
         23    2    1    2    0    0  0.82316587861E+01 -0.43513363195E+03  0.11151004138E+02  0.44480355395E+03  0.91196594545E+02 0.  0.
        254    2    1    2    0    0 -0.82316587861E+01  0.43513363195E+03  0.30875242383E+04  0.32510768580E+04  0.92048127462E+03 0.  0.
        -24    2    4    4    0    0 -0.33734508662E+03  0.13473321569E+02  0.50782616120E+03  0.61522155952E+03  0.81405893172E+02 0.  0.
         24    2    4    4    0    0  0.32911342783E+03  0.42166031038E+03  0.25796980771E+04  0.26358552985E+04  0.82328124028E+02 0.  0.
         11    1    3    3    0    0  0.13832953619E+02 -0.15439649585E+02 -0.12844651625E+02  0.24386850156E+02  0.00000000000E+00 0. -1.
        -11    1    3    3    0    0 -0.56012948333E+01 -0.41969398237E+03  0.23995655763E+02  0.42041670380E+03  0.00000000000E+00 0.  1.
          4    1    6    6  502    0  0.25628062217E+03  0.36697237821E+03  0.22310447638E+04  0.22755019714E+04  0.00000000000E+00 0. -1.
          1    1    5    5  503    0 -0.18666191810E+03 -0.89086763846E+01  0.21294019776E+03  0.28331177879E+03  0.00000000000E+00 0. -1.
         -2    1    5    5    0  503 -0.15068316852E+03  0.22381997954E+02  0.29488596344E+03  0.33190978073E+03  0.00000000000E+00 0.  1.
         -3    1    6    6    0  502  0.72832805665E+02  0.54687932170E+02  0.34865331331E+03  0.36035332715E+03  0.00000000000E+00 0.  1.
<mgrwt>
<rscale>  0 0.20143842E+04</rscale>
<asrwt>0</asrwt>
<pdfrwt beam="1">  1        1 0.52265810E+00 0.20143842E+04</pdfrwt>
<pdfrwt beam="2">  1       -1 0.45938861E-01 0.20143842E+04</pdfrwt>
<totfact> 0.13172826E+00</totfact>
</mgrwt>
</event>
<event>
12    1  0.1532786E-007  0.1163811E+04  0.7818608E-02  0.9145136E-01
         -1   -1    0    0    0  501 -0.00000000000E+00  0.00000000000E+00  0.13888196002E+03  0.13888196002E+03  0.00000000000E+00 0.  1.
          1   -1    0    0  501    0  0.00000000000E+00 -0.00000000000E+00 -0.24381429764E+04  0.24381429764E+04  0.00000000000E+00 0. -1.
         23    2    1    2    0    0 -0.61498213295E+02  0.17242187590E+03 -0.22265828397E+03  0.30120868967E+03  0.87399255042E+02 0.  0.
        254    2    1    2    0    0  0.61498213295E+02 -0.17242187590E+03 -0.20766027324E+04  0.22758162467E+04  0.91298923718E+03 0.  0.
        -24    2    4    4    0    0 -0.24089927104E+03  0.27559379958E+03 -0.10115742754E+04  0.10789125773E+04  0.82373742660E+02 0.  0.
         24    2    4    4    0    0  0.30239748433E+03 -0.44801567548E+03 -0.10650284569E+04  0.11969036695E+04  0.78297483319E+02 0.  0.
         11    1    3    3    0    0  0.11742324526E+02 -0.31524900513E+01 -0.18662832284E+02  0.22273789253E+02  0.00000000000E+00 0. -1.
        -11    1    3    3    0    0 -0.73240537821E+02  0.17557436595E+03 -0.20399545169E+03  0.27893490041E+03  0.00000000000E+00 0.  1.
          2    1    6    6  502    0  0.74742864893E+02 -0.62571144548E+02 -0.21994371497E+03  0.24057614541E+03  0.00000000000E+00 0. -1.
          1    1    5    5  503    0 -0.22707315383E+02  0.17054271217E+02 -0.16178344843E+03  0.16425697709E+03  0.00000000000E+00 0. -1.
         -2    1    5    5    0  503 -0.21819195565E+03  0.25853952836E+03 -0.84979082702E+03  0.91465560017E+03  0.00000000000E+00 0.  1.
         -1    1    6    6    0  502  0.22765461944E+03 -0.38544453093E+03 -0.84508474196E+03  0.95632752405E+03  0.00000000000E+00 0.  1.
<mgrwt>
<rscale>  0 0.11638111E+04</rscale>
<asrwt>0</asrwt>
<pdfrwt beam="1">  1        1 0.37509888E+00 0.11638111E+04</pdfrwt>
<pdfrwt beam="2">  1       -1 0.21366457E-01 0.11638111E+04</pdfrwt>
<totfact> 0.27328347E+01</totfact>
</mgrwt>
</event>
<event>
12    1  0.1532786E-007  0.2604213E+04  0.7818608E-02  0.8366771E-01
         -2   -1    0    0    0  501 -0.00000000000E+00  0.00000000000E+00  0.77296552091E+03  0.77296552091E+03  0.00000000000E+00 0.  1.
          2   -1    0    0  501    0  0.00000000000E+00 -0.00000000000E+00 -0.21934763397E+04  0.21934763397E+04  0.00000000000E+00 0. -1.
         23    2    1    2    0    0 -0.53013865280E+03 -0.51731701311E+03 -0.16179405267E+04  0.17819760954E+04  0.95096652407E+02 0.  0.
        254    2    1    2    0    0  0.53013865280E+03  0.51731701311E+03  0.19742970794E+03  0.11844657652E+04  0.90294893330E+03 0.  0.
        -24    2    4    4    0    0 -0.72136429023E+02  0.11752387956E+03  0.39942759666E+03  0.42985467406E+03  0.78848647305E+02 0.  0.
         24    2    4    4    0    0  0.60227508183E+03  0.39979313354E+03 -0.20199788872E+03  0.75461109115E+03  0.77877647779E+02 0.  0.
         11    1    3    3    0    0 -0.49103411667E+03 -0.48820908676E+03 -0.15563011313E+04  0.17033895114E+04  0.00000000000E+00 0. -1.
        -11    1    3    3    0    0 -0.39104536130E+02 -0.29107926346E+02 -0.61639395440E+02  0.78586584048E+02  0.00000000000E+00 0.  1.
          4    1    6    6  502    0  0.18114630986E+03  0.16056006230E+03 -0.82702782230E+02  0.25579927555E+03  0.00000000000E+00 0. -1.
          3    1    5    5  503    0 -0.33930916132E+02  0.11558575074E+03  0.31042694444E+03  0.33298087134E+03  0.00000000000E+00 0. -1.
         -4    1    5    5    0  503 -0.38205512891E+02  0.19381288199E+01  0.89000652220E+02  0.96873802724E+02  0.00000000000E+00 0.  1.
         -1    1    6    6    0  502  0.42112877196E+03  0.23923307124E+03 -0.11929510649E+03  0.49881181560E+03  0.00000000000E+00 0.  1.
<mgrwt>
<rscale>  0 0.26042132E+04</rscale>
<asrwt>0</asrwt>
<pdfrwt beam="1">  1        2 0.33745790E+00 0.26042132E+04</pdfrwt>
<pdfrwt beam="2">  1       -2 0.11891777E+00 0.26042132E+04</pdfrwt>
<totfact> 0.25006615E+00</totfact>
</mgrwt>
</event>
<event>
12    1  0.1532786E-007  0.1233192E+04  0.7818608E-02  0.9084289E-01
          2   -1    0    0  501    0  0.00000000000E+00  0.00000000000E+00  0.63715225842E+03  0.63715225842E+03  0.00000000000E+00 0. -1.
         -2   -1    0    0    0  501 -0.00000000000E+00 -0.00000000000E+00 -0.59670320488E+03  0.59670320488E+03  0.00000000000E+00 0.  1.
         23    2    1    2    0    0 -0.31769863908E+02  0.23345041635E+03 -0.13864171378E+03  0.28872571640E+03  0.92911750401E+02 0.  0.
        254    2    1    2    0    0  0.31769863908E+02 -0.23345041635E+03  0.17909076732E+03  0.94512974691E+03  0.89760142291E+03 0.  0.
        -24    2    4    4    0    0 -0.21550194052E+03 -0.32126778135E+03  0.42263976167E+03  0.57808399532E+03  0.76828795361E+02 0.  0.
         24    2    4    4    0    0  0.24727180443E+03  0.87817365006E+02 -0.24354899435E+03  0.36704575159E+03  0.80939707529E+02 0.  0.
         13    1    3    3    0    0 -0.44701547093E+02  0.23370029918E+03 -0.13940754857E+03  0.27576896625E+03  0.00000000000E+00 0.  1.
        -13    1    3    3    0    0  0.12931683185E+02 -0.24988283137E+00  0.76583478719E+00  0.12956750146E+02  0.00000000000E+00 0. -1.
          2    1    6    6  502    0  0.17832597891E+03  0.56891310357E+02 -0.21787503499E+03  0.28723911088E+03  0.00000000000E+00 0. -1.
          1    1    5    5  503    0 -0.21084448887E+03 -0.32547527437E+03  0.41856052781E+03  0.57059834223E+03  0.00000000000E+00 0. -1.
         -4    1    5    5    0  503 -0.46574516513E+01  0.42074930133E+01  0.40792338552E+01  0.74856530902E+01  0.00000000000E+00 0.  1.
         -1    1    6    6    0  502  0.68945825521E+02  0.30926054649E+02 -0.25673959354E+02  0.79806640713E+02  0.00000000000E+00 0.  1.
<mgrwt>
<rscale>  0 0.12331923E+04</rscale>
<asrwt>0</asrwt>
<pdfrwt beam="1">  1        2 0.98023425E-01 0.12331923E+04</pdfrwt>
<pdfrwt beam="2">  1       -2 0.91800493E-01 0.12331923E+04</pdfrwt>
<totfact> 0.45822547E+01</totfact>
</mgrwt>
</event>
<event>
12    1  0.1532786E-007  0.1724132E+04  0.7818608E-02  0.8747720E-01
          1   -1    0    0  501    0  0.00000000000E+00  0.00000000000E+00  0.18921978443E+04  0.18921978443E+04  0.00000000000E+00 0. -1.
         -1   -1    0    0    0  501 -0.00000000000E+00 -0.00000000000E+00 -0.39274828736E+03  0.39274828736E+03  0.00000000000E+00 0.  1.
         23    2    1    2    0    0  0.39772905539E+03  0.38158518542E+02  0.87826340591E+01  0.41001088672E+03  0.91582304699E+02 0.  0.
        254    2    1    2    0    0 -0.39772905539E+03 -0.38158518542E+02  0.14906669228E+04  0.18749352449E+04  0.10647299299E+04 0.  0.
        -24    2    4    4    0    0 -0.63803036904E+03 -0.28679186743E+03  0.12813122108E+04  0.14619454454E+04  0.78684031493E+02 0.  0.
         24    2    4    4    0    0  0.24030131365E+03  0.24863334889E+03  0.20935471203E+03  0.41298979947E+03  0.84663542884E+02 0.  0.
         11    1    3    3    0    0  0.72586499637E+02 -0.19285180499E+02 -0.22373123032E+02  0.78366285804E+02  0.00000000000E+00 0. -1.
        -11    1    3    3    0    0  0.32514255575E+03  0.57443699041E+02  0.31155757091E+02  0.33164460092E+03  0.00000000000E+00 0.  1.
          4    1    6    6  502    0 -0.10052958965E+01  0.24097448851E+01  0.18993558824E+02  0.19172187331E+02  0.00000000000E+00 0. -1.
          1    1    5    5  503    0 -0.21586170959E+03 -0.63245791405E+02  0.36965597689E+03  0.43271451218E+03  0.00000000000E+00 0. -1.
         -2    1    5    5    0  503 -0.42216865944E+03 -0.22354607602E+03  0.91165623390E+03  0.10292309332E+04  0.00000000000E+00 0.  1.
         -1    1    6    6    0  502  0.24130660955E+03  0.24622360400E+03  0.19036115321E+03  0.39381761214E+03  0.00000000000E+00 0.  1.
<mgrwt>
<rscale>  0 0.17241316E+04</rscale>
<asrwt>0</asrwt>
<pdfrwt beam="1">  1        1 0.29110736E+00 0.17241316E+04</pdfrwt>
<pdfrwt beam="2">  1       -1 0.60422815E-01 0.17241316E+04</pdfrwt>
<totfact> 0.93040745E+00</totfact>
</mgrwt>
</event>
<event>
12    1  0.1532786E-007  0.2911762E+04  0.7818608E-02  0.8269386E-01
         -2   -1    0    0    0  501 -0.00000000000E+00  0.00000000000E+00  0.20671397341E+04  0.20671397341E+04  0.00000000000E+00 0.  1.
          2   -1    0    0  501    0  0.00000000000E+00 -0.00000000000E+00 -0.10253733354E+04  0.10253733354E+04  0.00000000000E+00 0. -1.
         23    2    1    2    0    0  0.67802562037E+03  0.91063407723E+03  0.12220421248E+04  0.16705436466E+04  0.91410917612E+02 0.  0.
        254    2    1    2    0    0 -0.67802562037E+03 -0.91063407723E+03 -0.18027572607E+03  0.14219694229E+04  0.83697343916E+03 0.  0.
        -24    2    4    4    0    0 -0.23375446155E+03 -0.64065671433E+03 -0.46016144489E+03  0.82664684426E+03  0.80711063977E+02 0.  0.
         24    2    4    4    0    0 -0.44427115882E+03 -0.26997736289E+03  0.27988571882E+03  0.59532257867E+03  0.76212322115E+02 0.  0.
         11    1    3    3    0    0  0.16830506587E+03  0.18843054436E+03  0.22806680346E+03  0.34036323550E+03  0.00000000000E+00 0. -1.
        -11    1    3    3    0    0  0.50972055450E+03  0.72220353287E+03  0.99397532135E+03  0.13301804111E+04  0.00000000000E+00 0.  1.
          2    1    6    6  502    0 -0.25975717800E+03 -0.20059412142E+03  0.16911739616E+03  0.36920520955E+03  0.00000000000E+00 0. -1.
          3    1    5    5  503    0 -0.10988351838E+03 -0.33257710517E+03 -0.18934385329E+03  0.39816204399E+03  0.00000000000E+00 0. -1.
         -4    1    5    5    0  503 -0.12387094317E+03 -0.30807960917E+03 -0.27081759160E+03  0.42848480027E+03  0.00000000000E+00 0.  1.
         -1    1    6    6    0  502 -0.18451398082E+03 -0.69383241469E+02  0.11076832266E+03  0.22611736912E+03  0.00000000000E+00 0.  1.
<mgrwt>
<rscale>  0 0.29117623E+04</rscale>
<asrwt>0</asrwt>
<pdfrwt beam="1">  1        2 0.15774975E+00 0.29117623E+04</pdfrwt>
<pdfrwt beam="2">  1       -2 0.31802150E+00 0.29117623E+04</pdfrwt>
<totfact> 0.51519618E-01</totfact>
</mgrwt>
</event>
<event>
12    1  0.1532786E-007  0.1225048E+04  0.7818608E-02  0.9091210E-01
         -2   -1    0    0    0  501 -0.00000000000E+00  0.00000000000E+00  0.17458467016E+03  0.17458467016E+03  0.00000000000E+00 0.  1.
          2   -1    0    0  501    0  0.00000000000E+00 -0.00000000000E+00 -0.21490182321E+04  0.21490182321E+04  0.00000000000E+00 0. -1.
         23    2    1    2    0    0 -0.18285905066E+03  0.13704300892E+02 -0.82479935619E+03  0.84980523413E+03  0.90827956728E+02 0.  0.
        254    2    1    2    0    0  0.18285905066E+03 -0.13704300892E+02 -0.11496342058E+04  0.14737976681E+04  0.90376740330E+03 0.  0.
        -24    2    4    4    0    0  0.19965227166E+03 -0.42870451620E+03 -0.76199152414E+03  0.90036998565E+03  0.79915182569E+02 0.  0.
         24    2    4    4    0    0 -0.16793221003E+02  0.41500021531E+03 -0.38764268163E+03  0.57342768249E+03  0.77751317971E+02 0.  0.
         13    1    3    3    0    0 -0.11113425393E+03 -0.20791722869E+02 -0.61724122351E+03  0.62751083349E+03  0.00000000000E+00 0. -1.
        -13    1    3    3    0    0 -0.71724796723E+02  0.34496023761E+02 -0.20755813267E+03  0.22229440065E+03  0.00000000000E+00 0.  1.
          2    1    6    6  502    0 -0.47226177862E+02  0.24097881038E+03 -0.23656837847E+03  0.34097756029E+03  0.00000000000E+00 0. -1.
          1    1    5    5  503    0  0.16600110406E+03 -0.36647784811E+03 -0.58719599091E+03  0.71180159557E+03  0.00000000000E+00 0. -1.
         -2    1    5    5    0  503  0.33651167602E+02 -0.62226668090E+02 -0.17479553323E+03  0.18856839008E+03  0.00000000000E+00 0.  1.
         -1    1    6    6    0  502  0.30432956859E+02  0.17402140493E+03 -0.15107430316E+03  0.23245012220E+03  0.00000000000E+00 0.  1.
<mgrwt>
<rscale>  0 0.12250480E+04</rscale>
<asrwt>0</asrwt>
<pdfrwt beam="1">  1        2 0.33061816E+00 0.12250480E+04</pdfrwt>
<pdfrwt beam="2">  1       -2 0.26859183E-01 0.12250480E+04</pdfrwt>
<totfact> 0.68544740E+01</totfact>
</mgrwt>
</event>
<event>
12    1  0.1532786E-007  0.2685050E+04  0.7818608E-02  0.8339872E-01
         -1   -1    0    0    0  501 -0.00000000000E+00  0.00000000000E+00  0.11004210745E+04  0.11004210745E+04  0.00000000000E+00 0.  1.
          1   -1    0    0  501    0  0.00000000000E+00 -0.00000000000E+00 -0.16378940165E+04  0.16378940165E+04  0.00000000000E+00 0. -1.
         23    2    1    2    0    0 -0.44480708034E+03 -0.10871918656E+04 -0.42895717521E+03  0.12538903761E+04  0.91636923710E+02 0.  0.
        254    2    1    2    0    0  0.44480708034E+03  0.10871918656E+04 -0.10851576677E+03  0.14844247150E+04  0.90105580931E+03 0.  0.
        -24    2    4    4    0    0  0.36310905387E+02  0.24203898517E+03  0.35079000041E+03  0.43641160407E+03  0.86603184618E+02 0.  0.
         24    2    4    4    0    0  0.40849617496E+03  0.84515288041E+03 -0.45930576718E+03  0.10480131109E+04  0.78849075134E+02 0.  0.
         11    1    3    3    0    0 -0.13324543412E+03 -0.43971251839E+03 -0.15507157542E+03  0.48492126994E+03  0.00000000000E+00 0.  1.
        -11    1    3    3    0    0 -0.31156164623E+03 -0.64747934719E+03 -0.27388559980E+03  0.76896910615E+03  0.00000000000E+00 0. -1.
          4    1    6    6  502    0  0.33286751182E+03  0.73449247197E+03 -0.41446724905E+03  0.90667693935E+03  0.00000000000E+00 0. -1.
          3    1    5    5  503    0  0.45170808353E+02  0.75432229998E+02  0.16308037044E+03  0.18527177463E+03  0.00000000000E+00 0. -1.
         -4    1    5    5    0  503 -0.88599029661E+01  0.16660675517E+03  0.18770962997E+03  0.25113982944E+03  0.00000000000E+00 0.  1.
         -3    1    6    6    0  502  0.75628663135E+02  0.11066040844E+03 -0.44838518135E+02  0.14133617156E+03  0.00000000000E+00 0.  1.
<mgrwt>
<rscale>  0 0.26850498E+04</rscale>
<asrwt>0</asrwt>
<pdfrwt beam="1">  1        1 0.25198369E+00 0.26850498E+04</pdfrwt>
<pdfrwt beam="2">  1       -1 0.16929555E+00 0.26850498E+04</pdfrwt>
<totfact> 0.11442858E+00</totfact>
</mgrwt>
</event>
<event>
12    1  0.1532786E-007  0.2066256E+04  0.7818608E-02  0.8576255E-01
         -1   -1    0    0    0  501 -0.00000000000E+00  0.00000000000E+00  0.55224808846E+03  0.55224808846E+03  0.00000000000E+00 0.  1.
          1   -1    0    0  501    0  0.00000000000E+00 -0.00000000000E+00 -0.19327428372E+04  0.19327428372E+04  0.00000000000E+00 0. -1.
         23    2    1    2    0    0 -0.68154817782E+03 -0.37504469024E+03 -0.93494101828E+03  0.12196158512E+04  0.90452630547E+02 0.  0.
        254    2    1    2    0    0  0.68154817782E+03  0.37504469024E+03 -0.44555373044E+03  0.12653750745E+04  0.89302268393E+03 0.  0.
        -24    2    4    4    0    0  0.80923921612E+03  0.51581818458E+03 -0.44038730251E+03  0.10589501629E+04  0.80609943038E+02 0.  0.
         24    2    4    4    0    0 -0.12769103830E+03 -0.14077349434E+03 -0.51664279250E+01  0.20642491153E+03  0.80388893220E+02 0.  0.
         11    1    3    3    0    0 -0.46803785417E+03 -0.26756016116E+03 -0.70904480471E+03  0.89072577590E+03  0.00000000000E+00 0.  1.
        -11    1    3    3    0    0 -0.21351032365E+03 -0.10748452907E+03 -0.22589621357E+03  0.32889007525E+03  0.00000000000E+00 0. -1.
          2    1    6    6  502    0 -0.93636457094E+02 -0.67945444748E+02  0.28682095174E+02  0.11919325544E+03  0.00000000000E+00 0. -1.
          3    1    5    5  503    0  0.74371560022E+03  0.49682723497E+03 -0.40103427697E+03  0.98019318847E+03  0.00000000000E+00 0. -1.
         -4    1    5    5    0  503  0.65523615902E+02  0.18990949613E+02 -0.39353025539E+02  0.78756974467E+02  0.00000000000E+00 0.  1.
         -1    1    6    6    0  502 -0.34054581207E+02 -0.72828049593E+02 -0.33848523099E+02  0.87231656093E+02  0.00000000000E+00 0.  1.
<mgrwt>
<rscale>  0 0.20662561E+04</rscale>
<asrwt>0</asrwt>
<pdfrwt beam="1">  1        1 0.29734505E+00 0.20662561E+04</pdfrwt>
<pdfrwt beam="2">  1       -1 0.84961244E-01 0.20662561E+04</pdfrwt>
<totfact> 0.41838829E+00</totfact>
</mgrwt>
</event>
<event>
12    1  0.1532786E-007  0.1761967E+04  0.7818608E-02  0.8726791E-01
         -1   -1    0    0    0  501 -0.00000000000E+00  0.00000000000E+00  0.29899524464E+03  0.29899524464E+03  0.00000000000E+00 0.  1.
          1   -1    0    0  501    0  0.00000000000E+00 -0.00000000000E+00 -0.25957988637E+04  0.25957988637E+04  0.00000000000E+00 0. -1.
         23    2    1    2    0    0 -0.11715070919E+03  0.24449729621E+03  0.11290262370E+03  0.30785435956E+03  0.92325986279E+02 0.  0.
        254    2    1    2    0    0  0.11715070919E+03 -0.24449729621E+03 -0.24097062427E+04  0.25869397487E+04  0.90114919458E+03 0.  0.
        -24    2    4    4    0    0  0.95427983970E+02 -0.57411855080E+03 -0.13089139083E+04  0.14347267885E+04  0.80415968801E+02 0.  0.
         24    2    4    4    0    0  0.21722725224E+02  0.32962125459E+03 -0.11007923345E+04  0.11522129602E+04  0.82029834630E+02 0.  0.
         13    1    3    3    0    0  0.73879106466E+00 -0.70121347363E+01 -0.18919025639E+01  0.73003521222E+01  0.00000000000E+00 0. -1.
        -13    1    3    3    0    0 -0.11788950026E+03  0.25150943095E+03  0.11479452626E+03  0.30055400744E+03  0.00000000000E+00 0.  1.
          4    1    6    6  502    0  0.15038999058E+01  0.18412044738E+03 -0.47568917147E+03  0.51008115894E+03  0.00000000000E+00 0. -1.
          1    1    5    5  503    0  0.46927563499E+02 -0.19583274465E+03 -0.54236974369E+03  0.57854783636E+03  0.00000000000E+00 0. -1.
         -2    1    5    5    0  503  0.48500420471E+02 -0.37828580615E+03 -0.76654416457E+03  0.85617895218E+03  0.00000000000E+00 0.  1.
         -3    1    6    6    0  502  0.20218825318E+02  0.14550080721E+03 -0.62510316300E+03  0.64213180126E+03  0.00000000000E+00 0.  1.
<mgrwt>
<rscale>  0 0.17619665E+04</rscale>
<asrwt>0</asrwt>
<pdfrwt beam="1">  1        1 0.39935368E+00 0.17619665E+04</pdfrwt>
<pdfrwt beam="2">  1       -1 0.45999267E-01 0.17619665E+04</pdfrwt>
<totfact> 0.51768318E+00</totfact>
</mgrwt>
</event>
<event>
12    1  0.1532786E-007  0.2048504E+04  0.7818608E-02  0.8584273E-01
         -1   -1    0    0    0  501 -0.00000000000E+00  0.00000000000E+00  0.94290710120E+03  0.94290710120E+03  0.00000000000E+00 0.  1.
          1   -1    0    0  501    0  0.00000000000E+00 -0.00000000000E+00 -0.11126142099E+04  0.11126142099E+04  0.00000000000E+00 0. -1.
         23    2    1    2    0    0 -0.15557073571E+02 -0.39957848730E+03 -0.79777062884E+03  0.89717169044E+03  0.92596305714E+02 0.  0.
        254    2    1    2    0    0  0.15557073571E+02  0.39957848730E+03  0.62806352017E+03  0.11583496206E+04  0.88735847785E+03 0.  0.
        -24    2    4    4    0    0  0.77955867778E+02 -0.10149258742E+03  0.62930856524E+03  0.64723659551E+03  0.80672657446E+02 0.  0.
         24    2    4    4    0    0 -0.62398794207E+02  0.50107107472E+03 -0.12450450701E+01  0.51111302513E+03  0.79177919170E+02 0.  0.
         13    1    3    3    0    0  0.15067097815E+02 -0.87024328351E+02 -0.25787257765E+03  0.27257754395E+03  0.00000000000E+00 0.  1.
        -13    1    3    3    0    0 -0.30624171386E+02 -0.31255415895E+03 -0.53989805120E+03  0.62459414650E+03  0.00000000000E+00 0. -1.
          4    1    6    6  502    0 -0.88390010157E+01  0.10154174416E+03 -0.32019041265E+02  0.10683666388E+03  0.00000000000E+00 0. -1.
          1    1    5    5  503    0 -0.13492803854E+01 -0.18067804619E+02  0.25468584686E+03  0.25532948657E+03  0.00000000000E+00 0. -1.
         -2    1    5    5    0  503  0.79305148164E+02 -0.83424782798E+02  0.37462271838E+03  0.39190710894E+03  0.00000000000E+00 0.  1.
         -3    1    6    6    0  502 -0.53559793191E+02  0.39952933056E+03  0.30773996194E+02  0.40427636125E+03  0.00000000000E+00 0.  1.
<mgrwt>
<rscale>  0 0.20485037E+04</rscale>
<asrwt>0</asrwt>
<pdfrwt beam="1">  1        1 0.17117142E+00 0.20485037E+04</pdfrwt>
<pdfrwt beam="2">  1       -1 0.14506263E+00 0.20485037E+04</pdfrwt>
<totfact> 0.43736868E+00</totfact>
</mgrwt>
</event>
<event>
12    1  0.1532786E-007  0.1250359E+04  0.7818608E-02  0.9069885E-01
         -1   -1    0    0    0  501 -0.00000000000E+00  0.00000000000E+00  0.21699073991E+03  0.21699073991E+03  0.00000000000E+00 0.  1.
          1   -1    0    0  501    0  0.00000000000E+00 -0.00000000000E+00 -0.18012249106E+04  0.18012249106E+04  0.00000000000E+00 0. -1.
         23    2    1    2    0    0  0.23834285082E+03  0.13775798292E+03 -0.40431632747E+03  0.50049718494E+03  0.10602435138E+03 0.  0.
        254    2    1    2    0    0 -0.23834285082E+03 -0.13775798292E+03 -0.11799178433E+04  0.15177184656E+04  0.91404521092E+03 0.  0.
        -24    2    4    4    0    0  0.25359526042E+03 -0.32413620116E+03 -0.59647292926E+03  0.72890440512E+03  0.78401807657E+02 0.  0.
         24    2    4    4    0    0 -0.49193811124E+03  0.18637821825E+03 -0.58344491401E+03  0.78881406050E+03  0.71272076073E+02 0.  0.
         11    1    3    3    0    0  0.24859724088E+03  0.12390389504E+03 -0.38101823945E+03  0.47151634348E+03  0.00000000000E+00 0.  1.
        -11    1    3    3    0    0 -0.10254390061E+02  0.13854087880E+02 -0.23298088022E+02  0.28980841464E+02  0.00000000000E+00 0. -1.
          2    1    6    6  502    0 -0.21781627475E+03  0.50808777815E+02 -0.27487403288E+03  0.35437437182E+03  0.00000000000E+00 0. -1.
          3    1    5    5  503    0  0.10793794374E+03 -0.95714399197E+02 -0.16233688082E+03  0.21717529507E+03  0.00000000000E+00 0. -1.
         -4    1    5    5    0  503  0.14565731668E+03 -0.22842180197E+03 -0.43413604844E+03  0.51172911005E+03  0.00000000000E+00 0.  1.
         -1    1    6    6    0  502 -0.27412183649E+03  0.13556944043E+03 -0.30857088113E+03  0.43443968868E+03  0.00000000000E+00 0.  1.
<mgrwt>
<rscale>  0 0.12503586E+04</rscale>
<asrwt>0</asrwt>
<pdfrwt beam="1">  1        1 0.27711153E+00 0.12503586E+04</pdfrwt>
<pdfrwt beam="2">  1       -1 0.33383191E-01 0.12503586E+04</pdfrwt>
<totfact> 0.33883463E+01</totfact>
</mgrwt>
</event>
<event>
12    1  0.1532786E-007  0.1640858E+04  0.7818608E-02  0.8795833E-01
         -2   -1    0    0    0  501 -0.00000000000E+00  0.00000000000E+00  0.41406990553E+03  0.41406990553E+03  0.00000000000E+00 0.  1.
          2   -1    0    0  501    0  0.00000000000E+00 -0.00000000000E+00 -0.16255800894E+04  0.16255800894E+04  0.00000000000E+00 0. -1.
         23    2    1    2    0    0 -0.39215025594E+03  0.30555314167E+03 -0.76989716986E+03  0.91987492888E+03  0.79269710598E+02 0.  0.
        254    2    1    2    0    0  0.39215025594E+03 -0.30555314167E+03 -0.44161301398E+03  0.11197750660E+04  0.90096037579E+03 0.  0.
        -24    2    4    4    0    0  0.32335412417E+03 -0.10434296740E+03 -0.69578184395E+03  0.77827346469E+03  0.78433838417E+02 0.  0.
         24    2    4    4    0    0  0.68796131763E+02 -0.20121017427E+03  0.25416882997E+03  0.34150160132E+03  0.82480952965E+02 0.  0.
         13    1    3    3    0    0 -0.97998701656E+02  0.77207645522E+02 -0.13491662577E+03  0.18375870582E+03  0.00000000000E+00 0.  1.
        -13    1    3    3    0    0 -0.29415155428E+03  0.22834549615E+03 -0.63498054408E+03  0.73611622307E+03  0.00000000000E+00 0. -1.
          2    1    6    6  502    0  0.77261434276E+02 -0.20250215886E+03  0.23080886439E+03  0.31662151766E+03  0.00000000000E+00 0. -1.
          1    1    5    5  503    0  0.32160532482E+03 -0.89612392654E+02 -0.66459504454E+03  0.74373848838E+03  0.00000000000E+00 0. -1.
         -2    1    5    5    0  503  0.17487993530E+01 -0.14730574746E+02 -0.31186799412E+02  0.34534976315E+02  0.00000000000E+00 0.  1.
         -1    1    6    6    0  502 -0.84653025123E+01  0.12919845874E+01  0.23359965584E+02  0.24880083659E+02  0.00000000000E+00 0.  1.
<mgrwt>
<rscale>  0 0.16408581E+04</rscale>
<asrwt>0</asrwt>
<pdfrwt beam="1">  1        2 0.25008925E+00 0.16408581E+04</pdfrwt>
<pdfrwt beam="2">  1       -2 0.63703062E-01 0.16408581E+04</pdfrwt>
<totfact> 0.23512523E+01</totfact>
</mgrwt>
</event>
<event>
12    1  0.1532786E-007  0.1173216E+04  0.7818608E-02  0.9136629E-01
          2   -1    0    0  501    0  0.00000000000E+00  0.00000000000E+00  0.20643818847E+04  0.20643818847E+04  0.00000000000E+00 0. -1.
         -2   -1    0    0    0  501 -0.00000000000E+00 -0.00000000000E+00 -0.16668863535E+03  0.16668863535E+03  0.00000000000E+00 0.  1.
         23    2    1    2    0    0 -0.17470419782E+03 -0.11008675099E+03  0.57688299777E+03  0.61950579489E+03  0.91393584625E+02 0.  0.
        254    2    1    2    0    0  0.17470419782E+03  0.11008675099E+03  0.13208102516E+04  0.16115647251E+04  0.89997805150E+03 0.  0.
        -24    2    4    4    0    0  0.37378721849E+03 -0.10485933854E+03  0.12339661592E+04  0.12960357187E+04  0.79521923891E+02 0.  0.
         24    2    4    4    0    0 -0.19908302067E+03  0.21494608953E+03  0.86844092362E+02  0.31552900648E+03  0.78617981611E+02 0.  0.
         13    1    3    3    0    0 -0.54448908472E+02 -0.31948896140E+02  0.77607110307E+02  0.10004138728E+03  0.00000000000E+00 0.  1.
        -13    1    3    3    0    0 -0.12025528935E+03 -0.78137854851E+02  0.49927588746E+03  0.51946440762E+03  0.00000000000E+00 0. -1.
          4    1    6    6  502    0  0.88681698059E+00  0.32717025409E+02  0.11445549161E+02  0.34672623085E+02  0.00000000000E+00 0. -1.
          1    1    5    5  503    0  0.57994763592E+02 -0.47438808133E+02  0.25656999359E+03  0.26728635343E+03  0.00000000000E+00 0. -1.
         -2    1    5    5    0  503  0.31579245490E+03 -0.57420530404E+02  0.97739616562E+03  0.10287493652E+04  0.00000000000E+00 0.  1.
         -3    1    6    6    0  502 -0.19996983765E+03  0.18222906412E+03  0.75398543201E+02  0.28085638340E+03  0.00000000000E+00 0.  1.
<mgrwt>
<rscale>  0 0.11732161E+04</rscale>
<asrwt>0</asrwt>
<pdfrwt beam="1">  1        2 0.31759719E+00 0.11732161E+04</pdfrwt>
<pdfrwt beam="2">  1       -2 0.25644407E-01 0.11732161E+04</pdfrwt>
<totfact> 0.83452002E+01</totfact>
</mgrwt>
</event>
<event>
12    1  0.1532786E-007  0.2055678E+04  0.7818608E-02  0.8581023E-01
          2   -1    0    0  501    0  0.00000000000E+00  0.00000000000E+00  0.18616671421E+04  0.18616671421E+04  0.00000000000E+00 0. -1.
         -2   -1    0    0    0  501 -0.00000000000E+00 -0.00000000000E+00 -0.56747673965E+03  0.56747673965E+03  0.00000000000E+00 0.  1.
         23    2    1    2    0    0  0.30026881599E+03  0.57793168048E+03  0.11093857864E+04  0.12897761736E+04  0.92840538934E+02 0.  0.
        254    2    1    2    0    0 -0.30026881599E+03 -0.57793168048E+03  0.18480461602E+03  0.11393677082E+04  0.91642765078E+03 0.  0.
        -24    2    4    4    0    0  0.13993994782E+03 -0.64834886073E+03  0.66479519451E+02  0.67139512338E+03  0.80077780839E+02 0.  0.
         24    2    4    4    0    0 -0.44020876381E+03  0.70417180252E+02  0.11832509656E+03  0.46797258477E+03  0.79089674508E+02 0.  0.
         13    1    3    3    0    0  0.16303117078E+03  0.34852004420E+03  0.56898592131E+03  0.68686997496E+03  0.00000000000E+00 0. -1.
        -13    1    3    3    0    0  0.13723764521E+03  0.22941163628E+03  0.54039986512E+03  0.60290619863E+03  0.00000000000E+00 0.  1.
          2    1    6    6  502    0 -0.29650581444E+03  0.13497177488E+02  0.95075797755E+02  0.31166854046E+03  0.00000000000E+00 0. -1.
          3    1    5    5  503    0 -0.65579899765E+01 -0.11059311631E+02 -0.45474402973E+01  0.13637991771E+02  0.00000000000E+00 0. -1.
         -4    1    5    5    0  503  0.14649793779E+03 -0.63728954910E+03  0.71026959749E+02  0.65775713161E+03  0.00000000000E+00 0.  1.
         -1    1    6    6    0  502 -0.14370294937E+03  0.56920002764E+02  0.23249298809E+02  0.15630404431E+03  0.00000000000E+00 0.  1.
<mgrwt>
<rscale>  0 0.20556778E+04</rscale>
<asrwt>0</asrwt>
<pdfrwt beam="1">  1        2 0.28641033E+00 0.20556778E+04</pdfrwt>
<pdfrwt beam="2">  1       -2 0.87304115E-01 0.20556778E+04</pdfrwt>
<totfact> 0.83593427E+00</totfact>
</mgrwt>
</event>
<event>
12    1  0.1532786E-007  0.2675116E+04  0.7818608E-02  0.8343124E-01
         -2   -1    0    0    0  501 -0.00000000000E+00  0.00000000000E+00  0.84870353699E+03  0.84870353699E+03  0.00000000000E+00 0. -1.
          2   -1    0    0  501    0  0.00000000000E+00 -0.00000000000E+00 -0.21079935230E+04  0.21079935230E+04  0.00000000000E+00 0.  1.
         23    2    1    2    0    0 -0.62381381588E+03 -0.93218782965E+03 -0.88411937501E+03  0.14311014163E+04  0.90919567834E+02 0.  0.
        254    2    1    2    0    0  0.62381381588E+03  0.93218782965E+03 -0.37517061098E+03  0.15255956437E+04  0.96362402107E+03 0.  0.
        -24    2    4    4    0    0  0.78552299562E+03  0.81182361077E+03 -0.48079536525E+02  0.11333753086E+04  0.78255969238E+02 0.  0.
         24    2    4    4    0    0 -0.16170917973E+03  0.12036421889E+03 -0.32709107446E+03  0.39222033505E+03  0.78808731969E+02 0.  0.
         13    1    3    3    0    0 -0.53512819855E+03 -0.80455753415E+03 -0.79948450769E+03  0.12541333632E+04  0.00000000000E+00 0.  1.
        -13    1    3    3    0    0 -0.88685617338E+02 -0.12763029551E+03 -0.84634867320E+02  0.17696805311E+03  0.00000000000E+00 0. -1.
          4    1    6    6  502    0 -0.49418964470E+01  0.35349374684E+02 -0.78944713096E+02  0.86638723195E+02  0.00000000000E+00 0. -1.
          1    1    5    5  503    0  0.31680331239E+03  0.34638056521E+03  0.16282396440E+02  0.46969027149E+03  0.00000000000E+00 0. -1.
         -2    1    5    5    0  503  0.46871968322E+03  0.46544304555E+03 -0.64361932965E+02  0.66368503713E+03  0.00000000000E+00 0.  1.
         -3    1    6    6    0  502 -0.15676728329E+03  0.85014844205E+02 -0.24814636136E+03  0.30558161185E+03  0.00000000000E+00 0.  1.
<mgrwt>
<rscale>  0 0.26751161E+04</rscale>
<asrwt>0</asrwt>
<pdfrwt beam="1">  1        2 0.32430670E+00 0.26751161E+04</pdfrwt>
<pdfrwt beam="2">  1       -2 0.13056977E+00 0.26751161E+04</pdfrwt>
<totfact> 0.21958329E+00</totfact>
</mgrwt>
</event>
<event>
12    1  0.1532786E-007  0.1443919E+04  0.7818608E-02  0.8922627E-01
          1   -1    0    0  501    0  0.00000000000E+00  0.00000000000E+00  0.43215062170E+03  0.43215062170E+03  0.00000000000E+00 0. -1.
         -1   -1    0    0    0  501 -0.00000000000E+00 -0.00000000000E+00 -0.12061195506E+04  0.12061195506E+04  0.00000000000E+00 0.  1.
         23    2    1    2    0    0  0.33032374635E+03  0.19398572019E+03 -0.48044312471E+03  0.62128518583E+03  0.91790244658E+02 0.  0.
        254    2    1    2    0    0 -0.33032374635E+03 -0.19398572019E+03 -0.29352580423E+03  0.10169849865E+04  0.89518535958E+03 0.  0.
        -24    2    4    4    0    0 -0.30548053358E+03  0.27553040759E+03 -0.33819800520E+03  0.53816442868E+03  0.77509352154E+02 0.  0.
         24    2    4    4    0    0 -0.24843212773E+02 -0.46951612777E+03  0.44672200971E+02  0.47882055783E+03  0.78809527363E+02 0.  0.
         11    1    3    3    0    0  0.43545002067E+02 -0.54399328960E+01 -0.66244671677E+02  0.79461415797E+02  0.00000000000E+00 0. -1.
        -11    1    3    3    0    0  0.28677874429E+03  0.19942565308E+03 -0.41419845303E+03  0.54182377004E+03  0.00000000000E+00 0.  1.
          4    1    6    6  502    0 -0.51115417341E+02 -0.32446661191E+03  0.17551096660E+02  0.32893678591E+03  0.00000000000E+00 0. -1.
          1    1    5    5  503    0 -0.27168523629E+03  0.22607904584E+03 -0.31654717372E+03  0.47447520038E+03  0.00000000000E+00 0. -1.
         -2    1    5    5    0  503 -0.33795297293E+02  0.49451361749E+02 -0.21650831487E+02  0.63689228305E+02  0.00000000000E+00 0.  1.
         -3    1    6    6    0  502  0.26272204569E+02 -0.14504951587E+03  0.27121104311E+02  0.14988377192E+03  0.00000000000E+00 0.  1.
<mgrwt>
<rscale>  0 0.14439187E+04</rscale>
<asrwt>0</asrwt>
<pdfrwt beam="1">  1        1 0.66484711E-01 0.14439187E+04</pdfrwt>
<pdfrwt beam="2">  1       -1 0.18555685E+00 0.14439187E+04</pdfrwt>
<totfact> 0.99805972E+00</totfact>
</mgrwt>
</event>
<event>
12    1  0.1532786E-007  0.1435757E+04  0.7818608E-02  0.8928335E-01
         -1   -1    0    0    0  501 -0.00000000000E+00  0.00000000000E+00  0.32301701518E+03  0.32301701518E+03  0.00000000000E+00 0.  1.
          1   -1    0    0  501    0  0.00000000000E+00 -0.00000000000E+00 -0.15954263607E+04  0.15954263607E+04  0.00000000000E+00 0. -1.
         23    2    1    2    0    0  0.84074189087E+02  0.38413138013E+03 -0.64913019788E+03  0.76436543339E+03  0.90879675932E+02 0.  0.
        254    2    1    2    0    0 -0.84074189087E+02 -0.38413138013E+03 -0.62327914763E+03  0.11540779425E+04  0.88814053784E+03 0.  0.
        -24    2    4    4    0    0  0.60865395895E+02  0.18752716069E+03  0.85315782263E+02  0.22876171062E+03  0.78626364093E+02 0.  0.
         24    2    4    4    0    0 -0.14493958498E+03 -0.57165854081E+03 -0.70859492990E+03  0.92531623185E+03  0.79387553639E+02 0.  0.
         13    1    3    3    0    0  0.47541463799E+02  0.34513768995E+03 -0.58506907849E+03  0.68094496284E+03  0.00000000000E+00 0. -1.
        -13    1    3    3    0    0  0.36532725288E+02  0.38993690175E+02 -0.64061119381E+02  0.83420470551E+02  0.00000000000E+00 0.  1.
          4    1    6    6  502    0 -0.89784300523E+02 -0.28513623125E+03 -0.30272162543E+03  0.42544597013E+03  0.00000000000E+00 0. -1.
          3    1    5    5  503    0  0.31406009919E+02  0.13908957775E+03  0.22859053648E+02  0.14441185696E+03  0.00000000000E+00 0. -1.
         -4    1    5    5    0  503  0.29459385976E+02  0.48437582936E+02  0.62456728615E+02  0.84349853658E+02  0.00000000000E+00 0.  1.
         -3    1    6    6    0  502 -0.55155284459E+02 -0.28652230957E+03 -0.40587330446E+03  0.49987026173E+03  0.00000000000E+00 0.  1.
<mgrwt>
<rscale>  0 0.14357574E+04</rscale>
<asrwt>0</asrwt>
<pdfrwt beam="1">  1        1 0.24545020E+00 0.14357574E+04</pdfrwt>
<pdfrwt beam="2">  1       -1 0.49694927E-01 0.14357574E+04</pdfrwt>
<totfact> 0.22193546E+01</totfact>
</mgrwt>
</event>
<event>
12    1  0.1532786E-007  0.2844587E+04  0.7818608E-02  0.8289558E-01
         -1   -1    0    0    0  501 -0.00000000000E+00  0.00000000000E+00  0.11885430133E+04  0.11885430133E+04  0.00000000000E+00 0.  1.
          1   -1    0    0  501    0  0.00000000000E+00 -0.00000000000E+00 -0.17020151052E+04  0.17020151052E+04  0.00000000000E+00 0. -1.
         23    2    1    2    0    0  0.60914512267E+03 -0.34873430000E+03 -0.13220440599E+04  0.14996524680E+04  0.92106656191E+02 0.  0.
        254    2    1    2    0    0 -0.60914512267E+03  0.34873430000E+03  0.80857196802E+03  0.13909056504E+04  0.88778179100E+03 0.  0.
        -24    2    4    4    0    0 -0.82808340388E+03  0.22347431339E+03  0.67879400368E+03  0.10967857229E+04  0.80713877072E+02 0.  0.
         24    2    4    4    0    0  0.21893828121E+03  0.12525998661E+03  0.12977796434E+03  0.29411992754E+03  0.77718572544E+02 0.  0.
         11    1    3    3    0    0  0.48711596566E+02 -0.58215519796E+02 -0.12148937159E+03  0.14325339017E+03  0.00000000000E+00 0.  1.
        -11    1    3    3    0    0  0.56043352610E+03 -0.29051878021E+03 -0.12005546883E+04  0.13563990779E+04  0.00000000000E+00 0. -1.
          4    1    6    6  502    0  0.10643112858E+03  0.59344026920E+02  0.10613720269E+03  0.16159951874E+03  0.00000000000E+00 0. -1.
          3    1    5    5  503    0 -0.66588227654E+03  0.16409392117E+03  0.50431342839E+03  0.85126849773E+03  0.00000000000E+00 0. -1.
         -4    1    5    5    0  503 -0.16220112734E+03  0.59380392220E+02  0.17448057529E+03  0.24551722515E+03  0.00000000000E+00 0.  1.
         -3    1    6    6    0  502  0.11250715264E+03  0.65915959690E+02  0.23640761650E+02  0.13252040880E+03  0.00000000000E+00 0.  1.
<mgrwt>
<rscale>  0 0.28445866E+04</rscale>
<asrwt>0</asrwt>
<pdfrwt beam="1">  1        1 0.26184848E+00 0.28445866E+04</pdfrwt>
<pdfrwt beam="2">  1       -1 0.18285277E+00 0.28445866E+04</pdfrwt>
<totfact> 0.81353170E-01</totfact>
</mgrwt>
</event>
<event>
12    1  0.1532786E-007  0.1319553E+04  0.7818608E-02  0.9014202E-01
         -1   -1    0    0    0  501 -0.00000000000E+00  0.00000000000E+00  0.53387173836E+03  0.53387173836E+03  0.00000000000E+00 0.  1.
          1   -1    0    0  501    0  0.00000000000E+00 -0.00000000000E+00 -0.81537339140E+03  0.81537339140E+03  0.00000000000E+00 0. -1.
         23    2    1    2    0    0 -0.28970895157E+03 -0.17743651202E+03 -0.12825752039E+02  0.35249458079E+03  0.93128605469E+02 0.  0.
        254    2    1    2    0    0  0.28970895157E+03  0.17743651202E+03 -0.26867590100E+03  0.99675054896E+03  0.89772486022E+03 0.  0.
        -24    2    4    4    0    0  0.46009809225E+03  0.12547443163E+02 -0.47970268013E+03  0.66981393623E+03  0.81782363777E+02 0.  0.
         24    2    4    4    0    0 -0.17038914068E+03  0.16488906885E+03  0.21102677913E+03  0.32693661273E+03  0.78322301734E+02 0.  0.
         11    1    3    3    0    0 -0.48880387387E+02 -0.18667538770E+02  0.30866903803E+02  0.60749773869E+02  0.00000000000E+00 0.  1.
        -11    1    3    3    0    0 -0.24082856418E+03 -0.15876897325E+03 -0.43692655842E+02  0.29174480692E+03  0.00000000000E+00 0. -1.
          2    1    6    6  502    0 -0.31451015148E+01  0.12392158582E+02 -0.53093657065E+01  0.13843649160E+02  0.00000000000E+00 0. -1.
          1    1    5    5  503    0  0.67118390676E+02 -0.21701401847E+02 -0.99316501190E+02  0.12181788300E+03  0.00000000000E+00 0. -1.
         -2    1    5    5    0  503  0.39297970157E+03  0.34248845010E+02 -0.38038617894E+03  0.54799605323E+03  0.00000000000E+00 0.  1.
         -1    1    6    6    0  502 -0.16724403916E+03  0.15249691027E+03  0.21633614483E+03  0.31309296357E+03  0.00000000000E+00 0.  1.
<mgrwt>
<rscale>  0 0.13195527E+04</rscale>
<asrwt>0</asrwt>
<pdfrwt beam="1">  1        1 0.12544206E+00 0.13195527E+04</pdfrwt>
<pdfrwt beam="2">  1       -1 0.82134113E-01 0.13195527E+04</pdfrwt>
<totfact> 0.31025584E+01</totfact>
</mgrwt>
</event>
<event>
12    1  0.1532786E-007  0.3077045E+04  0.7818608E-02  0.8222066E-01
         -1   -1    0    0    0  501 -0.00000000000E+00  0.00000000000E+00  0.46290175477E+03  0.46290175477E+03  0.00000000000E+00 0.  1.
          1   -1    0    0  501    0  0.00000000000E+00 -0.00000000000E+00 -0.51135075351E+04  0.51135075351E+04  0.00000000000E+00 0. -1.
         23    2    1    2    0    0 -0.10394501642E+04 -0.46825532533E+03 -0.64049544523E+03  0.13107568042E+04  0.90162580200E+02 0.  0.
        254    2    1    2    0    0  0.10394501642E+04  0.46825532533E+03 -0.40101103351E+04  0.42656524857E+04  0.90282143059E+03 0.  0.
        -24    2    4    4    0    0  0.10288016312E+04  0.10701272542E+03 -0.24146201944E+04  0.26280638660E+04  0.80277525418E+02 0.  0.
         24    2    4    4    0    0  0.10648533019E+02  0.36124259991E+03 -0.15954901407E+04  0.16375886197E+04  0.74149112727E+02 0.  0.
         13    1    3    3    0    0 -0.39174764637E+03 -0.18924430453E+03 -0.29320921731E+03  0.52464394626E+03  0.00000000000E+00 0. -1.
        -13    1    3    3    0    0 -0.64770251780E+03 -0.27901102080E+03 -0.34728622792E+03  0.78611285792E+03  0.00000000000E+00 0.  1.
          4    1    6    6  502    0 -0.17520249655E+02  0.14676538324E+03 -0.78090485581E+03  0.79477004894E+03  0.00000000000E+00 0. -1.
          1    1    5    5  503    0  0.57782348244E+03  0.78467452983E+02 -0.12700610718E+04  0.13975307668E+04  0.00000000000E+00 0. -1.
         -2    1    5    5    0  503  0.45097814871E+03  0.28545272437E+02 -0.11445591226E+04  0.12305330993E+04  0.00000000000E+00 0.  1.
         -3    1    6    6    0  502  0.28168782673E+02  0.21447721667E+03 -0.81458528491E+03  0.84281857074E+03  0.00000000000E+00 0.  1.
<mgrwt>
<rscale>  0 0.30770451E+04</rscale>
<asrwt>0</asrwt>
<pdfrwt beam="1">  1        1 0.78669349E+00 0.30770451E+04</pdfrwt>
<pdfrwt beam="2">  1       -1 0.71215653E-01 0.30770451E+04</pdfrwt>
<totfact> 0.10288639E-02</totfact>
</mgrwt>
</event>
<event>
12    1  0.1532786E-007  0.1520048E+04  0.7818608E-02  0.8871230E-01
         -1   -1    0    0    0  501 -0.00000000000E+00  0.00000000000E+00  0.82927125038E+03  0.82927125038E+03  0.00000000000E+00 0.  1.
          1   -1    0    0  501    0  0.00000000000E+00 -0.00000000000E+00 -0.69655925879E+03  0.69655925879E+03  0.00000000000E+00 0. -1.
         23    2    1    2    0    0 -0.76978944663E+02  0.48313846571E+03  0.84383368273E+01  0.49700666822E+03  0.87154390370E+02 0.  0.
        254    2    1    2    0    0  0.76978944663E+02 -0.48313846571E+03  0.12427365475E+03  0.10288238409E+04  0.89648537047E+03 0.  0.
        -24    2    4    4    0    0 -0.34296724299E+03 -0.95928736227E+02  0.24413507608E+03  0.43913386069E+03  0.80048485496E+02 0.  0.
         24    2    4    4    0    0  0.41994618765E+03 -0.38720972948E+03 -0.11986142133E+03  0.58968998026E+03  0.84150682501E+02 0.  0.
         11    1    3    3    0    0 -0.40106337954E+02  0.43161903042E+03  0.10716674451E+02  0.43361083113E+03  0.00000000000E+00 0.  1.
        -11    1    3    3    0    0 -0.36872606709E+02  0.51519435289E+02 -0.22783376240E+01  0.63395837090E+02  0.00000000000E+00 0. -1.
          4    1    6    6  502    0  0.32616692240E+03 -0.29975020389E+03 -0.56234423380E+02  0.44653931112E+03  0.00000000000E+00 0. -1.
          3    1    5    5  503    0 -0.14483945349E+03 -0.11014289594E+01  0.85612026992E+02  0.16825308199E+03  0.00000000000E+00 0. -1.
         -4    1    5    5    0  503 -0.19812778950E+03 -0.94827307268E+02  0.15852304909E+03  0.27088077870E+03  0.00000000000E+00 0.  1.
         -3    1    6    6    0  502  0.93779265254E+02 -0.87459525595E+02 -0.63626997946E+02  0.14315066914E+03  0.00000000000E+00 0.  1.
<mgrwt>
<rscale>  0 0.15200481E+04</rscale>
<asrwt>0</asrwt>
<pdfrwt beam="1">  1        1 0.10716296E+00 0.15200481E+04</pdfrwt>
<pdfrwt beam="2">  1       -1 0.12758019E+00 0.15200481E+04</pdfrwt>
<totfact> 0.14100111E+01</totfact>
</mgrwt>
</event>
<event>
12    1  0.1532786E-007  0.1757553E+04  0.7818608E-02  0.8729204E-01
          2   -1    0    0  501    0  0.00000000000E+00  0.00000000000E+00  0.33419724051E+04  0.33419724051E+04  0.00000000000E+00 0. -1.
         -2   -1    0    0    0  501 -0.00000000000E+00 -0.00000000000E+00 -0.23107557689E+03  0.23107557689E+03  0.00000000000E+00 0.  1.
         23    2    1    2    0    0 -0.22463026470E+03 -0.46485344963E+02 -0.74100377621E+02  0.25786985169E+03  0.91577024042E+02 0.  0.
        254    2    1    2    0    0  0.22463026470E+03  0.46485344963E+02  0.31849972059E+04  0.33151781303E+04  0.89083061880E+03 0.  0.
        -24    2    4    4    0    0  0.26274904266E+03 -0.11592037988E+03  0.30957120630E+04  0.31100599344E+04  0.81024837057E+02 0.  0.
         24    2    4    4    0    0 -0.38118777964E+02  0.16240572484E+03  0.89285142808E+02  0.20511819595E+03  0.79202126799E+02 0.  0.
         11    1    3    3    0    0 -0.12174374126E+03 -0.71270105195E+02 -0.45844677538E+02  0.14833307416E+03  0.00000000000E+00 0.  1.
        -11    1    3    3    0    0 -0.10288652344E+03  0.24784760232E+02 -0.28255700083E+02  0.10953677753E+03  0.00000000000E+00 0. -1.
          4    1    6    6  502    0 -0.21033089629E+02  0.17776657327E+02 -0.95105239678E+01  0.29135038549E+02  0.00000000000E+00 0. -1.
          1    1    5    5  503    0  0.17545223025E+03 -0.47127007868E+02  0.21976572024E+04  0.22051534230E+04  0.00000000000E+00 0. -1.
         -2    1    5    5    0  503  0.87296812415E+02 -0.68793372012E+02  0.89805486067E+03  0.90490651134E+03  0.00000000000E+00 0.  1.
         -3    1    6    6    0  502 -0.17085688335E+02  0.14462906752E+03  0.98795666775E+02  0.17598315740E+03  0.00000000000E+00 0.  1.
<mgrwt>
<rscale>  0 0.17575531E+04</rscale>
<asrwt>0</asrwt>
<pdfrwt beam="1">  1        2 0.51414957E+00 0.17575531E+04</pdfrwt>
<pdfrwt beam="2">  1       -2 0.35550091E-01 0.17575531E+04</pdfrwt>
<totfact> 0.74057714E+00</totfact>
</mgrwt>
</event>
<event>
12    1  0.1532786E-007  0.1472595E+04  0.7818608E-02  0.8902884E-01
          2   -1    0    0  501    0  0.00000000000E+00  0.00000000000E+00  0.97509963403E+03  0.97509963403E+03  0.00000000000E+00 0. -1.
         -2   -1    0    0    0  501 -0.00000000000E+00 -0.00000000000E+00 -0.55597820758E+03  0.55597820758E+03  0.00000000000E+00 0.  1.
         23    2    1    2    0    0 -0.18558274229E+03  0.29000160192E+03 -0.17539936649E+03  0.39678847656E+03  0.90190210200E+02 0.  0.
        254    2    1    2    0    0  0.18558274229E+03 -0.29000160192E+03  0.59452079294E+03  0.11342893651E+04  0.90256052821E+03 0.  0.
        -24    2    4    4    0    0  0.43942403352E+03  0.92834230002E+02  0.12572346447E+03  0.47309590746E+03  0.79383075308E+02 0.  0.
         24    2    4    4    0    0 -0.25384129123E+03 -0.38283583192E+03  0.46879732847E+03  0.66119345759E+03  0.80044848939E+02 0.  0.
         11    1    3    3    0    0 -0.27594291336E+02  0.11120455318E+03 -0.80412156454E+02  0.13997861432E+03  0.00000000000E+00 0.  1.
        -11    1    3    3    0    0 -0.15798845096E+03  0.17879704874E+03 -0.94987210035E+02  0.25680986224E+03  0.00000000000E+00 0. -1.
          2    1    6    6  502    0 -0.35087253967E+02 -0.11061701438E+03  0.13614151454E+03  0.17889033300E+03  0.00000000000E+00 0. -1.
          3    1    5    5  503    0  0.82775384947E+02 -0.74620437629E+01  0.42988142459E+01  0.83222150021E+02  0.00000000000E+00 0. -1.
         -4    1    5    5    0  503  0.35664864857E+03  0.10029627377E+03  0.12142465022E+03  0.38987375744E+03  0.00000000000E+00 0.  1.
         -1    1    6    6    0  502 -0.21875403726E+03 -0.27221881754E+03  0.33265581393E+03  0.48230312458E+03  0.00000000000E+00 0.  1.
<mgrwt>
<rscale>  0 0.14725952E+04</rscale>
<asrwt>0</asrwt>
<pdfrwt beam="1">  1        2 0.15001533E+00 0.14725952E+04</pdfrwt>
<pdfrwt beam="2">  1       -2 0.85535109E-01 0.14725952E+04</pdfrwt>
<totfact> 0.30069149E+01</totfact>
</mgrwt>
</event>
<event>
12    1  0.1532786E-007  0.1768451E+04  0.7818608E-02  0.8723259E-01
         -1   -1    0    0    0  501 -0.00000000000E+00  0.00000000000E+00  0.83384571057E+03  0.83384571057E+03  0.00000000000E+00 0.  1.
          1   -1    0    0  501    0  0.00000000000E+00 -0.00000000000E+00 -0.93764968154E+03  0.93764968154E+03  0.00000000000E+00 0. -1.
         23    2    1    2    0    0 -0.45567909361E+03  0.30148849666E+03  0.42200260481E+03  0.69608587251E+03  0.88941517116E+02 0.  0.
        254    2    1    2    0    0  0.45567909361E+03 -0.30148849666E+03 -0.52580657578E+03  0.10754095196E+04  0.76255775503E+03 0.  0.
        -24    2    4    4    0    0  0.14865070665E+03 -0.28833459860E+03  0.12037209631E+03  0.35525371780E+03  0.80510180130E+02 0.  0.
         24    2    4    4    0    0  0.30702838695E+03 -0.13153898066E+02 -0.64617867209E+03  0.72015580180E+03  0.81474211753E+02 0.  0.
         13    1    3    3    0    0 -0.30936020151E+03  0.23133621555E+03  0.25284421954E+03  0.46168211820E+03  0.00000000000E+00 0.  1.
        -13    1    3    3    0    0 -0.14631889209E+03  0.70152281112E+02  0.16915838527E+03  0.23440375431E+03  0.00000000000E+00 0. -1.
          2    1    6    6  502    0  0.25410738772E+03  0.14167757442E+02 -0.56302013304E+03  0.61786969504E+03  0.00000000000E+00 0. -1.
          1    1    5    5  503    0  0.15280301602E+03 -0.26205572638E+03  0.93486782624E+02  0.31742990400E+03  0.00000000000E+00 0. -1.
         -2    1    5    5    0  503 -0.41523093621E+01 -0.26278872222E+02  0.26885313685E+02  0.37823813798E+02  0.00000000000E+00 0.  1.
         -1    1    6    6    0  502  0.52920999237E+02 -0.27321655507E+02 -0.83158539050E+02  0.10228610676E+03  0.00000000000E+00 0.  1.
<mgrwt>
<rscale>  0 0.17684515E+04</rscale>
<asrwt>0</asrwt>
<pdfrwt beam="1">  1        1 0.14425380E+00 0.17684515E+04</pdfrwt>
<pdfrwt beam="2">  1       -1 0.12828396E+00 0.17684515E+04</pdfrwt>
<totfact> 0.84156962E+00</totfact>
</mgrwt>
</event>
<event>
12    1  0.1532786E-007  0.1468094E+04  0.7818608E-02  0.8905951E-01
          2   -1    0    0  501    0  0.00000000000E+00  0.00000000000E+00  0.62538722252E+03  0.62538722252E+03  0.00000000000E+00 0.  1.
         -2   -1    0    0    0  501 -0.00000000000E+00 -0.00000000000E+00 -0.86158675895E+03  0.86158675895E+03  0.00000000000E+00 0. -1.
         23    2    1    2    0    0 -0.35242111938E+03 -0.26851440927E+03 -0.28676403859E+02  0.45339668924E+03  0.91899881942E+02 0.  0.
        254    2    1    2    0    0  0.35242111938E+03  0.26851440927E+03 -0.20752313257E+03  0.10335772922E+04  0.91044798593E+03 0.  0.
        -24    2    4    4    0    0 -0.10525103180E+03 -0.17371967841E+03 -0.31449732655E+03  0.38400905404E+03  0.85428793836E+02 0.  0.
         24    2    4    4    0    0  0.45767215118E+03  0.44223408768E+03  0.10697419398E+03  0.64956823819E+03  0.73896086558E+02 0.  0.
         13    1    3    3    0    0 -0.31949434347E+03 -0.22170509266E+03 -0.50497493399E+02  0.39214765135E+03  0.00000000000E+00 0. -1.
        -13    1    3    3    0    0 -0.32926775914E+02 -0.46809316607E+02  0.21821089539E+02  0.61249037886E+02  0.00000000000E+00 0.  1.
          2    1    6    6  502    0  0.19311672882E+03  0.21537318745E+03  0.79405964833E+02  0.29997497908E+03  0.00000000000E+00 0. -1.
          1    1    5    5  503    0  0.11828291478E+02 -0.25268893273E+02 -0.66872034185E+02  0.72458915273E+02  0.00000000000E+00 0. -1.
         -2    1    5    5    0  503 -0.11707932328E+03 -0.14845078514E+03 -0.24762529237E+03  0.31155013877E+03  0.00000000000E+00 0.  1.
         -1    1    6    6    0  502  0.26455542237E+03  0.22686090023E+03  0.27568229146E+02  0.34959325911E+03  0.00000000000E+00 0.  1.
<mgrwt>
<rscale>  0 0.14680945E+04</rscale>
<asrwt>0</asrwt>
<pdfrwt beam="1">  1        2 0.96213419E-01 0.14680945E+04</pdfrwt>
<pdfrwt beam="2">  1       -2 0.13255181E+00 0.14680945E+04</pdfrwt>
<totfact> 0.18869727E+01</totfact>
</mgrwt>
</event>
<event>
12    1  0.1532786E-007  0.2922090E+04  0.7818608E-02  0.8266335E-01
          1   -1    0    0  501    0  0.00000000000E+00  0.00000000000E+00  0.25824286197E+04  0.25824286197E+04  0.00000000000E+00 0. -1.
         -1   -1    0    0    0  501 -0.00000000000E+00 -0.00000000000E+00 -0.82660655235E+03  0.82660655235E+03  0.00000000000E+00 0.  1.
         23    2    1    2    0    0  0.36714436467E+03  0.60851644741E+03 -0.50275910906E+03  0.87554480346E+03  0.93406262377E+02 0.  0.
        254    2    1    2    0    0 -0.36714436467E+03 -0.60851644741E+03  0.22585811765E+04  0.25334903686E+04  0.90127535528E+03 0.  0.
        -24    2    4    4    0    0 -0.24503071504E+03 -0.64688177147E+03  0.22772210313E+04  0.23813533063E+04  0.81313385006E+02 0.  0.
         24    2    4    4    0    0 -0.12211364963E+03  0.38365324061E+02 -0.18639854860E+02  0.15213706229E+03  0.80091198125E+02 0.  0.
         11    1    3    3    0    0  0.17621682900E+03  0.37411882911E+03 -0.26810574565E+03  0.49284679158E+03  0.00000000000E+00 0. -1.
        -11    1    3    3    0    0  0.19092753567E+03  0.23439761829E+03 -0.23465336341E+03  0.38269801188E+03  0.00000000000E+00 0.  1.
          2    1    6    6  502    0 -0.84920883294E+02  0.47188846411E+02  0.18436148622E+02  0.98884959529E+02  0.00000000000E+00 0. -1.
          3    1    5    5  503    0 -0.11482568180E+03 -0.36514238758E+03  0.11403178343E+04  0.12028460681E+04  0.00000000000E+00 0. -1.
         -4    1    5    5    0  503 -0.13020503324E+03 -0.28173938389E+03  0.11369031970E+04  0.11785072382E+04  0.00000000000E+00 0.  1.
         -1    1    6    6    0  502 -0.37192766336E+02 -0.88235223499E+01 -0.37076003482E+02  0.53252102762E+02  0.00000000000E+00 0.  1.
<mgrwt>
<rscale>  0 0.29220899E+04</rscale>
<asrwt>0</asrwt>
<pdfrwt beam="1">  1        1 0.39729671E+00 0.29220899E+04</pdfrwt>
<pdfrwt beam="2">  1       -1 0.12717024E+00 0.29220899E+04</pdfrwt>
<totfact> 0.54486353E-01</totfact>
</mgrwt>
</event>
<event>
12    1  0.1532786E-007  0.1647166E+04  0.7818608E-02  0.8792085E-01
          2   -1    0    0  501    0  0.00000000000E+00  0.00000000000E+00  0.86956378455E+03  0.86956378455E+03  0.00000000000E+00 0. -1.
         -2   -1    0    0    0  501 -0.00000000000E+00 -0.00000000000E+00 -0.78003312153E+03  0.78003312153E+03  0.00000000000E+00 0.  1.
         23    2    1    2    0    0  0.58288163029E+02 -0.47551390797E+03 -0.28596777468E+03  0.56563809478E+03  0.93047834394E+02 0.  0.
        254    2    1    2    0    0 -0.58288163029E+02  0.47551390797E+03  0.37549843770E+03  0.10839588113E+04  0.89691506915E+03 0.  0.
        -24    2    4    4    0    0 -0.30483299709E+03  0.36720709752E+03 -0.13294486393E+03  0.50356455856E+03  0.90214850255E+02 0.  0.
         24    2    4    4    0    0  0.24654483406E+03  0.10830681045E+03  0.50844330163E+03  0.58039425275E+03  0.76342499661E+02 0.  0.
         11    1    3    3    0    0  0.44261318326E+02 -0.17744927082E+03 -0.15513623109E+03  0.23982193021E+03  0.00000000000E+00 0.  1.
        -11    1    3    3    0    0  0.14026844703E+02 -0.29806463716E+03 -0.13083154359E+03  0.32581616457E+03  0.00000000000E+00 0. -1.
          2    1    6    6  502    0  0.55048795505E+02  0.24615385409E+02  0.19135194008E+03  0.20062864216E+03  0.00000000000E+00 0. -1.
          3    1    5    5  503    0 -0.92183055900E+02  0.17919309595E+03 -0.64456434639E+02  0.21157153258E+03  0.00000000000E+00 0. -1.
         -4    1    5    5    0  503 -0.21264994119E+03  0.18801400157E+03 -0.68488429294E+02  0.29199302598E+03  0.00000000000E+00 0.  1.
         -1    1    6    6    0  502  0.19149603855E+03  0.83691425044E+02  0.31709136156E+03  0.37976561058E+03  0.00000000000E+00 0.  1.
<mgrwt>
<rscale>  0 0.16471655E+04</rscale>
<asrwt>0</asrwt>
<pdfrwt beam="1">  1        2 0.13377904E+00 0.16471655E+04</pdfrwt>
<pdfrwt beam="2">  1       -2 0.12000510E+00 0.16471655E+04</pdfrwt>
<totfact> 0.15604851E+01</totfact>
</mgrwt>
</event>
<event>
12    1  0.1532786E-007  0.1482253E+04  0.7818608E-02  0.8896341E-01
          1   -1    0    0  501    0  0.00000000000E+00  0.00000000000E+00  0.92198408424E+03  0.92198408424E+03  0.00000000000E+00 0. -1.
         -1   -1    0    0    0  501 -0.00000000000E+00 -0.00000000000E+00 -0.59574635857E+03  0.59574635857E+03  0.00000000000E+00 0.  1.
         23    2    1    2    0    0 -0.32006713156E+03  0.20358608690E+03 -0.15930731298E+03  0.42243627369E+03  0.95829650288E+02 0.  0.
        254    2    1    2    0    0  0.32006713156E+03 -0.20358608690E+03  0.48554503864E+03  0.10952941691E+04  0.90555235568E+03 0.  0.
        -24    2    4    4    0    0  0.60358666909E+03  0.23809510456E+02  0.29256827382E+03  0.67593125004E+03  0.80019372896E+02 0.  0.
         24    2    4    4    0    0 -0.28351953753E+03 -0.22739559736E+03  0.19297676482E+03  0.41936291909E+03  0.80827843498E+02 0.  0.
         13    1    3    3    0    0 -0.23889554494E+03  0.10995214071E+03 -0.78319051044E+02  0.27439830246E+03  0.00000000000E+00 0.  1.
        -13    1    3    3    0    0 -0.81171586626E+02  0.93633946189E+02 -0.80988261931E+02  0.14803797123E+03  0.00000000000E+00 0. -1.
          4    1    6    6  502    0 -0.19289845366E+03 -0.18986104940E+03  0.16647376032E+03  0.31775862597E+03  0.00000000000E+00 0. -1.
          1    1    5    5  503    0  0.28069058699E+03  0.31868638178E+02  0.98810404536E+02  0.29927631341E+03  0.00000000000E+00 0. -1.
         -2    1    5    5    0  503  0.32289608210E+03 -0.80591277216E+01  0.19375786928E+03  0.37665493662E+03  0.00000000000E+00 0.  1.
         -3    1    6    6    0  502 -0.90621083864E+02 -0.37534547962E+02  0.26503004498E+02  0.10160429311E+03  0.00000000000E+00 0.  1.
<mgrwt>
<rscale>  0 0.14822532E+04</rscale>
<asrwt>0</asrwt>
<pdfrwt beam="1">  1        1 0.14184370E+00 0.14822532E+04</pdfrwt>
<pdfrwt beam="2">  1       -1 0.91653286E-01 0.14822532E+04</pdfrwt>
<totfact> 0.19628963E+01</totfact>
</mgrwt>
</event>
<event>
12    1  0.1532786E-007  0.2357928E+04  0.7818608E-02  0.8455425E-01
          2   -1    0    0  501    0  0.00000000000E+00  0.00000000000E+00  0.26168877347E+04  0.26168877347E+04  0.00000000000E+00 0. -1.
         -2   -1    0    0    0  501 -0.00000000000E+00 -0.00000000000E+00 -0.53114851418E+03  0.53114851418E+03  0.00000000000E+00 0.  1.
         23    2    1    2    0    0  0.88230273204E+03 -0.35660505771E+03  0.13195864555E+04  0.16295592322E+04  0.92355831124E+02 0.  0.
        254    2    1    2    0    0 -0.88230273204E+03  0.35660505771E+03  0.76615276507E+03  0.15184770167E+04  0.90175224578E+03 0.  0.
        -24    2    4    4    0    0 -0.98736058508E+03  0.40477594115E+03  0.83967201845E+03  0.13601930939E+04  0.79697343979E+02 0.  0.
         24    2    4    4    0    0  0.10505785304E+03 -0.48170883445E+02 -0.73519253377E+02  0.15828392282E+03  0.79316663503E+02 0.  0.
         13    1    3    3    0    0  0.16083432587E+03 -0.29996939572E+02  0.24733528004E+03  0.29655056485E+03  0.00000000000E+00 0.  1.
        -13    1    3    3    0    0  0.72146840617E+03 -0.32660811814E+03  0.10722511754E+04  0.13330086673E+04  0.00000000000E+00 0. -1.
          4    1    6    6  502    0  0.31666104042E+02 -0.38650213080E+02 -0.67571481867E+02  0.84038599929E+02  0.00000000000E+00 0. -1.
          3    1    5    5  503    0 -0.20286089416E+03  0.70324302464E+02  0.20782091492E+03  0.29881027856E+03  0.00000000000E+00 0. -1.
         -4    1    5    5    0  503 -0.78449969092E+03  0.33445163869E+03  0.63185110353E+03  0.10613828153E+04  0.00000000000E+00 0.  1.
         -3    1    6    6    0  502  0.73391749002E+02 -0.95206703640E+01 -0.59477715105E+01  0.74245322895E+02  0.00000000000E+00 0.  1.
<mgrwt>
<rscale>  0 0.23579279E+04</rscale>
<asrwt>0</asrwt>
<pdfrwt beam="1">  1        2 0.40259810E+00 0.23579279E+04</pdfrwt>
<pdfrwt beam="2">  1       -2 0.81715158E-01 0.23579279E+04</pdfrwt>
<totfact> 0.35365835E+00</totfact>
</mgrwt>
</event>
<event>
12    1  0.1532786E-007  0.3789363E+04  0.7818608E-02  0.8048441E-01
         -1   -1    0    0    0  501 -0.00000000000E+00  0.00000000000E+00  0.16135323266E+04  0.16135323266E+04  0.00000000000E+00 0.  1.
          1   -1    0    0  501    0  0.00000000000E+00 -0.00000000000E+00 -0.22248190814E+04  0.22248190814E+04  0.00000000000E+00 0. -1.
         23    2    1    2    0    0  0.11740495278E+04  0.29878282035E+03  0.10404150649E+04  0.15995075920E+04  0.91090955398E+02 0.  0.
        254    2    1    2    0    0 -0.11740495278E+04 -0.29878282035E+03 -0.16517018196E+04  0.22388438160E+04  0.90368095278E+03 0.  0.
        -24    2    4    4    0    0 -0.85706175852E+03  0.22454111894E+03 -0.88780849657E+03  0.12569477205E+04  0.82097949756E+02 0.  0.
         24    2    4    4    0    0 -0.31698776925E+03 -0.52332393929E+03 -0.76389332302E+03  0.98189609559E+03  0.78979378910E+02 0.  0.
         11    1    3    3    0    0  0.86147059131E+03  0.19528103356E+03  0.80073348398E+03  0.11922417432E+04  0.00000000000E+00 0.  1.
        -11    1    3    3    0    0  0.31257893646E+03  0.10350178680E+03  0.23968158089E+03  0.40726584881E+03  0.00000000000E+00 0. -1.
          2    1    6    6  502    0 -0.53346284892E+02 -0.95438844271E+02 -0.92408237165E+02  0.14315614344E+03  0.00000000000E+00 0. -1.
          1    1    5    5  503    0 -0.13695984973E+02  0.15897222687E+02 -0.20117108333E+02  0.29068879257E+02  0.00000000000E+00 0. -1.
         -4    1    5    5    0  503 -0.84336577355E+03  0.20864389625E+03 -0.86769138824E+03  0.12278788412E+04  0.00000000000E+00 0.  1.
         -1    1    6    6    0  502 -0.26364148435E+03 -0.42788509502E+03 -0.67148508586E+03  0.83873995216E+03  0.00000000000E+00 0.  1.
<mgrwt>
<rscale>  0 0.37893627E+04</rscale>
<asrwt>0</asrwt>
<pdfrwt beam="1">  1        1 0.34227986E+00 0.37893627E+04</pdfrwt>
<pdfrwt beam="2">  1       -1 0.24823575E+00 0.37893627E+04</pdfrwt>
<totfact> 0.11947114E-01</totfact>
</mgrwt>
</event>
<event>
12    1  0.1532786E-007  0.2501886E+04  0.7818608E-02  0.8402314E-01
          2   -1    0    0  501    0  0.00000000000E+00  0.00000000000E+00  0.55962687414E+03  0.55962687414E+03  0.00000000000E+00 0.  1.
         -2   -1    0    0    0  501 -0.00000000000E+00 -0.00000000000E+00 -0.27962533375E+04  0.27962533375E+04  0.00000000000E+00 0. -1.
         23    2    1    2    0    0  0.36037538109E+03 -0.88284333699E+03 -0.16720413043E+04  0.19270721288E+04  0.92747470684E+02 0.  0.
        254    2    1    2    0    0 -0.36037538109E+03  0.88284333699E+03 -0.56458515908E+03  0.14288080829E+04  0.90191649438E+03 0.  0.
        -24    2    4    4    0    0 -0.37863466138E+03  0.10529677746E+04 -0.45418415024E+03  0.12102583794E+04  0.79603777110E+02 0.  0.
         24    2    4    4    0    0  0.18259280292E+02 -0.17012443762E+03 -0.11040100884E+03  0.21854970350E+03  0.79371686106E+02 0.  0.
         11    1    3    3    0    0  0.24249584711E+03 -0.61755076381E+03 -0.12442087955E+04  0.14100456406E+04  0.00000000000E+00 0. -1.
        -11    1    3    3    0    0  0.11787953399E+03 -0.26529257318E+03 -0.42783250881E+03  0.51702648821E+03  0.00000000000E+00 0.  1.
          4    1    6    6  502    0 -0.11466500150E+02  0.29329607510E+01 -0.15021186558E+01  0.11930601197E+02  0.00000000000E+00 0. -1.
          1    1    5    5  503    0 -0.83920659202E+02  0.17553918667E+03 -0.10408651704E+03  0.22065966131E+03  0.00000000000E+00 0. -1.
         -2    1    5    5    0  503 -0.29471400218E+03  0.87742858794E+03 -0.35009763319E+03  0.98959871806E+03  0.00000000000E+00 0.  1.
         -3    1    6    6    0  502  0.29725780442E+02 -0.17305739837E+03 -0.10889889019E+03  0.20661910230E+03  0.00000000000E+00 0.  1.
<mgrwt>
<rscale>  0 0.25018861E+04</rscale>
<asrwt>0</asrwt>
<pdfrwt beam="1">  1        2 0.86096440E-01 0.25018861E+04</pdfrwt>
<pdfrwt beam="2">  1       -2 0.43019283E+00 0.25018861E+04</pdfrwt>
<totfact> 0.22571208E-01</totfact>
</mgrwt>
</event>
<event>
12    1  0.1532786E-007  0.1046875E+04  0.7818608E-02  0.9258576E-01
          2   -1    0    0  501    0  0.00000000000E+00  0.00000000000E+00  0.10806195746E+04  0.10806195746E+04  0.00000000000E+00 0. -1.
         -2   -1    0    0    0  501 -0.00000000000E+00 -0.00000000000E+00 -0.25354626593E+03  0.25354626593E+03  0.00000000000E+00 0.  1.
         23    2    1    2    0    0  0.47379506951E+02  0.14286170057E+03  0.10966330448E+03  0.20641519432E+03  0.89033190030E+02 0.  0.
        254    2    1    2    0    0 -0.47379506951E+02 -0.14286170057E+03  0.71741000421E+03  0.11277506462E+04  0.85702399194E+03 0.  0.
        -24    2    4    4    0    0  0.98753352698E+02 -0.41321643432E+03  0.68360132040E+03  0.80881504930E+03  0.79818371759E+02 0.  0.
         24    2    4    4    0    0 -0.14613285965E+03  0.27035473374E+03  0.33808683809E+02  0.31893559693E+03  0.78296827255E+02 0.  0.
         13    1    3    3    0    0 -0.15433083996E+02  0.59991509260E+02  0.73954220240E+02  0.96469621935E+02  0.00000000000E+00 0. -1.
        -13    1    3    3    0    0  0.62812590947E+02  0.82870191312E+02  0.35709084240E+02  0.10994557238E+03  0.00000000000E+00 0.  1.
          2    1    6    6  502    0 -0.89011187466E+02  0.12031957038E+03  0.49477029388E+02  0.15763174473E+03  0.00000000000E+00 0. -1.
          3    1    5    5  503    0  0.81065193280E+02 -0.17094808452E+03  0.28784838263E+03  0.34445827693E+03  0.00000000000E+00 0. -1.
         -4    1    5    5    0  503  0.17688159417E+02 -0.24226834980E+03  0.39575293776E+03  0.46435677237E+03  0.00000000000E+00 0.  1.
         -1    1    6    6    0  502 -0.57121672183E+02  0.15003516337E+03 -0.15668345579E+02  0.16130385220E+03  0.00000000000E+00 0.  1.
<mgrwt>
<rscale>  0 0.10468755E+04</rscale>
<asrwt>0</asrwt>
<pdfrwt beam="1">  1        2 0.16624916E+00 0.10468755E+04</pdfrwt>
<pdfrwt beam="2">  1       -2 0.39007118E-01 0.10468755E+04</pdfrwt>
<totfact> 0.13844077E+02</totfact>
</mgrwt>
</event>
<event>
12    1  0.1532786E-007  0.1444489E+04  0.7818608E-02  0.8922230E-01
          1   -1    0    0  501    0  0.00000000000E+00  0.00000000000E+00  0.34276700459E+03  0.34276700459E+03  0.00000000000E+00 0. -1.
         -1   -1    0    0    0  501 -0.00000000000E+00 -0.00000000000E+00 -0.15218425317E+04  0.15218425317E+04  0.00000000000E+00 0.  1.
         23    2    1    2    0    0 -0.30273806445E+03 -0.17234447905E+03 -0.69944278467E+03  0.78669138221E+03  0.91160115714E+02 0.  0.
        254    2    1    2    0    0  0.30273806445E+03  0.17234447905E+03 -0.47963274242E+03  0.10779181541E+04  0.90028163601E+03 0.  0.
        -24    2    4    4    0    0  0.42347284510E+03  0.19957077698E+03  0.94968820777E+02  0.48428673206E+03  0.79729645484E+02 0.  0.
         24    2    4    4    0    0 -0.12073478065E+03 -0.27226297930E+02 -0.57460156320E+03  0.59363142200E+03  0.83145355812E+02 0.  0.
         11    1    3    3    0    0 -0.41703724415E+02 -0.42043539341E+01 -0.40629930613E+02  0.58375238618E+02  0.00000000000E+00 0. -1.
        -11    1    3    3    0    0 -0.26103434003E+03 -0.16814012512E+03 -0.65881285406E+03  0.72831614360E+03  0.00000000000E+00 0.  1.
          2    1    6    6  502    0 -0.41175506737E+02  0.10559170428E+02 -0.73993250463E+02  0.85334164022E+02  0.00000000000E+00 0. -1.
          3    1    5    5  503    0  0.18841115848E+03  0.12614166168E+03  0.24026242277E+02  0.22800820987E+03  0.00000000000E+00 0. -1.
         -4    1    5    5    0  503  0.23506168663E+03  0.73429115297E+02  0.70942578500E+02  0.25627852219E+03  0.00000000000E+00 0.  1.
         -1    1    6    6    0  502 -0.79559273918E+02 -0.37785468359E+02 -0.50060831274E+03  0.50829725798E+03  0.00000000000E+00 0.  1.
<mgrwt>
<rscale>  0 0.14444894E+04</rscale>
<asrwt>0</asrwt>
<pdfrwt beam="1">  1        1 0.52733386E-01 0.14444894E+04</pdfrwt>
<pdfrwt beam="2">  1       -1 0.23412962E+00 0.14444894E+04</pdfrwt>
<totfact> 0.63422064E+00</totfact>
</mgrwt>
</event>
<event>
12    1  0.1532786E-007  0.1624566E+04  0.7818608E-02  0.8805597E-01
         -2   -1    0    0    0  501 -0.00000000000E+00  0.00000000000E+00  0.89949035302E+03  0.89949035302E+03  0.00000000000E+00 0.  1.
          2   -1    0    0  501    0  0.00000000000E+00 -0.00000000000E+00 -0.73353033163E+03  0.73353033163E+03  0.00000000000E+00 0. -1.
         23    2    1    2    0    0 -0.24019032026E+03 -0.38406344278E+03  0.38615760864E+03  0.60185102072E+03  0.88942871621E+02 0.  0.
        254    2    1    2    0    0  0.24019032026E+03  0.38406344278E+03 -0.22019758725E+03  0.10311696639E+04  0.89979318754E+03 0.  0.
        -24    2    4    4    0    0  0.47167740206E+03  0.53384761088E+03 -0.19628731501E+03  0.74300569191E+03  0.77819694948E+02 0.  0.
         24    2    4    4    0    0 -0.23148708180E+03 -0.14978416810E+03 -0.23910272239E+02  0.28816397201E+03  0.80282050250E+02 0.  0.
         13    1    3    3    0    0 -0.72965406983E+00  0.47855158670E+01  0.56021965528E+01  0.74039289159E+01  0.00000000000E+00 0. -1.
        -13    1    3    3    0    0 -0.23946066619E+03 -0.38884895865E+03  0.38055541208E+03  0.59444709181E+03  0.00000000000E+00 0.  1.
          4    1    6    6  502    0 -0.20873702977E+03 -0.98012938508E+02 -0.17913958635E+02  0.23129762997E+03  0.00000000000E+00 0. -1.
          3    1    5    5  503    0  0.45692654822E+03  0.49201280140E+03 -0.19237398843E+03  0.69847420756E+03  0.00000000000E+00 0. -1.
         -4    1    5    5    0  503  0.14750853844E+02  0.41834809480E+02 -0.39133265834E+01  0.44531484349E+02  0.00000000000E+00 0.  1.
         -3    1    6    6    0  502 -0.22750052029E+02 -0.51771229595E+02 -0.59963136045E+01  0.56866342048E+02  0.00000000000E+00 0.  1.
<mgrwt>
<rscale>  0 0.16245657E+04</rscale>
<asrwt>0</asrwt>
<pdfrwt beam="1">  1        2 0.11285082E+00 0.16245657E+04</pdfrwt>
<pdfrwt beam="2">  1       -2 0.13838313E+00 0.16245657E+04</pdfrwt>
<totfact> 0.13668125E+01</totfact>
</mgrwt>
</event>
<event>
12    1  0.1532786E-007  0.2118776E+04  0.7818608E-02  0.8553017E-01
          2   -1    0    0  501    0  0.00000000000E+00  0.00000000000E+00  0.11619840850E+04  0.11619840850E+04  0.00000000000E+00 0. -1.
         -2   -1    0    0    0  501 -0.00000000000E+00 -0.00000000000E+00 -0.96585044618E+03  0.96585044618E+03  0.00000000000E+00 0.  1.
         23    2    1    2    0    0  0.25241108791E+03 -0.46164389798E+03 -0.60828085426E+03  0.80953998817E+03  0.92319818800E+02 0.  0.
        254    2    1    2    0    0 -0.25241108791E+03  0.46164389798E+03  0.80441449312E+03  0.13182945431E+04  0.90221470819E+03 0.  0.
        -24    2    4    4    0    0 -0.44902685493E+03  0.62148471874E+03  0.66665593069E+03  0.10191515103E+04  0.79820416682E+02 0.  0.
         24    2    4    4    0    0  0.19661576703E+03 -0.15984082076E+03  0.13775856243E+03  0.29914303277E+03  0.79386930348E+02 0.  0.
         13    1    3    3    0    0  0.10433896752E+03 -0.15337281214E+03 -0.15508507709E+03  0.24178755300E+03  0.00000000000E+00 0. -1.
        -13    1    3    3    0    0  0.14807212038E+03 -0.30827108584E+03 -0.45319577717E+03  0.56775243517E+03  0.00000000000E+00 0.  1.
          2    1    6    6  502    0  0.32704115583E+01  0.69561174584E+01  0.12624118735E+02  0.14780106079E+02  0.00000000000E+00 0. -1.
          3    1    5    5  503    0 -0.32822417187E+02  0.47980225051E+02  0.25317627175E+02  0.63406587290E+02  0.00000000000E+00 0. -1.
         -4    1    5    5    0  503 -0.41620443775E+03  0.57350449369E+03  0.64133830352E+03  0.95574492300E+03  0.00000000000E+00 0.  1.
         -1    1    6    6    0  502  0.19334535547E+03 -0.16679693821E+03  0.12513444369E+03  0.28436292669E+03  0.00000000000E+00 0.  1.
<mgrwt>
<rscale>  0 0.21187759E+04</rscale>
<asrwt>0</asrwt>
<pdfrwt beam="1">  1        2 0.17876678E+00 0.21187759E+04</pdfrwt>
<pdfrwt beam="2">  1       -2 0.14859238E+00 0.21187759E+04</pdfrwt>
<totfact> 0.56438884E+00</totfact>
</mgrwt>
</event>
<event>
12    1  0.1532786E-007  0.1537504E+04  0.7818608E-02  0.8859889E-01
         -3   -1    0    0    0  501 -0.00000000000E+00  0.00000000000E+00  0.13382773412E+04  0.13382773412E+04  0.00000000000E+00 0.  1.
          3   -1    0    0  501    0  0.00000000000E+00 -0.00000000000E+00 -0.44159719938E+03  0.44159719938E+03  0.00000000000E+00 0. -1.
         23    2    1    2    0    0  0.32861202900E+03 -0.21590349791E+02 -0.12059549296E+03  0.36206276342E+03  0.89967565950E+02 0.  0.
        254    2    1    2    0    0 -0.32861202900E+03  0.21590349791E+02  0.10172756348E+04  0.14178117772E+04  0.93106847736E+03 0.  0.
        -24    2    4    4    0    0 -0.32361113590E+03 -0.30268844584E+03  0.12939490391E+03  0.46922578423E+03  0.84174419537E+02 0.  0.
         24    2    4    4    0    0 -0.50008931034E+01  0.32427879563E+03  0.88788073089E+03  0.94858599295E+03  0.79381657205E+02 0.  0.
         13    1    3    3    0    0 -0.47306813177E+01 -0.50547665676E+01 -0.60703424704E+01  0.92075549681E+01  0.00000000000E+00 0.  1.
        -13    1    3    3    0    0  0.33334271032E+03 -0.16535583223E+02 -0.11452515049E+03  0.35285520845E+03  0.00000000000E+00 0. -1.
          2    1    6    6  502    0  0.12951932247E+02  0.55386435315E+01  0.27746573062E+02  0.31117542284E+02  0.00000000000E+00 0. -1.
          3    1    5    5  503    0 -0.77092625447E+02 -0.29354400271E+02  0.15576231290E+02  0.83949822482E+02  0.00000000000E+00 0. -1.
         -4    1    5    5    0  503 -0.24651851045E+03 -0.27333404557E+03  0.11381867262E+03  0.38527596174E+03  0.00000000000E+00 0.  1.
         -1    1    6    6    0  502 -0.17952825351E+02  0.31874015210E+03  0.86013415783E+03  0.91746845066E+03  0.00000000000E+00 0.  1.
<mgrwt>
<rscale>  0 0.15375039E+04</rscale>
<asrwt>0</asrwt>
<pdfrwt beam="1">  1        3 0.67938031E-01 0.15375039E+04</pdfrwt>
<pdfrwt beam="2">  1       -3 0.20588882E+00 0.15375039E+04</pdfrwt>
<totfact> 0.70674337E-01</totfact>
</mgrwt>
</event>
<event>
12    1  0.1532786E-007  0.1184578E+04  0.7818608E-02  0.9126464E-01
          2   -1    0    0  501    0  0.00000000000E+00  0.00000000000E+00  0.31499601603E+04  0.31499601603E+04  0.00000000000E+00 0. -1.
         -2   -1    0    0    0  501 -0.00000000000E+00 -0.00000000000E+00 -0.11136840883E+03  0.11136840883E+03  0.00000000000E+00 0.  1.
         23    2    1    2    0    0  0.21491967631E+03  0.93750551384E+02  0.93647619064E+03  0.97015450678E+03  0.96085785890E+02 0.  0.
        254    2    1    2    0    0 -0.21491967631E+03 -0.93750551384E+02  0.21021155608E+04  0.22911740623E+04  0.88068673191E+03 0.  0.
        -24    2    4    4    0    0 -0.16469769892E+03 -0.44869451557E+03  0.77500933362E+03  0.91413367906E+03  0.80924753041E+02 0.  0.
         24    2    4    4    0    0 -0.50221977392E+02  0.35494396419E+03  0.13271062272E+04  0.13770403833E+04  0.80757750096E+02 0.  0.
         11    1    3    3    0    0 -0.65517819557E+01 -0.30882904045E+01  0.76850271806E+02  0.77190852185E+02  0.00000000000E+00 0.  1.
        -11    1    3    3    0    0  0.22147145827E+03  0.96838841789E+02  0.85962591883E+03  0.89296365460E+03  0.00000000000E+00 0. -1.
          2    1    6    6  502    0 -0.56719828456E+02  0.12923158034E+03  0.54672066159E+03  0.56464273847E+03  0.00000000000E+00 0. -1.
          3    1    5    5  503    0  0.54582734624E+01 -0.62088002393E+02  0.10393958320E+03  0.12119467705E+03  0.00000000000E+00 0. -1.
         -4    1    5    5    0  503 -0.17015597238E+03 -0.38660651318E+03  0.67106975042E+03  0.79293900200E+03  0.00000000000E+00 0.  1.
         -1    1    6    6    0  502  0.64978510642E+01  0.22571238384E+03  0.78038556562E+03  0.81239764483E+03  0.00000000000E+00 0.  1.
<mgrwt>
<rscale>  0 0.11845776E+04</rscale>
<asrwt>0</asrwt>
<pdfrwt beam="1">  1        2 0.48460919E+00 0.11845776E+04</pdfrwt>
<pdfrwt beam="2">  1       -2 0.17133604E-01 0.11845776E+04</pdfrwt>
<totfact> 0.39332902E+01</totfact>
</mgrwt>
</event>
<event>
12    1  0.2158486E-007  0.1850406E+04  0.7818608E-02  0.8679944E-01
          1   -1    0    0  501    0  0.00000000000E+00  0.00000000000E+00  0.20006594317E+04  0.20006594317E+04  0.00000000000E+00 0. -1.
         -1   -1    0    0    0  501 -0.00000000000E+00 -0.00000000000E+00 -0.42785938760E+03  0.42785938760E+03  0.00000000000E+00 0.  1.
         23    2    1    2    0    0  0.27074718375E+03 -0.36196572163E+03  0.13036433257E+04  0.13828379317E+04  0.91823763720E+02 0.  0.
        254    2    1    2    0    0 -0.27074718375E+03  0.36196572163E+03  0.26915671838E+03  0.10456808876E+04  0.90370346822E+03 0.  0.
        -24    2    4    4    0    0 -0.28470946731E+03  0.46949540821E+03  0.52024028797E+03  0.76113545640E+03  0.84804520271E+02 0.  0.
         24    2    4    4    0    0  0.13962283561E+02 -0.10752968658E+03 -0.25108356959E+03  0.28454543118E+03  0.78521109449E+02 0.  0.
         13    1    3    3    0    0  0.27591041872E+03 -0.35116344065E+03  0.12873951628E+04  0.13626549917E+04  0.00000000000E+00 0. -1.
        -13    1    3    3    0    0 -0.51632349753E+01 -0.10802280977E+02  0.16248162920E+02  0.20182940024E+02  0.00000000000E+00 0.  1.
          2    1    6    6  502    0 -0.14356188566E+02 -0.10192771876E+03 -0.21471156993E+03  0.23811009693E+03  0.00000000000E+00 0. -1.
          1    1    5    5  503    0 -0.28175975431E+03  0.41949338836E+03  0.47849128881E+03  0.69592900176E+03  0.00000000000E+00 0. -1.
         -4    1    5    5    0  503 -0.29497129990E+01  0.50002019846E+02  0.41748999167E+02  0.65206454642E+02  0.00000000000E+00 0.  1.
         -1    1    6    6    0  502  0.28318472127E+02 -0.56019678224E+01 -0.36371999666E+02  0.46435334249E+02  0.00000000000E+00 0.  1.
<mgrwt>
<rscale>  0 0.18504064E+04</rscale>
<asrwt>0</asrwt>
<pdfrwt beam="1">  1        1 0.30779375E+00 0.18504064E+04</pdfrwt>
<pdfrwt beam="2">  1       -1 0.65824523E-01 0.18504064E+04</pdfrwt>
<totfact> 0.65432557E+00</totfact>
</mgrwt>
</event>
<event>
12    1  0.1532786E-007  0.1185870E+04  0.7818608E-02  0.9125315E-01
          1   -1    0    0  501    0  0.00000000000E+00  0.00000000000E+00  0.20380081923E+04  0.20380081923E+04  0.00000000000E+00 0. -1.
         -1   -1    0    0    0  501 -0.00000000000E+00 -0.00000000000E+00 -0.17250767572E+03  0.17250767572E+03  0.00000000000E+00 0.  1.
         23    2    1    2    0    0  0.28503966170E+02 -0.46233723656E+02  0.84301764338E+03  0.84966309568E+03  0.91096628964E+02 0.  0.
        254    2    1    2    0    0 -0.28503966170E+02  0.46233723656E+02  0.10224828732E+04  0.13608527723E+04  0.89638106223E+03 0.  0.
        -24    2    4    4    0    0 -0.40199851235E+03  0.11340720206E+03  0.81783571725E+03  0.92169698033E+03  0.78778586797E+02 0.  0.
         24    2    4    4    0    0  0.37349454618E+03 -0.67173478408E+02  0.20464715592E+03  0.43915579199E+03  0.83467951809E+02 0.  0.
         11    1    3    3    0    0  0.41835373950E+02 -0.29823185729E+02  0.20653372035E+03  0.21282809627E+03  0.00000000000E+00 0. -1.
        -11    1    3    3    0    0 -0.13331407780E+02 -0.16410537928E+02  0.63648392304E+03  0.63683499941E+03  0.00000000000E+00 0.  1.
          4    1    6    6  502    0  0.31282045219E+03 -0.54552779136E+02  0.13258225208E+03  0.34410855059E+03  0.00000000000E+00 0. -1.
          3    1    5    5  503    0 -0.31206356520E+03  0.89545911503E+02  0.69943201912E+03  0.77110783186E+03  0.00000000000E+00 0. -1.
         -4    1    5    5    0  503 -0.89934947152E+02  0.23861290562E+02  0.11840369813E+03  0.15058914847E+03  0.00000000000E+00 0.  1.
         -3    1    6    6    0  502  0.60674093989E+02 -0.12620699272E+02  0.72064903844E+02  0.95047241399E+02  0.00000000000E+00 0.  1.
<mgrwt>
<rscale>  0 0.11858702E+04</rscale>
<asrwt>0</asrwt>
<pdfrwt beam="1">  1        1 0.31353970E+00 0.11858702E+04</pdfrwt>
<pdfrwt beam="2">  1       -1 0.26539644E-01 0.11858702E+04</pdfrwt>
<totfact> 0.35232781E+01</totfact>
</mgrwt>
</event>
<event>
12    1  0.1532786E-007  0.1485144E+04  0.7818608E-02  0.8894393E-01
          3   -1    0    0  501    0  0.00000000000E+00  0.00000000000E+00  0.72834007523E+03  0.72834007523E+03  0.00000000000E+00 0. -1.
         -3   -1    0    0    0  501 -0.00000000000E+00 -0.00000000000E+00 -0.75708163723E+03  0.75708163723E+03  0.00000000000E+00 0.  1.
         23    2    1    2    0    0 -0.11461378622E+03  0.39669032482E+03  0.17670009144E+03  0.45820949656E+03  0.90738561945E+02 0.  0.
        254    2    1    2    0    0  0.11461378622E+03 -0.39669032482E+03 -0.20544165345E+03  0.10272122159E+04  0.91785572380E+03 0.  0.
        -24    2    4    4    0    0 -0.27419585193E+03 -0.21924722869E+03  0.21717541710E+03  0.42087211453E+03  0.81947925513E+02 0.  0.
         24    2    4    4    0    0  0.38880963815E+03 -0.17744309614E+03 -0.42261707054E+03  0.60634010137E+03  0.79900833070E+02 0.  0.
         11    1    3    3    0    0 -0.81786957759E+02  0.32931696867E+03  0.17816251152E+03  0.38325011784E+03  0.00000000000E+00 0. -1.
        -11    1    3    3    0    0 -0.32826828460E+02  0.67373356152E+02 -0.14624200741E+01  0.74959378722E+02  0.00000000000E+00 0.  1.
          4    1    6    6  502    0  0.38954809815E+03 -0.17473383775E+03 -0.40491951670E+03  0.58842115005E+03  0.00000000000E+00 0. -1.
          3    1    5    5  503    0 -0.24577798332E+03 -0.15585153020E+03  0.17659575751E+03  0.34041530242E+03  0.00000000000E+00 0. -1.
         -4    1    5    5    0  503 -0.28417868608E+02 -0.63395698484E+02  0.40579659583E+02  0.80456812107E+02  0.00000000000E+00 0.  1.
         -3    1    6    6    0  502 -0.73845999573E+00 -0.27092583840E+01 -0.17697553841E+02  0.17918951312E+02  0.00000000000E+00 0.  1.
<mgrwt>
<rscale>  0 0.14851436E+04</rscale>
<asrwt>0</asrwt>
<pdfrwt beam="1">  1        3 0.11205232E+00 0.14851436E+04</pdfrwt>
<pdfrwt beam="2">  1       -3 0.11647410E+00 0.14851436E+04</pdfrwt>
<totfact> 0.10291802E+00</totfact>
</mgrwt>
</event>
<event>
12    1  0.1532786E-007  0.1326872E+04  0.7818608E-02  0.9008523E-01
         -1   -1    0    0    0  501 -0.00000000000E+00  0.00000000000E+00  0.27953916804E+03  0.27953916804E+03  0.00000000000E+00 0.  1.
          1   -1    0    0  501    0  0.00000000000E+00 -0.00000000000E+00 -0.15745452271E+04  0.15745452271E+04  0.00000000000E+00 0. -1.
         23    2    1    2    0    0  0.23899138560E+02 -0.11947568070E+03  0.14894863895E+03  0.21473745446E+03  0.95293599984E+02 0.  0.
        254    2    1    2    0    0 -0.23899138560E+02  0.11947568070E+03 -0.14439546981E+04  0.16393469407E+04  0.76655568284E+03 0.  0.
        -24    2    4    4    0    0 -0.32043386467E+03  0.19646959356E+03 -0.11308626330E+04  0.11943381870E+04  0.79468530287E+02 0.  0.
         24    2    4    4    0    0  0.29653472611E+03 -0.76993912856E+02 -0.31309206502E+03  0.44500875372E+03  0.78391602245E+02 0.  0.
         13    1    3    3    0    0  0.11219462078E+02  0.15033866916E+02  0.26016017786E+02  0.32073769115E+02  0.00000000000E+00 0. -1.
        -13    1    3    3    0    0  0.12679676481E+02 -0.13450954762E+03  0.12293262117E+03  0.18266368534E+03  0.00000000000E+00 0.  1.
          4    1    6    6  502    0  0.22628521463E+02 -0.16800579244E+02 -0.63940557467E+02  0.69876350332E+02  0.00000000000E+00 0. -1.
          1    1    5    5  503    0 -0.63129541657E+01 -0.36382941645E+01 -0.60601698297E+01  0.94771426649E+01  0.00000000000E+00 0. -1.
         -2    1    5    5    0  503 -0.31412091050E+03  0.20010788772E+03 -0.11248024632E+04  0.11848610443E+04  0.00000000000E+00 0.  1.
         -3    1    6    6    0  502  0.27390620465E+03 -0.60193333612E+02 -0.24915150756E+03  0.37513240339E+03  0.00000000000E+00 0.  1.
<mgrwt>
<rscale>  0 0.13268716E+04</rscale>
<asrwt>0</asrwt>
<pdfrwt beam="1">  1        1 0.24223772E+00 0.13268716E+04</pdfrwt>
<pdfrwt beam="2">  1       -1 0.43006026E-01 0.13268716E+04</pdfrwt>
<totfact> 0.30356037E+01</totfact>
</mgrwt>
</event>
<event>
12    1  0.1532786E-007  0.1218805E+04  0.7818608E-02  0.9096554E-01
          1   -1    0    0  501    0  0.00000000000E+00  0.00000000000E+00  0.19594642403E+04  0.19594642403E+04  0.00000000000E+00 0. -1.
         -1   -1    0    0    0  501 -0.00000000000E+00 -0.00000000000E+00 -0.18952692817E+03  0.18952692817E+03  0.00000000000E+00 0.  1.
         23    2    1    2    0    0  0.18452351778E+03  0.18982209224E+03  0.40426777198E+03  0.49182809318E+03  0.91548273972E+02 0.  0.
        254    2    1    2    0    0 -0.18452351778E+03 -0.18982209224E+03  0.13656695402E+04  0.16571630753E+04  0.90058581485E+03 0.  0.
        -24    2    4    4    0    0 -0.12794857539E+03 -0.11226591654E+03 -0.82023810793E+02  0.20408189763E+03  0.77117063226E+02 0.  0.
         24    2    4    4    0    0 -0.56574942389E+02 -0.77556175694E+02  0.14476933510E+04  0.14530811777E+04  0.80082370160E+02 0.  0.
         11    1    3    3    0    0  0.62216411463E+02  0.13125991362E+02  0.11586624850E+03  0.13216717084E+03  0.00000000000E+00 0. -1.
        -11    1    3    3    0    0  0.12230710632E+03  0.17669610087E+03  0.28840152347E+03  0.35966092234E+03  0.00000000000E+00 0.  1.
          2    1    6    6  502    0 -0.70469722643E+02 -0.33804829590E+02  0.82270139295E+03  0.82640566932E+03  0.00000000000E+00 0. -1.
          1    1    5    5  503    0 -0.14385486479E+02 -0.60207166777E+02 -0.25090510949E+02  0.66793554272E+02  0.00000000000E+00 0. -1.
         -2    1    5    5    0  503 -0.11356308891E+03 -0.52058749764E+02 -0.56933299844E+02  0.13728834335E+03  0.00000000000E+00 0.  1.
         -1    1    6    6    0  502  0.13894780254E+02 -0.43751346104E+02  0.62499195804E+03  0.62667550839E+03  0.00000000000E+00 0.  1.
<mgrwt>
<rscale>  0 0.12188047E+04</rscale>
<asrwt>0</asrwt>
<pdfrwt beam="1">  1        1 0.30145602E+00 0.12188047E+04</pdfrwt>
<pdfrwt beam="2">  1       -1 0.29157990E-01 0.12188047E+04</pdfrwt>
<totfact> 0.33711384E+01</totfact>
</mgrwt>
</event>
<event>
12    1  0.1532786E-007  0.1777215E+04  0.7818608E-02  0.8718511E-01
         -1   -1    0    0    0  501 -0.00000000000E+00  0.00000000000E+00  0.44486914305E+03  0.44486914305E+03  0.00000000000E+00 0.  1.
          1   -1    0    0  501    0  0.00000000000E+00 -0.00000000000E+00 -0.17749556789E+04  0.17749556789E+04  0.00000000000E+00 0. -1.
         23    2    1    2    0    0 -0.49139847588E+03 -0.36026351999E+02  0.52102321924E+02  0.50445856129E+03  0.94833685831E+02 0.  0.
        254    2    1    2    0    0  0.49139847588E+03  0.36026351999E+02 -0.13821888578E+04  0.17153662607E+04  0.88840588109E+03 0.  0.
        -24    2    4    4    0    0  0.17978334067E+03 -0.16621888281E+03  0.23748914760E+02  0.25879538713E+03  0.80375835081E+02 0.  0.
         24    2    4    4    0    0  0.31161513521E+03  0.20224523480E+03 -0.14059377726E+04  0.14565708736E+04  0.83249996396E+02 0.  0.
         11    1    3    3    0    0 -0.47432865998E+03 -0.19574074570E+02  0.62007491718E+02  0.47876481815E+03  0.00000000000E+00 0.  1.
        -11    1    3    3    0    0 -0.17069815904E+02 -0.16452277429E+02 -0.99051697939E+01  0.25693743134E+02  0.00000000000E+00 0. -1.
          2    1    6    6  502    0  0.26843082987E+03  0.17077117624E+03 -0.12939368097E+04  0.13324752803E+04  0.00000000000E+00 0. -1.
          1    1    5    5  503    0  0.14745838279E+03 -0.14624103358E+03  0.48730325815E+02  0.21331914872E+03  0.00000000000E+00 0. -1.
         -2    1    5    5    0  503  0.32324957883E+02 -0.19977849227E+02 -0.24981411055E+02  0.45476238413E+02  0.00000000000E+00 0.  1.
         -1    1    6    6    0  502  0.43184305339E+02  0.31474058560E+02 -0.11200096285E+03  0.12409559327E+03  0.00000000000E+00 0.  1.
<mgrwt>
<rscale>  0 0.17772147E+04</rscale>
<asrwt>0</asrwt>
<pdfrwt beam="1">  1        1 0.27307011E+00 0.17772147E+04</pdfrwt>
<pdfrwt beam="2">  1       -1 0.68441406E-01 0.17772147E+04</pdfrwt>
<totfact> 0.86554710E+00</totfact>
</mgrwt>
</event>
<event>
12    1  0.1532786E-007  0.2854451E+04  0.7818608E-02  0.8286560E-01
         -1   -1    0    0    0  501 -0.00000000000E+00  0.00000000000E+00  0.84298365457E+03  0.84298365457E+03  0.00000000000E+00 0.  1.
          1   -1    0    0  501    0  0.00000000000E+00 -0.00000000000E+00 -0.24163848404E+04  0.24163848404E+04  0.00000000000E+00 0. -1.
         23    2    1    2    0    0 -0.11225249161E+04  0.57069587935E+03 -0.42325637167E+03  0.13315889504E+04  0.90703928787E+02 0.  0.
        254    2    1    2    0    0  0.11225249161E+04 -0.57069587935E+03 -0.11501448142E+04  0.19277795446E+04  0.89874629622E+03 0.  0.
        -24    2    4    4    0    0  0.92562859454E+03 -0.56938908617E+03 -0.41946859028E+03  0.11672688207E+04  0.74634945315E+02 0.  0.
         24    2    4    4    0    0  0.19689632157E+03 -0.13067931816E+01 -0.73067622392E+03  0.76051072390E+03  0.75623725240E+02 0.  0.
         11    1    3    3    0    0 -0.85245166802E+03  0.45923938883E+03 -0.29252590354E+03  0.10115068298E+04  0.00000000000E+00 0. -1.
        -11    1    3    3    0    0 -0.27007324809E+03  0.11145649052E+03 -0.13073046813E+03  0.32008212058E+03  0.00000000000E+00 0.  1.
          4    1    6    6  502    0  0.93587215630E+02 -0.22041133883E+02 -0.23789278044E+03  0.25658790599E+03  0.00000000000E+00 0. -1.
          1    1    5    5  503    0  0.70018849676E+03 -0.39634737550E+03 -0.29410477281E+03  0.85665208250E+03  0.00000000000E+00 0. -1.
         -2    1    5    5    0  503  0.22544009778E+03 -0.17304171067E+03 -0.12536381747E+03  0.31061673820E+03  0.00000000000E+00 0.  1.
         -3    1    6    6    0  502  0.10330910594E+03  0.20734340702E+02 -0.49278344347E+03  0.50392281792E+03  0.00000000000E+00 0.  1.
<mgrwt>
<rscale>  0 0.28544512E+04</rscale>
<asrwt>0</asrwt>
<pdfrwt beam="1">  1        1 0.37175151E+00 0.28544512E+04</pdfrwt>
<pdfrwt beam="2">  1       -1 0.12968980E+00 0.28544512E+04</pdfrwt>
<totfact> 0.68028434E-01</totfact>
</mgrwt>
</event>
<event>
12    1  0.1532786E-007  0.1086473E+04  0.7818608E-02  0.9218477E-01
          2   -1    0    0  501    0  0.00000000000E+00  0.00000000000E+00  0.14627091423E+04  0.14627091423E+04  0.00000000000E+00 0. -1.
         -2   -1    0    0    0  501 -0.00000000000E+00 -0.00000000000E+00 -0.20175306736E+03  0.20175306736E+03  0.00000000000E+00 0.  1.
         23    2    1    2    0    0  0.78248192784E+02 -0.68323728461E+02  0.57692801156E+02  0.14837513250E+03  0.88858365352E+02 0.  0.
        254    2    1    2    0    0 -0.78248192784E+02  0.68323728461E+02  0.12032632738E+04  0.15160870772E+04  0.91645327649E+03 0.  0.
        -24    2    4    4    0    0 -0.33319982930E+03 -0.22157855846E+03  0.23707145799E+03  0.47206707726E+03  0.80779115036E+02 0.  0.
         24    2    4    4    0    0  0.25495163652E+03  0.28990228692E+03  0.96619181584E+03  0.10440200000E+04  0.86066615895E+02 0.  0.
         11    1    3    3    0    0 -0.19751858963E+02 -0.11853217767E+02  0.14954689400E+02  0.27464111836E+02  0.00000000000E+00 0. -1.
        -11    1    3    3    0    0  0.98000051747E+02 -0.56470510694E+02  0.42738111756E+02  0.12091102066E+03  0.00000000000E+00 0.  1.
          4    1    6    6  502    0 -0.20642362321E+01  0.77941083484E+01  0.41924969411E+01  0.90876964501E+01  0.00000000000E+00 0. -1.
          3    1    5    5  503    0 -0.20073459044E+02 -0.43252044170E+02  0.23124707583E+02  0.52994671277E+02  0.00000000000E+00 0. -1.
         -4    1    5    5    0  503 -0.31312637026E+03 -0.17832651429E+03  0.21394675041E+03  0.41907240599E+03  0.00000000000E+00 0.  1.
         -3    1    6    6    0  502  0.25701587275E+03  0.28210817857E+03  0.96199931890E+03  0.10349323035E+04  0.00000000000E+00 0.  1.
<mgrwt>
<rscale>  0 0.10864733E+04</rscale>
<asrwt>0</asrwt>
<pdfrwt beam="1">  1        2 0.22503217E+00 0.10864733E+04</pdfrwt>
<pdfrwt beam="2">  1       -2 0.31038934E-01 0.10864733E+04</pdfrwt>
<totfact> 0.12728863E+02</totfact>
</mgrwt>
</event>
<event>
12    1  0.1532786E-007  0.1971995E+04  0.7818608E-02  0.8619827E-01
         -1   -1    0    0    0  501 -0.00000000000E+00  0.00000000000E+00  0.51394016417E+03  0.51394016417E+03  0.00000000000E+00 0.  1.
          1   -1    0    0  501    0  0.00000000000E+00 -0.00000000000E+00 -0.18916423405E+04  0.18916423405E+04  0.00000000000E+00 0. -1.
         23    2    1    2    0    0 -0.36826939144E+03  0.32866325984E+03  0.18400750544E+03  0.53458217084E+03  0.90980504975E+02 0.  0.
        254    2    1    2    0    0  0.36826939144E+03 -0.32866325984E+03 -0.15617096818E+04  0.18710003339E+04  0.90446848261E+03 0.  0.
        -24    2    4    4    0    0  0.62599002504E+03 -0.14654755447E+03 -0.72014965173E+03  0.96870452698E+03  0.80207496794E+02 0.  0.
         24    2    4    4    0    0 -0.25772063360E+03 -0.18211570537E+03 -0.84156003006E+03  0.90229580687E+03  0.79551139299E+02 0.  0.
         13    1    3    3    0    0 -0.25343660793E+03  0.21626742112E+03  0.16792314812E+03  0.37309502188E+03  0.00000000000E+00 0. -1.
        -13    1    3    3    0    0 -0.11483278352E+03  0.11239583872E+03  0.16084357320E+02  0.16148714897E+03  0.00000000000E+00 0.  1.
          2    1    6    6  502    0 -0.29714817121E+02 -0.49626379839E+02 -0.21172037362E+03  0.21947953103E+03  0.00000000000E+00 0. -1.
          3    1    5    5  503    0  0.27065325795E+03 -0.37947013685E+02 -0.35201679237E+03  0.44565567875E+03  0.00000000000E+00 0. -1.
         -4    1    5    5    0  503  0.35533676709E+03 -0.10860054078E+03 -0.36813285936E+03  0.52304884824E+03  0.00000000000E+00 0.  1.
         -1    1    6    6    0  502 -0.22800581648E+03 -0.13248932553E+03 -0.62983965644E+03  0.68281627584E+03  0.00000000000E+00 0.  1.
<mgrwt>
<rscale>  0 0.19719949E+04</rscale>
<asrwt>0</asrwt>
<pdfrwt beam="1">  1        1 0.29102190E+00 0.19719949E+04</pdfrwt>
<pdfrwt beam="2">  1       -1 0.79067718E-01 0.19719949E+04</pdfrwt>
<totfact> 0.52491576E+00</totfact>
</mgrwt>
</event>
<event>
12    1  0.1532786E-007  0.1526850E+04  0.7818608E-02  0.8866792E-01
         -1   -1    0    0    0  501 -0.00000000000E+00  0.00000000000E+00  0.44471639363E+03  0.44471639363E+03  0.00000000000E+00 0.  1.
          1   -1    0    0  501    0  0.00000000000E+00 -0.00000000000E+00 -0.13105375627E+04  0.13105375627E+04  0.00000000000E+00 0. -1.
         23    2    1    2    0    0 -0.20628363739E+02 -0.43332236843E+03 -0.53668611204E+03  0.69608307583E+03  0.91136497743E+02 0.  0.
        254    2    1    2    0    0  0.20628363739E+02  0.43332236843E+03 -0.32913505708E+03  0.10591708805E+04  0.90847083829E+03 0.  0.
        -24    2    4    4    0    0  0.22034558157E+03 -0.15378187996E+03  0.10392325422E+03  0.29840986030E+03  0.77764773717E+02 0.  0.
         24    2    4    4    0    0 -0.19971721783E+03  0.58710424840E+03 -0.43305831129E+03  0.76076102025E+03  0.81482902314E+02 0.  0.
         13    1    3    3    0    0 -0.86369878086E+01 -0.46396850341E+02 -0.22007955521E+02  0.52073173383E+02  0.00000000000E+00 0.  1.
        -13    1    3    3    0    0 -0.11991375930E+02 -0.38692551809E+03 -0.51467815652E+03  0.64400990245E+03  0.00000000000E+00 0. -1.
          2    1    6    6  502    0 -0.43922948953E+02  0.52982931257E+02 -0.54865194589E+02  0.88014805724E+02  0.00000000000E+00 0. -1.
          1    1    5    5  503    0  0.71723040350E+02 -0.11074001017E+02  0.38947632636E+02  0.82363499826E+02  0.00000000000E+00 0. -1.
         -2    1    5    5    0  503  0.14862254122E+03 -0.14270787895E+03  0.64975621583E+02  0.21604636047E+03  0.00000000000E+00 0.  1.
         -1    1    6    6    0  502 -0.15579426888E+03  0.53412131714E+03 -0.37819311671E+03  0.67274621453E+03  0.00000000000E+00 0.  1.
<mgrwt>
<rscale>  0 0.15268497E+04</rscale>
<asrwt>0</asrwt>
<pdfrwt beam="1">  1        1 0.20162116E+00 0.15268497E+04</pdfrwt>
<pdfrwt beam="2">  1       -1 0.68417907E-01 0.15268497E+04</pdfrwt>
<totfact> 0.18554774E+01</totfact>
</mgrwt>
</event>
<event>
12    1  0.1532786E-007  0.2525683E+04  0.7818608E-02  0.8393893E-01
         -1   -1    0    0    0  501 -0.00000000000E+00  0.00000000000E+00  0.71347527218E+03  0.71347527218E+03  0.00000000000E+00 0.  1.
          1   -1    0    0  501    0  0.00000000000E+00 -0.00000000000E+00 -0.22352124240E+04  0.22352124240E+04  0.00000000000E+00 0. -1.
         23    2    1    2    0    0  0.75824533849E+03  0.79942405670E+03 -0.55265837847E+03  0.12363330541E+04  0.95253984106E+02 0.  0.
        254    2    1    2    0    0 -0.75824533849E+03 -0.79942405670E+03 -0.96907877338E+03  0.17123546422E+04  0.88262672503E+03 0.  0.
        -24    2    4    4    0    0 -0.84405771148E+03 -0.86378547243E+03 -0.66640948731E+03  0.13816142889E+04  0.78725318405E+02 0.  0.
         24    2    4    4    0    0  0.85812372990E+02  0.64361415737E+02 -0.30266928607E+03  0.33074035328E+03  0.79210664465E+02 0.  0.
         13    1    3    3    0    0  0.57458116343E+03  0.57145020200E+03 -0.44425035641E+03  0.92415216599E+03  0.00000000000E+00 0.  1.
        -13    1    3    3    0    0  0.18366417506E+03  0.22797385469E+03 -0.10840802205E+03  0.31218088806E+03  0.00000000000E+00 0. -1.
          2    1    6    6  502    0  0.39323436171E+01  0.49766346550E+02 -0.12349947522E+03  0.13320763099E+03  0.00000000000E+00 0. -1.
          3    1    5    5  503    0 -0.76621136333E+03 -0.81315424230E+03 -0.60971990636E+03  0.12728150059E+04  0.00000000000E+00 0. -1.
         -4    1    5    5    0  503 -0.77846348153E+02 -0.50631230131E+02 -0.56689580945E+02  0.10879928296E+03  0.00000000000E+00 0.  1.
         -1    1    6    6    0  502  0.81880029373E+02  0.14595069188E+02 -0.17916981085E+03  0.19753272229E+03  0.00000000000E+00 0.  1.
<mgrwt>
<rscale>  0 0.25256831E+04</rscale>
<asrwt>0</asrwt>
<pdfrwt beam="1">  1        1 0.34387883E+00 0.25256831E+04</pdfrwt>
<pdfrwt beam="2">  1       -1 0.10976543E+00 0.25256831E+04</pdfrwt>
<totfact> 0.14010797E+00</totfact>
</mgrwt>
</event>
<event>
12    1  0.1532786E-007  0.1347374E+04  0.7818608E-02  0.8992818E-01
          1   -1    0    0  501    0  0.00000000000E+00  0.00000000000E+00  0.16688402719E+04  0.16688402719E+04  0.00000000000E+00 0.  1.
         -1   -1    0    0    0  501 -0.00000000000E+00 -0.00000000000E+00 -0.27195793988E+03  0.27195793988E+03  0.00000000000E+00 0. -1.
         23    2    1    2    0    0  0.19117116488E+03 -0.28912697835E+03  0.21881739794E+03  0.42018596821E+03  0.92381655910E+02 0.  0.
        254    2    1    2    0    0 -0.19117116488E+03  0.28912697835E+03  0.11780649341E+04  0.15206122436E+04  0.89681870102E+03 0.  0.
        -24    2    4    4    0    0  0.32933822690E+03  0.64656225459E+02  0.67338478983E+03  0.75664074542E+03  0.80087747296E+02 0.  0.
         24    2    4    4    0    0 -0.52050939178E+03  0.22447075289E+03  0.50468014430E+03  0.76397149819E+03  0.87368507848E+02 0.  0.
         11    1    3    3    0    0  0.15545081181E+02 -0.42461828736E+02 -0.22502205198E+01  0.45273832850E+02  0.00000000000E+00 0. -1.
        -11    1    3    3    0    0  0.17562608370E+03 -0.24666514961E+03  0.22106761846E+03  0.37491213536E+03  0.00000000000E+00 0.  1.
          2    1    6    6  502    0 -0.29154919255E+02 -0.50415075719E+01  0.14466388693E+02  0.32934822258E+02  0.00000000000E+00 0. -1.
          1    1    5    5  503    0  0.11787203240E+03  0.93077578683E+01  0.31963979674E+03  0.34080793717E+03  0.00000000000E+00 0. -1.
         -2    1    5    5    0  503  0.21146619449E+03  0.55348467591E+02  0.35374499309E+03  0.41583280825E+03  0.00000000000E+00 0.  1.
         -1    1    6    6    0  502 -0.49135447253E+03  0.22951226046E+03  0.49021375561E+03  0.73103667593E+03  0.00000000000E+00 0.  1.
<mgrwt>
<rscale>  0 0.13473743E+04</rscale>
<asrwt>0</asrwt>
<pdfrwt beam="1">  1        1 0.25674465E+00 0.13473743E+04</pdfrwt>
<pdfrwt beam="2">  1       -1 0.41839684E-01 0.13473743E+04</pdfrwt>
<totfact> 0.27481019E+01</totfact>
</mgrwt>
</event>
<event>
12    1  0.1532786E-007  0.1201778E+04  0.7818608E-02  0.9111302E-01
         -2   -1    0    0    0  501 -0.00000000000E+00  0.00000000000E+00  0.13945566552E+03  0.13945566552E+03  0.00000000000E+00 0.  1.
          2   -1    0    0  501    0  0.00000000000E+00 -0.00000000000E+00 -0.25891207320E+04  0.25891207320E+04  0.00000000000E+00 0. -1.
         23    2    1    2    0    0 -0.58642622991E+02  0.21353896722E+03 -0.28407539347E+03  0.37189331910E+03  0.92563296533E+02 0.  0.
        254    2    1    2    0    0  0.58642622991E+02 -0.21353896722E+03 -0.21655896730E+04  0.23566830784E+04  0.90285029348E+03 0.  0.
        -24    2    4    4    0    0 -0.29763024172E+03 -0.38744191614E+03 -0.14787375169E+04  0.15596452309E+04  0.84460661427E+02 0.  0.
         24    2    4    4    0    0  0.35627286471E+03  0.17390294892E+03 -0.68685215611E+03  0.79703784747E+03  0.79566677542E+02 0.  0.
         13    1    3    3    0    0 -0.33932092263E+02  0.17140584934E+03 -0.15385911911E+03  0.23281748346E+03  0.00000000000E+00 0.  1.
        -13    1    3    3    0    0 -0.24710530728E+02  0.42133117885E+02 -0.13021627435E+03  0.13907583564E+03  0.00000000000E+00 0. -1.
          2    1    6    6  502    0  0.23445627192E+03  0.71244975370E+02 -0.41884404861E+03  0.48525861869E+03  0.00000000000E+00 0. -1.
          3    1    5    5  503    0 -0.20648716845E+03 -0.20040392225E+03 -0.85733467585E+03  0.90433479929E+03  0.00000000000E+00 0. -1.
         -4    1    5    5    0  503 -0.91143073271E+02 -0.18703799389E+03 -0.62140284104E+03  0.65531043164E+03  0.00000000000E+00 0.  1.
         -1    1    6    6    0  502  0.12181659279E+03  0.10265797355E+03 -0.26800810751E+03  0.31177922878E+03  0.00000000000E+00 0.  1.
<mgrwt>
<rscale>  0 0.12017779E+04</rscale>
<asrwt>0</asrwt>
<pdfrwt beam="1">  1        2 0.39832622E+00 0.12017779E+04</pdfrwt>
<pdfrwt beam="2">  1       -2 0.21454720E-01 0.12017779E+04</pdfrwt>
<totfact> 0.57967347E+01</totfact>
</mgrwt>
</event>
<event>
12    1  0.1532786E-007  0.1971222E+04  0.7818608E-02  0.8620195E-01
         -2   -1    0    0    0  501 -0.00000000000E+00  0.00000000000E+00  0.52243639200E+03  0.52243639200E+03  0.00000000000E+00 0.  1.
          2   -1    0    0  501    0  0.00000000000E+00 -0.00000000000E+00 -0.18594202275E+04  0.18594202275E+04  0.00000000000E+00 0. -1.
         23    2    1    2    0    0  0.42702390449E+03 -0.64623059235E+03 -0.63460672085E+03  0.10053251181E+04  0.89384055385E+02 0.  0.
        254    2    1    2    0    0 -0.42702390449E+03  0.64623059235E+03 -0.70237711462E+03  0.13765315014E+04  0.89528876332E+03 0.  0.
        -24    2    4    4    0    0 -0.35840573825E+03  0.66343832429E+03 -0.88555179497E+03  0.11658247940E+04  0.79626536711E+02 0.  0.
         24    2    4    4    0    0 -0.68618166243E+02 -0.17207731934E+02  0.18317468035E+03  0.21070670742E+03  0.76418546542E+02 0.  0.
         13    1    3    3    0    0  0.27531793419E+03 -0.38613504877E+03 -0.43919067329E+03  0.64636575426E+03  0.00000000000E+00 0.  1.
        -13    1    3    3    0    0  0.15170597030E+03 -0.26009554358E+03 -0.19541604756E+03  0.35895936380E+03  0.00000000000E+00 0. -1.
          2    1    6    6  502    0 -0.70045286098E+02 -0.20334787316E+02  0.83082933984E+02  0.11055595687E+03  0.00000000000E+00 0. -1.
          1    1    5    5  503    0 -0.31193144310E+03  0.55606035505E+03 -0.78694336804E+03  0.10128100553E+04  0.00000000000E+00 0. -1.
         -2    1    5    5    0  503 -0.46474295149E+02  0.10737796924E+03 -0.98608426936E+02  0.15301473867E+03  0.00000000000E+00 0.  1.
         -1    1    6    6    0  502  0.14271198548E+01  0.31270553822E+01  0.10009174636E+03  0.10015075055E+03  0.00000000000E+00 0.  1.
<mgrwt>
<rscale>  0 0.19712217E+04</rscale>
<asrwt>0</asrwt>
<pdfrwt beam="1">  1        2 0.28606465E+00 0.19712217E+04</pdfrwt>
<pdfrwt beam="2">  1       -2 0.80374829E-01 0.19712217E+04</pdfrwt>
<totfact> 0.10186212E+01</totfact>
</mgrwt>
</event>
<event>
12    1  0.1532786E-007  0.1166212E+04  0.7818608E-02  0.9142956E-01
          1   -1    0    0  501    0  0.00000000000E+00  0.00000000000E+00  0.11386959958E+04  0.11386959958E+04  0.00000000000E+00 0. -1.
         -1   -1    0    0    0  501 -0.00000000000E+00 -0.00000000000E+00 -0.29859834372E+03  0.29859834372E+03  0.00000000000E+00 0.  1.
         23    2    1    2    0    0  0.14543160845E+02  0.16675805367E+03  0.35449703713E+03  0.40290823983E+03  0.92990044628E+02 0.  0.
        254    2    1    2    0    0 -0.14543160845E+02 -0.16675805367E+03  0.48560061497E+03  0.10343860997E+04  0.89784569611E+03 0.  0.
        -24    2    4    4    0    0  0.34088078467E+03  0.19416920289E+03  0.22549979988E+03  0.45946626949E+03  0.79735213943E+02 0.  0.
         24    2    4    4    0    0 -0.35542394551E+03 -0.36092725656E+03  0.26010081509E+03  0.57491983022E+03  0.79282479739E+02 0.  0.
         11    1    3    3    0    0 -0.16882435869E+02  0.15593171335E+03  0.27221986204E+03  0.31417092348E+03  0.00000000000E+00 0. -1.
        -11    1    3    3    0    0  0.31425596713E+02  0.10826340324E+02  0.82277175085E+02  0.88737316353E+02  0.00000000000E+00 0.  1.
          4    1    6    6  502    0 -0.82495418748E+02 -0.44888068365E+02  0.32753221146E+02  0.99464598182E+02  0.00000000000E+00 0. -1.
          3    1    5    5  503    0  0.12647778719E+03  0.45425737497E+02  0.11185065484E+03  0.17484478050E+03  0.00000000000E+00 0. -1.
         -4    1    5    5    0  503  0.21440299748E+03  0.14874346540E+03  0.11364914504E+03  0.28462148899E+03  0.00000000000E+00 0.  1.
         -3    1    6    6    0  502 -0.27292852677E+03 -0.31603918820E+03  0.22734759395E+03  0.47545523204E+03  0.00000000000E+00 0.  1.
<mgrwt>
<rscale>  0 0.11662122E+04</rscale>
<asrwt>0</asrwt>
<pdfrwt beam="1">  1        1 0.17518400E+00 0.11662122E+04</pdfrwt>
<pdfrwt beam="2">  1       -1 0.45938207E-01 0.11662122E+04</pdfrwt>
<totfact> 0.55411443E+01</totfact>
</mgrwt>
</event>
<event>
12    1  0.1532786E-007  0.2552013E+04  0.7818608E-02  0.8384686E-01
          1   -1    0    0  501    0  0.00000000000E+00  0.00000000000E+00  0.14705143174E+04  0.14705143174E+04  0.00000000000E+00 0.  1.
         -1   -1    0    0    0  501 -0.00000000000E+00 -0.00000000000E+00 -0.11072268403E+04  0.11072268403E+04  0.00000000000E+00 0. -1.
         23    2    1    2    0    0 -0.58502684568E+03  0.70082296941E+03  0.79573619272E+03  0.12142398678E+04  0.88165319947E+02 0.  0.
        254    2    1    2    0    0  0.58502684568E+03 -0.70082296941E+03 -0.43244871560E+03  0.13635012899E+04  0.91581364441E+03 0.  0.
        -24    2    4    4    0    0 -0.23733395307E+03 -0.22524204959E+03 -0.88804449446E+02  0.35008136599E+03  0.87231567616E+02 0.  0.
         24    2    4    4    0    0  0.82236079874E+03 -0.47558091981E+03 -0.34364426616E+03  0.10134199239E+04  0.80461580198E+02 0.  0.
         13    1    3    3    0    0 -0.19241090595E+02  0.18642213337E+02  0.66859784748E+01  0.27612569485E+02  0.00000000000E+00 0. -1.
        -13    1    3    3    0    0 -0.56578575508E+03  0.68218075607E+03  0.78905021425E+03  0.11866272984E+04  0.00000000000E+00 0.  1.
          2    1    6    6  502    0  0.37438561612E+03 -0.17972282101E+03 -0.12438842949E+03  0.43351743141E+03  0.00000000000E+00 0. -1.
          1    1    5    5  503    0 -0.69962364213E+02 -0.39764842370E+02 -0.56149686737E+02  0.98126257524E+02  0.00000000000E+00 0. -1.
         -2    1    5    5    0  503 -0.16737158885E+03 -0.18547720722E+03 -0.32654762709E+02  0.25195510846E+03  0.00000000000E+00 0.  1.
         -1    1    6    6    0  502  0.44797518263E+03 -0.29585809881E+03 -0.21925583667E+03  0.57990249249E+03  0.00000000000E+00 0.  1.
<mgrwt>
<rscale>  0 0.25520133E+04</rscale>
<asrwt>0</asrwt>
<pdfrwt beam="1">  1        1 0.22623297E+00 0.25520133E+04</pdfrwt>
<pdfrwt beam="2">  1       -1 0.17034259E+00 0.25520133E+04</pdfrwt>
<totfact> 0.14838547E+00</totfact>
</mgrwt>
</event>
<event>
12    1  0.1532786E-007  0.2439136E+04  0.7818608E-02  0.8424995E-01
         -1   -1    0    0    0  501 -0.00000000000E+00  0.00000000000E+00  0.28511885584E+03  0.28511885584E+03  0.00000000000E+00 0.  1.
          1   -1    0    0  501    0  0.00000000000E+00 -0.00000000000E+00 -0.52165825730E+04  0.52165825730E+04  0.00000000000E+00 0. -1.
         23    2    1    2    0    0  0.79805074309E+03 -0.63139676604E+03 -0.26831273579E+04  0.28707712894E+04  0.81292757794E+02 0.  0.
        254    2    1    2    0    0 -0.79805074309E+03  0.63139676604E+03 -0.22483363592E+04  0.26309301395E+04  0.91171824028E+03 0.  0.
        -24    2    4    4    0    0 -0.79362553286E+03  0.33198335837E+03 -0.90084111585E+03  0.12481607108E+04  0.79599040457E+02 0.  0.
         24    2    4    4    0    0 -0.44252102314E+01  0.29941340767E+03 -0.13474952434E+04  0.13827694287E+04  0.81485524894E+02 0.  0.
         11    1    3    3    0    0  0.79593019206E+03 -0.62484391076E+03 -0.26435502004E+04  0.28305993086E+04  0.00000000000E+00 0. -1.
        -11    1    3    3    0    0  0.21205510385E+01 -0.65528552765E+01 -0.39577157464E+02  0.40171980806E+02  0.00000000000E+00 0.  1.
          2    1    6    6  502    0 -0.36962424733E+02  0.10114150317E+03 -0.40296890639E+03  0.41710881556E+03  0.00000000000E+00 0. -1.
          1    1    5    5  503    0 -0.55035529110E+02  0.44466816713E+01 -0.71219378326E+02  0.90115938054E+02  0.00000000000E+00 0. -1.
         -2    1    5    5    0  503 -0.73859000375E+03  0.32753667670E+03 -0.82962173752E+03  0.11580447727E+04  0.00000000000E+00 0.  1.
         -1    1    6    6    0  502  0.32537214501E+02  0.19827190450E+03 -0.94452633701E+03  0.96566061313E+03  0.00000000000E+00 0.  1.
<mgrwt>
<rscale>  0 0.24391360E+04</rscale>
<asrwt>0</asrwt>
<pdfrwt beam="1">  1        1 0.80255109E+00 0.24391360E+04</pdfrwt>
<pdfrwt beam="2">  1       -1 0.43864444E-01 0.24391360E+04</pdfrwt>
<totfact> 0.20318361E-02</totfact>
</mgrwt>
</event>
<event>
12    1  0.1532786E-007  0.1704297E+04  0.7818608E-02  0.8758918E-01
         -2   -1    0    0    0  501 -0.00000000000E+00  0.00000000000E+00  0.39672382149E+03  0.39672382149E+03  0.00000000000E+00 0.  1.
          2   -1    0    0  501    0  0.00000000000E+00 -0.00000000000E+00 -0.18303838462E+04  0.18303838462E+04  0.00000000000E+00 0. -1.
         23    2    1    2    0    0  0.56200371318E+03 -0.23309032642E+03 -0.52862104017E+03  0.81122535527E+03  0.92016841001E+02 0.  0.
        254    2    1    2    0    0 -0.56200371318E+03  0.23309032642E+03 -0.90503898457E+03  0.14158823125E+04  0.90302153088E+03 0.  0.
        -24    2    4    4    0    0 -0.10823806498E+03 -0.28480960219E+03 -0.55735077617E+02  0.31969011049E+03  0.79141516647E+02 0.  0.
         24    2    4    4    0    0 -0.45376564820E+03  0.51789992860E+03 -0.84930390696E+03  0.10961922020E+04  0.78718598461E+02 0.  0.
         13    1    3    3    0    0  0.25015663686E+03 -0.80479961036E+02 -0.17539919003E+03  0.31594341733E+03  0.00000000000E+00 0. -1.
        -13    1    3    3    0    0  0.31184707632E+03 -0.15261036538E+03 -0.35322185014E+03  0.49528193794E+03  0.00000000000E+00 0.  1.
          2    1    6    6  502    0 -0.77749023703E+02  0.11277908764E+03 -0.21413024865E+03  0.25419637425E+03  0.00000000000E+00 0. -1.
          1    1    5    5  503    0 -0.39332524871E+02 -0.76238879059E+02 -0.51364125508E+02  0.99988437242E+02  0.00000000000E+00 0. -1.
         -2    1    5    5    0  503 -0.68905540104E+02 -0.20857072313E+03 -0.43709521091E+01  0.21970167324E+03  0.00000000000E+00 0.  1.
         -1    1    6    6    0  502 -0.37601662450E+03  0.40512084097E+03 -0.63517365831E+03  0.84199582772E+03  0.00000000000E+00 0.  1.
<mgrwt>
<rscale>  0 0.17042968E+04</rscale>
<asrwt>0</asrwt>
<pdfrwt beam="1">  1        2 0.28159752E+00 0.17042968E+04</pdfrwt>
<pdfrwt beam="2">  1       -2 0.61034433E-01 0.17042968E+04</pdfrwt>
<totfact> 0.19718895E+01</totfact>
</mgrwt>
</event>
<event>
12    1  0.1532786E-007  0.1935796E+04  0.7818608E-02  0.8637241E-01
          2   -1    0    0  501    0  0.00000000000E+00  0.00000000000E+00  0.94007810616E+03  0.94007810616E+03  0.00000000000E+00 0.  1.
         -2   -1    0    0    0  501 -0.00000000000E+00 -0.00000000000E+00 -0.99654087968E+03  0.99654087968E+03  0.00000000000E+00 0. -1.
         23    2    1    2    0    0  0.29334555341E+03  0.66947737249E+03  0.16843264264E+03  0.75602748140E+03  0.94638425247E+02 0.  0.
        254    2    1    2    0    0 -0.29334555341E+03 -0.66947737249E+03 -0.22489541617E+03  0.11805915044E+04  0.89942580915E+03 0.  0.
        -24    2    4    4    0    0 -0.43891709630E+03 -0.34112036763E+03  0.22019499152E+03  0.60323611244E+03  0.79979062429E+02 0.  0.
         24    2    4    4    0    0  0.14557154289E+03 -0.32835700486E+03 -0.44509040769E+03  0.57735539200E+03  0.78894745800E+02 0.  0.
         11    1    3    3    0    0  0.80212532754E+01  0.87848457775E+02  0.77489684833E+01  0.88553591401E+02  0.00000000000E+00 0.  1.
        -11    1    3    3    0    0  0.28532430013E+03  0.58162891472E+03  0.16068367416E+03  0.66747389000E+03  0.00000000000E+00 0. -1.
          2    1    6    6  502    0  0.39176707985E+02 -0.18194368776E+03 -0.24265783401E+03  0.30581226982E+03  0.00000000000E+00 0. -1.
          3    1    5    5  503    0 -0.25055164653E+03 -0.18861229800E+03  0.16621371354E+03  0.35493340940E+03  0.00000000000E+00 0. -1.
         -4    1    5    5    0  503 -0.18836544977E+03 -0.15250806963E+03  0.53981277989E+02  0.24830270305E+03  0.00000000000E+00 0.  1.
         -1    1    6    6    0  502  0.10639483490E+03 -0.14641331710E+03 -0.20243257368E+03  0.27154312218E+03  0.00000000000E+00 0.  1.
<mgrwt>
<rscale>  0 0.19357957E+04</rscale>
<asrwt>0</asrwt>
<pdfrwt beam="1">  1        2 0.14462740E+00 0.19357957E+04</pdfrwt>
<pdfrwt beam="2">  1       -2 0.15331398E+00 0.19357957E+04</pdfrwt>
<totfact> 0.72749248E+00</totfact>
</mgrwt>
</event>
<event>
12    1  0.1532786E-007  0.1107311E+04  0.7818608E-02  0.9198096E-01
         -1   -1    0    0    0  501 -0.00000000000E+00  0.00000000000E+00  0.21553926344E+03  0.21553926344E+03  0.00000000000E+00 0.  1.
          1   -1    0    0  501    0  0.00000000000E+00 -0.00000000000E+00 -0.14221733103E+04  0.14221733103E+04  0.00000000000E+00 0. -1.
         23    2    1    2    0    0  0.12059297608E+03 -0.39373501266E+02 -0.42279044774E+03  0.45050858396E+03  0.90073764452E+02 0.  0.
        254    2    1    2    0    0 -0.12059297608E+03  0.39373501266E+02 -0.78384359916E+03  0.11872039898E+04  0.88258120705E+03 0.  0.
        -24    2    4    4    0    0 -0.42553083007E+03  0.21361637972E+03 -0.63441819736E+03  0.79716418084E+03  0.79220180785E+02 0.  0.
         24    2    4    4    0    0  0.30493785399E+03 -0.17424287846E+03 -0.14942540180E+03  0.39003980898E+03  0.80345668209E+02 0.  0.
         11    1    3    3    0    0  0.10083547695E+03 -0.14954373458E+02 -0.39696312402E+03  0.40984283393E+03  0.00000000000E+00 0.  1.
        -11    1    3    3    0    0  0.19757499130E+02 -0.24419127809E+02 -0.25827323724E+02  0.40665750030E+02  0.00000000000E+00 0. -1.
          4    1    6    6  502    0  0.17956905029E+03 -0.67689331282E+02 -0.51990813242E+02  0.19882136216E+03  0.00000000000E+00 0. -1.
          1    1    5    5  503    0 -0.33722594364E+03  0.14095179835E+03 -0.44449379446E+03  0.57546805284E+03  0.00000000000E+00 0. -1.
         -2    1    5    5    0  503 -0.88304886427E+02  0.72664581375E+02 -0.18992440290E+03  0.22169612800E+03  0.00000000000E+00 0.  1.
         -3    1    6    6    0  502  0.12536880370E+03 -0.10655354718E+03 -0.97434588553E+02  0.19121844682E+03  0.00000000000E+00 0.  1.
<mgrwt>
<rscale>  0 0.11073106E+04</rscale>
<asrwt>0</asrwt>
<pdfrwt beam="1">  1        1 0.21879590E+00 0.11073106E+04</pdfrwt>
<pdfrwt beam="2">  1       -1 0.33159886E-01 0.11073106E+04</pdfrwt>
<totfact> 0.63068907E+01</totfact>
</mgrwt>
</event>
<event>
12    1  0.1532786E-007  0.1387833E+04  0.7818608E-02  0.8962673E-01
          1   -1    0    0  501    0  0.00000000000E+00  0.00000000000E+00  0.14020337337E+04  0.14020337337E+04  0.00000000000E+00 0.  1.
         -1   -1    0    0    0  501 -0.00000000000E+00 -0.00000000000E+00 -0.34344417939E+03  0.34344417939E+03  0.00000000000E+00 0. -1.
         23    2    1    2    0    0 -0.15936962226E+03 -0.33325460049E+03  0.53751020829E+03  0.65882415369E+03  0.93138264023E+02 0.  0.
        254    2    1    2    0    0  0.15936962226E+03  0.33325460049E+03  0.52107934598E+03  0.10866537594E+04  0.87911057477E+03 0.  0.
        -24    2    4    4    0    0  0.13477791139E+03  0.58530828527E+03  0.55199119922E+03  0.81963087790E+03  0.79684488970E+02 0.  0.
         24    2    4    4    0    0  0.24591710875E+02 -0.25205368478E+03 -0.30911853240E+02  0.26702288146E+03  0.78802692199E+02 0.  0.
         13    1    3    3    0    0 -0.10879366377E+03 -0.15676441012E+03  0.33457899054E+03  0.38516781079E+03  0.00000000000E+00 0. -1.
        -13    1    3    3    0    0 -0.50575958496E+02 -0.17649019037E+03  0.20293121775E+03  0.27365634290E+03  0.00000000000E+00 0.  1.
          4    1    6    6  502    0  0.36903161892E+02 -0.46846133867E+02 -0.57477245267E+01  0.59911934980E+02  0.00000000000E+00 0. -1.
          3    1    5    5  503    0  0.50093437484E+02  0.10858000634E+03  0.83140445114E+02  0.14564101026E+03  0.00000000000E+00 0. -1.
         -4    1    5    5    0  503  0.84684473903E+02  0.47672827893E+03  0.46885075411E+03  0.67398986764E+03  0.00000000000E+00 0.  1.
         -3    1    6    6    0  502 -0.12311451017E+02 -0.20520755091E+03 -0.25164128713E+02  0.20711094648E+03  0.00000000000E+00 0.  1.
<mgrwt>
<rscale>  0 0.13878333E+04</rscale>
<asrwt>0</asrwt>
<pdfrwt beam="1">  1        1 0.21569749E+00 0.13878333E+04</pdfrwt>
<pdfrwt beam="2">  1       -1 0.52837567E-01 0.13878333E+04</pdfrwt>
<totfact> 0.26983024E+01</totfact>
</mgrwt>
</event>
<event>
12    1  0.1532786E-007  0.2156637E+04  0.7818608E-02  0.8536697E-01
          2   -1    0    0  501    0  0.00000000000E+00  0.00000000000E+00  0.19273857805E+04  0.19273857805E+04  0.00000000000E+00 0. -1.
         -2   -1    0    0    0  501 -0.00000000000E+00 -0.00000000000E+00 -0.60328896714E+03  0.60328896714E+03  0.00000000000E+00 0.  1.
         23    2    1    2    0    0  0.60798510980E+03  0.22846736267E+03  0.12618740383E+04  0.14218341189E+04  0.86272496427E+02 0.  0.
        254    2    1    2    0    0 -0.60798510980E+03 -0.22846736267E+03  0.62222775062E+02  0.11088406287E+04  0.89655598632E+03 0.  0.
        -24    2    4    4    0    0 -0.78557838149E+03 -0.11200178254E+03  0.22559904723E+03  0.82942219177E+03  0.85839672197E+02 0.  0.
         24    2    4    4    0    0  0.17759327169E+03 -0.11646558013E+03 -0.16337627217E+03  0.27941843695E+03  0.79241750933E+02 0.  0.
         13    1    3    3    0    0  0.57206864137E+03  0.20626234243E+03  0.11282915268E+04  0.12817364994E+04  0.00000000000E+00 0. -1.
        -13    1    3    3    0    0  0.35916468428E+02  0.22205020237E+02  0.13358251143E+03  0.14009761950E+03  0.00000000000E+00 0.  1.
          2    1    6    6  502    0  0.62977063445E+02  0.40309255350E+00 -0.46395141186E+02  0.78222644607E+02  0.00000000000E+00 0. -1.
          3    1    5    5  503    0 -0.23693075514E+03 -0.60599058101E+02  0.39074898665E+02  0.24765959759E+03  0.00000000000E+00 0. -1.
         -4    1    5    5    0  503 -0.54864762635E+03 -0.51402724439E+02  0.18652414857E+03  0.58176259418E+03  0.00000000000E+00 0.  1.
         -1    1    6    6    0  502  0.11461620825E+03 -0.11686867268E+03 -0.11698113099E+03  0.20119579234E+03  0.00000000000E+00 0.  1.
<mgrwt>
<rscale>  0 0.21566368E+04</rscale>
<asrwt>0</asrwt>
<pdfrwt beam="1">  1        2 0.29652089E+00 0.21566368E+04</pdfrwt>
<pdfrwt beam="2">  1       -2 0.92813688E-01 0.21566368E+04</pdfrwt>
<totfact> 0.66178839E+00</totfact>
</mgrwt>
</event>
<event>
12    1  0.1532786E-007  0.1296886E+04  0.7818608E-02  0.9032038E-01
         -2   -1    0    0    0  501 -0.00000000000E+00  0.00000000000E+00  0.51736242764E+03  0.51736242764E+03  0.00000000000E+00 0. -1.
          2   -1    0    0  501    0  0.00000000000E+00 -0.00000000000E+00 -0.81273491712E+03  0.81273491712E+03  0.00000000000E+00 0.  1.
         23    2    1    2    0    0 -0.20775038790E+03 -0.48402129848E+02 -0.33281911002E+03  0.40634919930E+03  0.94064456246E+02 0.  0.
        254    2    1    2    0    0  0.20775038790E+03  0.48402129848E+02  0.37446620546E+02  0.92374814546E+03  0.89800077784E+03 0.  0.
        -24    2    4    4    0    0  0.34455233163E+03  0.21847353592E+03 -0.30092123971E+03  0.51310699700E+03  0.79235110514E+02 0.  0.
         24    2    4    4    0    0 -0.13680194373E+03 -0.17007140607E+03  0.33836786026E+03  0.41064114846E+03  0.80587151448E+02 0.  0.
         13    1    3    3    0    0 -0.12217703815E+03  0.66652109449E+01 -0.12481255825E+03  0.17478509200E+03  0.00000000000E+00 0. -1.
        -13    1    3    3    0    0 -0.85573349746E+02 -0.55067340792E+02 -0.20800655177E+03  0.23156410730E+03  0.00000000000E+00 0.  1.
          4    1    6    6  502    0 -0.12177312859E+03 -0.96286425286E+02  0.20078327326E+03  0.25379852908E+03  0.00000000000E+00 0. -1.
          3    1    5    5  503    0  0.17093482795E+03  0.84666999990E+02 -0.98238716742E+02  0.21456481948E+03  0.00000000000E+00 0. -1.
         -2    1    5    5    0  503  0.17361750368E+03  0.13380653593E+03 -0.20268252297E+03  0.29854217752E+03  0.00000000000E+00 0.  1.
         -3    1    6    6    0  502 -0.15028815137E+02 -0.73784980784E+02  0.13758458700E+03  0.15684261938E+03  0.00000000000E+00 0.  1.
<mgrwt>
<rscale>  0 0.12968863E+04</rscale>
<asrwt>0</asrwt>
<pdfrwt beam="1">  1        2 0.12503614E+00 0.12968863E+04</pdfrwt>
<pdfrwt beam="2">  1       -2 0.79594220E-01 0.12968863E+04</pdfrwt>
<totfact> 0.46250083E+01</totfact>
</mgrwt>
</event>
<event>
12    1  0.1532786E-007  0.1494676E+04  0.7818608E-02  0.8888001E-01
         -2   -1    0    0    0  501 -0.00000000000E+00  0.00000000000E+00  0.26380549229E+03  0.26380549229E+03  0.00000000000E+00 0.  1.
          2   -1    0    0  501    0  0.00000000000E+00 -0.00000000000E+00 -0.21171440853E+04  0.21171440853E+04  0.00000000000E+00 0. -1.
         23    2    1    2    0    0 -0.32686472227E+03 -0.10236231010E+03 -0.10749397123E+04  0.11317633909E+04  0.89857658937E+02 0.  0.
        254    2    1    2    0    0  0.32686472227E+03  0.10236231010E+03 -0.77839888072E+03  0.12491861866E+04  0.91500968420E+03 0.  0.
        -24    2    4    4    0    0  0.15182818120E+03  0.21997067847E+02  0.19073702569E+03  0.25784446281E+03  0.81040029832E+02 0.  0.
         24    2    4    4    0    0  0.17503654107E+03  0.80365242251E+02 -0.96913590641E+03  0.99134172382E+03  0.80234938958E+02 0.  0.
         13    1    3    3    0    0 -0.25475210824E+03 -0.11720570273E+03 -0.84259064639E+03  0.88802860922E+03  0.00000000000E+00 0. -1.
        -13    1    3    3    0    0 -0.72112614036E+02  0.14843392634E+02 -0.23234906587E+03  0.24373478172E+03  0.00000000000E+00 0.  1.
          2    1    6    6  502    0  0.11200240897E+03  0.74505927294E+01 -0.51563832085E+03  0.52771481776E+03  0.00000000000E+00 0. -1.
          3    1    5    5  503    0 -0.25072533078E+01  0.82926038223E-02 -0.61913382085E+01  0.66797497505E+01  0.00000000000E+00 0. -1.
         -4    1    5    5    0  503  0.15433543451E+03  0.21988775243E+02  0.19692836389E+03  0.25116471306E+03  0.00000000000E+00 0.  1.
         -1    1    6    6    0  502  0.63034132103E+02  0.72914649521E+02 -0.45349758555E+03  0.46362690607E+03  0.00000000000E+00 0.  1.
<mgrwt>
<rscale>  0 0.14946762E+04</rscale>
<asrwt>0</asrwt>
<pdfrwt beam="1">  1        2 0.32571447E+00 0.14946762E+04</pdfrwt>
<pdfrwt beam="2">  1       -2 0.40585461E-01 0.14946762E+04</pdfrwt>
<totfact> 0.31956852E+01</totfact>
</mgrwt>
</event>
<event>
12    1  0.1532786E-007  0.1743933E+04  0.7818608E-02  0.8736697E-01
         -2   -1    0    0    0  501 -0.00000000000E+00  0.00000000000E+00  0.35052102173E+03  0.35052102173E+03  0.00000000000E+00 0.  1.
          2   -1    0    0  501    0  0.00000000000E+00 -0.00000000000E+00 -0.21691294617E+04  0.21691294617E+04  0.00000000000E+00 0. -1.
         23    2    1    2    0    0 -0.48431689707E+03  0.36221368668E+03 -0.53516509080E+03  0.81274481100E+03  0.91601538123E+02 0.  0.
        254    2    1    2    0    0  0.48431689707E+03 -0.36221368668E+03 -0.12834433492E+04  0.17069056724E+04  0.94896708713E+03 0.  0.
        -24    2    4    4    0    0 -0.12091348215E+03 -0.39868144374E+03 -0.87269790211E+03  0.97027249604E+03  0.79120948345E+02 0.  0.
         24    2    4    4    0    0  0.60523037922E+03  0.36467757067E+02 -0.41074544707E+03  0.73663317641E+03  0.79264778154E+02 0.  0.
         13    1    3    3    0    0 -0.46214686747E+03  0.32147059297E+03 -0.47369470564E+03  0.73573755063E+03  0.00000000000E+00 0.  1.
        -13    1    3    3    0    0 -0.22170029600E+02  0.40743093705E+02 -0.61470385160E+02  0.77007260364E+02  0.00000000000E+00 0. -1.
          2    1    6    6  502    0  0.19994011912E+03  0.44061464059E+02 -0.11471300007E+03  0.23468390706E+03  0.00000000000E+00 0. -1.
          3    1    5    5  503    0 -0.86931643479E+02 -0.36450959145E+03 -0.74881403841E+03  0.83734510031E+03  0.00000000000E+00 0. -1.
         -4    1    5    5    0  503 -0.33981838672E+02 -0.34171852290E+02 -0.12388386370E+03  0.13292739573E+03  0.00000000000E+00 0.  1.
         -1    1    6    6    0  502  0.40529026010E+03 -0.75937069918E+01 -0.29603244700E+03  0.50194926935E+03  0.00000000000E+00 0.  1.
<mgrwt>
<rscale>  0 0.17439329E+04</rscale>
<asrwt>0</asrwt>
<pdfrwt beam="1">  1        2 0.33371223E+00 0.17439329E+04</pdfrwt>
<pdfrwt beam="2">  1       -2 0.53926311E-01 0.17439329E+04</pdfrwt>
<totfact> 0.16512739E+01</totfact>
</mgrwt>
</event>
<event>
12    1  0.1532786E-007  0.2109810E+04  0.7818608E-02  0.8556934E-01
          2   -1    0    0  501    0  0.00000000000E+00  0.00000000000E+00  0.10854675747E+04  0.10854675747E+04  0.00000000000E+00 0. -1.
         -2   -1    0    0    0  501 -0.00000000000E+00 -0.00000000000E+00 -0.10252029218E+04  0.10252029218E+04  0.00000000000E+00 0.  1.
         23    2    1    2    0    0 -0.67196545597E+02  0.52477157160E+03 -0.65390330789E+03  0.84607313745E+03  0.91376363246E+02 0.  0.
        254    2    1    2    0    0  0.67196545597E+02 -0.52477157160E+03  0.71416796076E+03  0.12645973590E+04  0.89959436750E+03 0.  0.
        -24    2    4    4    0    0  0.27360359200E+03 -0.66779321886E+03  0.32666221860E+03  0.79573800991E+03  0.75392749293E+02 0.  0.
         24    2    4    4    0    0 -0.20640704640E+03  0.14302164727E+03  0.38750574217E+03  0.46885934906E+03  0.81297777311E+02 0.  0.
         11    1    3    3    0    0 -0.14855622430E+02  0.10590764149E+03 -0.79562267180E+02  0.13329393235E+03  0.00000000000E+00 0. -1.
        -11    1    3    3    0    0 -0.52340923167E+02  0.41886393011E+03 -0.57434104071E+03  0.71277920510E+03  0.00000000000E+00 0.  1.
          4    1    6    6  502    0 -0.11125469076E+02  0.74305560339E+01 -0.96691974452E+00  0.13413581137E+02  0.00000000000E+00 0. -1.
          1    1    5    5  503    0  0.35767338202E+02 -0.96396029419E+02  0.18966710548E+02  0.10455253741E+03  0.00000000000E+00 0. -1.
         -2    1    5    5    0  503  0.23783625380E+03 -0.57139718945E+03  0.30769550805E+03  0.69118547251E+03  0.00000000000E+00 0.  1.
         -3    1    6    6    0  502 -0.19528157733E+03  0.13559109123E+03  0.38847266191E+03  0.45544576792E+03  0.00000000000E+00 0.  1.
<mgrwt>
<rscale>  0 0.21098100E+04</rscale>
<asrwt>0</asrwt>
<pdfrwt beam="1">  1        2 0.16699501E+00 0.21098100E+04</pdfrwt>
<pdfrwt beam="2">  1       -2 0.15772353E+00 0.21098100E+04</pdfrwt>
<totfact> 0.53637991E+00</totfact>
</mgrwt>
</event>
<event>
12    1  0.1532786E-007  0.2502915E+04  0.7818608E-02  0.8401948E-01
          1   -1    0    0  501    0  0.00000000000E+00  0.00000000000E+00  0.55351999983E+03  0.55351999983E+03  0.00000000000E+00 0. -1.
         -1   -1    0    0    0  501 -0.00000000000E+00 -0.00000000000E+00 -0.28294289566E+04  0.28294289566E+04  0.00000000000E+00 0.  1.
         23    2    1    2    0    0  0.36867892639E+03 -0.13481805205E+03 -0.23486329922E+04  0.23826506189E+04  0.82746490016E+02 0.  0.
        254    2    1    2    0    0 -0.36867892639E+03  0.13481805205E+03  0.72724035454E+02  0.10002983375E+04  0.91717387711E+03 0.  0.
        -24    2    4    4    0    0  0.29312347546E+03  0.80048906622E+02 -0.56634078047E+02  0.31912939833E+03  0.79416338133E+02 0.  0.
         24    2    4    4    0    0 -0.66180240185E+03  0.54769145425E+02  0.12935811350E+03  0.68116893922E+03  0.79218204009E+02 0.  0.
         11    1    3    3    0    0  0.11942959749E+03 -0.36558411297E+01 -0.71561502122E+03  0.72552164167E+03  0.00000000000E+00 0. -1.
        -11    1    3    3    0    0  0.24924932890E+03 -0.13116221092E+03 -0.16330179710E+04  0.16571289772E+04  0.00000000000E+00 0.  1.
          4    1    6    6  502    0 -0.35264407811E+03  0.68032000765E+02  0.77452263978E+02  0.36740311940E+03  0.00000000000E+00 0. -1.
          3    1    5    5  503    0  0.54628864975E+02  0.47736233304E+02 -0.33285342744E+01  0.72623274499E+02  0.00000000000E+00 0. -1.
         -4    1    5    5    0  503  0.23849461049E+03  0.32312673318E+02 -0.53305543773E+02  0.24650612383E+03  0.00000000000E+00 0.  1.
         -3    1    6    6    0  502 -0.30915832374E+03 -0.13262855340E+02  0.51905849523E+02  0.31376581982E+03  0.00000000000E+00 0.  1.
<mgrwt>
<rscale>  0 0.25029147E+04</rscale>
<asrwt>0</asrwt>
<pdfrwt beam="1">  1        1 0.85156921E-01 0.25029147E+04</pdfrwt>
<pdfrwt beam="2">  1       -1 0.43529677E+00 0.25029147E+04</pdfrwt>
<totfact> 0.13951770E-01</totfact>
</mgrwt>
</event>
<event>
12    1  0.1532786E-007  0.1181252E+04  0.7818608E-02  0.9129427E-01
          2   -1    0    0  501    0  0.00000000000E+00  0.00000000000E+00  0.57272695708E+03  0.57272695708E+03  0.00000000000E+00 0. -1.
         -2   -1    0    0    0  501 -0.00000000000E+00 -0.00000000000E+00 -0.60908411787E+03  0.60908411787E+03  0.00000000000E+00 0.  1.
         23    2    1    2    0    0 -0.18843642575E+03  0.26213271557E+02 -0.13173680553E+03  0.24721999005E+03  0.86992616905E+02 0.  0.
        254    2    1    2    0    0  0.18843642575E+03 -0.26213271557E+02  0.95379644748E+02  0.93459108490E+03  0.91003725044E+03 0.  0.
        -24    2    4    4    0    0 -0.12125395427E+03  0.23650664897E+03  0.35109930523E+03  0.44755060642E+03  0.79955654836E+02 0.  0.
         24    2    4    4    0    0  0.30969038002E+03 -0.26271992052E+03 -0.25571966048E+03  0.48704047848E+03  0.82981894469E+02 0.  0.
         13    1    3    3    0    0 -0.64130035117E+02  0.39048501841E+02 -0.15740842021E+02  0.76715194112E+02  0.00000000000E+00 0. -1.
        -13    1    3    3    0    0 -0.12430639063E+03 -0.12835230284E+02 -0.11599596351E+03  0.17050479594E+03  0.00000000000E+00 0.  1.
          2    1    6    6  502    0  0.25097687760E+03 -0.19656294233E+03 -0.15992659223E+03  0.35665515318E+03  0.00000000000E+00 0. -1.
          1    1    5    5  503    0 -0.12194560674E+03  0.23601745792E+03  0.35509166833E+03  0.44346934997E+03  0.00000000000E+00 0. -1.
         -2    1    5    5    0  503  0.69165247191E+00  0.48919104857E+00 -0.39923631029E+01  0.40812564449E+01  0.00000000000E+00 0.  1.
         -1    1    6    6    0  502  0.58713502415E+02 -0.66156978193E+02 -0.95793068246E+02  0.13038532530E+03  0.00000000000E+00 0.  1.
<mgrwt>
<rscale>  0 0.11812517E+04</rscale>
<asrwt>0</asrwt>
<pdfrwt beam="1">  1        2 0.88111841E-01 0.11812517E+04</pdfrwt>
<pdfrwt beam="2">  1       -2 0.93705248E-01 0.11812517E+04</pdfrwt>
<totfact> 0.49891292E+01</totfact>
</mgrwt>
</event>
<event>
12    1  0.1532786E-007  0.1308797E+04  0.7818608E-02  0.9022618E-01
          2   -1    0    0  501    0  0.00000000000E+00  0.00000000000E+00  0.28450055096E+04  0.28450055096E+04  0.00000000000E+00 0. -1.
         -2   -1    0    0    0  501 -0.00000000000E+00 -0.00000000000E+00 -0.15052260574E+03  0.15052260574E+03  0.00000000000E+00 0.  1.
         23    2    1    2    0    0  0.72399197940E+02  0.55632110785E+02  0.15519593081E+04  0.15574100212E+04  0.92799269087E+02 0.  0.
        254    2    1    2    0    0 -0.72399197940E+02 -0.55632110785E+02  0.11425235957E+04  0.14381180942E+04  0.86861205976E+03 0.  0.
        -24    2    4    4    0    0 -0.21978812598E+03 -0.35398164851E+03  0.27511332316E+03  0.50573941921E+03  0.80468576189E+02 0.  0.
         24    2    4    4    0    0  0.14738892804E+03  0.29834953773E+03  0.86741027255E+03  0.93237867494E+03  0.78698600909E+02 0.  0.
         13    1    3    3    0    0  0.44445821711E+02  0.54440087628E+02  0.14493983970E+04  0.14511012602E+04  0.00000000000E+00 0. -1.
        -13    1    3    3    0    0  0.27953376228E+02  0.11920231567E+01  0.10256091114E+03  0.10630876096E+03  0.00000000000E+00 0.  1.
          2    1    6    6  502    0  0.38120236398E+02  0.53959455685E+02  0.26592579510E+03  0.27400967827E+03  0.00000000000E+00 0. -1.
          3    1    5    5  503    0 -0.34648046891E+02 -0.60568954802E+02  0.13151237610E+02  0.71007327015E+02  0.00000000000E+00 0. -1.
         -4    1    5    5    0  503 -0.18514007909E+03 -0.29341269371E+03  0.26196208555E+03  0.43473209219E+03  0.00000000000E+00 0.  1.
         -1    1    6    6    0  502  0.10926869164E+03  0.24439008204E+03  0.60148447745E+03  0.65836899668E+03  0.00000000000E+00 0.  1.
<mgrwt>
<rscale>  0 0.13087974E+04</rscale>
<asrwt>0</asrwt>
<pdfrwt beam="1">  1        2 0.43769311E+00 0.13087974E+04</pdfrwt>
<pdfrwt beam="2">  1       -2 0.23157326E-01 0.13087974E+04</pdfrwt>
<totfact> 0.35349424E+01</totfact>
</mgrwt>
</event>
<event>
12    1  0.1532786E-007  0.2556403E+04  0.7818608E-02  0.8383163E-01
          1   -1    0    0  501    0  0.00000000000E+00  0.00000000000E+00  0.23773140549E+04  0.23773140549E+04  0.00000000000E+00 0. -1.
         -1   -1    0    0    0  501 -0.00000000000E+00 -0.00000000000E+00 -0.68724602717E+03  0.68724602717E+03  0.00000000000E+00 0.  1.
         23    2    1    2    0    0  0.39918488873E+02 -0.11117906641E+04  0.87302038643E+03  0.14171283047E+04  0.91739143099E+02 0.  0.
        254    2    1    2    0    0 -0.39918488873E+02  0.11117906641E+04  0.81704764132E+03  0.16474317773E+04  0.89932899775E+03 0.  0.
        -24    2    4    4    0    0  0.29859370608E+03  0.83939266616E+03  0.80854076160E+03  0.12057114267E+04  0.79143110114E+02 0.  0.
         24    2    4    4    0    0 -0.33851219496E+03  0.27239799798E+03  0.85068797229E+01  0.44172035069E+03  0.79077972765E+02 0.  0.
         13    1    3    3    0    0  0.23032422308E+02 -0.10748338365E+03  0.62526680876E+02  0.12646246898E+03  0.00000000000E+00 0.  1.
        -13    1    3    3    0    0  0.16886066565E+02 -0.10043072805E+04  0.81049370555E+03  0.12906658358E+04  0.00000000000E+00 0. -1.
          2    1    6    6  502    0 -0.24079193366E+03  0.14869592172E+03  0.19637588526E+02  0.28368445028E+03  0.00000000000E+00 0. -1.
          1    1    5    5  503    0  0.24542484818E+03  0.76047566796E+03  0.72971765194E+03  0.10821480718E+04  0.00000000000E+00 0. -1.
         -2    1    5    5    0  503  0.53168857906E+02  0.78916998196E+02  0.78823109663E+02  0.12356335489E+03  0.00000000000E+00 0.  1.
         -1    1    6    6    0  502 -0.97720261300E+02  0.12370207626E+03 -0.11130708803E+02  0.15803590041E+03  0.00000000000E+00 0.  1.
<mgrwt>
<rscale>  0 0.25564034E+04</rscale>
<asrwt>0</asrwt>
<pdfrwt beam="1">  1        1 0.36574062E+00 0.25564034E+04</pdfrwt>
<pdfrwt beam="2">  1       -1 0.10573016E+00 0.25564034E+04</pdfrwt>
<totfact> 0.12192601E+00</totfact>
</mgrwt>
</event>
<event>
12    1  0.1532786E-007  0.2171718E+04  0.7818608E-02  0.8530293E-01
         -2   -1    0    0    0  501 -0.00000000000E+00  0.00000000000E+00  0.24548508059E+04  0.24548508059E+04  0.00000000000E+00 0.  1.
          2   -1    0    0  501    0  0.00000000000E+00 -0.00000000000E+00 -0.48031018226E+03  0.48031018226E+03  0.00000000000E+00 0. -1.
         23    2    1    2    0    0  0.46073187512E+03  0.34957828625E+03 -0.10546818555E+03  0.59599551716E+03  0.98021830955E+02 0.  0.
        254    2    1    2    0    0 -0.46073187512E+03 -0.34957828625E+03  0.20800088091E+04  0.23391654710E+04  0.90043301553E+03 0.  0.
        -24    2    4    4    0    0 -0.70527571684E+03 -0.23160060611E+03  0.11877578914E+04  0.14029705181E+04  0.80652269535E+02 0.  0.
         24    2    4    4    0    0  0.24454384172E+03 -0.11797768013E+03  0.89225091772E+03  0.93619495283E+03  0.81417848196E+02 0.  0.
         11    1    3    3    0    0  0.41638231656E+03  0.27321286027E+03 -0.95951916618E+02  0.50717479321E+03  0.00000000000E+00 0. -1.
        -11    1    3    3    0    0  0.44349558556E+02  0.76365425974E+02 -0.95162689296E+01  0.88820723948E+02  0.00000000000E+00 0.  1.
          2    1    6    6  502    0  0.19067128022E+03 -0.10890850484E+03  0.60083380812E+03  0.63970138698E+03  0.00000000000E+00 0. -1.
          3    1    5    5  503    0 -0.44567576325E+03 -0.11485767916E+03  0.78074108458E+03  0.90629786139E+03  0.00000000000E+00 0. -1.
         -2    1    5    5    0  503 -0.25959995359E+03 -0.11674292695E+03  0.40701680685E+03  0.49667265674E+03  0.00000000000E+00 0.  1.
         -1    1    6    6    0  502  0.53872561497E+02 -0.90691752938E+01  0.29141710960E+03  0.29649356585E+03  0.00000000000E+00 0.  1.
<mgrwt>
<rscale>  0 0.21717181E+04</rscale>
<asrwt>0</asrwt>
<pdfrwt beam="1">  1        2 0.73893876E-01 0.21717181E+04</pdfrwt>
<pdfrwt beam="2">  1       -2 0.37766935E+00 0.21717181E+04</pdfrwt>
<totfact> 0.61377672E-01</totfact>
</mgrwt>
</event>
<event>
12    1  0.1532786E-007  0.1735648E+04  0.7818608E-02  0.8741290E-01
          2   -1    0    0  501    0  0.00000000000E+00  0.00000000000E+00  0.16742574392E+04  0.16742574392E+04  0.00000000000E+00 0. -1.
         -2   -1    0    0    0  501 -0.00000000000E+00 -0.00000000000E+00 -0.44982261577E+03  0.44982261577E+03  0.00000000000E+00 0.  1.
         23    2    1    2    0    0  0.47070925588E+03  0.14350072403E+03  0.95861192025E+03  0.10812554231E+04  0.89536668556E+02 0.  0.
        254    2    1    2    0    0 -0.47070925588E+03 -0.14350072403E+03  0.26582290313E+03  0.10428246318E+04  0.88014870078E+03 0.  0.
        -24    2    4    4    0    0  0.18232869054E+01 -0.43819345311E+03  0.97414025380E+02  0.45579417156E+03  0.79006377985E+02 0.  0.
         24    2    4    4    0    0 -0.47253254279E+03  0.29469272908E+03  0.16840887775E+03  0.58703046024E+03  0.78181855792E+02 0.  0.
         11    1    3    3    0    0  0.14642560435E+03  0.36637674192E+02  0.21167119154E+03  0.25997590293E+03  0.00000000000E+00 0.  1.
        -11    1    3    3    0    0  0.32428365153E+03  0.10686304984E+03  0.74694072871E+03  0.82127952019E+03  0.00000000000E+00 0. -1.
          2    1    6    6  502    0 -0.80861104427E+02  0.18505508970E+02  0.20104124290E+02  0.85353077770E+02  0.00000000000E+00 0. -1.
          3    1    5    5  503    0  0.39968367016E+02 -0.22030765533E+03  0.55096235868E+02  0.23058301881E+03  0.00000000000E+00 0. -1.
         -4    1    5    5    0  503 -0.38145080111E+02 -0.21788579778E+03  0.42317789512E+02  0.22521115275E+03  0.00000000000E+00 0.  1.
         -1    1    6    6    0  502 -0.39167143836E+03  0.27618722011E+03  0.14830475346E+03  0.50167738247E+03  0.00000000000E+00 0.  1.
<mgrwt>
<rscale>  0 0.17356484E+04</rscale>
<asrwt>0</asrwt>
<pdfrwt beam="1">  1        2 0.25757806E+00 0.17356484E+04</pdfrwt>
<pdfrwt beam="2">  1       -2 0.69203480E-01 0.17356484E+04</pdfrwt>
<totfact> 0.18329855E+01</totfact>
</mgrwt>
</event>
<event>
12    1  0.1532786E-007  0.1845587E+04  0.7818608E-02  0.8682426E-01
          1   -1    0    0  501    0  0.00000000000E+00  0.00000000000E+00  0.12361703274E+04  0.12361703274E+04  0.00000000000E+00 0. -1.
         -1   -1    0    0    0  501 -0.00000000000E+00 -0.00000000000E+00 -0.68885960773E+03  0.68885960773E+03  0.00000000000E+00 0.  1.
         23    2    1    2    0    0  0.57775346588E+03  0.60676900290E+02  0.61928355343E+03  0.85397486900E+03  0.90995625082E+02 0.  0.
        254    2    1    2    0    0 -0.57775346588E+03 -0.60676900290E+02 -0.71972833749E+02  0.10710550661E+04  0.89693818757E+03 0.  0.
        -24    2    4    4    0    0 -0.53772377887E+03  0.23729422236E+03 -0.31925941688E+03  0.67350949428E+03  0.78949688363E+02 0.  0.
         24    2    4    4    0    0 -0.40029687006E+02 -0.29797112265E+03  0.24728658313E+03  0.39754557185E+03  0.80639083106E+02 0.  0.
         13    1    3    3    0    0  0.36511228559E+03  0.40258909417E+02  0.45332752700E+03  0.58346688647E+03  0.00000000000E+00 0. -1.
        -13    1    3    3    0    0  0.21264118029E+03  0.20417990873E+02  0.16595602643E+03  0.27050798253E+03  0.00000000000E+00 0.  1.
          2    1    6    6  502    0 -0.13795124811E+02 -0.61931819078E+01  0.27232070279E+02  0.31148782037E+02  0.00000000000E+00 0. -1.
          1    1    5    5  503    0 -0.22121140868E+03  0.66176034148E+02 -0.15416296134E+03  0.27763280331E+03  0.00000000000E+00 0. -1.
         -2    1    5    5    0  503 -0.31651237019E+03  0.17111818821E+03 -0.16509645554E+03  0.39587669097E+03  0.00000000000E+00 0.  1.
         -1    1    6    6    0  502 -0.26234562195E+02 -0.29177794075E+03  0.22005451285E+03  0.36639678981E+03  0.00000000000E+00 0.  1.
<mgrwt>
<rscale>  0 0.18455870E+04</rscale>
<asrwt>0</asrwt>
<pdfrwt beam="1">  1        1 0.19018005E+00 0.18455870E+04</pdfrwt>
<pdfrwt beam="2">  1       -1 0.10597840E+00 0.18455870E+04</pdfrwt>
<totfact> 0.78754777E+00</totfact>
</mgrwt>
</event>
<event>
12    1  0.1532786E-007  0.1287648E+04  0.7818608E-02  0.9039418E-01
          1   -1    0    0  501    0  0.00000000000E+00  0.00000000000E+00  0.76580542552E+03  0.76580542552E+03  0.00000000000E+00 0. -1.
         -1   -1    0    0    0  501 -0.00000000000E+00 -0.00000000000E+00 -0.54127255301E+03  0.54127255301E+03  0.00000000000E+00 0.  1.
         23    2    1    2    0    0 -0.29869785076E+03 -0.11721660500E+03  0.36870729391E+02  0.33560250190E+03  0.91156184985E+02 0.  0.
        254    2    1    2    0    0  0.29869785076E+03  0.11721660500E+03  0.18766214312E+03  0.97147547663E+03  0.89754519842E+03 0.  0.
        -24    2    4    4    0    0  0.29213372322E+03  0.41417339171E+03  0.35313264933E+03  0.62297627433E+03  0.80715919794E+02 0.  0.
         24    2    4    4    0    0  0.65641275344E+01 -0.29695678672E+03 -0.16547050621E+03  0.34849920230E+03  0.76451191179E+02 0.  0.
         13    1    3    3    0    0 -0.29848016519E+02 -0.37878605566E+02 -0.15057096991E+02  0.50521371909E+02  0.00000000000E+00 0.  1.
        -13    1    3    3    0    0 -0.26884983424E+03 -0.79337999430E+02  0.51927826383E+02  0.28508112999E+03  0.00000000000E+00 0. -1.
          4    1    6    6  502    0  0.22844087887E+02 -0.16785905026E+03 -0.55901185722E+02  0.17839129931E+03  0.00000000000E+00 0. -1.
          3    1    5    5  503    0  0.11245112067E+03  0.21520906658E+03  0.19742055083E+03  0.31294579526E+03  0.00000000000E+00 0. -1.
         -4    1    5    5    0  503  0.17968260255E+03  0.19896432513E+03  0.15571209850E+03  0.31003047907E+03  0.00000000000E+00 0.  1.
         -3    1    6    6    0  502 -0.16279960353E+02 -0.12909773646E+03 -0.10956932049E+03  0.17010790299E+03  0.00000000000E+00 0.  1.
<mgrwt>
<rscale>  0 0.12876482E+04</rscale>
<asrwt>0</asrwt>
<pdfrwt beam="1">  1        1 0.11781622E+00 0.12876482E+04</pdfrwt>
<pdfrwt beam="2">  1       -1 0.83272700E-01 0.12876482E+04</pdfrwt>
<totfact> 0.33379927E+01</totfact>
</mgrwt>
</event>
<event>
12    1  0.1532786E-007  0.1507956E+04  0.7818608E-02  0.8879179E-01
          1   -1    0    0  501    0  0.00000000000E+00  0.00000000000E+00  0.52706937657E+03  0.52706937657E+03  0.00000000000E+00 0. -1.
         -1   -1    0    0    0  501 -0.00000000000E+00 -0.00000000000E+00 -0.10785736327E+04  0.10785736327E+04  0.00000000000E+00 0.  1.
         23    2    1    2    0    0 -0.24385837110E+03  0.27763692513E+02 -0.64675761174E+03  0.69748329450E+03  0.89161706944E+02 0.  0.
        254    2    1    2    0    0  0.24385837110E+03 -0.27763692513E+02  0.95253355558E+02  0.90815971481E+03  0.86916231976E+03 0.  0.
        -24    2    4    4    0    0  0.12020145176E+03 -0.43708963442E+03 -0.98550609200E+01  0.46059011067E+03  0.80934481498E+02 0.  0.
         24    2    4    4    0    0  0.12365691934E+03  0.40932594191E+03  0.10510841648E+03  0.44756960414E+03  0.80199818664E+02 0.  0.
         13    1    3    3    0    0 -0.13065481500E+03  0.76623416467E+01 -0.22461926514E+03  0.25996770267E+03  0.00000000000E+00 0. -1.
        -13    1    3    3    0    0 -0.11320355611E+03  0.20101350866E+02 -0.42213834660E+03  0.43751559183E+03  0.00000000000E+00 0.  1.
          2    1    6    6  502    0  0.71592420161E+02  0.11897424442E+03  0.49354004457E+02  0.14736404994E+03  0.00000000000E+00 0. -1.
          1    1    5    5  503    0  0.27659962962E+02 -0.28030009362E+02  0.10316256463E+02  0.40708477290E+02  0.00000000000E+00 0. -1.
         -4    1    5    5    0  503  0.92541488797E+02 -0.40905962506E+03 -0.20171317383E+02  0.41988163338E+03  0.00000000000E+00 0.  1.
         -1    1    6    6    0  502  0.52064499184E+02  0.29035169750E+03  0.55754412021E+02  0.30020555420E+03  0.00000000000E+00 0.  1.
<mgrwt>
<rscale>  0 0.15079564E+04</rscale>
<asrwt>0</asrwt>
<pdfrwt beam="1">  1        1 0.81087597E-01 0.15079564E+04</pdfrwt>
<pdfrwt beam="2">  1       -1 0.16593440E+00 0.15079564E+04</pdfrwt>
<totfact> 0.10499798E+01</totfact>
</mgrwt>
</event>
<event>
12    1  0.1532786E-007  0.1272312E+04  0.7818608E-02  0.9051815E-01
          1   -1    0    0  501    0  0.00000000000E+00  0.00000000000E+00  0.10045801546E+04  0.10045801546E+04  0.00000000000E+00 0.  1.
         -1   -1    0    0    0  501 -0.00000000000E+00 -0.00000000000E+00 -0.40284921173E+03  0.40284921173E+03  0.00000000000E+00 0. -1.
         23    2    1    2    0    0 -0.29033562444E+03  0.60292998540E+02  0.20899829881E+03  0.37800683896E+03  0.10620198165E+03 0.  0.
        254    2    1    2    0    0  0.29033562444E+03 -0.60292998540E+02  0.39273264410E+03  0.10294225274E+04  0.90418017545E+03 0.  0.
        -24    2    4    4    0    0  0.11807522274E+03  0.27281443081E+03  0.53802505924E+03  0.61986833878E+03  0.79977003980E+02 0.  0.
         24    2    4    4    0    0  0.17226040170E+03 -0.33310742935E+03 -0.14529241515E+03  0.40955418861E+03  0.77398591891E+02 0.  0.
         13    1    3    3    0    0 -0.24759352805E+03  0.72441781816E+02  0.21137056031E+03  0.33350844165E+03  0.00000000000E+00 0. -1.
        -13    1    3    3    0    0 -0.42742096389E+02 -0.12148783277E+02 -0.23722615016E+01  0.44498397313E+02  0.00000000000E+00 0.  1.
          2    1    6    6  502    0  0.60355730134E+02 -0.18034985157E+03 -0.45675960386E+02  0.19558930564E+03  0.00000000000E+00 0. -1.
          1    1    5    5  503    0  0.58853666891E+02  0.10880258013E+03  0.14974956933E+03  0.19423359407E+03  0.00000000000E+00 0. -1.
         -2    1    5    5    0  503  0.59221555850E+02  0.16401185068E+03  0.38827548991E+03  0.42563474471E+03  0.00000000000E+00 0.  1.
         -1    1    6    6    0  502  0.11190467157E+03 -0.15275757778E+03 -0.99616454759E+02  0.21396488298E+03  0.00000000000E+00 0.  1.
<mgrwt>
<rscale>  0 0.12723118E+04</rscale>
<asrwt>0</asrwt>
<pdfrwt beam="1">  1        1 0.15455079E+00 0.12723118E+04</pdfrwt>
<pdfrwt beam="2">  1       -1 0.61976802E-01 0.12723118E+04</pdfrwt>
<totfact> 0.39015705E+01</totfact>
</mgrwt>
</event>
<event>
12    1  0.1532786E-007  0.1543324E+04  0.7818608E-02  0.8856144E-01
         -1   -1    0    0    0  501 -0.00000000000E+00  0.00000000000E+00  0.27489859847E+03  0.27489859847E+03  0.00000000000E+00 0.  1.
          1   -1    0    0  501    0  0.00000000000E+00 -0.00000000000E+00 -0.21661146568E+04  0.21661146568E+04  0.00000000000E+00 0. -1.
         23    2    1    2    0    0  0.45051358455E+03  0.31435987388E+03 -0.98697072500E+03  0.11332466320E+04  0.91389806310E+02 0.  0.
        254    2    1    2    0    0 -0.45051358455E+03 -0.31435987388E+03 -0.90424533334E+03  0.13077666233E+04  0.76864120238E+03 0.  0.
        -24    2    4    4    0    0 -0.52126210572E+03 -0.17097442498E+03 -0.21334366504E+03  0.59416290126E+03  0.81040711776E+02 0.  0.
         24    2    4    4    0    0  0.70748521172E+02 -0.14338544890E+03 -0.69090166830E+03  0.71360372204E+03  0.79501048134E+02 0.  0.
         11    1    3    3    0    0  0.82267743722E+02  0.57626546551E+02 -0.26141956109E+03  0.28005175851E+03  0.00000000000E+00 0. -1.
        -11    1    3    3    0    0  0.36824584082E+03  0.25673332733E+03 -0.72555116392E+03  0.85319487347E+03  0.00000000000E+00 0.  1.
          2    1    6    6  502    0  0.11340078153E+02  0.88668481144E+01 -0.76146256184E+02  0.77494972087E+02  0.00000000000E+00 0. -1.
          1    1    5    5  503    0 -0.47373112670E+03 -0.17880082186E+03 -0.19614889460E+03  0.54301501191E+03  0.00000000000E+00 0. -1.
         -2    1    5    5    0  503 -0.47530979022E+02  0.78263968851E+01 -0.17194770439E+02  0.51147889355E+02  0.00000000000E+00 0.  1.
         -1    1    6    6    0  502  0.59408443018E+02 -0.15225229702E+03 -0.61475541211E+03  0.63610874996E+03  0.00000000000E+00 0.  1.
<mgrwt>
<rscale>  0 0.15433235E+04</rscale>
<asrwt>0</asrwt>
<pdfrwt beam="1">  1        1 0.33324840E+00 0.15433235E+04</pdfrwt>
<pdfrwt beam="2">  1       -1 0.42292093E-01 0.15433235E+04</pdfrwt>
<totfact> 0.12186254E+01</totfact>
</mgrwt>
</event>
<event>
12    1  0.1532786E-007  0.1376632E+04  0.7818608E-02  0.8970909E-01
          1   -1    0    0  501    0  0.00000000000E+00  0.00000000000E+00  0.23194299384E+04  0.23194299384E+04  0.00000000000E+00 0. -1.
         -1   -1    0    0    0  501 -0.00000000000E+00 -0.00000000000E+00 -0.20426536379E+03  0.20426536379E+03  0.00000000000E+00 0.  1.
         23    2    1    2    0    0 -0.50343929238E+02  0.26507086388E+03  0.11326153419E+04  0.11678900896E+04  0.91392968128E+02 0.  0.
        254    2    1    2    0    0  0.50343929238E+02 -0.26507086388E+03  0.98254923274E+03  0.13558052126E+04  0.89443149860E+03 0.  0.
        -24    2    4    4    0    0 -0.34689838232E+03 -0.16833176191E+03  0.81868101365E+03  0.90841858372E+03  0.79445902511E+02 0.  0.
         24    2    4    4    0    0  0.39724231156E+03 -0.96739101974E+02  0.16386821910E+03  0.44738662889E+03  0.78371516080E+02 0.  0.
         11    1    3    3    0    0 -0.11319835747E+02  0.42716401723E+01  0.13511630777E+02  0.18136972111E+02  0.00000000000E+00 0. -1.
        -11    1    3    3    0    0 -0.39024093491E+02  0.26079922371E+03  0.11191037111E+04  0.11497531175E+04  0.00000000000E+00 0.  1.
          2    1    6    6  502    0  0.28055346453E+03 -0.51149173167E+02  0.14743401962E+03  0.32103469363E+03  0.00000000000E+00 0. -1.
          3    1    5    5  503    0 -0.33792559195E+03 -0.16166348164E+03  0.74483695173E+03  0.83373309378E+03  0.00000000000E+00 0. -1.
         -4    1    5    5    0  503 -0.89727903698E+01 -0.66682802664E+01  0.73844061913E+02  0.74685489946E+02  0.00000000000E+00 0.  1.
         -1    1    6    6    0  502  0.11668884703E+03 -0.45589928807E+02  0.16434199479E+02  0.12635193526E+03  0.00000000000E+00 0.  1.
<mgrwt>
<rscale>  0 0.13766324E+04</rscale>
<asrwt>0</asrwt>
<pdfrwt beam="1">  1        1 0.35683536E+00 0.13766324E+04</pdfrwt>
<pdfrwt beam="2">  1       -1 0.31425442E-01 0.13766324E+04</pdfrwt>
<totfact> 0.16618923E+01</totfact>
</mgrwt>
</event>
<event>
12    1  0.1532786E-007  0.1335405E+04  0.7818608E-02  0.9001951E-01
         -2   -1    0    0    0  501 -0.00000000000E+00  0.00000000000E+00  0.58949975866E+03  0.58949975866E+03  0.00000000000E+00 0.  1.
          2   -1    0    0  501    0  0.00000000000E+00 -0.00000000000E+00 -0.75627932183E+03  0.75627932183E+03  0.00000000000E+00 0. -1.
         23    2    1    2    0    0 -0.73586148193E+02 -0.28882249942E+03 -0.24598144854E+03  0.39705344036E+03  0.91165805539E+02 0.  0.
        254    2    1    2    0    0  0.73586148193E+02  0.28882249942E+03  0.79201885381E+02  0.94872564013E+03  0.89720345753E+03 0.  0.
        -24    2    4    4    0    0 -0.28197089036E+03  0.45805174328E+03  0.56408283643E+02  0.54656640581E+03  0.78955423888E+02 0.  0.
         24    2    4    4    0    0  0.35555703855E+03 -0.16922924386E+03  0.22793601738E+02  0.40215923432E+03  0.78442060339E+02 0.  0.
         11    1    3    3    0    0  0.21441114857E+02 -0.58685695014E+02 -0.43523000476E+02  0.76144492749E+02  0.00000000000E+00 0.  1.
        -11    1    3    3    0    0 -0.95027263050E+02 -0.23013680441E+03 -0.20245844807E+03  0.32090894762E+03  0.00000000000E+00 0. -1.
          4    1    6    6  502    0  0.24361942181E+03 -0.85150401338E+02  0.39836471555E+02  0.26112824052E+03  0.00000000000E+00 0. -1.
          3    1    5    5  503    0 -0.22677336564E+03  0.39868141241E+03  0.24090961419E+02  0.45929663877E+03  0.00000000000E+00 0. -1.
         -4    1    5    5    0  503 -0.55197524715E+02  0.59370330870E+02  0.32317322224E+02  0.87269767033E+02  0.00000000000E+00 0.  1.
         -3    1    6    6    0  502  0.11193761674E+03 -0.84078842520E+02 -0.17042869817E+02  0.14103099380E+03  0.00000000000E+00 0.  1.
<mgrwt>
<rscale>  0 0.13354048E+04</rscale>
<asrwt>0</asrwt>
<pdfrwt beam="1">  1        2 0.11635066E+00 0.13354048E+04</pdfrwt>
<pdfrwt beam="2">  1       -2 0.90692271E-01 0.13354048E+04</pdfrwt>
<totfact> 0.37671670E+01</totfact>
</mgrwt>
</event>
<event>
12    1  0.1532786E-007  0.1649246E+04  0.7818608E-02  0.8790852E-01
          2   -1    0    0  501    0  0.00000000000E+00  0.00000000000E+00  0.18874475535E+04  0.18874475535E+04  0.00000000000E+00 0. -1.
         -2   -1    0    0    0  501 -0.00000000000E+00 -0.00000000000E+00 -0.36027674395E+03  0.36027674395E+03  0.00000000000E+00 0.  1.
         23    2    1    2    0    0  0.18978646328E+03  0.39587611243E+03  0.23492943527E+02  0.44923965387E+03  0.92344735516E+02 0.  0.
        254    2    1    2    0    0 -0.18978646328E+03 -0.39587611243E+03  0.15036778660E+04  0.17984846435E+04  0.88360799585E+03 0.  0.
        -24    2    4    4    0    0 -0.44312062175E+03 -0.38807551019E+03  0.13857148371E+04  0.15076898566E+04  0.77230868497E+02 0.  0.
         24    2    4    4    0    0  0.25333415846E+03 -0.78006022461E+01  0.11796302892E+03  0.29079478691E+03  0.80045528703E+02 0.  0.
         11    1    3    3    0    0  0.58865290477E+02  0.12917548704E+03 -0.35523202495E+02  0.14633293133E+03  0.00000000000E+00 0. -1.
        -11    1    3    3    0    0  0.13092117281E+03  0.26670062539E+03  0.59016146022E+02  0.30290672255E+03  0.00000000000E+00 0.  1.
          2    1    6    6  502    0  0.17622492494E+03  0.76487632392E+01  0.41711202055E+02  0.18125548854E+03  0.00000000000E+00 0. -1.
          1    1    5    5  503    0 -0.42162664348E+03 -0.35042950367E+03  0.13155131496E+04  0.14251823428E+04  0.00000000000E+00 0. -1.
         -2    1    5    5    0  503 -0.21493978270E+02 -0.37646006520E+02  0.70201687481E+02  0.82507513803E+02  0.00000000000E+00 0.  1.
         -1    1    6    6    0  502  0.77109233525E+02 -0.15449365485E+02  0.76251826861E+02  0.10953929837E+03  0.00000000000E+00 0.  1.
<mgrwt>
<rscale>  0 0.16492464E+04</rscale>
<asrwt>0</asrwt>
<pdfrwt beam="1">  1        2 0.29037654E+00 0.16492464E+04</pdfrwt>
<pdfrwt beam="2">  1       -2 0.55427192E-01 0.16492464E+04</pdfrwt>
<totfact> 0.22551327E+01</totfact>
</mgrwt>
</event>
<event>
12    1  0.1532786E-007  0.2602369E+04  0.7818608E-02  0.8367397E-01
          2   -1    0    0  501    0  0.00000000000E+00  0.00000000000E+00  0.33904389659E+04  0.33904389659E+04  0.00000000000E+00 0. -1.
         -2   -1    0    0    0  501 -0.00000000000E+00 -0.00000000000E+00 -0.49936913975E+03  0.49936913975E+03  0.00000000000E+00 0.  1.
         23    2    1    2    0    0 -0.11159507071E+04 -0.55319069948E+02  0.16551843668E+04  0.19991046716E+04  0.91531522584E+02 0.  0.
        254    2    1    2    0    0  0.11159507071E+04  0.55319069948E+02  0.12358854593E+04  0.18907034341E+04  0.89383467533E+03 0.  0.
        -24    2    4    4    0    0  0.73676335726E+03  0.32886482632E+03  0.11537892033E+04  0.14101574280E+04  0.79637474929E+02 0.  0.
         24    2    4    4    0    0  0.37918734984E+03 -0.27354575637E+03  0.82096256040E+02  0.48054600610E+03  0.74661513599E+02 0.  0.
         13    1    3    3    0    0 -0.62155805981E+03 -0.32643433922E+02  0.10024184539E+04  0.11799333761E+04  0.00000000000E+00 0. -1.
        -13    1    3    3    0    0 -0.49439264729E+03 -0.22675636026E+02  0.65276591296E+03  0.81917129545E+03  0.00000000000E+00 0.  1.
          2    1    6    6  502    0  0.62600861034E+02 -0.65107419424E+02  0.41295549794E+02  0.99313474912E+02  0.00000000000E+00 0. -1.
          3    1    5    5  503    0  0.40564999907E+03  0.19668121859E+03  0.57954615495E+03  0.73424053907E+03  0.00000000000E+00 0. -1.
         -4    1    5    5    0  503  0.33111335819E+03  0.13218360773E+03  0.57424304836E+03  0.67591688891E+03  0.00000000000E+00 0.  1.
         -1    1    6    6    0  502  0.31658648881E+03 -0.20843833695E+03  0.40800706245E+02  0.38123253119E+03  0.00000000000E+00 0.  1.
<mgrwt>
<rscale>  0 0.26023686E+04</rscale>
<asrwt>0</asrwt>
<pdfrwt beam="1">  1        2 0.52160598E+00 0.26023686E+04</pdfrwt>
<pdfrwt beam="2">  1       -2 0.76826023E-01 0.26023686E+04</pdfrwt>
<totfact> 0.12961383E+00</totfact>
</mgrwt>
</event>
<event>
12    1  0.1532786E-007  0.1119000E+04  0.7818608E-02  0.9186869E-01
          1   -1    0    0  501    0  0.00000000000E+00  0.00000000000E+00  0.50416601432E+03  0.50416601432E+03  0.00000000000E+00 0. -1.
         -1   -1    0    0    0  501 -0.00000000000E+00 -0.00000000000E+00 -0.62090702493E+03  0.62090702493E+03  0.00000000000E+00 0.  1.
         23    2    1    2    0    0 -0.14614956553E+03 -0.14116998276E+02  0.25247137319E+03  0.30398391724E+03  0.84293786911E+02 0.  0.
        254    2    1    2    0    0  0.14614956553E+03  0.14116998276E+02 -0.36921238381E+03  0.82108912202E+03  0.71854754665E+03 0.  0.
        -24    2    4    4    0    0 -0.88515180087E+02 -0.18543420277E+02  0.18020984844E+03  0.21736050348E+03  0.81186227027E+02 0.  0.
         24    2    4    4    0    0  0.23466474562E+03  0.32660418553E+02 -0.54942223225E+03  0.60372861853E+03  0.80555631524E+02 0.  0.
         13    1    3    3    0    0 -0.13671164806E+03 -0.26365225102E+02  0.16840493937E+03  0.21850726170E+03  0.00000000000E+00 0. -1.
        -13    1    3    3    0    0 -0.94379174701E+01  0.12248226826E+02  0.84066433824E+02  0.85476655541E+02  0.00000000000E+00 0.  1.
          4    1    6    6  502    0  0.11807358289E+03 -0.22752205171E+02 -0.29076637593E+03  0.31464920020E+03  0.00000000000E+00 0. -1.
          3    1    5    5  503    0 -0.38932480500E+01  0.26930811531E+01  0.95958162330E+02  0.96074861354E+02  0.00000000000E+00 0. -1.
         -4    1    5    5    0  503 -0.84621932037E+02 -0.21236501430E+02  0.84251686111E+02  0.12128564213E+03  0.00000000000E+00 0.  1.
         -3    1    6    6    0  502  0.11659116273E+03  0.55412623724E+02 -0.25865585632E+03  0.28907941833E+03  0.00000000000E+00 0.  1.
<mgrwt>
<rscale>  0 0.11189999E+04</rscale>
<asrwt>0</asrwt>
<pdfrwt beam="1">  1        1 0.77564002E-01 0.11189999E+04</pdfrwt>
<pdfrwt beam="2">  1       -1 0.95524158E-01 0.11189999E+04</pdfrwt>
<totfact> 0.46145342E+01</totfact>
</mgrwt>
</event>
<event>
12    1  0.1532786E-007  0.1531812E+04  0.7818608E-02  0.8863570E-01
         -1   -1    0    0    0  501 -0.00000000000E+00  0.00000000000E+00  0.15354487526E+04  0.15354487526E+04  0.00000000000E+00 0.  1.
          1   -1    0    0  501    0  0.00000000000E+00 -0.00000000000E+00 -0.38204584727E+03  0.38204584727E+03  0.00000000000E+00 0. -1.
         23    2    1    2    0    0  0.29516431945E+02  0.43476913529E+02  0.10288288757E+04  0.10344130830E+04  0.93595454795E+02 0.  0.
        254    2    1    2    0    0 -0.29516431945E+02 -0.43476913529E+02  0.12457402971E+03  0.88308151690E+03  0.87266993465E+03 0.  0.
        -24    2    4    4    0    0  0.17541006515E+03 -0.32631203002E+03 -0.17387336075E+03  0.41685221991E+03  0.79281749309E+02 0.  0.
         24    2    4    4    0    0 -0.20492649709E+03  0.28283511650E+03  0.29844739046E+03  0.46622929698E+03  0.79425060031E+02 0.  0.
         13    1    3    3    0    0  0.42161278116E+02  0.30899828290E+02  0.25126221333E+03  0.25664191514E+03  0.00000000000E+00 0. -1.
        -13    1    3    3    0    0 -0.12644846171E+02  0.12577085239E+02  0.77756666232E+03  0.77777116787E+03  0.00000000000E+00 0.  1.
          2    1    6    6  502    0 -0.15393035250E+03  0.22240998191E+03  0.18403521931E+03  0.32715396287E+03  0.00000000000E+00 0. -1.
          3    1    5    5  503    0  0.31977715334E+02 -0.49427886581E+02 -0.62167739945E+02  0.85618445090E+02  0.00000000000E+00 0. -1.
         -4    1    5    5    0  503  0.14343234981E+03 -0.27688414344E+03 -0.11170562081E+03  0.33123377482E+03  0.00000000000E+00 0.  1.
         -1    1    6    6    0  502 -0.50996144596E+02  0.60425134589E+02  0.11441217115E+03  0.13907533412E+03  0.00000000000E+00 0.  1.
<mgrwt>
<rscale>  0 0.15318118E+04</rscale>
<asrwt>0</asrwt>
<pdfrwt beam="1">  1        1 0.58776285E-01 0.15318118E+04</pdfrwt>
<pdfrwt beam="2">  1       -1 0.23622288E+00 0.15318118E+04</pdfrwt>
<totfact> 0.52845301E+00</totfact>
</mgrwt>
</event>
<event>
12    1  0.1532786E-007  0.1287856E+04  0.7818608E-02  0.9039251E-01
          1   -1    0    0  501    0  0.00000000000E+00  0.00000000000E+00  0.13141789462E+04  0.13141789462E+04  0.00000000000E+00 0. -1.
         -1   -1    0    0    0  501 -0.00000000000E+00 -0.00000000000E+00 -0.31551520163E+03  0.31551520163E+03  0.00000000000E+00 0.  1.
         23    2    1    2    0    0  0.32027480285E+03 -0.69836454789E+02  0.59562379613E+03  0.68616731230E+03  0.92762029980E+02 0.  0.
        254    2    1    2    0    0 -0.32027480285E+03  0.69836454789E+02  0.40303994844E+03  0.94352683553E+03  0.78762212359E+03 0.  0.
        -24    2    4    4    0    0 -0.26042636010E+02  0.35487873268E+03  0.22929545703E+01  0.36487093460E+03  0.80674701576E+02 0.  0.
         24    2    4    4    0    0 -0.29423216684E+03 -0.28504227789E+03  0.40074699387E+03  0.57865590093E+03  0.80142562915E+02 0.  0.
         13    1    3    3    0    0  0.17072271055E+03 -0.59055222961E+02  0.40638193140E+03  0.44472467598E+03  0.00000000000E+00 0. -1.
        -13    1    3    3    0    0  0.14955209230E+03 -0.10781231828E+02  0.18924186473E+03  0.24144263633E+03  0.00000000000E+00 0.  1.
          4    1    6    6  502    0 -0.49056680663E+02 -0.93715515674E+02  0.87925020160E+02  0.13754986356E+03  0.00000000000E+00 0. -1.
          3    1    5    5  503    0 -0.29396635476E+02  0.38410851539E+02 -0.57093442642E+00  0.48372323279E+02  0.00000000000E+00 0. -1.
         -4    1    5    5    0  503  0.33539994668E+01  0.31646788114E+03  0.28638889967E+01  0.31649861132E+03  0.00000000000E+00 0.  1.
         -3    1    6    6    0  502 -0.24517548618E+03 -0.19132676222E+03  0.31282197371E+03  0.44110603737E+03  0.00000000000E+00 0.  1.
<mgrwt>
<rscale>  0 0.12878563E+04</rscale>
<asrwt>0</asrwt>
<pdfrwt beam="1">  1        1 0.20218137E+00 0.12878563E+04</pdfrwt>
<pdfrwt beam="2">  1       -1 0.48540801E-01 0.12878563E+04</pdfrwt>
<totfact> 0.36894625E+01</totfact>
</mgrwt>
</event>
<event>
12    1  0.1532786E-007  0.2091176E+04  0.7818608E-02  0.8565140E-01
         -2   -1    0    0    0  501 -0.00000000000E+00  0.00000000000E+00  0.31009540925E+03  0.31009540925E+03  0.00000000000E+00 0.  1.
          2   -1    0    0  501    0  0.00000000000E+00 -0.00000000000E+00 -0.35255431146E+04  0.35255431146E+04  0.00000000000E+00 0. -1.
         23    2    1    2    0    0  0.11823675092E+03 -0.40022395007E+03 -0.26442179107E+04  0.26784957654E+04  0.91060784926E+02 0.  0.
        254    2    1    2    0    0 -0.11823675092E+03  0.40022395007E+03 -0.57122979458E+03  0.11571427584E+04  0.91570559983E+03 0.  0.
        -24    2    4    4    0    0 -0.11111217063E+02 -0.28252596516E+03 -0.26693618106E+03  0.39784603365E+03  0.84155579706E+02 0.  0.
         24    2    4    4    0    0 -0.10712553386E+03  0.68274991524E+03 -0.30429361351E+03  0.75929672472E+03  0.79458078165E+02 0.  0.
         13    1    3    3    0    0  0.26527990671E+02 -0.23607812596E+03 -0.15881577566E+04  0.16058274116E+04  0.00000000000E+00 0. -1.
        -13    1    3    3    0    0  0.91708760250E+02 -0.16414582411E+03 -0.10560601541E+04  0.10726683538E+04  0.00000000000E+00 0.  1.
          2    1    6    6  502    0 -0.74761738742E+02  0.51666374333E+03 -0.19208139449E+03  0.55626073325E+03  0.00000000000E+00 0. -1.
          1    1    5    5  503    0 -0.10131053803E+02 -0.17880187237E+03 -0.22085879428E+03  0.28434372655E+03  0.00000000000E+00 0. -1.
         -2    1    5    5    0  503 -0.98016325966E+00 -0.10372409279E+03 -0.46077386778E+02  0.11350230710E+03  0.00000000000E+00 0.  1.
         -1    1    6    6    0  502 -0.32363795116E+02  0.16608617191E+03 -0.11221221902E+03  0.20303599147E+03  0.00000000000E+00 0.  1.
<mgrwt>
<rscale>  0 0.20911764E+04</rscale>
<asrwt>0</asrwt>
<pdfrwt beam="1">  1        2 0.54239125E+00 0.20911764E+04</pdfrwt>
<pdfrwt beam="2">  1       -2 0.47706986E-01 0.20911764E+04</pdfrwt>
<totfact> 0.30095020E+00</totfact>
</mgrwt>
</event>
<event>
12    1  0.1532786E-007  0.1480252E+04  0.7818608E-02  0.8897692E-01
         -1   -1    0    0    0  501 -0.00000000000E+00  0.00000000000E+00  0.45614553114E+03  0.45614553114E+03  0.00000000000E+00 0.  1.
          1   -1    0    0  501    0  0.00000000000E+00 -0.00000000000E+00 -0.12009030085E+04  0.12009030085E+04  0.00000000000E+00 0. -1.
         23    2    1    2    0    0  0.35148959522E+03 -0.16551058322E+03  0.37531976870E+02  0.40092128670E+03  0.91599891602E+02 0.  0.
        254    2    1    2    0    0 -0.35148959522E+03  0.16551058322E+03 -0.78228945426E+03  0.12561272530E+04  0.90274038166E+03 0.  0.
        -24    2    4    4    0    0 -0.37580439122E+03  0.30585697416E+03 -0.35898715394E+02  0.49210142619E+03  0.78087558454E+02 0.  0.
         24    2    4    4    0    0  0.24314796004E+02 -0.14034639094E+03 -0.74639073887E+03  0.76402582677E+03  0.79674400881E+02 0.  0.
         13    1    3    3    0    0  0.50160394465E+02 -0.43679120854E+02 -0.22860799859E+02  0.70331692299E+02  0.00000000000E+00 0. -1.
        -13    1    3    3    0    0  0.30132920075E+03 -0.12183146237E+03  0.60392776729E+02  0.33058959441E+03  0.00000000000E+00 0.  1.
          4    1    6    6  502    0 -0.25631506228E+02 -0.24904382838E+02 -0.21508229646E+03  0.21803118273E+03  0.00000000000E+00 0. -1.
          3    1    5    5  503    0 -0.13984065527E+03  0.14864568199E+03  0.12471405354E+02  0.20446633853E+03  0.00000000000E+00 0. -1.
         -4    1    5    5    0  503 -0.23596373595E+03  0.15721129217E+03 -0.48370120748E+02  0.28763508766E+03  0.00000000000E+00 0.  1.
         -3    1    6    6    0  502  0.49946302232E+02 -0.11544200810E+03 -0.53130844241E+03  0.54599464404E+03  0.00000000000E+00 0.  1.
<mgrwt>
<rscale>  0 0.14802521E+04</rscale>
<asrwt>0</asrwt>
<pdfrwt beam="1">  1        1 0.18475431E+00 0.14802521E+04</pdfrwt>
<pdfrwt beam="2">  1       -1 0.70176237E-01 0.14802521E+04</pdfrwt>
<totfact> 0.21219623E+01</totfact>
</mgrwt>
</event>
<event>
12    1  0.1532786E-007  0.1745162E+04  0.7818608E-02  0.8736018E-01
         -2   -1    0    0    0  501 -0.00000000000E+00  0.00000000000E+00  0.96799022857E+03  0.96799022857E+03  0.00000000000E+00 0. -1.
          2   -1    0    0  501    0  0.00000000000E+00 -0.00000000000E+00 -0.78657593460E+03  0.78657593460E+03  0.00000000000E+00 0.  1.
         23    2    1    2    0    0  0.27185400036E+02  0.62607165091E+03 -0.43338127552E+02  0.63478440251E+03  0.91478337952E+02 0.  0.
        254    2    1    2    0    0 -0.27185400036E+02 -0.62607165091E+03  0.22475242152E+03  0.11197817607E+04  0.90038479689E+03 0.  0.
        -24    2    4    4    0    0 -0.26287654220E+03  0.12458948551E+03  0.16472815493E+02  0.30210650672E+03  0.79814606523E+02 0.  0.
         24    2    4    4    0    0  0.23569114216E+03 -0.75066113642E+03  0.20827960603E+03  0.81767525394E+03  0.78549159064E+02 0.  0.
         11    1    3    3    0    0  0.34001422922E+02  0.57123101684E+03 -0.63947270704E+02  0.57580398122E+03  0.00000000000E+00 0.  1.
        -11    1    3    3    0    0 -0.68160228858E+01  0.54840634075E+02  0.20609143152E+02  0.58980421287E+02  0.00000000000E+00 0. -1.
          4    1    6    6  502    0  0.13129451757E+02 -0.82847945749E+01  0.18518781793E+01  0.15634889746E+02  0.00000000000E+00 0. -1.
          1    1    5    5  503    0 -0.15029031075E+03  0.37070351794E+02  0.33842031717E+02  0.15845084915E+03  0.00000000000E+00 0. -1.
         -2    1    5    5    0  503 -0.11258623145E+03  0.87519133715E+02 -0.17369216224E+02  0.14365565757E+03  0.00000000000E+00 0.  1.
         -3    1    6    6    0  502  0.22256169040E+03 -0.74237634185E+03  0.20642772785E+03  0.80204036419E+03  0.00000000000E+00 0.  1.
<mgrwt>
<rscale>  0 0.17451622E+04</rscale>
<asrwt>0</asrwt>
<pdfrwt beam="1">  1        2 0.12101168E+00 0.17451622E+04</pdfrwt>
<pdfrwt beam="2">  1       -2 0.14892158E+00 0.17451622E+04</pdfrwt>
<totfact> 0.10197588E+01</totfact>
</mgrwt>
</event>
<event>
12    1  0.1532786E-007  0.1528170E+04  0.7818608E-02  0.8865934E-01
         -2   -1    0    0    0  501 -0.00000000000E+00  0.00000000000E+00  0.35068553562E+03  0.35068553562E+03  0.00000000000E+00 0.  1.
          2   -1    0    0  501    0  0.00000000000E+00 -0.00000000000E+00 -0.16648125263E+04  0.16648125263E+04  0.00000000000E+00 0. -1.
         23    2    1    2    0    0 -0.19908421040E+03  0.21586522719E+03 -0.96306414293E+03  0.10118024762E+04  0.10009689498E+03 0.  0.
        254    2    1    2    0    0  0.19908421040E+03 -0.21586522719E+03 -0.35106284771E+03  0.10036955857E+04  0.89326781341E+03 0.  0.
        -24    2    4    4    0    0  0.20697383996E+03 -0.41027774696E+03 -0.54521353794E+03  0.71748517392E+03  0.79756960566E+02 0.  0.
         24    2    4    4    0    0 -0.78896295579E+01  0.19441251978E+03  0.19415069023E+03  0.28621041173E+03  0.79771142445E+02 0.  0.
         13    1    3    3    0    0 -0.20255473342E+03  0.17536053577E+03 -0.86809451836E+03  0.90849756761E+03  0.00000000000E+00 0. -1.
        -13    1    3    3    0    0  0.34705230261E+01  0.40504691412E+02 -0.94969624572E+02  0.10330490863E+03  0.00000000000E+00 0.  1.
          2    1    6    6  502    0 -0.33992550356E+02  0.74079348644E+02  0.46072650139E+02  0.93626558551E+02  0.00000000000E+00 0. -1.
          1    1    5    5  503    0  0.51003156302E+02 -0.68799558878E+02 -0.14760699884E+03  0.17065323718E+03  0.00000000000E+00 0. -1.
         -2    1    5    5    0  503  0.15597068365E+03 -0.34147818808E+03 -0.39760653910E+03  0.54683193673E+03  0.00000000000E+00 0.  1.
         -3    1    6    6    0  502  0.26102920799E+02  0.12033317113E+03  0.14807804009E+03  0.19258385318E+03  0.00000000000E+00 0.  1.
<mgrwt>
<rscale>  0 0.15281697E+04</rscale>
<asrwt>0</asrwt>
<pdfrwt beam="1">  1        2 0.25612500E+00 0.15281697E+04</pdfrwt>
<pdfrwt beam="2">  1       -2 0.53951621E-01 0.15281697E+04</pdfrwt>
<totfact> 0.32003936E+01</totfact>
</mgrwt>
</event>
<event>
12    1  0.1532786E-007  0.1807248E+04  0.7818608E-02  0.8702455E-01
          1   -1    0    0  501    0  0.00000000000E+00  0.00000000000E+00  0.35844225063E+04  0.35844225063E+04  0.00000000000E+00 0. -1.
         -1   -1    0    0    0  501 -0.00000000000E+00 -0.00000000000E+00 -0.22780127297E+03  0.22780127297E+03  0.00000000000E+00 0.  1.
         23    2    1    2    0    0  0.18343791176E+03 -0.65886396566E+03  0.14661938510E+04  0.16203584014E+04  0.89920785233E+02 0.  0.
        254    2    1    2    0    0 -0.18343791176E+03  0.65886396566E+03  0.18904273823E+04  0.21918653778E+04  0.87338820349E+03 0.  0.
        -24    2    4    4    0    0  0.22416136943E+03  0.39983349525E+03  0.37137015084E+03  0.59600724214E+03  0.84815684134E+02 0.  0.
         24    2    4    4    0    0 -0.40759928119E+03  0.25903047041E+03  0.15190572315E+04  0.15958581357E+04  0.77423240265E+02 0.  0.
         13    1    3    3    0    0  0.17554369570E+03 -0.56145130172E+03  0.11916232000E+04  0.13289127150E+04  0.00000000000E+00 0.  1.
        -13    1    3    3    0    0  0.78942160594E+01 -0.97412663939E+02  0.27457065096E+03  0.29144568639E+03  0.00000000000E+00 0. -1.
          4    1    6    6  502    0 -0.16799274693E+03  0.98335010535E+02  0.73733689560E+03  0.76259886895E+03  0.00000000000E+00 0. -1.
          1    1    5    5  503    0  0.17551895267E+03  0.33059728764E+03  0.25827061165E+03  0.45475837341E+03  0.00000000000E+00 0. -1.
         -2    1    5    5    0  503  0.48642416759E+02  0.69236207609E+02  0.11309953919E+03  0.14124886873E+03  0.00000000000E+00 0.  1.
         -3    1    6    6    0  502 -0.23960653426E+03  0.16069545987E+03  0.78172033586E+03  0.83325926672E+03  0.00000000000E+00 0.  1.
<mgrwt>
<rscale>  0 0.18072476E+04</rscale>
<asrwt>0</asrwt>
<pdfrwt beam="1">  1        1 0.55144957E+00 0.18072476E+04</pdfrwt>
<pdfrwt beam="2">  1       -1 0.35046352E-01 0.18072476E+04</pdfrwt>
<totfact> 0.15742775E+00</totfact>
</mgrwt>
</event>
<event>
12    1  0.1532786E-007  0.2734278E+04  0.7818608E-02  0.8323968E-01
         -2   -1    0    0    0  501 -0.00000000000E+00  0.00000000000E+00  0.97744479061E+03  0.97744479061E+03  0.00000000000E+00 0.  1.
          2   -1    0    0  501    0  0.00000000000E+00 -0.00000000000E+00 -0.19121997667E+04  0.19121997667E+04  0.00000000000E+00 0. -1.
         23    2    1    2    0    0 -0.16074409754E+03 -0.10794684602E+04  0.15065726057E+03  0.11056530161E+04  0.93167379152E+02 0.  0.
        254    2    1    2    0    0  0.16074409754E+03  0.10794684602E+04 -0.10854122366E+04  0.17839915411E+04  0.90189537866E+03 0.  0.
        -24    2    4    4    0    0  0.14771844536E+03  0.93819360010E+03 -0.32648695637E+03  0.10077312014E+04  0.83069074879E+02 0.  0.
         24    2    4    4    0    0  0.13025652177E+02  0.14127486007E+03 -0.75892528027E+03  0.77626033976E+03  0.80525029354E+02 0.  0.
         13    1    3    3    0    0 -0.73058142364E+02 -0.38967976865E+03  0.12166198197E+02  0.39665580878E+03  0.00000000000E+00 0. -1.
        -13    1    3    3    0    0 -0.87685955171E+02 -0.68978869152E+03  0.13849106237E+03  0.70899720735E+03  0.00000000000E+00 0.  1.
          2    1    6    6  502    0  0.11905722930E+02 -0.76774596320E+01 -0.68425107348E+02  0.69876211549E+02  0.00000000000E+00 0. -1.
          3    1    5    5  503    0  0.20396914802E+02  0.36890512501E+03 -0.10987041927E+03  0.38545886216E+03  0.00000000000E+00 0. -1.
         -4    1    5    5    0  503  0.12732153056E+03  0.56928847509E+03 -0.21661653710E+03  0.62227233922E+03  0.00000000000E+00 0.  1.
         -1    1    6    6    0  502  0.11199292472E+01  0.14895231970E+03 -0.69050017292E+03  0.70638412821E+03  0.00000000000E+00 0.  1.
<mgrwt>
<rscale>  0 0.27342785E+04</rscale>
<asrwt>0</asrwt>
<pdfrwt beam="1">  1        2 0.29418458E+00 0.27342785E+04</pdfrwt>
<pdfrwt beam="2">  1       -2 0.15037612E+00 0.27342785E+04</pdfrwt>
<totfact> 0.19468015E+00</totfact>
</mgrwt>
</event>
<event>
12    1  0.1532786E-007  0.1828985E+04  0.7818608E-02  0.8691036E-01
          2   -1    0    0  501    0  0.00000000000E+00  0.00000000000E+00  0.12066952593E+04  0.12066952593E+04  0.00000000000E+00 0. -1.
         -2   -1    0    0    0  501 -0.00000000000E+00 -0.00000000000E+00 -0.69304710065E+03  0.69304710065E+03  0.00000000000E+00 0.  1.
         23    2    1    2    0    0  0.21851951455E+02 -0.12799800634E+03 -0.51303005518E+03  0.53711283229E+03  0.91811544396E+02 0.  0.
        254    2    1    2    0    0 -0.21851951455E+02  0.12799800634E+03  0.10266782138E+04  0.13626295277E+04  0.88647057340E+03 0.  0.
        -24    2    4    4    0    0  0.35518475284E+03  0.29614904061E+03  0.46051866912E+03  0.65749667624E+03  0.79774505631E+02 0.  0.
         24    2    4    4    0    0 -0.37703670429E+03 -0.16815103427E+03  0.56615954472E+03  0.70513285144E+03  0.79020639020E+02 0.  0.
         13    1    3    3    0    0 -0.94434934739E+00 -0.82429053398E+02 -0.15577130977E+03  0.17623887650E+03  0.00000000000E+00 0. -1.
        -13    1    3    3    0    0  0.22796300802E+02 -0.45568952944E+02 -0.35725874540E+03  0.36087395579E+03  0.00000000000E+00 0.  1.
          2    1    6    6  502    0 -0.34215722874E+03 -0.13101002749E+03  0.46622843325E+03  0.59296218130E+03  0.00000000000E+00 0. -1.
          1    1    5    5  503    0  0.12226318371E+03  0.74584061245E+02  0.18609625723E+03  0.23482522275E+03  0.00000000000E+00 0. -1.
         -2    1    5    5    0  503  0.23292156913E+03  0.22156497937E+03  0.27442241189E+03  0.42267145349E+03  0.00000000000E+00 0.  1.
         -1    1    6    6    0  502 -0.34879475548E+02 -0.37141006778E+02  0.99931111470E+02  0.11217067014E+03  0.00000000000E+00 0.  1.
<mgrwt>
<rscale>  0 0.18289851E+04</rscale>
<asrwt>0</asrwt>
<pdfrwt beam="1">  1        2 0.18564542E+00 0.18289851E+04</pdfrwt>
<pdfrwt beam="2">  1       -2 0.10662263E+00 0.18289851E+04</pdfrwt>
<totfact> 0.12525111E+01</totfact>
</mgrwt>
</event>
<event>
12    1  0.1532786E-007  0.1625489E+04  0.7818608E-02  0.8805041E-01
         -1   -1    0    0    0  501 -0.00000000000E+00  0.00000000000E+00  0.37135570559E+03  0.37135570559E+03  0.00000000000E+00 0.  1.
          1   -1    0    0  501    0  0.00000000000E+00 -0.00000000000E+00 -0.17787617062E+04  0.17787617062E+04  0.00000000000E+00 0. -1.
         23    2    1    2    0    0 -0.29363058472E+03  0.32163284101E+03 -0.88802747567E+03  0.99342190882E+03  0.92885341663E+02 0.  0.
        254    2    1    2    0    0  0.29363058472E+03 -0.32163284101E+03 -0.51937852489E+03  0.11566955029E+04  0.93729602029E+03 0.  0.
        -24    2    4    4    0    0  0.27142509594E+03 -0.63773562183E+03 -0.28199195160E+03  0.75275431749E+03  0.82105393739E+02 0.  0.
         24    2    4    4    0    0  0.22205488776E+02  0.31610278082E+03 -0.23738657330E+03  0.40394118542E+03  0.80012776012E+02 0.  0.
         11    1    3    3    0    0 -0.63083013870E+02  0.27461689415E+02 -0.10165071085E+03  0.12274558257E+03  0.00000000000E+00 0.  1.
        -11    1    3    3    0    0 -0.23054757085E+03  0.29417115159E+03 -0.78637676482E+03  0.87067632625E+03  0.00000000000E+00 0. -1.
          2    1    6    6  502    0  0.13509493026E+02  0.22234249897E+02 -0.46884847603E+02  0.53619559911E+02  0.00000000000E+00 0. -1.
          1    1    5    5  503    0  0.87820638114E+01 -0.83641753869E+02 -0.23631283463E+02  0.87358486670E+02  0.00000000000E+00 0. -1.
         -2    1    5    5    0  503  0.26264303213E+03 -0.55409386796E+03 -0.25836066813E+03  0.66539583082E+03  0.00000000000E+00 0.  1.
         -1    1    6    6    0  502  0.86959957493E+01  0.29386853092E+03 -0.19050172570E+03  0.35032162551E+03  0.00000000000E+00 0.  1.
<mgrwt>
<rscale>  0 0.16254886E+04</rscale>
<asrwt>0</asrwt>
<pdfrwt beam="1">  1        1 0.27365564E+00 0.16254886E+04</pdfrwt>
<pdfrwt beam="2">  1       -1 0.57131647E-01 0.16254886E+04</pdfrwt>
<totfact> 0.12511636E+01</totfact>
</mgrwt>
</event>
<event>
12    1  0.1532786E-007  0.1641475E+04  0.7818608E-02  0.8795466E-01
          2   -1    0    0  501    0  0.00000000000E+00  0.00000000000E+00  0.33927111486E+03  0.33927111486E+03  0.00000000000E+00 0. -1.
         -2   -1    0    0    0  501 -0.00000000000E+00 -0.00000000000E+00 -0.19854631306E+04  0.19854631306E+04  0.00000000000E+00 0.  1.
         23    2    1    2    0    0  0.37327692946E+03 -0.30959606914E+03 -0.15463859517E+03  0.51750411306E+03  0.93338201331E+02 0.  0.
        254    2    1    2    0    0 -0.37327692946E+03  0.30959606914E+03 -0.14915534206E+04  0.18072301324E+04  0.89786622218E+03 0.  0.
        -24    2    4    4    0    0  0.19732733360E+03 -0.48171981604E+02 -0.64769817115E+02  0.22748832098E+03  0.79354839651E+02 0.  0.
         24    2    4    4    0    0 -0.57060426306E+03  0.35776805075E+03 -0.14267836035E+04  0.15797418114E+04  0.79281375429E+02 0.  0.
         11    1    3    3    0    0  0.30516202124E+03 -0.20992123544E+03 -0.92700996843E+02  0.38181704927E+03  0.00000000000E+00 0. -1.
        -11    1    3    3    0    0  0.68114908217E+02 -0.99674833700E+02 -0.61937598325E+02  0.13568706379E+03  0.00000000000E+00 0.  1.
          2    1    6    6  502    0 -0.12533684563E+03  0.79607944825E+02 -0.39677844219E+03  0.42365066026E+03  0.00000000000E+00 0. -1.
          1    1    5    5  503    0  0.85375111645E+02 -0.50443573666E+02 -0.58948165142E+02  0.11536182205E+03  0.00000000000E+00 0. -1.
         -2    1    5    5    0  503  0.11195222195E+03  0.22715920620E+01 -0.58216519734E+01  0.11212649893E+03  0.00000000000E+00 0.  1.
         -1    1    6    6    0  502 -0.44526741742E+03  0.27816010592E+03 -0.10300051613E+04  0.11560911512E+04  0.00000000000E+00 0.  1.
<mgrwt>
<rscale>  0 0.16414753E+04</rscale>
<asrwt>0</asrwt>
<pdfrwt beam="1">  1        2 0.52195556E-01 0.16414753E+04</pdfrwt>
<pdfrwt beam="2">  1       -2 0.30545587E+00 0.16414753E+04</pdfrwt>
<totfact> 0.26995096E+00</totfact>
</mgrwt>
</event>
<event>
12    1  0.1532786E-007  0.2400693E+04  0.7818608E-02  0.8439244E-01
          2   -1    0    0  501    0  0.00000000000E+00  0.00000000000E+00  0.10449355257E+04  0.10449355257E+04  0.00000000000E+00 0. -1.
         -2   -1    0    0    0  501 -0.00000000000E+00 -0.00000000000E+00 -0.13788708531E+04  0.13788708531E+04  0.00000000000E+00 0.  1.
         23    2    1    2    0    0  0.98950538130E+03  0.14800511564E+03 -0.31833962331E+03  0.10538628079E+04  0.90886127267E+02 0.  0.
        254    2    1    2    0    0 -0.98950538130E+03 -0.14800511564E+03 -0.15595704074E+02  0.13699435710E+04  0.93566861007E+03 0.  0.
        -24    2    4    4    0    0  0.71159689741E+02  0.18731842030E+03  0.11839843290E+03  0.24661591495E+03  0.81543415212E+02 0.  0.
         24    2    4    4    0    0 -0.10606650710E+04 -0.33532353594E+03 -0.13399413698E+03  0.11233276561E+04  0.80363719536E+02 0.  0.
         11    1    3    3    0    0  0.76848097320E+03  0.14364027320E+03 -0.22187136263E+03  0.81266379014E+03  0.00000000000E+00 0. -1.
        -11    1    3    3    0    0  0.22102440811E+03  0.43648424410E+01 -0.96468260683E+02  0.24119901772E+03  0.00000000000E+00 0.  1.
          2    1    6    6  502    0 -0.37968892159E+03 -0.16012166641E+03 -0.56135875421E+02  0.41587721955E+03  0.00000000000E+00 0. -1.
          1    1    5    5  503    0  0.16444543539E+02  0.14793860287E+03  0.78507030761E+02  0.16828430441E+03  0.00000000000E+00 0. -1.
         -4    1    5    5    0  503  0.54715146202E+02  0.39379817427E+02  0.39891402144E+02  0.78331610538E+02  0.00000000000E+00 0.  1.
         -1    1    6    6    0  502 -0.68097614945E+03 -0.17520186953E+03 -0.77858261558E+02  0.70745043650E+03  0.00000000000E+00 0.  1.
<mgrwt>
<rscale>  0 0.24006925E+04</rscale>
<asrwt>0</asrwt>
<pdfrwt beam="1">  1        2 0.16075931E+00 0.24006925E+04</pdfrwt>
<pdfrwt beam="2">  1       -2 0.21213398E+00 0.24006925E+04</pdfrwt>
<totfact> 0.23520432E+00</totfact>
</mgrwt>
</event>
<event>
12    1  0.1532786E-007  0.2809353E+04  0.7818608E-02  0.8300371E-01
          1   -1    0    0  501    0  0.00000000000E+00  0.00000000000E+00  0.16687557596E+04  0.16687557596E+04  0.00000000000E+00 0. -1.
         -1   -1    0    0    0  501 -0.00000000000E+00 -0.00000000000E+00 -0.11823871724E+04  0.11823871724E+04  0.00000000000E+00 0.  1.
         23    2    1    2    0    0 -0.31986771493E+02  0.12514352850E+04  0.11097742269E+03  0.12603894887E+04  0.95667387035E+02 0.  0.
        254    2    1    2    0    0  0.31986771493E+02 -0.12514352850E+04  0.37539116457E+03  0.15907534433E+04  0.90689832110E+03 0.  0.
        -24    2    4    4    0    0 -0.34473310854E+02 -0.11813954219E+04  0.60452284829E+03  0.13299072830E+04  0.79510723450E+02 0.  0.
         24    2    4    4    0    0  0.66460082346E+02 -0.70039863038E+02 -0.22913168371E+03  0.26084616027E+03  0.78847104494E+02 0.  0.
         11    1    3    3    0    0 -0.38182776742E+02  0.11764957016E+04  0.12556155857E+03  0.11837929571E+04  0.00000000000E+00 0. -1.
        -11    1    3    3    0    0  0.61960052497E+01  0.74939583394E+02 -0.14584135878E+02  0.76596531643E+02  0.00000000000E+00 0.  1.
          4    1    6    6  502    0  0.29535011405E+02 -0.76746045313E+02 -0.12025547898E+03  0.14568339849E+03  0.00000000000E+00 0. -1.
          1    1    5    5  503    0 -0.14496453044E+02 -0.67359897155E+02  0.51349570204E+02  0.85931840756E+02  0.00000000000E+00 0. -1.
         -2    1    5    5    0  503 -0.19976857810E+02 -0.11140355248E+04  0.55317327808E+03  0.12439754422E+04  0.00000000000E+00 0.  1.
         -3    1    6    6    0  502  0.36925070942E+02  0.67061822752E+01 -0.10887620473E+03  0.11516276178E+03  0.00000000000E+00 0.  1.
<mgrwt>
<rscale>  0 0.28093525E+04</rscale>
<asrwt>0</asrwt>
<pdfrwt beam="1">  1        1 0.25673166E+00 0.28093525E+04</pdfrwt>
<pdfrwt beam="2">  1       -1 0.18190572E+00 0.28093525E+04</pdfrwt>
<totfact> 0.87333584E-01</totfact>
</mgrwt>
</event>
<event>
12    1  0.1532786E-007  0.2635499E+04  0.7818608E-02  0.8356242E-01
         -2   -1    0    0    0  501 -0.00000000000E+00  0.00000000000E+00  0.81194910479E+03  0.81194910479E+03  0.00000000000E+00 0. -1.
          2   -1    0    0  501    0  0.00000000000E+00 -0.00000000000E+00 -0.21386366653E+04  0.21386366653E+04  0.00000000000E+00 0.  1.
         23    2    1    2    0    0  0.11410974329E+04 -0.25097731870E+02 -0.83378820175E+03  0.14164102663E+04  0.91005655851E+02 0.  0.
        254    2    1    2    0    0 -0.11410974329E+04  0.25097731870E+02 -0.49289935881E+03  0.15341755039E+04  0.89889457182E+03 0.  0.
        -24    2    4    4    0    0  0.85316401540E+02 -0.12967694729E+01 -0.25716072598E+03  0.28245402377E+03  0.79800166485E+02 0.  0.
         24    2    4    4    0    0 -0.12264138345E+04  0.26394501343E+02 -0.23573863283E+03  0.12517214801E+04  0.80289462161E+02 0.  0.
         13    1    3    3    0    0  0.86043670124E+03 -0.24219576422E+01 -0.67116926411E+03  0.10912494508E+04  0.00000000000E+00 0. -1.
        -13    1    3    3    0    0  0.28066073168E+03 -0.22675774228E+02 -0.16261893764E+03  0.32516081548E+03  0.00000000000E+00 0.  1.
          4    1    6    6  502    0 -0.12202067979E+04  0.31823854542E+02 -0.23125540390E+03  0.12423350793E+04  0.00000000000E+00 0. -1.
          3    1    5    5  503    0  0.97660588162E+02  0.11342451398E+02 -0.20444947471E+03  0.22686081503E+03  0.00000000000E+00 0. -1.
         -4    1    5    5    0  503 -0.12344186622E+02 -0.12639220871E+02 -0.52711251269E+02  0.55593208739E+02  0.00000000000E+00 0.  1.
         -3    1    6    6    0  502 -0.62070365195E+01 -0.54293531989E+01 -0.44832289297E+01  0.93864008091E+01  0.00000000000E+00 0.  1.
<mgrwt>
<rscale>  0 0.26354993E+04</rscale>
<asrwt>0</asrwt>
<pdfrwt beam="1">  1        2 0.32902103E+00 0.26354993E+04</pdfrwt>
<pdfrwt beam="2">  1       -2 0.12491525E+00 0.26354993E+04</pdfrwt>
<totfact> 0.23680176E+00</totfact>
</mgrwt>
</event>
<event>
12    1  0.1532786E-007  0.6141804E+04  0.7818608E-02  0.7673064E-01
          2   -1    0    0  501    0  0.00000000000E+00  0.00000000000E+00  0.38578556610E+04  0.38578556610E+04  0.00000000000E+00 0. -1.
         -2   -1    0    0    0  501 -0.00000000000E+00 -0.00000000000E+00 -0.24444772682E+04  0.24444772682E+04  0.00000000000E+00 0.  1.
         23    2    1    2    0    0  0.17411750304E+04 -0.11033976269E+04  0.29341606352E+04  0.35870012906E+04  0.90015644519E+02 0.  0.
        254    2    1    2    0    0 -0.17411750304E+04  0.11033976269E+04 -0.15207822425E+04  0.27153316386E+04  0.90059450873E+03 0.  0.
        -24    2    4    4    0    0 -0.16106875611E+04  0.10437000393E+04 -0.99512117195E+03  0.21634432374E+04  0.81217628202E+02 0.  0.
         24    2    4    4    0    0 -0.13048746933E+03  0.59697587568E+02 -0.52566107052E+03  0.55188840121E+03  0.87581189315E+02 0.  0.
         11    1    3    3    0    0  0.15851758007E+04 -0.10243017546E+04  0.26514620146E+04  0.32545702049E+04  0.00000000000E+00 0. -1.
        -11    1    3    3    0    0  0.15599922969E+03 -0.79095872273E+02  0.28269862062E+03  0.33243108575E+03  0.00000000000E+00 0.  1.
          4    1    6    6  502    0 -0.60224025440E+02  0.30837262870E+02 -0.10849632609E+03  0.12786447043E+03  0.00000000000E+00 0. -1.
          1    1    5    5  503    0 -0.15199841834E+04  0.98832648891E+03 -0.91851215873E+03  0.20324383760E+04  0.00000000000E+00 0. -1.
         -2    1    5    5    0  503 -0.90703377614E+02  0.55373550412E+02 -0.76609013218E+02  0.13100486137E+03  0.00000000000E+00 0.  1.
         -3    1    6    6    0  502 -0.70263443885E+02  0.28860324698E+02 -0.41716474443E+03  0.42402393079E+03  0.00000000000E+00 0.  1.
<mgrwt>
<rscale>  0 0.61418044E+04</rscale>
<asrwt>0</asrwt>
<pdfrwt beam="1">  1        2 0.59351626E+00 0.61418044E+04</pdfrwt>
<pdfrwt beam="2">  1       -2 0.37607343E+00 0.61418044E+04</pdfrwt>
<totfact> 0.31211697E-03</totfact>
</mgrwt>
</event>
<event>
12    1  0.1532786E-007  0.1864798E+04  0.7818608E-02  0.8672580E-01
          2   -1    0    0  501    0  0.00000000000E+00  0.00000000000E+00  0.19067899251E+04  0.19067899251E+04  0.00000000000E+00 0. -1.
         -2   -1    0    0    0  501 -0.00000000000E+00 -0.00000000000E+00 -0.45593279418E+03  0.45593279418E+03  0.00000000000E+00 0.  1.
         23    2    1    2    0    0  0.62914220194E+02  0.29105589797E+03 -0.25962625643E+03  0.40448511724E+03  0.86779503309E+02 0.  0.
        254    2    1    2    0    0 -0.62914220194E+02 -0.29105589797E+03  0.17104833874E+04  0.19582376021E+04  0.90568722680E+03 0.  0.
        -24    2    4    4    0    0 -0.33339168252E+03 -0.22603047775E+03  0.27621365613E+03  0.49506999742E+03  0.80997084263E+02 0.  0.
         24    2    4    4    0    0  0.27047746233E+03 -0.65025420223E+02  0.14342697312E+04  0.14631676046E+04  0.79645554921E+02 0.  0.
         13    1    3    3    0    0  0.67082726114E+01  0.10045905080E+01 -0.28718741872E+02  0.29508918283E+02  0.00000000000E+00 0. -1.
        -13    1    3    3    0    0  0.56205947583E+02  0.29005130747E+03 -0.23090751456E+03  0.37497619896E+03  0.00000000000E+00 0.  1.
          4    1    6    6  502    0  0.59308108796E+01 -0.14797671205E+02  0.15792717266E+03  0.15872976235E+03  0.00000000000E+00 0. -1.
          1    1    5    5  503    0 -0.97820695468E+02 -0.75393233638E+02  0.42400713344E+02  0.13057889811E+03  0.00000000000E+00 0. -1.
         -2    1    5    5    0  503 -0.23557098706E+03 -0.15063724411E+03  0.23381294278E+03  0.36449109930E+03  0.00000000000E+00 0.  1.
         -3    1    6    6    0  502  0.26454665145E+03 -0.50227749018E+02  0.12763425586E+04  0.13044378423E+04  0.00000000000E+00 0.  1.
<mgrwt>
<rscale>  0 0.18647982E+04</rscale>
<asrwt>0</asrwt>
<pdfrwt beam="1">  1        2 0.29335229E+00 0.18647982E+04</pdfrwt>
<pdfrwt beam="2">  1       -2 0.70143508E-01 0.18647982E+04</pdfrwt>
<totfact> 0.13082828E+01</totfact>
</mgrwt>
</event>
<event>
12    1  0.1532786E-007  0.3756652E+04  0.7818608E-02  0.8055522E-01
          2   -1    0    0  501    0  0.00000000000E+00  0.00000000000E+00  0.31740080945E+04  0.31740080945E+04  0.00000000000E+00 0. -1.
         -2   -1    0    0    0  501 -0.00000000000E+00 -0.00000000000E+00 -0.11115625554E+04  0.11115625554E+04  0.00000000000E+00 0.  1.
         23    2    1    2    0    0  0.13055622657E+04  0.50622014748E+02 -0.38881979784E+03  0.13662187324E+04  0.91199624399E+02 0.  0.
        254    2    1    2    0    0 -0.13055622657E+04 -0.50622014748E+02  0.24512653370E+04  0.29193519175E+04  0.89825299784E+03 0.  0.
        -24    2    4    4    0    0 -0.13496982428E+04 -0.10305815225E+03  0.24611162506E+04  0.28099462711E+04  0.79990739842E+02 0.  0.
         24    2    4    4    0    0  0.44135977060E+02  0.52436137503E+02 -0.98509136283E+01  0.10940564639E+03  0.84705501442E+02 0.  0.
         11    1    3    3    0    0  0.75531704251E+03 -0.21963552411E+01 -0.25807446551E+03  0.79819238811E+03  0.00000000000E+00 0. -1.
        -11    1    3    3    0    0  0.55024522321E+03  0.52818369989E+02 -0.13074533233E+03  0.56802634428E+03  0.00000000000E+00 0.  1.
          2    1    6    6  502    0  0.62785905473E+02  0.48179936836E+02 -0.27095007465E+02  0.83651154619E+02  0.00000000000E+00 0. -1.
          3    1    5    5  503    0 -0.10184409903E+04 -0.44700725984E+02  0.18290520402E+04  0.20939559621E+04  0.00000000000E+00 0. -1.
         -4    1    5    5    0  503 -0.33125725244E+03 -0.58357426267E+02  0.63206421042E+03  0.71599030900E+03  0.00000000000E+00 0.  1.
         -1    1    6    6    0  502 -0.18649928413E+02  0.42562006674E+01  0.17244093837E+02  0.25754491767E+02  0.00000000000E+00 0.  1.
<mgrwt>
<rscale>  0 0.37566520E+04</rscale>
<asrwt>0</asrwt>
<pdfrwt beam="1">  1        2 0.48830894E+00 0.37566520E+04</pdfrwt>
<pdfrwt beam="2">  1       -2 0.17100962E+00 0.37566520E+04</pdfrwt>
<totfact> 0.22722169E-01</totfact>
</mgrwt>
</event>
<event>
12    1  0.1532786E-007  0.2006105E+04  0.7818608E-02  0.8603772E-01
         -2   -1    0    0    0  501 -0.00000000000E+00  0.00000000000E+00  0.51033458184E+03  0.51033458184E+03  0.00000000000E+00 0. -1.
          2   -1    0    0  501    0  0.00000000000E+00 -0.00000000000E+00 -0.19714804864E+04  0.19714804864E+04  0.00000000000E+00 0.  1.
         23    2    1    2    0    0 -0.23740546215E+03  0.31325080752E+03 -0.13661566993E+04  0.14244475136E+04  0.90438764967E+02 0.  0.
        254    2    1    2    0    0  0.23740546215E+03 -0.31325080752E+03 -0.94989205292E+02  0.10573675546E+04  0.97699323159E+03 0.  0.
        -24    2    4    4    0    0  0.35957688091E+03 -0.81715334205E+02 -0.46396432581E+03  0.59804213065E+03  0.80115948994E+02 0.  0.
         24    2    4    4    0    0 -0.12217141875E+03 -0.23153547332E+03  0.36897512052E+03  0.45932542397E+03  0.79389385781E+02 0.  0.
         11    1    3    3    0    0 -0.16589938161E+03  0.21847163581E+03 -0.10872293346E+04  0.11213028523E+04  0.00000000000E+00 0.  1.
        -11    1    3    3    0    0 -0.71506080549E+02  0.94779171715E+02 -0.27892736466E+03  0.30314466135E+03  0.00000000000E+00 0. -1.
          2    1    6    6  502    0  0.36210355294E+01  0.44980447419E+01  0.49439435455E+01  0.76017683855E+01  0.00000000000E+00 0. -1.
          3    1    5    5  503    0  0.69157319094E+02 -0.22803381065E+02 -0.14748837409E+03  0.16448571203E+03  0.00000000000E+00 0. -1.
         -4    1    5    5    0  503  0.29041956181E+03 -0.58911953140E+02 -0.31647595173E+03  0.43355641862E+03  0.00000000000E+00 0.  1.
         -1    1    6    6    0  502 -0.12579245428E+03 -0.23603351806E+03  0.36403117698E+03  0.45172365558E+03  0.00000000000E+00 0.  1.
<mgrwt>
<rscale>  0 0.20061054E+04</rscale>
<asrwt>0</asrwt>
<pdfrwt beam="1">  1        2 0.30330468E+00 0.20061054E+04</pdfrwt>
<pdfrwt beam="2">  1       -2 0.78513014E-01 0.20061054E+04</pdfrwt>
<totfact> 0.92772898E+00</totfact>
</mgrwt>
</event>
<event>
12    1  0.1532786E-007  0.1604755E+04  0.7818608E-02  0.8817632E-01
         -1   -1    0    0    0  501 -0.00000000000E+00  0.00000000000E+00  0.17112784099E+04  0.17112784099E+04  0.00000000000E+00 0.  1.
          1   -1    0    0  501    0  0.00000000000E+00 -0.00000000000E+00 -0.37621554339E+03  0.37621554339E+03  0.00000000000E+00 0. -1.
         23    2    1    2    0    0 -0.93768029503E+02 -0.54931729797E+03  0.41921906151E+03  0.70329933129E+03  0.91342162501E+02 0.  0.
        254    2    1    2    0    0  0.93768029503E+02  0.54931729797E+03  0.91584380500E+03  0.13841946220E+04  0.87560432800E+03 0.  0.
        -24    2    4    4    0    0 -0.37042330592E+03  0.11505034893E+03  0.31607371862E+03  0.50660185030E+03  0.79327364583E+02 0.  0.
         24    2    4    4    0    0  0.46419133542E+03  0.43426694904E+03  0.59977008638E+03  0.87759277170E+03  0.79897043252E+02 0.  0.
         11    1    3    3    0    0 -0.48868438901E+02 -0.36134835124E+03  0.32431560002E+03  0.48799729884E+03  0.00000000000E+00 0.  1.
        -11    1    3    3    0    0 -0.44899590602E+02 -0.18796894674E+03  0.94903461497E+02  0.21530203245E+03  0.00000000000E+00 0. -1.
          2    1    6    6  502    0  0.33671836630E+03  0.35140413082E+03  0.48511428965E+03  0.68716809834E+03  0.00000000000E+00 0. -1.
          3    1    5    5  503    0 -0.24193346062E+03  0.63308133103E+02  0.15525589999E+03  0.29435372185E+03  0.00000000000E+00 0. -1.
         -4    1    5    5    0  503 -0.12848984530E+03  0.51742215832E+02  0.16081781863E+03  0.21224812846E+03  0.00000000000E+00 0.  1.
         -1    1    6    6    0  502  0.12747296912E+03  0.82862818223E+02  0.11465579673E+03  0.19042467336E+03  0.00000000000E+00 0.  1.
<mgrwt>
<rscale>  0 0.16047549E+04</rscale>
<asrwt>0</asrwt>
<pdfrwt beam="1">  1        1 0.57879315E-01 0.16047549E+04</pdfrwt>
<pdfrwt beam="2">  1       -1 0.26327360E+00 0.16047549E+04</pdfrwt>
<totfact> 0.35697880E+00</totfact>
</mgrwt>
</event>
<event>
12    1  0.1532786E-007  0.1772035E+04  0.7818608E-02  0.8721314E-01
         -2   -1    0    0    0  501 -0.00000000000E+00  0.00000000000E+00  0.60269003280E+03  0.60269003280E+03  0.00000000000E+00 0.  1.
          2   -1    0    0  501    0  0.00000000000E+00 -0.00000000000E+00 -0.13025390744E+04  0.13025390744E+04  0.00000000000E+00 0. -1.
         23    2    1    2    0    0  0.51676603011E+03 -0.61994366517E+02  0.16264932534E+03  0.55286799634E+03  0.91201902303E+02 0.  0.
        254    2    1    2    0    0 -0.51676603011E+03  0.61994366517E+02 -0.86249836699E+03  0.13523611109E+04  0.90226753785E+03 0.  0.
        -24    2    4    4    0    0 -0.72028524882E+03  0.23656639923E+03 -0.63108663730E+03  0.98989844104E+03  0.82789364499E+02 0.  0.
         24    2    4    4    0    0  0.20351921871E+03 -0.17457203271E+03 -0.23141172969E+03  0.36246266987E+03  0.77021629564E+02 0.  0.
         13    1    3    3    0    0  0.11032412299E+03  0.59584924581E+01  0.17847049150E+01  0.11049932542E+03  0.00000000000E+00 0. -1.
        -13    1    3    3    0    0  0.40644190712E+03 -0.67952858975E+02  0.16086462043E+03  0.44236867092E+03  0.00000000000E+00 0.  1.
          2    1    6    6  502    0  0.37098296606E+02 -0.51156288910E+01 -0.12569632245E+02  0.39502517955E+02  0.00000000000E+00 0. -1.
          1    1    5    5  503    0 -0.55621924800E+02 -0.39920123730E+01 -0.48233561915E+02  0.73730666457E+02  0.00000000000E+00 0. -1.
         -2    1    5    5    0  503 -0.66466332402E+03  0.24055841160E+03 -0.58285307539E+03  0.91616777458E+03  0.00000000000E+00 0.  1.
         -1    1    6    6    0  502  0.16642092210E+03 -0.16945640382E+03 -0.21884209744E+03  0.32296015191E+03  0.00000000000E+00 0.  1.
<mgrwt>
<rscale>  0 0.17720353E+04</rscale>
<asrwt>0</asrwt>
<pdfrwt beam="1">  1        2 0.20039063E+00 0.17720353E+04</pdfrwt>
<pdfrwt beam="2">  1       -2 0.92721544E-01 0.17720353E+04</pdfrwt>
<totfact> 0.15376759E+01</totfact>
</mgrwt>
</event>
<event>
12    1  0.1532786E-007  0.2254559E+04  0.7818608E-02  0.8496056E-01
          2   -1    0    0  501    0  0.00000000000E+00  0.00000000000E+00  0.20069987919E+04  0.20069987919E+04  0.00000000000E+00 0. -1.
         -2   -1    0    0    0  501 -0.00000000000E+00 -0.00000000000E+00 -0.63316412366E+03  0.63316412366E+03  0.00000000000E+00 0.  1.
         23    2    1    2    0    0 -0.56513470058E+03 -0.97105500217E+02 -0.30135962157E+03  0.65405996952E+03  0.90388684263E+02 0.  0.
        254    2    1    2    0    0  0.56513470058E+03  0.97105500217E+02  0.16751942898E+04  0.19861029460E+04  0.89973456954E+03 0.  0.
        -24    2    4    4    0    0  0.38563419484E+01 -0.18187985612E+03  0.28615060729E+01  0.19837533610E+03  0.79053351099E+02 0.  0.
         24    2    4    4    0    0  0.56127835863E+03  0.27898535633E+03  0.16723327837E+04  0.17877276099E+04  0.80042756327E+02 0.  0.
         11    1    3    3    0    0 -0.83165401982E+02 -0.18531365038E+02 -0.83623414105E+02  0.11938496959E+03  0.00000000000E+00 0. -1.
        -11    1    3    3    0    0 -0.48196929860E+03 -0.78574135178E+02 -0.21773620746E+03  0.53467499993E+03  0.00000000000E+00 0.  1.
          4    1    6    6  502    0  0.22048970385E+03  0.80813509233E+02  0.70793864613E+03  0.74587107429E+03  0.00000000000E+00 0. -1.
          3    1    5    5  503    0 -0.13985258255E+02 -0.73301799064E+02  0.36829406428E+02  0.83217464347E+02  0.00000000000E+00 0. -1.
         -4    1    5    5    0  503  0.17841600203E+02 -0.10857805705E+03 -0.33967900356E+02  0.11515787175E+03  0.00000000000E+00 0.  1.
         -3    1    6    6    0  502  0.34078865478E+03  0.19817184710E+03  0.96439413756E+03  0.10418565356E+04  0.00000000000E+00 0.  1.
<mgrwt>
<rscale>  0 0.22545595E+04</rscale>
<asrwt>0</asrwt>
<pdfrwt beam="1">  1        2 0.30876904E+00 0.22545595E+04</pdfrwt>
<pdfrwt beam="2">  1       -2 0.97409866E-01 0.22545595E+04</pdfrwt>
<totfact> 0.52948211E+00</totfact>
</mgrwt>
</event>
<event>
12    1  0.1532786E-007  0.3143173E+04  0.7818608E-02  0.8203988E-01
          2   -1    0    0  501    0  0.00000000000E+00  0.00000000000E+00  0.12543651550E+04  0.12543651550E+04  0.00000000000E+00 0. -1.
         -2   -1    0    0    0  501 -0.00000000000E+00 -0.00000000000E+00 -0.19690317135E+04  0.19690317135E+04  0.00000000000E+00 0.  1.
         23    2    1    2    0    0 -0.10752351168E+04  0.39992510193E+02 -0.12596807217E+04  0.16589963042E+04  0.87995791357E+02 0.  0.
        254    2    1    2    0    0  0.10752351168E+04 -0.39992510193E+02  0.54501416329E+03  0.15644005643E+04  0.99628245496E+03 0.  0.
        -24    2    4    4    0    0 -0.53031383032E+02 -0.22079187096E+02  0.41417332125E+03  0.42595547406E+03  0.81232430483E+02 0.  0.
         24    2    4    4    0    0  0.11282664999E+04 -0.17913323096E+02  0.13084084204E+03  0.11384450903E+04  0.75044757844E+02 0.  0.
         11    1    3    3    0    0 -0.93283878437E+03  0.97538781755E+01 -0.10629793625E+04  0.14142872625E+04  0.00000000000E+00 0.  1.
        -11    1    3    3    0    0 -0.14239633247E+03  0.30238632017E+02 -0.19670135927E+03  0.24470904173E+03  0.00000000000E+00 0. -1.
          4    1    6    6  502    0  0.44369049888E+03 -0.43297081667E+02  0.57160480610E+02  0.44944767951E+03  0.00000000000E+00 0. -1.
          1    1    5    5  503    0  0.12610730045E+02  0.28023830628E+01  0.11774228745E+02  0.17479025306E+02  0.00000000000E+00 0. -1.
         -2    1    5    5    0  503 -0.65642113077E+02 -0.24881570159E+02  0.40239909250E+03  0.40847644876E+03  0.00000000000E+00 0.  1.
         -3    1    6    6    0  502  0.68457600100E+03  0.25383758570E+02  0.73680361434E+02  0.68899741074E+03  0.00000000000E+00 0.  1.
<mgrwt>
<rscale>  0 0.31431734E+04</rscale>
<asrwt>0</asrwt>
<pdfrwt beam="1">  1        2 0.19297926E+00 0.31431734E+04</pdfrwt>
<pdfrwt beam="2">  1       -2 0.30292795E+00 0.31431734E+04</pdfrwt>
<totfact> 0.45361310E-01</totfact>
</mgrwt>
</event>
<event>
12    1  0.1840547E-007  0.2284471E+04  0.7818608E-02  0.8484069E-01
         -1   -1    0    0    0  501 -0.00000000000E+00  0.00000000000E+00  0.10564734107E+04  0.10564734107E+04  0.00000000000E+00 0.  1.
          1   -1    0    0  501    0  0.00000000000E+00 -0.00000000000E+00 -0.12349592939E+04  0.12349592939E+04  0.00000000000E+00 0. -1.
         23    2    1    2    0    0  0.76860425523E+03  0.47013437748E+03  0.26846294960E+03  0.94453102224E+03  0.91036600476E+02 0.  0.
        254    2    1    2    0    0 -0.76860425523E+03 -0.47013437748E+03 -0.44694883284E+03  0.13469016823E+04  0.89588059957E+03 0.  0.
        -24    2    4    4    0    0 -0.82509481583E+03 -0.53559782477E+03 -0.11333315928E+03  0.99310255482E+03  0.75906484528E+02 0.  0.
         24    2    4    4    0    0  0.56490560599E+02  0.65463447290E+02 -0.33361567356E+03  0.35379912752E+03  0.79985990181E+02 0.  0.
         11    1    3    3    0    0  0.58703319798E+02  0.52952126486E+02  0.20027633332E+01  0.79082352745E+02  0.00000000000E+00 0. -1.
        -11    1    3    3    0    0  0.70990093543E+03  0.41718225100E+03  0.26646018627E+03  0.86544866950E+03  0.00000000000E+00 0.  1.
          4    1    6    6  502    0  0.72460948442E+02  0.42267277874E+02 -0.28993549804E+03  0.30182727652E+03  0.00000000000E+00 0. -1.
          1    1    5    5  503    0 -0.81642598682E+03 -0.51776868894E+03 -0.11202567278E+03  0.97323458558E+03  0.00000000000E+00 0. -1.
         -2    1    5    5    0  503 -0.86688290058E+01 -0.17829135834E+02 -0.13074865064E+01  0.19867969244E+02  0.00000000000E+00 0.  1.
         -3    1    6    6    0  502 -0.15970387843E+02  0.23196169416E+02 -0.43680175519E+02  0.51971851004E+02  0.00000000000E+00 0.  1.
<mgrwt>
<rscale>  0 0.22844708E+04</rscale>
<asrwt>0</asrwt>
<pdfrwt beam="1">  1        1 0.18999374E+00 0.22844708E+04</pdfrwt>
<pdfrwt beam="2">  1       -1 0.16253437E+00 0.22844708E+04</pdfrwt>
<totfact> 0.25505523E+00</totfact>
</mgrwt>
</event>
<event>
12    1  0.1532786E-007  0.1610747E+04  0.7818608E-02  0.8813973E-01
          2   -1    0    0  501    0  0.00000000000E+00  0.00000000000E+00  0.51303077742E+03  0.51303077742E+03  0.00000000000E+00 0. -1.
         -2   -1    0    0    0  501 -0.00000000000E+00 -0.00000000000E+00 -0.12643031938E+04  0.12643031938E+04  0.00000000000E+00 0.  1.
         23    2    1    2    0    0 -0.11453821809E+03  0.22011387469E+03 -0.76268466628E+03  0.80718890434E+03  0.91087352978E+02 0.  0.
        254    2    1    2    0    0  0.11453821809E+03 -0.22011387469E+03  0.11412249859E+02  0.97014506692E+03  0.93780706448E+03 0.  0.
        -24    2    4    4    0    0  0.86340937209E+02 -0.30819632941E+03  0.42550738040E+03  0.53819561477E+03  0.78474544214E+02 0.  0.
         24    2    4    4    0    0  0.28197280879E+02  0.88082454715E+02 -0.41409513054E+03  0.43194945215E+03  0.80944095533E+02 0.  0.
         11    1    3    3    0    0 -0.12147814175E+03  0.21854833321E+03 -0.75910439418E+03  0.79922449545E+03  0.00000000000E+00 0.  1.
        -11    1    3    3    0    0  0.69399236587E+01  0.15655414887E+01 -0.35802720953E+01  0.79644088806E+01  0.00000000000E+00 0. -1.
          2    1    6    6  502    0 -0.19763851342E+02  0.68134167277E+02 -0.24266409129E+03  0.25282154926E+03  0.00000000000E+00 0. -1.
          3    1    5    5  503    0 -0.11776430563E+02 -0.15103131187E+02  0.37713402334E+02  0.42297631188E+02  0.00000000000E+00 0. -1.
         -4    1    5    5    0  503  0.98117367772E+02 -0.29309319822E+03  0.38779397806E+03  0.49589798358E+03  0.00000000000E+00 0.  1.
         -1    1    6    6    0  502  0.47961132221E+02  0.19948287438E+02 -0.17143103924E+03  0.17912790289E+03  0.00000000000E+00 0.  1.
<mgrwt>
<rscale>  0 0.16107470E+04</rscale>
<asrwt>0</asrwt>
<pdfrwt beam="1">  1        2 0.78927813E-01 0.16107470E+04</pdfrwt>
<pdfrwt beam="2">  1       -2 0.19450818E+00 0.16107470E+04</pdfrwt>
<totfact> 0.82710615E+00</totfact>
</mgrwt>
</event>
<event>
12    1  0.1532786E-007  0.1318134E+04  0.7818608E-02  0.9015307E-01
         -2   -1    0    0    0  501 -0.00000000000E+00  0.00000000000E+00  0.50372436407E+03  0.50372436407E+03  0.00000000000E+00 0.  1.
          2   -1    0    0  501    0  0.00000000000E+00 -0.00000000000E+00 -0.86231488907E+03  0.86231488907E+03  0.00000000000E+00 0. -1.
         23    2    1    2    0    0 -0.15024175741E+03  0.10698664352E+03 -0.47336928142E+03  0.51615474417E+03  0.91205897711E+02 0.  0.
        254    2    1    2    0    0  0.15024175741E+03 -0.10698664352E+03  0.11477875642E+03  0.84988450897E+03  0.82165125699E+03 0.  0.
        -24    2    4    4    0    0 -0.11995562028E+02 -0.24672296560E+03 -0.28659489501E+03  0.38691152894E+03  0.80918366979E+02 0.  0.
         24    2    4    4    0    0  0.16223731943E+03  0.13973632209E+03  0.40137365143E+03  0.46297298004E+03  0.85999910767E+02 0.  0.
         11    1    3    3    0    0 -0.13836221289E+03  0.78970115473E+02 -0.45121450882E+03  0.47851323290E+03  0.00000000000E+00 0. -1.
        -11    1    3    3    0    0 -0.11879544519E+02  0.28016528042E+02 -0.22154772600E+02  0.37641511267E+02  0.00000000000E+00 0.  1.
          2    1    6    6  502    0  0.15112589259E+03  0.88576483739E+02  0.33864663052E+03  0.38126941819E+03  0.00000000000E+00 0. -1.
          1    1    5    5  503    0 -0.46620439884E+02 -0.14641447286E+03 -0.16288945664E+03  0.22392775255E+03  0.00000000000E+00 0. -1.
         -2    1    5    5    0  503  0.34624877856E+02 -0.10030849274E+03 -0.12370543837E+03  0.16298377639E+03  0.00000000000E+00 0.  1.
         -1    1    6    6    0  502  0.11111426846E+02  0.51159838348E+02  0.62727020913E+02  0.81703561849E+02  0.00000000000E+00 0.  1.
<mgrwt>
<rscale>  0 0.13181336E+04</rscale>
<asrwt>0</asrwt>
<pdfrwt beam="1">  1        2 0.13266383E+00 0.13181336E+04</pdfrwt>
<pdfrwt beam="2">  1       -2 0.77496057E-01 0.13181336E+04</pdfrwt>
<totfact> 0.45240000E+01</totfact>
</mgrwt>
</event>
<event>
12    1  0.1532786E-007  0.4886622E+04  0.7818608E-02  0.7846239E-01
         -2   -1    0    0    0  501 -0.00000000000E+00  0.00000000000E+00  0.13528801622E+04  0.13528801622E+04  0.00000000000E+00 0.  1.
          2   -1    0    0  501    0  0.00000000000E+00 -0.00000000000E+00 -0.44126371027E+04  0.44126371027E+04  0.00000000000E+00 0. -1.
         23    2    1    2    0    0 -0.22409802256E+04  0.25162847240E+03 -0.69934854488E+03  0.23628409536E+04  0.92842475160E+02 0.  0.
        254    2    1    2    0    0  0.22409802256E+04 -0.25162847240E+03 -0.23604083957E+04  0.34026763113E+04  0.95987969316E+03 0.  0.
        -24    2    4    4    0    0  0.95756176268E+03 -0.42662743708E+03 -0.58392478809E+03  0.12027136183E+04  0.81341195088E+02 0.  0.
         24    2    4    4    0    0  0.12834184629E+04  0.17499896468E+03 -0.17764836076E+04  0.21999626930E+04  0.78449053594E+02 0.  0.
         11    1    3    3    0    0 -0.20617673487E+04  0.25644584133E+03 -0.64764161928E+03  0.21762556690E+04  0.00000000000E+00 0.  1.
        -11    1    3    3    0    0 -0.17921287687E+03 -0.48173689373E+01 -0.51706925605E+02  0.18658528462E+03  0.00000000000E+00 0. -1.
          2    1    6    6  502    0  0.71788470111E+03  0.61087163633E+02 -0.10098845133E+04  0.12405469825E+04  0.00000000000E+00 0. -1.
          1    1    5    5  503    0  0.95622312605E+03 -0.42750723536E+03 -0.58590175001E+03  0.12001691396E+04  0.00000000000E+00 0. -1.
         -2    1    5    5    0  503  0.13386366229E+01  0.87979828090E+00  0.19769619251E+01  0.25444786257E+01  0.00000000000E+00 0.  1.
         -1    1    6    6    0  502  0.56553376182E+03  0.11391180105E+03 -0.76659909429E+03  0.95941571050E+03  0.00000000000E+00 0.  1.
<mgrwt>
<rscale>  0 0.48866222E+04</rscale>
<asrwt>0</asrwt>
<pdfrwt beam="1">  1        2 0.67886725E+00 0.48866222E+04</pdfrwt>
<pdfrwt beam="2">  1       -2 0.20813541E+00 0.48866222E+04</pdfrwt>
<totfact> 0.12805123E-02</totfact>
</mgrwt>
</event>
<event>
12    1  0.1532786E-007  0.2367631E+04  0.7818608E-02  0.8451723E-01
         -1   -1    0    0    0  501 -0.00000000000E+00  0.00000000000E+00  0.29237918078E+03  0.29237918078E+03  0.00000000000E+00 0.  1.
          1   -1    0    0  501    0  0.00000000000E+00 -0.00000000000E+00 -0.47931543845E+04  0.47931543845E+04  0.00000000000E+00 0. -1.
         23    2    1    2    0    0 -0.93662712063E+03  0.30048682077E+03 -0.14705821869E+04  0.17715837593E+04  0.91292690752E+02 0.  0.
        254    2    1    2    0    0  0.93662712063E+03 -0.30048682077E+03 -0.30301930168E+04  0.33139498059E+04  0.91248611193E+03 0.  0.
        -24    2    4    4    0    0  0.27455473822E+03  0.14025802512E+03 -0.19183411975E+04  0.19445515618E+04  0.78709645848E+02 0.  0.
         24    2    4    4    0    0  0.66207238242E+03 -0.44074484590E+03 -0.11118518193E+04  0.13693982442E+04  0.80257238333E+02 0.  0.
         13    1    3    3    0    0 -0.10333311625E+03  0.10738350425E+02 -0.12449989906E+03  0.16215199644E+03  0.00000000000E+00 0. -1.
        -13    1    3    3    0    0 -0.83329400439E+03  0.28974847035E+03 -0.13460822878E+04  0.16094317629E+04  0.00000000000E+00 0.  1.
          4    1    6    6  502    0  0.33968296198E+03 -0.25139601729E+03 -0.64806890819E+03  0.77367808676E+03  0.00000000000E+00 0. -1.
          3    1    5    5  503    0  0.26806878193E+03  0.14946485619E+03 -0.18473335811E+04  0.18726563953E+04  0.00000000000E+00 0. -1.
         -4    1    5    5    0  503  0.64859562822E+01 -0.92068310699E+01 -0.71007616438E+02  0.71895166454E+02  0.00000000000E+00 0.  1.
         -3    1    6    6    0  502  0.32238942044E+03 -0.18934882861E+03 -0.46378291110E+03  0.59572015740E+03  0.00000000000E+00 0.  1.
<mgrwt>
<rscale>  0 0.23676305E+04</rscale>
<asrwt>0</asrwt>
<pdfrwt beam="1">  1        1 0.73740834E+00 0.23676305E+04</pdfrwt>
<pdfrwt beam="2">  1       -1 0.44981414E-01 0.23676305E+04</pdfrwt>
<totfact> 0.68637874E-02</totfact>
</mgrwt>
</event>
<event>
12    1  0.1532786E-007  0.1306129E+04  0.7818608E-02  0.9024719E-01
         -2   -1    0    0    0  501 -0.00000000000E+00  0.00000000000E+00  0.34264294519E+03  0.34264294519E+03  0.00000000000E+00 0.  1.
          2   -1    0    0  501    0  0.00000000000E+00 -0.00000000000E+00 -0.12447160799E+04  0.12447160799E+04  0.00000000000E+00 0. -1.
         23    2    1    2    0    0  0.25738818128E+03 -0.32596527455E+02 -0.18440529974E+02  0.27561367526E+03  0.91168170859E+02 0.  0.
        254    2    1    2    0    0 -0.25738818128E+03  0.32596527455E+02 -0.88363260471E+03  0.13117453498E+04  0.93410816994E+03 0.  0.
        -24    2    4    4    0    0 -0.24995604655E+02 -0.27220130020E+02  0.18942249259E+03  0.20935072599E+03  0.81124164342E+02 0.  0.
         24    2    4    4    0    0 -0.23239257662E+03  0.59816657475E+02 -0.10730550973E+04  0.11023946238E+04  0.79008370347E+02 0.  0.
         11    1    3    3    0    0  0.17779736893E+03 -0.60145618658E+02  0.63969306302E+01  0.18780394182E+03  0.00000000000E+00 0.  1.
        -11    1    3    3    0    0  0.79590812346E+02  0.27549091203E+02 -0.24837460604E+02  0.87809733431E+02  0.00000000000E+00 0. -1.
          4    1    6    6  502    0 -0.83857469152E+02 -0.57659990178E+01 -0.48982473279E+03  0.49698449748E+03  0.00000000000E+00 0. -1.
          1    1    5    5  503    0 -0.32502557750E+02  0.11030968939E+02  0.15012662688E+03  0.15400033322E+03  0.00000000000E+00 0. -1.
         -2    1    5    5    0  503  0.75069530943E+01 -0.38251098960E+02  0.39295865717E+02  0.55350392761E+02  0.00000000000E+00 0.  1.
         -3    1    6    6    0  502 -0.14853510747E+03  0.65582656493E+02 -0.58323036451E+03  0.60541012634E+03  0.00000000000E+00 0.  1.
<mgrwt>
<rscale>  0 0.13061289E+04</rscale>
<asrwt>0</asrwt>
<pdfrwt beam="1">  1        2 0.19149478E+00 0.13061289E+04</pdfrwt>
<pdfrwt beam="2">  1       -2 0.52714299E-01 0.13061289E+04</pdfrwt>
<totfact> 0.59246871E+01</totfact>
</mgrwt>
</event>
<event>
12    1  0.1532786E-007  0.1249435E+04  0.7818608E-02  0.9070653E-01
         -2   -1    0    0    0  501 -0.00000000000E+00  0.00000000000E+00  0.54784812707E+03  0.54784812707E+03  0.00000000000E+00 0.  1.
          2   -1    0    0  501    0  0.00000000000E+00 -0.00000000000E+00 -0.71237287319E+03  0.71237287319E+03  0.00000000000E+00 0. -1.
         23    2    1    2    0    0 -0.19744572102E+03  0.16088048921E+03 -0.71900583395E+02  0.28183865160E+03  0.96932899943E+02 0.  0.
        254    2    1    2    0    0  0.19744572102E+03 -0.16088048921E+03 -0.92624162730E+02  0.97838234866E+03  0.94009863317E+03 0.  0.
        -24    2    4    4    0    0  0.55556454127E+03 -0.21807841622E+03 -0.76092032598E+02  0.60668419962E+03  0.77881740520E+02 0.  0.
         24    2    4    4    0    0 -0.35811882025E+03  0.57197927018E+02 -0.16532130133E+02  0.37169814904E+03  0.79784148797E+02 0.  0.
         11    1    3    3    0    0 -0.91155263871E+02  0.83521402047E+02 -0.84536242058E+02  0.14977143570E+03  0.00000000000E+00 0. -1.
        -11    1    3    3    0    0 -0.10629045714E+03  0.77359087159E+02  0.12635658664E+02  0.13206721590E+03  0.00000000000E+00 0.  1.
          2    1    6    6  502    0 -0.39428719840E+02 -0.35314333599E+01 -0.25606568534E+02  0.47146487907E+02  0.00000000000E+00 0. -1.
          3    1    5    5  503    0  0.50335815092E+02  0.20141922168E+01 -0.53554214313E-01  0.50376126482E+02  0.00000000000E+00 0. -1.
         -4    1    5    5    0  503  0.50522872618E+03 -0.22009260844E+03 -0.76038478383E+02  0.55630807314E+03  0.00000000000E+00 0.  1.
         -1    1    6    6    0  502 -0.31869010041E+03  0.60729360378E+02  0.90744384013E+01  0.32455166113E+03  0.00000000000E+00 0.  1.
<mgrwt>
<rscale>  0 0.12494353E+04</rscale>
<asrwt>0</asrwt>
<pdfrwt beam="1">  1        2 0.10959583E+00 0.12494353E+04</pdfrwt>
<pdfrwt beam="2">  1       -2 0.84284327E-01 0.12494353E+04</pdfrwt>
<totfact> 0.48430919E+01</totfact>
</mgrwt>
</event>
<event>
12    1  0.1532786E-007  0.1654593E+04  0.7818608E-02  0.8787694E-01
         -2   -1    0    0    0  501 -0.00000000000E+00  0.00000000000E+00  0.37032148570E+03  0.37032148570E+03  0.00000000000E+00 0.  1.
          2   -1    0    0  501    0  0.00000000000E+00 -0.00000000000E+00 -0.18481759719E+04  0.18481759719E+04  0.00000000000E+00 0. -1.
         23    2    1    2    0    0  0.18846687639E+03 -0.35267616830E+03  0.34797880042E+02  0.41144230243E+03  0.90408144522E+02 0.  0.
        254    2    1    2    0    0 -0.18846687639E+03  0.35267616830E+03 -0.15126523663E+04  0.18070551552E+04  0.90411885808E+03 0.  0.
        -24    2    4    4    0    0  0.15486243350E+03  0.52211207890E+03 -0.11462659668E+04  0.12712536700E+04  0.74678181295E+02 0.  0.
         24    2    4    4    0    0 -0.34332930988E+03 -0.16943591061E+03 -0.36638639949E+03  0.53580148515E+03  0.79124553232E+02 0.  0.
         11    1    3    3    0    0  0.61413779131E+02 -0.16720655504E+03 -0.22223729676E+02  0.17950927128E+03  0.00000000000E+00 0. -1.
        -11    1    3    3    0    0  0.12705309726E+03 -0.18546961326E+03  0.57021609718E+02  0.23193303115E+03  0.00000000000E+00 0.  1.
          4    1    6    6  502    0 -0.17849679393E+03 -0.13145909105E+03 -0.20119941693E+03  0.29937234915E+03  0.00000000000E+00 0. -1.
          1    1    5    5  503    0  0.11866612523E+02  0.65215083137E+02 -0.20127833853E+03  0.21191222976E+03  0.00000000000E+00 0. -1.
         -2    1    5    5    0  503  0.14299582097E+03  0.45689699577E+03 -0.94498762823E+03  0.10593414403E+04  0.00000000000E+00 0.  1.
         -3    1    6    6    0  502 -0.16483251596E+03 -0.37976819554E+02 -0.16518698256E+03  0.23642913600E+03  0.00000000000E+00 0.  1.
<mgrwt>
<rscale>  0 0.16545927E+04</rscale>
<asrwt>0</asrwt>
<pdfrwt beam="1">  1        2 0.28433477E+00 0.16545927E+04</pdfrwt>
<pdfrwt beam="2">  1       -2 0.56972535E-01 0.16545927E+04</pdfrwt>
<totfact> 0.22377193E+01</totfact>
</mgrwt>
</event>
<event>
12    1  0.1532786E-007  0.1369571E+04  0.7818608E-02  0.8976144E-01
         -2   -1    0    0    0  501 -0.00000000000E+00  0.00000000000E+00  0.35794163571E+03  0.35794163571E+03  0.00000000000E+00 0. -1.
          2   -1    0    0  501    0  0.00000000000E+00 -0.00000000000E+00 -0.13100775172E+04  0.13100775172E+04  0.00000000000E+00 0.  1.
         23    2    1    2    0    0  0.36534905567E+03  0.40978998586E+02 -0.34593138160E+03  0.51321180832E+03  0.92512856510E+02 0.  0.
        254    2    1    2    0    0 -0.36534905567E+03 -0.40978998586E+02 -0.60620449986E+03  0.11548073446E+04  0.91155740171E+03 0.  0.
        -24    2    4    4    0    0 -0.10389915712E+03  0.15755358243E+03  0.19664470394E+03  0.28375273937E+03  0.78919651108E+02 0.  0.
         24    2    4    4    0    0 -0.26144989855E+03 -0.19853258101E+03 -0.80284920380E+03  0.87105460520E+03  0.79987786633E+02 0.  0.
         11    1    3    3    0    0  0.34686720365E+03  0.26479609308E+02 -0.34463576179E+03  0.48968544493E+03  0.00000000000E+00 0.  1.
        -11    1    3    3    0    0  0.18481852025E+02  0.14499389278E+02 -0.12956198139E+01  0.23526363391E+02  0.00000000000E+00 0. -1.
          4    1    6    6  502    0 -0.25358135385E+03 -0.16569513330E+03 -0.74226839403E+03  0.80169866471E+03  0.00000000000E+00 0. -1.
          1    1    5    5  503    0 -0.98251904105E+02  0.79726568552E+02  0.12235272177E+03  0.17601122384E+03  0.00000000000E+00 0. -1.
         -2    1    5    5    0  503 -0.56472530109E+01  0.77827013874E+02  0.74291982168E+02  0.10774151553E+03  0.00000000000E+00 0.  1.
         -3    1    6    6    0  502 -0.78685447003E+01 -0.32837447717E+02 -0.60580809774E+02  0.69355940489E+02  0.00000000000E+00 0.  1.
<mgrwt>
<rscale>  0 0.13695712E+04</rscale>
<asrwt>0</asrwt>
<pdfrwt beam="1">  1        2 0.20155039E+00 0.13695712E+04</pdfrwt>
<pdfrwt beam="2">  1       -2 0.55067944E-01 0.13695712E+04</pdfrwt>
<totfact> 0.49324646E+01</totfact>
</mgrwt>
</event>
<event>
12    1  0.1532786E-007  0.1888151E+04  0.7818608E-02  0.8660777E-01
         -2   -1    0    0    0  501 -0.00000000000E+00  0.00000000000E+00  0.33803741823E+03  0.33803741823E+03  0.00000000000E+00 0.  1.
          2   -1    0    0  501    0  0.00000000000E+00 -0.00000000000E+00 -0.26366280853E+04  0.26366280853E+04  0.00000000000E+00 0. -1.
         23    2    1    2    0    0  0.43716265062E+03 -0.33142582041E+03 -0.16419487423E+04  0.17335595046E+04  0.90986954394E+02 0.  0.
        254    2    1    2    0    0 -0.43716265062E+03  0.33142582041E+03 -0.65664192471E+03  0.12411059990E+04  0.89900568731E+03 0.  0.
        -24    2    4    4    0    0 -0.17722380407E+03  0.59485149918E+03 -0.21995402967E+03  0.66290762749E+03  0.76224435855E+02 0.  0.
         24    2    4    4    0    0 -0.25993884654E+03 -0.26342567876E+03 -0.43668789505E+03  0.57819837146E+03  0.81582761049E+02 0.  0.
         11    1    3    3    0    0  0.31636150032E+03 -0.19028924697E+03 -0.11433523324E+04  0.12014779034E+04  0.00000000000E+00 0. -1.
        -11    1    3    3    0    0  0.12080115030E+03 -0.14113657344E+03 -0.49859640998E+03  0.53208160119E+03  0.00000000000E+00 0.  1.
          2    1    6    6  502    0 -0.11608391553E+03 -0.12137809190E+03 -0.26094350762E+03  0.31032181813E+03  0.00000000000E+00 0. -1.
          3    1    5    5  503    0 -0.56899181016E+02  0.11655242964E+03 -0.22440867161E+02  0.13162666209E+03  0.00000000000E+00 0. -1.
         -4    1    5    5    0  503 -0.12032462306E+03  0.47829906954E+03 -0.19751316251E+03  0.53128096540E+03  0.00000000000E+00 0.  1.
         -1    1    6    6    0  502 -0.14385493101E+03 -0.14204758686E+03 -0.17574438743E+03  0.26787655333E+03  0.00000000000E+00 0.  1.
<mgrwt>
<rscale>  0 0.18881514E+04</rscale>
<asrwt>0</asrwt>
<pdfrwt beam="1">  1        2 0.40563509E+00 0.18881514E+04</pdfrwt>
<pdfrwt beam="2">  1       -2 0.52005756E-01 0.18881514E+04</pdfrwt>
<totfact> 0.94893260E+00</totfact>
</mgrwt>
</event>
<event>
12    1  0.1532786E-007  0.1771557E+04  0.7818608E-02  0.8721573E-01
         -1   -1    0    0    0  501 -0.00000000000E+00  0.00000000000E+00  0.22233321957E+04  0.22233321957E+04  0.00000000000E+00 0.  1.
          1   -1    0    0  501    0  0.00000000000E+00 -0.00000000000E+00 -0.35289528642E+03  0.35289528642E+03  0.00000000000E+00 0. -1.
         23    2    1    2    0    0  0.64577477949E+03  0.16758541253E+02  0.56046925483E+03  0.86021095287E+03  0.92364404959E+02 0.  0.
        254    2    1    2    0    0 -0.64577477949E+03 -0.16758541253E+02  0.13099676544E+04  0.17160165292E+04  0.90077275625E+03 0.  0.
        -24    2    4    4    0    0  0.11590196153E+03  0.10623532549E+03 -0.19231896891E+02  0.17738621244E+03  0.79854827272E+02 0.  0.
         24    2    4    4    0    0 -0.76167674101E+03 -0.12299386675E+03  0.13291995513E+04  0.15386303168E+04  0.73026402313E+02 0.  0.
         11    1    3    3    0    0  0.39220277730E+03  0.52346129849E+02  0.36122889210E+03  0.53576995840E+03  0.00000000000E+00 0.  1.
        -11    1    3    3    0    0  0.25357200218E+03 -0.35587588596E+02  0.19924036273E+03  0.32444099447E+03  0.00000000000E+00 0. -1.
          4    1    6    6  502    0 -0.54432352203E+03 -0.94427375933E+02  0.10133232341E+04  0.11541354352E+04  0.00000000000E+00 0. -1.
          3    1    5    5  503    0  0.20245614808E+01  0.14256140151E+02 -0.27210044763E+02  0.30785108693E+02  0.00000000000E+00 0. -1.
         -4    1    5    5    0  503  0.11387740005E+03  0.91979185342E+02  0.79781478720E+01  0.14660110375E+03  0.00000000000E+00 0.  1.
         -3    1    6    6    0  502 -0.21735321898E+03 -0.28566490813E+02  0.31587631717E+03  0.38449488156E+03  0.00000000000E+00 0.  1.
<mgrwt>
<rscale>  0 0.17715569E+04</rscale>
<asrwt>0</asrwt>
<pdfrwt beam="1">  1        1 0.54291584E-01 0.17715569E+04</pdfrwt>
<pdfrwt beam="2">  1       -1 0.34205110E+00 0.17715569E+04</pdfrwt>
<totfact> 0.11781939E+00</totfact>
</mgrwt>
</event>
<event>
12    1  0.1532786E-007  0.1434465E+04  0.7818608E-02  0.8929242E-01
         -2   -1    0    0    0  501 -0.00000000000E+00  0.00000000000E+00  0.19435762139E+03  0.19435762139E+03  0.00000000000E+00 0.  1.
          2   -1    0    0  501    0  0.00000000000E+00 -0.00000000000E+00 -0.26467840268E+04  0.26467840268E+04  0.00000000000E+00 0. -1.
         23    2    1    2    0    0  0.37244644251E+03 -0.13015824710E+02 -0.30084153312E+03  0.48721739164E+03  0.89383412528E+02 0.  0.
        254    2    1    2    0    0 -0.37244644251E+03  0.13015824710E+02 -0.21515848723E+04  0.23539242566E+04  0.87906551442E+03 0.  0.
        -24    2    4    4    0    0  0.13779940985E+03  0.19793884439E+03 -0.14042261970E+04  0.14271611146E+04  0.82274971985E+02 0.  0.
         24    2    4    4    0    0 -0.51024585237E+03 -0.18492301968E+03 -0.74735867527E+03  0.92676314199E+03  0.76141833329E+02 0.  0.
         13    1    3    3    0    0  0.30205467090E+03  0.25247597652E+02 -0.23973301399E+03  0.38645359799E+03  0.00000000000E+00 0.  1.
        -13    1    3    3    0    0  0.70391771611E+02 -0.38263422362E+02 -0.61108519132E+02  0.10076379366E+03  0.00000000000E+00 0. -1.
          2    1    6    6  502    0 -0.18255702756E+03 -0.56941740620E+02 -0.32498143955E+03  0.37707077080E+03  0.00000000000E+00 0. -1.
          3    1    5    5  503    0  0.28108210739E+02  0.10386124289E+02 -0.31859423577E+03  0.32000035961E+03  0.00000000000E+00 0. -1.
         -4    1    5    5    0  503  0.10969119911E+03  0.18755272010E+03 -0.10856319613E+04  0.11071607550E+04  0.00000000000E+00 0.  1.
         -1    1    6    6    0  502 -0.32768882481E+03 -0.12798127906E+03 -0.42237723572E+03  0.54969237119E+03  0.00000000000E+00 0.  1.
<mgrwt>
<rscale>  0 0.14344653E+04</rscale>
<asrwt>0</asrwt>
<pdfrwt beam="1">  1        2 0.40719753E+00 0.14344653E+04</pdfrwt>
<pdfrwt beam="2">  1       -2 0.29901173E-01 0.14344653E+04</pdfrwt>
<totfact> 0.28741655E+01</totfact>
</mgrwt>
</event>
<event>
12    1  0.1532786E-007  0.1872751E+04  0.7818608E-02  0.8668540E-01
         -2   -1    0    0    0  501 -0.00000000000E+00  0.00000000000E+00  0.49071085305E+03  0.49071085305E+03  0.00000000000E+00 0.  1.
          2   -1    0    0  501    0  0.00000000000E+00 -0.00000000000E+00 -0.17867936367E+04  0.17867936367E+04  0.00000000000E+00 0. -1.
         23    2    1    2    0    0  0.38183472744E+03  0.57625787608E+03 -0.72733957231E+03  0.10076344500E+04  0.91833722271E+02 0.  0.
        254    2    1    2    0    0 -0.38183472744E+03 -0.57625787608E+03 -0.56874321138E+03  0.12698700398E+04  0.90068317331E+03 0.  0.
        -24    2    4    4    0    0  0.22587439861E+03 -0.42287557625E+03 -0.35775818673E+03  0.60373561276E+03  0.81625810934E+02 0.  0.
         24    2    4    4    0    0 -0.60770912605E+03 -0.15338229983E+03 -0.21098502465E+03  0.66613442704E+03  0.79899202000E+02 0.  0.
         13    1    3    3    0    0  0.27689802436E+03  0.48314113368E+03 -0.59044784238E+03  0.81161969266E+03  0.00000000000E+00 0. -1.
        -13    1    3    3    0    0  0.10493670308E+03  0.93116742397E+02 -0.13689172994E+03  0.19601475733E+03  0.00000000000E+00 0.  1.
          2    1    6    6  502    0 -0.58841701955E+03 -0.14043695728E+03 -0.18807483127E+03  0.63350554065E+03  0.00000000000E+00 0. -1.
          1    1    5    5  503    0  0.21930557543E+03 -0.37030378166E+03 -0.33784190706E+03  0.54713524863E+03  0.00000000000E+00 0. -1.
         -2    1    5    5    0  503  0.65688231842E+01 -0.52571794587E+02 -0.19916279665E+02  0.56600364131E+02  0.00000000000E+00 0.  1.
         -1    1    6    6    0  502 -0.19292106494E+02 -0.12945342549E+02 -0.22910193382E+02  0.32628886397E+02  0.00000000000E+00 0.  1.
<mgrwt>
<rscale>  0 0.18727509E+04</rscale>
<asrwt>0</asrwt>
<pdfrwt beam="1">  1        2 0.27489133E+00 0.18727509E+04</pdfrwt>
<pdfrwt beam="2">  1       -2 0.75493976E-01 0.18727509E+04</pdfrwt>
<totfact> 0.12961164E+01</totfact>
</mgrwt>
</event>
<event>
12    1  0.1532786E-007  0.1870146E+04  0.7818608E-02  0.8669861E-01
          2   -1    0    0  501    0  0.00000000000E+00  0.00000000000E+00  0.35898526306E+04  0.35898526306E+04  0.00000000000E+00 0. -1.
         -2   -1    0    0    0  501 -0.00000000000E+00 -0.00000000000E+00 -0.24356467560E+03  0.24356467560E+03  0.00000000000E+00 0.  1.
         23    2    1    2    0    0 -0.60449412542E+03  0.26211769470E+03  0.70642457026E+03  0.97005551991E+03  0.88618309000E+02 0.  0.
        254    2    1    2    0    0  0.60449412542E+03 -0.26211769470E+03  0.26398633848E+04  0.28633617863E+04  0.89210044033E+03 0.  0.
        -24    2    4    4    0    0  0.78759952027E+03 -0.31638468017E+02  0.20701115859E+04  0.22166165672E+04  0.81933089330E+02 0.  0.
         24    2    4    4    0    0 -0.18310539485E+03 -0.23047922668E+03  0.56975179890E+03  0.64674521912E+03  0.83749665904E+02 0.  0.
         11    1    3    3    0    0 -0.16373453632E+03  0.90985162787E+02  0.25446152037E+03  0.31597146007E+03  0.00000000000E+00 0. -1.
        -11    1    3    3    0    0 -0.44075958910E+03  0.17113253191E+03  0.45196304989E+03  0.65408405983E+03  0.00000000000E+00 0.  1.
          2    1    6    6  502    0 -0.12692389974E+02 -0.30250633315E+02  0.13274304358E+03  0.13673665638E+03  0.00000000000E+00 0. -1.
          1    1    5    5  503    0  0.46422482916E+03 -0.52816457374E+02  0.11619183396E+04  0.12523372142E+04  0.00000000000E+00 0. -1.
         -2    1    5    5    0  503  0.32337469112E+03  0.21177989358E+02  0.90819324624E+03  0.96427935299E+03  0.00000000000E+00 0.  1.
         -1    1    6    6    0  502 -0.17041300488E+03 -0.20022859337E+03  0.43700875532E+03  0.51000856273E+03  0.00000000000E+00 0.  1.
<mgrwt>
<rscale>  0 0.18701458E+04</rscale>
<asrwt>0</asrwt>
<pdfrwt beam="1">  1        2 0.55228498E+00 0.18701458E+04</pdfrwt>
<pdfrwt beam="2">  1       -2 0.37471491E-01 0.18701458E+04</pdfrwt>
<totfact> 0.44633960E+00</totfact>
</mgrwt>
</event>
<event>
12    1  0.1532786E-007  0.2002049E+04  0.7818608E-02  0.8605663E-01
          2   -1    0    0  501    0  0.00000000000E+00  0.00000000000E+00  0.27311691582E+04  0.27311691582E+04  0.00000000000E+00 0. -1.
         -2   -1    0    0    0  501 -0.00000000000E+00 -0.00000000000E+00 -0.36689421097E+03  0.36689421097E+03  0.00000000000E+00 0.  1.
         23    2    1    2    0    0 -0.18937780678E+03 -0.51846448333E+03  0.60803256143E+02  0.56268854161E+03  0.90840435538E+02 0.  0.
        254    2    1    2    0    0  0.18937780678E+03  0.51846448333E+03  0.23034716910E+04  0.25353748275E+04  0.90414285949E+03 0.  0.
        -24    2    4    4    0    0 -0.31567502146E+03  0.18928449173E+03  0.13735562478E+04  0.14241976052E+04  0.78757316021E+02 0.  0.
         24    2    4    4    0    0  0.50505282824E+03  0.32917999161E+03  0.92991544320E+03  0.11111772223E+04  0.80834779581E+02 0.  0.
         11    1    3    3    0    0 -0.78560033794E+02 -0.25406142056E+03  0.72915907085E+02  0.27574555995E+03  0.00000000000E+00 0. -1.
        -11    1    3    3    0    0 -0.11081777299E+03 -0.26440306278E+03 -0.12112650942E+02  0.28694298167E+03  0.00000000000E+00 0.  1.
          4    1    6    6  502    0  0.18726617523E+03  0.77116833373E+02  0.31989388374E+03  0.37861289364E+03  0.00000000000E+00 0. -1.
          3    1    5    5  503    0 -0.26385760792E+03  0.14184193395E+03  0.99268558338E+03  0.10369014606E+04  0.00000000000E+00 0. -1.
         -4    1    5    5    0  503 -0.51817413543E+02  0.47442557781E+02  0.38087066446E+03  0.38729614468E+03  0.00000000000E+00 0.  1.
         -3    1    6    6    0  502  0.31778665301E+03  0.25206315823E+03  0.61002155946E+03  0.73256432862E+03  0.00000000000E+00 0.  1.
<mgrwt>
<rscale>  0 0.20020491E+04</rscale>
<asrwt>0</asrwt>
<pdfrwt beam="1">  1        2 0.42017986E+00 0.20020491E+04</pdfrwt>
<pdfrwt beam="2">  1       -2 0.56445265E-01 0.20020491E+04</pdfrwt>
<totfact> 0.69684936E+00</totfact>
</mgrwt>
</event>
<event>
12    1  0.1532786E-007  0.1191060E+04  0.7818608E-02  0.9120718E-01
         -1   -1    0    0    0  501 -0.00000000000E+00  0.00000000000E+00  0.65191838098E+03  0.65191838098E+03  0.00000000000E+00 0.  1.
          1   -1    0    0  501    0  0.00000000000E+00 -0.00000000000E+00 -0.54401876689E+03  0.54401876689E+03  0.00000000000E+00 0. -1.
         23    2    1    2    0    0  0.22331863549E+03 -0.38365023341E+02  0.78310185184E+02  0.27089436404E+03  0.12612764722E+03 0.  0.
        254    2    1    2    0    0 -0.22331863549E+03  0.38365023341E+02  0.29589428910E+02  0.92504278383E+03  0.89637354358E+03 0.  0.
        -24    2    4    4    0    0 -0.37118654472E+03 -0.22651629375E+03  0.28041050967E+03  0.52353224791E+03  0.79792721218E+02 0.  0.
         24    2    4    4    0    0  0.14786790923E+03  0.26488131709E+03 -0.25082108076E+03  0.40151053591E+03  0.79198896280E+02 0.  0.
         11    1    3    3    0    0  0.49443393732E+02  0.37940042036E+02 -0.70276551720E+01  0.62717492860E+02  0.00000000000E+00 0. -1.
        -11    1    3    3    0    0  0.17387524176E+03 -0.76305065378E+02  0.85337840356E+02  0.20817687118E+03  0.00000000000E+00 0.  1.
          4    1    6    6  502    0  0.36580808835E+01  0.36909802642E+02 -0.66940706812E+01  0.37689861622E+02  0.00000000000E+00 0. -1.
          3    1    5    5  503    0 -0.50646334137E+02 -0.63806271273E+02  0.37487886305E+02  0.89675152829E+02  0.00000000000E+00 0. -1.
         -4    1    5    5    0  503 -0.32054021058E+03 -0.16271002248E+03  0.24292262336E+03  0.43385709508E+03  0.00000000000E+00 0.  1.
         -3    1    6    6    0  502  0.14420982834E+03  0.22797151445E+03 -0.24412701008E+03  0.36382067429E+03  0.00000000000E+00 0.  1.
<mgrwt>
<rscale>  0 0.11910598E+04</rscale>
<asrwt>0</asrwt>
<pdfrwt beam="1">  1        1 0.83695195E-01 0.11910598E+04</pdfrwt>
<pdfrwt beam="2">  1       -1 0.10029514E+00 0.11910598E+04</pdfrwt>
<totfact> 0.36955677E+01</totfact>
</mgrwt>
</event>
<event>
12    1  0.1532786E-007  0.1599380E+04  0.7818608E-02  0.8820929E-01
          1   -1    0    0  501    0  0.00000000000E+00  0.00000000000E+00  0.13332458576E+04  0.13332458576E+04  0.00000000000E+00 0. -1.
         -1   -1    0    0    0  501 -0.00000000000E+00 -0.00000000000E+00 -0.47965955100E+03  0.47965955100E+03  0.00000000000E+00 0.  1.
         23    2    1    2    0    0 -0.86594535118E+02  0.39495775317E+03  0.71239433846E+03  0.82436700034E+03  0.92655369422E+02 0.  0.
        254    2    1    2    0    0  0.86594535118E+02 -0.39495775317E+03  0.14119196816E+03  0.98853840827E+03  0.89094487622E+03 0.  0.
        -24    2    4    4    0    0  0.33601617376E+03  0.14759225689E+03  0.39526262844E+02  0.37754824460E+03  0.79309572078E+02 0.  0.
         24    2    4    4    0    0 -0.24942163864E+03 -0.54255001006E+03  0.10166570532E+03  0.61099016368E+03  0.80008732247E+02 0.  0.
         13    1    3    3    0    0 -0.59980228812E+02  0.17014037828E+03  0.23726962884E+03  0.29806417587E+03  0.00000000000E+00 0.  1.
        -13    1    3    3    0    0 -0.26614306306E+02  0.22481737489E+03  0.47512470962E+03  0.52630282447E+03  0.00000000000E+00 0. -1.
          4    1    6    6  502    0 -0.49764697534E+02 -0.19727228769E+03  0.41260433790E+02  0.20759408471E+03  0.00000000000E+00 0. -1.
          1    1    5    5  503    0  0.11895465499E+03  0.76529604594E+02  0.46936144225E+02  0.14903017130E+03  0.00000000000E+00 0. -1.
         -2    1    5    5    0  503  0.21706151877E+03  0.71062652297E+02 -0.74098813809E+01  0.22851807330E+03  0.00000000000E+00 0.  1.
         -3    1    6    6    0  502 -0.19965694110E+03 -0.34527772237E+03  0.60405271529E+02  0.40339607897E+03  0.00000000000E+00 0.  1.
<mgrwt>
<rscale>  0 0.15993800E+04</rscale>
<asrwt>0</asrwt>
<pdfrwt beam="1">  1        1 0.20511475E+00 0.15993800E+04</pdfrwt>
<pdfrwt beam="2">  1       -1 0.73793778E-01 0.15993800E+04</pdfrwt>
<totfact> 0.15200930E+01</totfact>
</mgrwt>
</event>
<event>
12    1  0.1532786E-007  0.3639348E+04  0.7818608E-02  0.8081538E-01
          2   -1    0    0  501    0  0.00000000000E+00  0.00000000000E+00  0.31588321059E+04  0.31588321059E+04  0.00000000000E+00 0. -1.
         -2   -1    0    0    0  501 -0.00000000000E+00 -0.00000000000E+00 -0.10482398855E+04  0.10482398855E+04  0.00000000000E+00 0.  1.
         23    2    1    2    0    0  0.64002927159E+03  0.19697314135E+03 -0.82447327251E+03  0.10658847965E+04  0.88985029153E+02 0.  0.
        254    2    1    2    0    0 -0.64002927159E+03 -0.19697314135E+03  0.29350654930E+04  0.31411871949E+04  0.89666697175E+03 0.  0.
        -24    2    4    4    0    0 -0.71846810660E+03 -0.43199042791E+03  0.19850725233E+04  0.21563295812E+04  0.80200936199E+02 0.  0.
         24    2    4    4    0    0  0.78438835014E+02  0.23501728655E+03  0.94999296968E+03  0.98485761362E+03  0.77923686124E+02 0.  0.
         11    1    3    3    0    0  0.54820243190E+03  0.16499259637E+03 -0.74932780252E+03  0.94299555610E+03  0.00000000000E+00 0.  1.
        -11    1    3    3    0    0  0.91826839689E+02  0.31980544987E+02 -0.75145469991E+02  0.12288924040E+03  0.00000000000E+00 0. -1.
          2    1    6    6  502    0  0.13267004240E+02  0.30960991037E+02  0.26552008434E+03  0.26764811143E+03  0.00000000000E+00 0. -1.
          1    1    5    5  503    0 -0.51846301656E+02 -0.48536742342E+02  0.12929855613E+03  0.14751939185E+03  0.00000000000E+00 0. -1.
         -2    1    5    5    0  503 -0.66662180495E+03 -0.38345368557E+03  0.18557739672E+04  0.20088101894E+04  0.00000000000E+00 0.  1.
         -1    1    6    6    0  502  0.65171830773E+02  0.20405629552E+03  0.68447288534E+03  0.71720950219E+03  0.00000000000E+00 0.  1.
<mgrwt>
<rscale>  0 0.36393482E+04</rscale>
<asrwt>0</asrwt>
<pdfrwt beam="1">  1        2 0.48597417E+00 0.36393482E+04</pdfrwt>
<pdfrwt beam="2">  1       -2 0.16126768E+00 0.36393482E+04</pdfrwt>
<totfact> 0.27596138E-01</totfact>
</mgrwt>
</event>
<event>
12    1  0.1532786E-007  0.3270154E+04  0.7818608E-02  0.8170532E-01
         -2   -1    0    0    0  501 -0.00000000000E+00  0.00000000000E+00  0.10751280206E+04  0.10751280206E+04  0.00000000000E+00 0.  1.
          2   -1    0    0  501    0  0.00000000000E+00 -0.00000000000E+00 -0.24866586250E+04  0.24866586250E+04  0.00000000000E+00 0. -1.
         23    2    1    2    0    0 -0.11691139689E+04  0.41670040144E+03 -0.16037087712E+04  0.20299256289E+04  0.90826972256E+02 0.  0.
        254    2    1    2    0    0  0.11691139689E+04 -0.41670040144E+03  0.19217816681E+03  0.15318610167E+04  0.87703992487E+03 0.  0.
        -24    2    4    4    0    0  0.13454089707E+03  0.22840467820E+02 -0.27042272786E+03  0.31373501050E+03  0.81720652927E+02 0.  0.
         24    2    4    4    0    0  0.10345730718E+04 -0.43954086926E+03  0.46260089467E+03  0.12181260062E+04  0.79333236999E+02 0.  0.
         11    1    3    3    0    0 -0.47011456996E+03  0.17286645786E+03 -0.57576240413E+03  0.76314668783E+03  0.00000000000E+00 0.  1.
        -11    1    3    3    0    0 -0.69899939896E+03  0.24383394358E+03 -0.10279463671E+04  0.12667789410E+04  0.00000000000E+00 0. -1.
          2    1    6    6  502    0  0.17269204869E+03 -0.42439696414E+02  0.67876821153E+02  0.19034425224E+03  0.00000000000E+00 0. -1.
          1    1    5    5  503    0  0.49293424314E+02 -0.85084550229E+01 -0.34048889755E+02  0.60510845152E+02  0.00000000000E+00 0. -1.
         -2    1    5    5    0  503  0.85247472752E+02  0.31348922843E+02 -0.23637383811E+03  0.25322416535E+03  0.00000000000E+00 0.  1.
         -1    1    6    6    0  502  0.86188102316E+03 -0.39710117284E+03  0.39472407352E+03  0.10277817540E+04  0.00000000000E+00 0.  1.
<mgrwt>
<rscale>  0 0.32701537E+04</rscale>
<asrwt>0</asrwt>
<pdfrwt beam="1">  1        2 0.38256286E+00 0.32701537E+04</pdfrwt>
<pdfrwt beam="2">  1       -2 0.16540431E+00 0.32701537E+04</pdfrwt>
<totfact> 0.68215417E-01</totfact>
</mgrwt>
</event>
<event>
12    1  0.1532786E-007  0.1989445E+04  0.7818608E-02  0.8611571E-01
         -1   -1    0    0    0  501 -0.00000000000E+00  0.00000000000E+00  0.57145099018E+03  0.57145099018E+03  0.00000000000E+00 0.  1.
          1   -1    0    0  501    0  0.00000000000E+00 -0.00000000000E+00 -0.17315092371E+04  0.17315092371E+04  0.00000000000E+00 0. -1.
         23    2    1    2    0    0  0.61480856413E+03 -0.45369928091E+03 -0.81694555120E+03  0.11220480159E+04  0.88085801106E+02 0.  0.
        254    2    1    2    0    0 -0.61480856413E+03  0.45369928091E+03 -0.34311269569E+03  0.11809122113E+04  0.83246304476E+03 0.  0.
        -24    2    4    4    0    0 -0.48966511835E+03 -0.11900663745E+03 -0.29262342937E+02  0.51117395293E+03  0.80672284951E+02 0.  0.
         24    2    4    4    0    0 -0.12514344579E+03  0.57270591837E+03 -0.31385035275E+03  0.66973825840E+03  0.79964616443E+02 0.  0.
         13    1    3    3    0    0  0.57076316597E+03 -0.42370789279E+03 -0.78859858140E+03  0.10616904882E+04  0.00000000000E+00 0. -1.
        -13    1    3    3    0    0  0.44045398159E+02 -0.29991388123E+02 -0.28346969797E+02  0.60357527759E+02  0.00000000000E+00 0.  1.
          2    1    6    6  502    0 -0.10614485059E+03  0.52641223121E+03 -0.30875188328E+03  0.61943869100E+03  0.00000000000E+00 0. -1.
          3    1    5    5  503    0 -0.32802646657E+03 -0.11723120845E+03 -0.11274504615E+02  0.34852780873E+03  0.00000000000E+00 0. -1.
         -4    1    5    5    0  503 -0.16163865178E+03 -0.17754290073E+01 -0.17987838321E+02  0.16264614420E+03  0.00000000000E+00 0.  1.
         -1    1    6    6    0  502 -0.18998595192E+02  0.46293687155E+02 -0.50984694750E+01  0.50299567400E+02  0.00000000000E+00 0.  1.
<mgrwt>
<rscale>  0 0.19894448E+04</rscale>
<asrwt>0</asrwt>
<pdfrwt beam="1">  1        1 0.26638603E+00 0.19894448E+04</pdfrwt>
<pdfrwt beam="2">  1       -1 0.87915538E-01 0.19894448E+04</pdfrwt>
<totfact> 0.53560694E+00</totfact>
</mgrwt>
</event>
<event>
12    1  0.1532786E-007  0.2352472E+04  0.7818608E-02  0.8457515E-01
          2   -1    0    0  501    0  0.00000000000E+00  0.00000000000E+00  0.15110533072E+04  0.15110533072E+04  0.00000000000E+00 0. -1.
         -2   -1    0    0    0  501 -0.00000000000E+00 -0.00000000000E+00 -0.91560709969E+03  0.91560709969E+03  0.00000000000E+00 0.  1.
         23    2    1    2    0    0  0.19526223358E+03  0.81903952520E+03 -0.29613140239E+03  0.89763627122E+03  0.95414800909E+02 0.  0.
        254    2    1    2    0    0 -0.19526223358E+03 -0.81903952520E+03  0.89157760987E+03  0.15290241356E+04  0.91326397566E+03 0.  0.
        -24    2    4    4    0    0 -0.18335156486E+03 -0.38036877841E+03 -0.10090505090E+03  0.44092821975E+03  0.77056224603E+02 0.  0.
         24    2    4    4    0    0 -0.11910668727E+02 -0.43867074679E+03  0.99248266077E+03  0.10880959159E+04  0.79730810361E+02 0.  0.
         11    1    3    3    0    0  0.19998447556E+03  0.73355075254E+03 -0.28158587579E+03  0.81079041834E+03  0.00000000000E+00 0.  1.
        -11    1    3    3    0    0 -0.47222419785E+01  0.85488772655E+02 -0.14545526599E+02  0.86845852886E+02  0.00000000000E+00 0. -1.
          4    1    6    6  502    0  0.14056785225E+02 -0.18461735002E+03  0.50309084714E+03  0.53607980714E+03  0.00000000000E+00 0. -1.
          3    1    5    5  503    0 -0.11100455970E+03 -0.22776425299E+03 -0.99010215133E+02  0.27203233248E+03  0.00000000000E+00 0. -1.
         -2    1    5    5    0  503 -0.72347005161E+02 -0.15260452542E+03 -0.18948357684E+01  0.16889588727E+03  0.00000000000E+00 0.  1.
         -1    1    6    6    0  502 -0.25967453952E+02 -0.25405339677E+03  0.48939181363E+03  0.55201610875E+03  0.00000000000E+00 0.  1.
<mgrwt>
<rscale>  0 0.23524720E+04</rscale>
<asrwt>0</asrwt>
<pdfrwt beam="1">  1        2 0.23246974E+00 0.23524720E+04</pdfrwt>
<pdfrwt beam="2">  1       -2 0.14086263E+00 0.23524720E+04</pdfrwt>
<totfact> 0.39932681E+00</totfact>
</mgrwt>
</event>
<event>
12    1  0.1532786E-007  0.1553812E+04  0.7818608E-02  0.8849437E-01
         -1   -1    0    0    0  501 -0.00000000000E+00  0.00000000000E+00  0.86773790669E+03  0.86773790669E+03  0.00000000000E+00 0.  1.
          1   -1    0    0  501    0  0.00000000000E+00 -0.00000000000E+00 -0.69558200090E+03  0.69558200090E+03  0.00000000000E+00 0. -1.
         23    2    1    2    0    0  0.29434665438E+03  0.41619520248E+03  0.19701353815E+03  0.55451378162E+03  0.93876516124E+02 0.  0.
        254    2    1    2    0    0 -0.29434665438E+03 -0.41619520248E+03 -0.24857632363E+02  0.10088061260E+04  0.87018015285E+03 0.  0.
        -24    2    4    4    0    0 -0.51087672413E+03 -0.40122109971E+03 -0.23611717865E+03  0.69554931698E+03  0.77872538070E+02 0.  0.
         24    2    4    4    0    0  0.21653006975E+03 -0.14974102767E+02  0.21125954628E+03  0.31325680900E+03  0.79935834443E+02 0.  0.
         11    1    3    3    0    0  0.26690066054E+03  0.34270173167E+03  0.19474061998E+03  0.47602977697E+03  0.00000000000E+00 0.  1.
        -11    1    3    3    0    0  0.27445993839E+02  0.73493470808E+02  0.22729181668E+01  0.78484004652E+02  0.00000000000E+00 0. -1.
          4    1    6    6  502    0  0.20639657812E+03 -0.17397355910E+02  0.21810845494E+03  0.30078815397E+03  0.00000000000E+00 0. -1.
          1    1    5    5  503    0 -0.16546812452E+03 -0.11289394826E+03 -0.10878851014E+03  0.22794666859E+03  0.00000000000E+00 0. -1.
         -4    1    5    5    0  503 -0.34540859961E+03 -0.28832715145E+03 -0.12732866850E+03  0.46760264838E+03  0.00000000000E+00 0.  1.
         -3    1    6    6    0  502  0.10133491625E+02  0.24232531431E+01 -0.68489086574E+01  0.12468655024E+02  0.00000000000E+00 0.  1.
<mgrwt>
<rscale>  0 0.15538119E+04</rscale>
<asrwt>0</asrwt>
<pdfrwt beam="1">  1        1 0.10701262E+00 0.15538119E+04</pdfrwt>
<pdfrwt beam="2">  1       -1 0.13349814E+00 0.15538119E+04</pdfrwt>
<totfact> 0.12561762E+01</totfact>
</mgrwt>
</event>
<event>
12    1  0.1532786E-007  0.1557397E+04  0.7818608E-02  0.8847157E-01
          2   -1    0    0  501    0  0.00000000000E+00  0.00000000000E+00  0.13230641867E+04  0.13230641867E+04  0.00000000000E+00 0. -1.
         -2   -1    0    0    0  501 -0.00000000000E+00 -0.00000000000E+00 -0.45830805019E+03  0.45830805019E+03  0.00000000000E+00 0.  1.
         23    2    1    2    0    0  0.38172146223E+03 -0.29786368488E+03  0.10242337950E+03  0.50619489366E+03  0.10634224094E+03 0.  0.
        254    2    1    2    0    0 -0.38172146223E+03  0.29786368488E+03  0.76233275700E+03  0.12751773432E+04  0.90027327782E+03 0.  0.
        -24    2    4    4    0    0  0.14394545505E+03  0.20098663763E+03  0.68054911335E+03  0.72852796132E+03  0.80560363805E+02 0.  0.
         24    2    4    4    0    0 -0.52566691728E+03  0.96877047242E+02  0.81783643655E+02  0.54664938189E+03  0.80163034772E+02 0.  0.
         13    1    3    3    0    0  0.78828145606E+02 -0.18971939155E+02  0.37659979896E+02  0.89398462519E+02  0.00000000000E+00 0. -1.
        -13    1    3    3    0    0  0.30289331662E+03 -0.27889174572E+03  0.64763399605E+02  0.41679643114E+03  0.00000000000E+00 0.  1.
          4    1    6    6  502    0 -0.30186151562E+03  0.23605474057E+02  0.21409371279E+02  0.30353904888E+03  0.00000000000E+00 0. -1.
          1    1    5    5  503    0  0.73544868678E+02  0.15691901285E+03  0.51381046757E+03  0.54224867071E+03  0.00000000000E+00 0. -1.
         -2    1    5    5    0  503  0.70400586376E+02  0.44067624788E+02  0.16673864577E+03  0.18627929061E+03  0.00000000000E+00 0.  1.
         -3    1    6    6    0  502 -0.22380540166E+03  0.73271573185E+02  0.60374272376E+02  0.24311033301E+03  0.00000000000E+00 0.  1.
<mgrwt>
<rscale>  0 0.15573965E+04</rscale>
<asrwt>0</asrwt>
<pdfrwt beam="1">  1        2 0.20354833E+00 0.15573965E+04</pdfrwt>
<pdfrwt beam="2">  1       -2 0.70508931E-01 0.15573965E+04</pdfrwt>
<totfact> 0.28212978E+01</totfact>
</mgrwt>
</event>
<event>
12    1  0.1532786E-007  0.1501541E+04  0.7818608E-02  0.8883429E-01
          1   -1    0    0  501    0  0.00000000000E+00  0.00000000000E+00  0.19481576265E+04  0.19481576265E+04  0.00000000000E+00 0. -1.
         -1   -1    0    0    0  501 -0.00000000000E+00 -0.00000000000E+00 -0.28932789253E+03  0.28932789253E+03  0.00000000000E+00 0.  1.
         23    2    1    2    0    0  0.15186195840E+03  0.26003018849E+03 -0.26206361874E+02  0.31579903994E+03  0.91457678133E+02 0.  0.
        254    2    1    2    0    0 -0.15186195840E+03 -0.26003018849E+03  0.16850360959E+04  0.19216864791E+04  0.87341543742E+03 0.  0.
        -24    2    4    4    0    0  0.11432561637E+03 -0.51258778343E+03  0.11603254816E+04  0.12762142337E+04  0.80938030547E+02 0.  0.
         24    2    4    4    0    0 -0.26618757477E+03  0.25255759494E+03  0.52471061429E+03  0.64547224544E+03  0.81682477638E+02 0.  0.
         11    1    3    3    0    0  0.12111534711E+03  0.23227193514E+03  0.80048601399E+01  0.26207490713E+03  0.00000000000E+00 0. -1.
        -11    1    3    3    0    0  0.30746611291E+02  0.27758253347E+02 -0.34211222014E+02  0.53724132813E+02  0.00000000000E+00 0.  1.
          4    1    6    6  502    0 -0.26816067160E+02  0.41322996093E+02  0.33280710247E+02  0.59449954908E+02  0.00000000000E+00 0. -1.
          3    1    5    5  503    0  0.13694145158E+02 -0.23166290060E+03  0.54490576585E+03  0.59226474045E+03  0.00000000000E+00 0. -1.
         -4    1    5    5    0  503  0.10063147121E+03 -0.28092488283E+03  0.61541971575E+03  0.68394949325E+03  0.00000000000E+00 0.  1.
         -3    1    6    6    0  502 -0.23937150761E+03  0.21123459885E+03  0.49142990405E+03  0.58602229053E+03  0.00000000000E+00 0.  1.
<mgrwt>
<rscale>  0 0.15015410E+04</rscale>
<asrwt>0</asrwt>
<pdfrwt beam="1">  1        1 0.29971655E+00 0.15015410E+04</pdfrwt>
<pdfrwt beam="2">  1       -1 0.44511985E-01 0.15015410E+04</pdfrwt>
<totfact> 0.15630252E+01</totfact>
</mgrwt>
</event>
<event>
12    1  0.1532786E-007  0.1700340E+04  0.7818608E-02  0.8761170E-01
          2   -1    0    0  501    0  0.00000000000E+00  0.00000000000E+00  0.22905158037E+04  0.22905158037E+04  0.00000000000E+00 0. -1.
         -2   -1    0    0    0  501 -0.00000000000E+00 -0.00000000000E+00 -0.31555746257E+03  0.31555746257E+03  0.00000000000E+00 0.  1.
         23    2    1    2    0    0  0.41887631935E+03 -0.14259741418E+03  0.13456289520E+04  0.14196663597E+04  0.94572210214E+02 0.  0.
        254    2    1    2    0    0 -0.41887631935E+03  0.14259741418E+03  0.62932938912E+03  0.11864069066E+04  0.90316912841E+03 0.  0.
        -24    2    4    4    0    0 -0.51532273527E+03 -0.20618914623E+02 -0.21036394602E+01  0.52159601972E+03  0.77944347855E+02 0.  0.
         24    2    4    4    0    0  0.96446415926E+02  0.16321632880E+03  0.63143302858E+03  0.66481088685E+03  0.85582501480E+02 0.  0.
         13    1    3    3    0    0  0.89288201199E+02  0.58762878831E+01  0.22341912538E+03  0.24067201586E+03  0.00000000000E+00 0.  1.
        -13    1    3    3    0    0  0.32958811815E+03 -0.14847370206E+03  0.11222098267E+04  0.11789943439E+04  0.00000000000E+00 0. -1.
          2    1    6    6  502    0  0.66202730958E+02  0.33425149584E+02  0.20259255829E+03  0.21574009105E+03  0.00000000000E+00 0. -1.
          3    1    5    5  503    0 -0.54204304239E+02 -0.24792451844E+02  0.92519325606E+01  0.60318906842E+02  0.00000000000E+00 0. -1.
         -4    1    5    5    0  503 -0.46111843103E+03  0.41735372210E+01 -0.11355572021E+02  0.46127711288E+03  0.00000000000E+00 0.  1.
         -1    1    6    6    0  502  0.30243684967E+02  0.12979117922E+03  0.42884047029E+03  0.44907079580E+03  0.00000000000E+00 0.  1.
<mgrwt>
<rscale>  0 0.17003404E+04</rscale>
<asrwt>0</asrwt>
<pdfrwt beam="1">  1        2 0.35238704E+00 0.17003404E+04</pdfrwt>
<pdfrwt beam="2">  1       -2 0.48547303E-01 0.17003404E+04</pdfrwt>
<totfact> 0.17565387E+01</totfact>
</mgrwt>
</event>
<event>
12    1  0.1532786E-007  0.2084264E+04  0.7818608E-02  0.8568207E-01
         -1   -1    0    0    0  501 -0.00000000000E+00  0.00000000000E+00  0.86272614827E+03  0.86272614827E+03  0.00000000000E+00 0.  1.
          1   -1    0    0  501    0  0.00000000000E+00 -0.00000000000E+00 -0.12588453051E+04  0.12588453051E+04  0.00000000000E+00 0. -1.
         23    2    1    2    0    0  0.71015557167E+03 -0.16453220470E+03  0.24688552591E+03  0.77624711745E+03  0.10107097552E+03 0.  0.
        254    2    1    2    0    0 -0.71015557167E+03  0.16453220470E+03 -0.64300468276E+03  0.13453243359E+04  0.93008105263E+03 0.  0.
        -24    2    4    4    0    0 -0.56724834593E+03 -0.31914893471E+03 -0.46866030646E+03  0.80597744011E+03  0.79563953037E+02 0.  0.
         24    2    4    4    0    0 -0.14290722574E+03  0.48368113941E+03 -0.17434437630E+03  0.53934689583E+03  0.78289160834E+02 0.  0.
         13    1    3    3    0    0  0.32348420364E+03 -0.37280497811E+02  0.73673580707E+02  0.33385575031E+03  0.00000000000E+00 0. -1.
        -13    1    3    3    0    0  0.38667136803E+03 -0.12725170689E+03  0.17321194520E+03  0.44239136714E+03  0.00000000000E+00 0.  1.
          2    1    6    6  502    0 -0.14482118113E+03  0.39026887418E+03 -0.13140747973E+03  0.43652135616E+03  0.00000000000E+00 0. -1.
          3    1    5    5  503    0 -0.41356067432E+03 -0.26939277682E+03 -0.36781699507E+03  0.61554385823E+03  0.00000000000E+00 0. -1.
         -4    1    5    5    0  503 -0.15368767161E+03 -0.49756157887E+02 -0.10084331139E+03  0.19043358187E+03  0.00000000000E+00 0.  1.
         -1    1    6    6    0  502  0.19139553908E+01  0.93412265234E+02 -0.42936896567E+02  0.10282553967E+03  0.00000000000E+00 0.  1.
<mgrwt>
<rscale>  0 0.20842637E+04</rscale>
<asrwt>0</asrwt>
<pdfrwt beam="1">  1        1 0.19366851E+00 0.20842637E+04</pdfrwt>
<pdfrwt beam="2">  1       -1 0.13272710E+00 0.20842637E+04</pdfrwt>
<totfact> 0.42905605E+00</totfact>
</mgrwt>
</event>
<event>
12    1  0.1532786E-007  0.1482087E+04  0.7818608E-02  0.8896453E-01
         -3   -1    0    0    0  501 -0.00000000000E+00  0.00000000000E+00  0.56237631084E+03  0.56237631084E+03  0.00000000000E+00 0.  1.
          3   -1    0    0  501    0  0.00000000000E+00 -0.00000000000E+00 -0.97647373262E+03  0.97647373262E+03  0.00000000000E+00 0. -1.
         23    2    1    2    0    0  0.67653277461E+02  0.20889348182E+03 -0.55650596856E+03  0.60563903251E+03  0.94267130833E+02 0.  0.
        254    2    1    2    0    0 -0.67653277461E+02 -0.20889348182E+03  0.14240854679E+03  0.93321101095E+03  0.89576176747E+03 0.  0.
        -24    2    4    4    0    0  0.55282047880E+02 -0.21214820742E+03 -0.34946282928E+03  0.42023370554E+03  0.80057051488E+02 0.  0.
         24    2    4    4    0    0 -0.12293532534E+03  0.32547255916E+01  0.49187137607E+03  0.51297730541E+03  0.78003703833E+02 0.  0.
         13    1    3    3    0    0  0.38208449903E+02  0.67682085934E+02 -0.98598150929E+02  0.12554818106E+03  0.00000000000E+00 0.  1.
        -13    1    3    3    0    0  0.29444827559E+02  0.14121139589E+03 -0.45790781763E+03  0.48009085145E+03  0.00000000000E+00 0. -1.
          2    1    6    6  502    0 -0.34953856112E+02  0.26687362218E+02  0.26315976127E+03  0.26680900905E+03  0.00000000000E+00 0. -1.
          3    1    5    5  503    0  0.15120030135E+02 -0.12047066660E+03 -0.25581200297E+03  0.28316351758E+03  0.00000000000E+00 0. -1.
         -2    1    5    5    0  503  0.40162017745E+02 -0.91677540812E+02 -0.93650826312E+02  0.13707018796E+03  0.00000000000E+00 0.  1.
         -3    1    6    6    0  502 -0.87981469230E+02 -0.23432636626E+02  0.22871161480E+03  0.24616829636E+03  0.00000000000E+00 0.  1.
<mgrwt>
<rscale>  0 0.14820873E+04</rscale>
<asrwt>0</asrwt>
<pdfrwt beam="1">  1        3 0.15022673E+00 0.14820873E+04</pdfrwt>
<pdfrwt beam="2">  1       -3 0.86519432E-01 0.14820873E+04</pdfrwt>
<totfact> 0.99593009E-01</totfact>
</mgrwt>
</event>
<event>
12    1  0.1532786E-007  0.1536286E+04  0.7818608E-02  0.8860675E-01
          2   -1    0    0  501    0  0.00000000000E+00  0.00000000000E+00  0.13374736949E+04  0.13374736949E+04  0.00000000000E+00 0. -1.
         -2   -1    0    0    0  501 -0.00000000000E+00 -0.00000000000E+00 -0.44116293366E+03  0.44116293366E+03  0.00000000000E+00 0.  1.
         23    2    1    2    0    0  0.10355307831E+03 -0.31103321491E+03 -0.12829708331E+03  0.36386098924E+03  0.92031391935E+02 0.  0.
        254    2    1    2    0    0 -0.10355307831E+03  0.31103321491E+03  0.10246078445E+04  0.14147756393E+04  0.91886014913E+03 0.  0.
        -24    2    4    4    0    0  0.15132346784E+02 -0.31828022492E+03  0.32357807469E+03  0.46190170993E+03  0.84374935431E+02 0.  0.
         24    2    4    4    0    0 -0.11868542509E+03  0.62931343983E+03  0.70102976981E+03  0.95287392934E+03  0.80027191476E+02 0.  0.
         11    1    3    3    0    0  0.55422927068E+02 -0.74650282842E+02 -0.54129789990E+01  0.93132518031E+02  0.00000000000E+00 0. -1.
        -11    1    3    3    0    0  0.48130151240E+02 -0.23638293207E+03 -0.12288410431E+03  0.27072847121E+03  0.00000000000E+00 0.  1.
          4    1    6    6  502    0 -0.13087047870E+03  0.57060827694E+03  0.63450625318E+03  0.86331863946E+03  0.00000000000E+00 0. -1.
          3    1    5    5  503    0  0.29273933282E+02 -0.24626249577E+03  0.20184400228E+03  0.31975487681E+03  0.00000000000E+00 0. -1.
         -4    1    5    5    0  503 -0.14141586497E+02 -0.72017729152E+02  0.12173407241E+03  0.14214683312E+03  0.00000000000E+00 0.  1.
         -3    1    6    6    0  502  0.12185053607E+02  0.58705162886E+02  0.66523516635E+02  0.89555289885E+02  0.00000000000E+00 0.  1.
<mgrwt>
<rscale>  0 0.15362862E+04</rscale>
<asrwt>0</asrwt>
<pdfrwt beam="1">  1        2 0.20576518E+00 0.15362862E+04</pdfrwt>
<pdfrwt beam="2">  1       -2 0.67871221E-01 0.15362862E+04</pdfrwt>
<totfact> 0.30121788E+01</totfact>
</mgrwt>
</event>
<event>
12    1  0.1532786E-007  0.3607419E+04  0.7818608E-02  0.8088794E-01
         -1   -1    0    0    0  501 -0.00000000000E+00  0.00000000000E+00  0.22147338458E+04  0.22147338458E+04  0.00000000000E+00 0.  1.
          1   -1    0    0  501    0  0.00000000000E+00 -0.00000000000E+00 -0.14689658785E+04  0.14689658785E+04  0.00000000000E+00 0. -1.
         23    2    1    2    0    0 -0.15907378399E+04  0.50222474044E+03  0.63234874245E+03  0.17865910567E+04  0.96778647501E+02 0.  0.
        254    2    1    2    0    0  0.15907378399E+04 -0.50222474044E+03  0.11341922483E+03  0.18971086676E+04  0.89637091136E+03 0.  0.
        -24    2    4    4    0    0  0.14816979362E+03 -0.73642095338E+02 -0.28450160883E+03  0.33854574189E+03  0.79338565513E+02 0.  0.
         24    2    4    4    0    0  0.14425680463E+04 -0.42858264510E+03  0.39792083365E+03  0.15585629257E+04  0.78049673663E+02 0.  0.
         13    1    3    3    0    0 -0.77129376960E+03  0.23643379962E+03  0.25462640872E+03  0.84594895156E+03  0.00000000000E+00 0.  1.
        -13    1    3    3    0    0 -0.81944407034E+03  0.26579094081E+03  0.37772233373E+03  0.94064210518E+03  0.00000000000E+00 0. -1.
          4    1    6    6  502    0  0.53136190514E+03 -0.15020510686E+03  0.10797563103E+03  0.56264179124E+03  0.00000000000E+00 0. -1.
          1    1    5    5  503    0  0.12136380670E+02  0.13729583313E+02 -0.12703883968E+02  0.22297575240E+02  0.00000000000E+00 0. -1.
         -2    1    5    5    0  503  0.13603341295E+03 -0.87371678651E+02 -0.27179772486E+03  0.31624816665E+03  0.00000000000E+00 0.  1.
         -3    1    6    6    0  502  0.91120614118E+03 -0.27837753824E+03  0.28994520263E+03  0.99592113445E+03  0.00000000000E+00 0.  1.
<mgrwt>
<rscale>  0 0.36074193E+04</rscale>
<asrwt>0</asrwt>
<pdfrwt beam="1">  1        1 0.22599475E+00 0.36074193E+04</pdfrwt>
<pdfrwt beam="2">  1       -1 0.34072828E+00 0.36074193E+04</pdfrwt>
<totfact> 0.99433489E-02</totfact>
</mgrwt>
</event>
<event>
12    1  0.1532786E-007  0.1303261E+04  0.7818608E-02  0.9026983E-01
         -2   -1    0    0    0  501 -0.00000000000E+00  0.00000000000E+00  0.73832841922E+03  0.73832841922E+03  0.00000000000E+00 0. -1.
          2   -1    0    0  501    0  0.00000000000E+00 -0.00000000000E+00 -0.57511328240E+03  0.57511328240E+03  0.00000000000E+00 0.  1.
         23    2    1    2    0    0  0.21112264500E+03  0.23329742897E+03  0.17744758075E+03  0.37237414995E+03  0.90412399808E+02 0.  0.
        254    2    1    2    0    0 -0.21112264500E+03 -0.23329742897E+03 -0.14232443932E+02  0.94106755167E+03  0.88679485381E+03 0.  0.
        -24    2    4    4    0    0 -0.37355206093E+03 -0.48407433228E+03 -0.90223692231E+02  0.62286928002E+03  0.77179815720E+02 0.  0.
         24    2    4    4    0    0  0.16242941593E+03  0.25077690331E+03  0.75991248300E+02  0.31819827165E+03  0.78759760505E+02 0.  0.
         13    1    3    3    0    0  0.23781136669E+02  0.69469578693E+02  0.69493352999E+02  0.10109842203E+03  0.00000000000E+00 0.  1.
        -13    1    3    3    0    0  0.18734150833E+03  0.16382785028E+03  0.10795422775E+03  0.27127572792E+03  0.00000000000E+00 0. -1.
          4    1    6    6  502    0  0.61895154048E+02  0.16657247159E+03  0.38794982501E+02  0.18188581323E+03  0.00000000000E+00 0. -1.
          1    1    5    5  503    0 -0.12121087114E+03 -0.21256007108E+03 -0.19082300524E+02  0.24543429527E+03  0.00000000000E+00 0. -1.
         -4    1    5    5    0  503 -0.25234118979E+03 -0.27151426119E+03 -0.71141391708E+02  0.37743498475E+03  0.00000000000E+00 0.  1.
         -3    1    6    6    0  502  0.10053426188E+03  0.84204431713E+02  0.37196265798E+02  0.13631245843E+03  0.00000000000E+00 0.  1.
<mgrwt>
<rscale>  0 0.13032613E+04</rscale>
<asrwt>0</asrwt>
<pdfrwt beam="1">  1        2 0.88478966E-01 0.13032613E+04</pdfrwt>
<pdfrwt beam="2">  1       -2 0.11358899E+00 0.13032613E+04</pdfrwt>
<totfact> 0.31080588E+01</totfact>
</mgrwt>
</event>
<event>
12    1  0.1532786E-007  0.1381645E+04  0.7818608E-02  0.8967213E-01
         -1   -1    0    0    0  501 -0.00000000000E+00  0.00000000000E+00  0.27943412503E+03  0.27943412503E+03  0.00000000000E+00 0.  1.
          1   -1    0    0  501    0  0.00000000000E+00 -0.00000000000E+00 -0.17078650867E+04  0.17078650867E+04  0.00000000000E+00 0. -1.
         23    2    1    2    0    0  0.19767920832E+02 -0.45364799972E+02  0.14050482440E+03  0.17451295383E+03  0.90908908280E+02 0.  0.
        254    2    1    2    0    0 -0.19767920832E+02  0.45364799972E+02 -0.15689357861E+04  0.18127862579E+04  0.90674460584E+03 0.  0.
        -24    2    4    4    0    0 -0.32612370008E+03 -0.12892332639E+03 -0.23236666759E+03  0.42815592827E+03  0.79657635315E+02 0.  0.
         24    2    4    4    0    0  0.30635577925E+03  0.17428812636E+03 -0.13365691185E+04  0.13846303296E+04  0.80956326292E+02 0.  0.
         11    1    3    3    0    0  0.44815988570E+01  0.27641264338E+02  0.49237051876E+02  0.56642841559E+02  0.00000000000E+00 0. -1.
        -11    1    3    3    0    0  0.15286321975E+02 -0.73006064309E+02  0.91267772528E+02  0.11787011227E+03  0.00000000000E+00 0.  1.
          2    1    6    6  502    0  0.30111001797E+03  0.14930307801E+03 -0.12386259183E+04  0.12834145151E+04  0.00000000000E+00 0. -1.
          1    1    5    5  503    0 -0.21033894117E+03 -0.11692242034E+03 -0.13211782466E+03  0.27453313487E+03  0.00000000000E+00 0. -1.
         -2    1    5    5    0  503 -0.11578475891E+03 -0.12000906051E+02 -0.10024884293E+03  0.15362279339E+03  0.00000000000E+00 0.  1.
         -3    1    6    6    0  502  0.52457612743E+01  0.24985048351E+02 -0.97943200203E+02  0.10121581457E+03  0.00000000000E+00 0.  1.
<mgrwt>
<rscale>  0 0.13816451E+04</rscale>
<asrwt>0</asrwt>
<pdfrwt beam="1">  1        1 0.26274848E+00 0.13816451E+04</pdfrwt>
<pdfrwt beam="2">  1       -1 0.42989865E-01 0.13816451E+04</pdfrwt>
<totfact> 0.24515741E+01</totfact>
</mgrwt>
</event>
<event>
12    1  0.1532786E-007  0.2042462E+04  0.7818608E-02  0.8587022E-01
          1   -1    0    0  501    0  0.00000000000E+00  0.00000000000E+00  0.17415915098E+04  0.17415915098E+04  0.00000000000E+00 0. -1.
         -1   -1    0    0    0  501 -0.00000000000E+00 -0.00000000000E+00 -0.59882718277E+03  0.59882718277E+03  0.00000000000E+00 0.  1.
         23    2    1    2    0    0 -0.39722373224E+02  0.77889017939E+03  0.18643468638E+03  0.80698171681E+03  0.90630130143E+02 0.  0.
        254    2    1    2    0    0  0.39722373224E+02 -0.77889017939E+03  0.95632964062E+03  0.15334369757E+04  0.91028281239E+03 0.  0.
        -24    2    4    4    0    0 -0.25178869232E+03 -0.64173151988E+02  0.64028866736E+03  0.69557013172E+03  0.79576953794E+02 0.  0.
         24    2    4    4    0    0  0.29151106555E+03 -0.71471702740E+03  0.31604097326E+03  0.83786684401E+03  0.79622992431E+02 0.  0.
         13    1    3    3    0    0 -0.23459308075E+02  0.51922357544E+03  0.16767723351E+03  0.54613104203E+03  0.00000000000E+00 0.  1.
        -13    1    3    3    0    0 -0.16263065148E+02  0.25966660395E+03  0.18757452872E+02  0.26085067478E+03  0.00000000000E+00 0. -1.
          4    1    6    6  502    0  0.20948936456E+03 -0.43043882330E+03  0.17081414441E+03  0.50827241357E+03  0.00000000000E+00 0. -1.
          1    1    5    5  503    0 -0.14927131114E+03 -0.20077091151E+02  0.45487373977E+03  0.47916086344E+03  0.00000000000E+00 0. -1.
         -2    1    5    5    0  503 -0.10251738118E+03 -0.44096060837E+02  0.18541492759E+03  0.21640926828E+03  0.00000000000E+00 0.  1.
         -3    1    6    6    0  502  0.82021700988E+02 -0.28427820411E+03  0.14522682885E+03  0.32959443045E+03  0.00000000000E+00 0.  1.
<mgrwt>
<rscale>  0 0.20424616E+04</rscale>
<asrwt>0</asrwt>
<pdfrwt beam="1">  1        1 0.26793715E+00 0.20424616E+04</pdfrwt>
<pdfrwt beam="2">  1       -1 0.92127259E-01 0.20424616E+04</pdfrwt>
<totfact> 0.47322586E+00</totfact>
</mgrwt>
</event>
<event>
12    1  0.1532786E-007  0.2866817E+04  0.7818608E-02  0.8282819E-01
          1   -1    0    0  501    0  0.00000000000E+00  0.00000000000E+00  0.24429166588E+04  0.24429166588E+04  0.00000000000E+00 0. -1.
         -1   -1    0    0    0  501 -0.00000000000E+00 -0.00000000000E+00 -0.84106851789E+03  0.84106851789E+03  0.00000000000E+00 0.  1.
         23    2    1    2    0    0  0.85518576436E+02  0.57769600571E+03  0.20397635909E+04  0.21235255459E+04  0.87630676644E+02 0.  0.
        254    2    1    2    0    0 -0.85518576436E+02 -0.57769600571E+03 -0.43791544998E+03  0.11604596308E+04  0.90213663678E+03 0.  0.
        -24    2    4    4    0    0 -0.99257731152E+02  0.18693615623E+03 -0.30535500915E+03  0.38015534694E+03  0.80493369278E+02 0.  0.
         24    2    4    4    0    0  0.13739154716E+02 -0.76463216194E+03 -0.13256044084E+03  0.78030428384E+03  0.80320591743E+02 0.  0.
         11    1    3    3    0    0  0.88006069367E+02  0.55500381243E+03  0.18814768504E+04  0.19636011404E+04  0.00000000000E+00 0. -1.
        -11    1    3    3    0    0 -0.24874929309E+01  0.22692193278E+02  0.15828674056E+03  0.15992440556E+03  0.00000000000E+00 0.  1.
          2    1    6    6  502    0  0.13301963983E+02 -0.33692325664E+03 -0.18723423759E+02  0.33770518164E+03  0.00000000000E+00 0. -1.
          1    1    5    5  503    0 -0.35255038338E+02  0.68840529216E+02 -0.18212938082E+03  0.19787129036E+03  0.00000000000E+00 0. -1.
         -2    1    5    5    0  503 -0.64002692814E+02  0.11809562702E+03 -0.12322562833E+03  0.18228405658E+03  0.00000000000E+00 0.  1.
         -1    1    6    6    0  502  0.43719073275E+00 -0.42770890530E+03 -0.11383701708E+03  0.44259910220E+03  0.00000000000E+00 0.  1.
<mgrwt>
<rscale>  0 0.28668173E+04</rscale>
<asrwt>0</asrwt>
<pdfrwt beam="1">  1        1 0.37583333E+00 0.28668173E+04</pdfrwt>
<pdfrwt beam="2">  1       -1 0.12939516E+00 0.28668173E+04</pdfrwt>
<totfact> 0.65522493E-01</totfact>
</mgrwt>
</event>
<event>
12    1  0.1532786E-007  0.1968889E+04  0.7818608E-02  0.8621306E-01
          1   -1    0    0  501    0  0.00000000000E+00  0.00000000000E+00  0.13782678586E+04  0.13782678586E+04  0.00000000000E+00 0. -1.
         -1   -1    0    0    0  501 -0.00000000000E+00 -0.00000000000E+00 -0.70315139747E+03  0.70315139747E+03  0.00000000000E+00 0.  1.
         23    2    1    2    0    0  0.32184983197E+03 -0.37931399803E+03  0.90384758090E+03  0.10353851638E+04  0.87267201704E+02 0.  0.
        254    2    1    2    0    0 -0.32184983197E+03  0.37931399803E+03 -0.22873111975E+03  0.10460340923E+04  0.89129286636E+03 0.  0.
        -24    2    4    4    0    0 -0.17732550225E+03  0.42299960251E+03  0.25611846605E+03  0.53167891216E+03  0.81931675904E+02 0.  0.
         24    2    4    4    0    0 -0.14452432972E+03 -0.43685604474E+02 -0.48484958579E+03  0.51435518012E+03  0.81770511501E+02 0.  0.
         13    1    3    3    0    0  0.29471670919E+03 -0.35487154091E+03  0.77929834408E+03  0.90559243499E+03  0.00000000000E+00 0. -1.
        -13    1    3    3    0    0  0.27133122782E+02 -0.24442457121E+02  0.12454923682E+03  0.12979272882E+03  0.00000000000E+00 0.  1.
          4    1    6    6  502    0 -0.61298573094E+02  0.87047072438E+01 -0.10419069857E+03  0.12119813802E+03  0.00000000000E+00 0. -1.
          1    1    5    5  503    0  0.27331170606E+01  0.42732493277E+02  0.90764561901E+01  0.43771200206E+02  0.00000000000E+00 0. -1.
         -2    1    5    5    0  503 -0.18005861931E+03  0.38026710923E+03  0.24704200986E+03  0.48790771195E+03  0.00000000000E+00 0.  1.
         -3    1    6    6    0  502 -0.83225756629E+02 -0.52390311718E+02 -0.38065888722E+03  0.39315704209E+03  0.00000000000E+00 0.  1.
<mgrwt>
<rscale>  0 0.19688890E+04</rscale>
<asrwt>0</asrwt>
<pdfrwt beam="1">  1        1 0.21204121E+00 0.19688890E+04</pdfrwt>
<pdfrwt beam="2">  1       -1 0.10817714E+00 0.19688890E+04</pdfrwt>
<totfact> 0.58769170E+00</totfact>
</mgrwt>
</event>
<event>
12    1  0.1532786E-007  0.1916711E+04  0.7818608E-02  0.8646583E-01
         -2   -1    0    0    0  501 -0.00000000000E+00  0.00000000000E+00  0.39217661593E+03  0.39217661593E+03  0.00000000000E+00 0.  1.
          2   -1    0    0  501    0  0.00000000000E+00 -0.00000000000E+00 -0.23419170445E+04  0.23419170445E+04  0.00000000000E+00 0. -1.
         23    2    1    2    0    0  0.52603619688E+03  0.19454776523E+03 -0.80224067773E+02  0.57744841062E+03  0.11156994441E+03 0.  0.
        254    2    1    2    0    0 -0.52603619688E+03 -0.19454776523E+03 -0.18695163608E+04  0.21566452498E+04  0.91731368508E+03 0.  0.
        -24    2    4    4    0    0 -0.77326576163E+03 -0.18774756341E+03 -0.12384368758E+04  0.14740267431E+04  0.76418967198E+02 0.  0.
         24    2    4    4    0    0  0.24722956475E+03 -0.68002018259E+01 -0.63107948501E+03  0.68261850665E+03  0.80857954418E+02 0.  0.
         13    1    3    3    0    0  0.26482398101E+03  0.99520049150E+02 -0.96761593140E+02  0.29899629932E+03  0.00000000000E+00 0.  1.
        -13    1    3    3    0    0  0.26121221587E+03  0.95027716084E+02  0.16537525366E+02  0.27845211130E+03  0.00000000000E+00 0. -1.
          4    1    6    6  502    0  0.18790193982E+03 -0.34611057420E+02 -0.51535062832E+03  0.54962836025E+03  0.00000000000E+00 0. -1.
          1    1    5    5  503    0 -0.57740921713E+03 -0.10555266416E+03 -0.90603678777E+03  0.10795579789E+04  0.00000000000E+00 0. -1.
         -2    1    5    5    0  503 -0.19585654450E+03 -0.82194899247E+02 -0.33240008799E+03  0.39446876426E+03  0.00000000000E+00 0.  1.
         -3    1    6    6    0  502  0.59327624930E+02  0.27810855594E+02 -0.11572885669E+03  0.13299014640E+03  0.00000000000E+00 0.  1.
<mgrwt>
<rscale>  0 0.19167108E+04</rscale>
<asrwt>0</asrwt>
<pdfrwt beam="1">  1        2 0.36029493E+00 0.19167108E+04</pdfrwt>
<pdfrwt beam="2">  1       -2 0.60334864E-01 0.19167108E+04</pdfrwt>
<totfact> 0.10277460E+01</totfact>
</mgrwt>
</event>
<event>
12    1  0.1532786E-007  0.1234930E+04  0.7818608E-02  0.9082820E-01
          2   -1    0    0  501    0  0.00000000000E+00  0.00000000000E+00  0.36104074993E+04  0.36104074993E+04  0.00000000000E+00 0. -1.
         -2   -1    0    0    0  501 -0.00000000000E+00 -0.00000000000E+00 -0.10560103748E+03  0.10560103748E+03  0.00000000000E+00 0.  1.
         23    2    1    2    0    0  0.84089047690E+02 -0.57159985371E+02  0.15714749901E+04  0.15774481416E+04  0.92036747799E+02 0.  0.
        254    2    1    2    0    0 -0.84089047690E+02  0.57159985371E+02  0.19333314717E+04  0.21385603952E+04  0.90847771164E+03 0.  0.
        -24    2    4    4    0    0  0.40329356010E+03 -0.34012873927E+02  0.85939637870E+03  0.95305353460E+03  0.77112469003E+02 0.  0.
         24    2    4    4    0    0 -0.48738260779E+03  0.91172859298E+02  0.10739350930E+04  0.11855068606E+04  0.78966042605E+02 0.  0.
         13    1    3    3    0    0  0.47746730501E+02 -0.80701509209E+02  0.10992456420E+04  0.11032377193E+04  0.00000000000E+00 0.  1.
        -13    1    3    3    0    0  0.36342317188E+02  0.23541523838E+02  0.47222934809E+03  0.47421042224E+03  0.00000000000E+00 0. -1.
          4    1    6    6  502    0 -0.44808746203E+03  0.10079814409E+03  0.95125232302E+03  0.10563255282E+04  0.00000000000E+00 0. -1.
          1    1    5    5  503    0  0.34861413475E+03 -0.55815307421E+02  0.72963622407E+03  0.81056534774E+03  0.00000000000E+00 0. -1.
         -2    1    5    5    0  503  0.54679425346E+02  0.21802433494E+02  0.12976015464E+03  0.14248818686E+03  0.00000000000E+00 0.  1.
         -3    1    6    6    0  502 -0.39295145758E+02 -0.96252847960E+01  0.12268276999E+03  0.12918133240E+03  0.00000000000E+00 0.  1.
<mgrwt>
<rscale>  0 0.12349296E+04</rscale>
<asrwt>0</asrwt>
<pdfrwt beam="1">  1        2 0.55544721E+00 0.12349296E+04</pdfrwt>
<pdfrwt beam="2">  1       -2 0.16246316E-01 0.12349296E+04</pdfrwt>
<totfact> 0.21031057E+01</totfact>
</mgrwt>
</event>
<event>
12    1  0.1532786E-007  0.2523385E+04  0.7818608E-02  0.8394702E-01
          2   -1    0    0  501    0  0.00000000000E+00  0.00000000000E+00  0.17649321407E+04  0.17649321407E+04  0.00000000000E+00 0. -1.
         -2   -1    0    0    0  501 -0.00000000000E+00 -0.00000000000E+00 -0.90194288641E+03  0.90194288641E+03  0.00000000000E+00 0.  1.
         23    2    1    2    0    0  0.66735992451E+02 -0.41992075000E+03 -0.69383050908E+03  0.81881368006E+03  0.90928204454E+02 0.  0.
        254    2    1    2    0    0 -0.66735992451E+02  0.41992075000E+03  0.15568197633E+04  0.18480613470E+04  0.90047533997E+03 0.  0.
        -24    2    4    4    0    0  0.14877276126E+03  0.63524429771E+03  0.84755137395E+03  0.10720055574E+04  0.71999523393E+02 0.  0.
         24    2    4    4    0    0 -0.21550875371E+03 -0.21532354771E+03  0.70926838940E+03  0.77605578963E+03  0.79954282496E+02 0.  0.
         13    1    3    3    0    0 -0.16825270234E+02 -0.10758325440E+03 -0.21567542001E+03  0.24160532516E+03  0.00000000000E+00 0.  1.
        -13    1    3    3    0    0  0.83561262685E+02 -0.31233749560E+03 -0.47815508906E+03  0.57720835491E+03  0.00000000000E+00 0. -1.
          4    1    6    6  502    0 -0.11890094160E+03 -0.17071810699E+03  0.48977898561E+03  0.53213302915E+03  0.00000000000E+00 0. -1.
          1    1    5    5  503    0  0.14583492271E+03  0.54373660457E+03  0.69899828744E+03  0.89750539033E+03  0.00000000000E+00 0. -1.
         -2    1    5    5    0  503  0.29378385538E+01  0.91507693141E+02  0.14855308650E+03  0.17450016707E+03  0.00000000000E+00 0.  1.
         -3    1    6    6    0  502 -0.96607812114E+02 -0.44605440713E+02  0.21948940379E+03  0.24392276048E+03  0.00000000000E+00 0.  1.
<mgrwt>
<rscale>  0 0.25233850E+04</rscale>
<asrwt>0</asrwt>
<pdfrwt beam="1">  1        2 0.27152802E+00 0.25233850E+04</pdfrwt>
<pdfrwt beam="2">  1       -2 0.13876044E+00 0.25233850E+04</pdfrwt>
<totfact> 0.29530891E+00</totfact>
</mgrwt>
</event>
<event>
12    1  0.1532786E-007  0.2013583E+04  0.7818608E-02  0.8600296E-01
          2   -1    0    0  501    0  0.00000000000E+00  0.00000000000E+00  0.18847848164E+04  0.18847848164E+04  0.00000000000E+00 0.  1.
         -2   -1    0    0    0  501 -0.00000000000E+00 -0.00000000000E+00 -0.53779570358E+03  0.53779570358E+03  0.00000000000E+00 0. -1.
         23    2    1    2    0    0 -0.73040365850E+03  0.28673260050E+03  0.74594618867E+03  0.10851391230E+04  0.73390131098E+02 0.  0.
        254    2    1    2    0    0  0.73040365850E+03 -0.28673260050E+03  0.60104292413E+03  0.13374413970E+04  0.90099489738E+03 0.  0.
        -24    2    4    4    0    0  0.98497384110E+02 -0.44347899264E+02 -0.22778179978E+03  0.26372489293E+03  0.77445464622E+02 0.  0.
         24    2    4    4    0    0  0.63190627439E+03 -0.24238470124E+03  0.82882472391E+03  0.10737165040E+04  0.88661294004E+02 0.  0.
         13    1    3    3    0    0 -0.69058956511E+02  0.31502725431E+02  0.45103542847E+02  0.88294341616E+02  0.00000000000E+00 0. -1.
        -13    1    3    3    0    0 -0.66134470199E+03  0.25522987507E+03  0.70084264583E+03  0.99684478139E+03  0.00000000000E+00 0.  1.
          2    1    6    6  502    0  0.17758360249E+03 -0.37812296927E+02  0.18019110862E+03  0.25580176172E+03  0.00000000000E+00 0. -1.
          1    1    5    5  503    0 -0.84592203171E+01 -0.16261344350E+02 -0.14103939689E+02  0.23128139640E+02  0.00000000000E+00 0. -1.
         -2    1    5    5    0  503  0.10695660443E+03 -0.28086554914E+02 -0.21367786009E+03  0.24059675329E+03  0.00000000000E+00 0.  1.
         -1    1    6    6    0  502  0.45432267190E+03 -0.20457240431E+03  0.64863361529E+03  0.81791474232E+03  0.00000000000E+00 0.  1.
<mgrwt>
<rscale>  0 0.20135831E+04</rscale>
<asrwt>0</asrwt>
<pdfrwt beam="1">  1        2 0.28996689E+00 0.20135831E+04</pdfrwt>
<pdfrwt beam="2">  1       -2 0.82737801E-01 0.20135831E+04</pdfrwt>
<totfact> 0.92045162E+00</totfact>
</mgrwt>
</event>
<event>
12    1  0.1532786E-007  0.2695941E+04  0.7818608E-02  0.8336323E-01
          2   -1    0    0  501    0  0.00000000000E+00  0.00000000000E+00  0.32116790261E+04  0.32116790261E+04  0.00000000000E+00 0. -1.
         -2   -1    0    0    0  501 -0.00000000000E+00 -0.00000000000E+00 -0.56575512698E+03  0.56575512698E+03  0.00000000000E+00 0.  1.
         23    2    1    2    0    0  0.46988920214E+03 -0.10590725169E+04  0.15844299882E+04  0.19651207783E+04  0.94078835030E+02 0.  0.
        254    2    1    2    0    0 -0.46988920214E+03  0.10590725169E+04  0.10614939109E+04  0.18123133748E+04  0.90292856166E+03 0.  0.
        -24    2    4    4    0    0 -0.18440738687E+03  0.11398775077E+04  0.77187284810E+03  0.13911106566E+04  0.77938105645E+02 0.  0.
         24    2    4    4    0    0 -0.28548181527E+03 -0.80804990837E+02  0.28962106280E+03  0.42120271825E+03  0.74175848173E+02 0.  0.
         13    1    3    3    0    0  0.18191738889E+03 -0.39881185239E+03  0.52390342637E+03  0.68309562299E+03  0.00000000000E+00 0.  1.
        -13    1    3    3    0    0  0.28797181324E+03 -0.66026066449E+03  0.10605265619E+04  0.12820251553E+04  0.00000000000E+00 0. -1.
          2    1    6    6  502    0 -0.26954643779E+02  0.12728087807E+02  0.18520918536E+02  0.35093894966E+02  0.00000000000E+00 0. -1.
          3    1    5    5  503    0 -0.51438734482E+02  0.33929675240E+03  0.27273482346E+03  0.43835204291E+03  0.00000000000E+00 0. -1.
         -4    1    5    5    0  503 -0.13296865239E+03  0.80058075532E+03  0.49913802464E+03  0.95275861368E+03  0.00000000000E+00 0.  1.
         -1    1    6    6    0  502 -0.25852717149E+03 -0.93533078644E+02  0.27110014427E+03  0.38610882328E+03  0.00000000000E+00 0.  1.
<mgrwt>
<rscale>  0 0.26959406E+04</rscale>
<asrwt>0</asrwt>
<pdfrwt beam="1">  1        2 0.49410445E+00 0.26959406E+04</pdfrwt>
<pdfrwt beam="2">  1       -2 0.87039252E-01 0.26959406E+04</pdfrwt>
<totfact> 0.12760600E+00</totfact>
</mgrwt>
</event>
<event>
12    1  0.1532786E-007  0.1748456E+04  0.7818608E-02  0.8734201E-01
          2   -1    0    0  501    0  0.00000000000E+00  0.00000000000E+00  0.10440973290E+04  0.10440973290E+04  0.00000000000E+00 0. -1.
         -2   -1    0    0    0  501 -0.00000000000E+00 -0.00000000000E+00 -0.73199526043E+03  0.73199526043E+03  0.00000000000E+00 0.  1.
         23    2    1    2    0    0  0.50862630733E+03 -0.14879992991E+02 -0.27257059102E+03  0.58426073031E+03  0.90242668341E+02 0.  0.
        254    2    1    2    0    0 -0.50862630733E+03  0.14879992991E+02  0.58467265955E+03  0.11918318591E+04  0.90537225868E+03 0.  0.
        -24    2    4    4    0    0  0.21337879290E+03 -0.95720198353E+02 -0.86152395957E+01  0.24751501099E+03  0.80601443389E+02 0.  0.
         24    2    4    4    0    0 -0.72200510023E+03  0.11060019134E+03  0.59328789915E+03  0.94431684810E+03  0.78867047824E+02 0.  0.
         13    1    3    3    0    0  0.19171702982E+02  0.92699073061E+01  0.38290566005E+01  0.21636706106E+02  0.00000000000E+00 0. -1.
        -13    1    3    3    0    0  0.48945460435E+03 -0.24149900297E+02 -0.27639964762E+03  0.56262402420E+03  0.00000000000E+00 0.  1.
          2    1    6    6  502    0 -0.48402112375E+03  0.40180587112E+02  0.41331562625E+03  0.63774660699E+03  0.00000000000E+00 0. -1.
          1    1    5    5  503    0  0.10200071989E+03 -0.20809942876E+02  0.29096992151E+02  0.10809179217E+03  0.00000000000E+00 0. -1.
         -2    1    5    5    0  503  0.11137807301E+03 -0.74910255477E+02 -0.37712231746E+02  0.13942321882E+03  0.00000000000E+00 0.  1.
         -1    1    6    6    0  502 -0.23798397648E+03  0.70419604232E+02  0.17997227290E+03  0.30657024111E+03  0.00000000000E+00 0.  1.
<mgrwt>
<rscale>  0 0.17484557E+04</rscale>
<asrwt>0</asrwt>
<pdfrwt beam="1">  1        2 0.16063036E+00 0.17484557E+04</pdfrwt>
<pdfrwt beam="2">  1       -2 0.11261465E+00 0.17484557E+04</pdfrwt>
<totfact> 0.13890744E+01</totfact>
</mgrwt>
</event>
<event>
12    1  0.1532786E-007  0.1442232E+04  0.7818608E-02  0.8923803E-01
          1   -1    0    0  501    0  0.00000000000E+00  0.00000000000E+00  0.73580598649E+03  0.73580598649E+03  0.00000000000E+00 0. -1.
         -1   -1    0    0    0  501 -0.00000000000E+00 -0.00000000000E+00 -0.70671973261E+03  0.70671973261E+03  0.00000000000E+00 0.  1.
         23    2    1    2    0    0  0.25002718391E+03 -0.19357546024E+03  0.29950712506E+03  0.44509581761E+03  0.91764466950E+02 0.  0.
        254    2    1    2    0    0 -0.25002718391E+03  0.19357546024E+03 -0.27042087117E+03  0.99742990148E+03  0.90650643093E+03 0.  0.
        -24    2    4    4    0    0 -0.29660855550E+03  0.32812650391E+03  0.20529198653E+03  0.49406841502E+03  0.79467988697E+02 0.  0.
         24    2    4    4    0    0  0.46581371582E+02 -0.13455104368E+03 -0.47571285770E+03  0.50336148646E+03  0.82439405232E+02 0.  0.
         11    1    3    3    0    0  0.14576878685E+02  0.10219168737E+02  0.17983887389E+02  0.25304881100E+02  0.00000000000E+00 0.  1.
        -11    1    3    3    0    0  0.23545030523E+03 -0.20379462897E+03  0.28152323767E+03  0.41979093651E+03  0.00000000000E+00 0. -1.
          2    1    6    6  502    0 -0.95424727241E+01 -0.79134207901E+02 -0.30608803072E+03  0.31629600724E+03  0.00000000000E+00 0. -1.
          3    1    5    5  503    0 -0.12929517778E+03  0.14959661601E+03  0.13526363965E+03  0.23956761619E+03  0.00000000000E+00 0. -1.
         -2    1    5    5    0  503 -0.16731337772E+03  0.17852988791E+03  0.70028346884E+02  0.25450079883E+03  0.00000000000E+00 0.  1.
         -1    1    6    6    0  502  0.56123844306E+02 -0.55416835775E+02 -0.16962482698E+03  0.18706547922E+03  0.00000000000E+00 0.  1.
<mgrwt>
<rscale>  0 0.14422325E+04</rscale>
<asrwt>0</asrwt>
<pdfrwt beam="1">  1        1 0.11320092E+00 0.14422325E+04</pdfrwt>
<pdfrwt beam="2">  1       -1 0.10872611E+00 0.14422325E+04</pdfrwt>
<totfact> 0.19244582E+01</totfact>
</mgrwt>
</event>
<event>
12    1  0.1532786E-007  0.1350215E+04  0.7818608E-02  0.8990665E-01
          2   -1    0    0  501    0  0.00000000000E+00  0.00000000000E+00  0.13728604557E+04  0.13728604557E+04  0.00000000000E+00 0. -1.
         -2   -1    0    0    0  501 -0.00000000000E+00 -0.00000000000E+00 -0.33198593657E+03  0.33198593657E+03  0.00000000000E+00 0.  1.
         23    2    1    2    0    0  0.55101516859E+02  0.15672799400E+03 -0.12171999426E+03  0.22530593212E+03  0.91362819481E+02 0.  0.
        254    2    1    2    0    0 -0.55101516859E+02 -0.15672799400E+03  0.11625945133E+04  0.14795404601E+04  0.89989673261E+03 0.  0.
        -24    2    4    4    0    0  0.22059750760E+03  0.19961963553E+03  0.90297677366E+03  0.95345234108E+03  0.72062845550E+02 0.  0.
         24    2    4    4    0    0 -0.27569902446E+03 -0.35634762952E+03  0.25961773969E+03  0.52608811902E+03  0.79835788088E+02 0.  0.
         11    1    3    3    0    0  0.75503144297E+02  0.13150926886E+03 -0.77032432381E+02  0.17008647281E+03  0.00000000000E+00 0. -1.
        -11    1    3    3    0    0 -0.20401627438E+02  0.25218725136E+02 -0.44687561883E+02  0.55219459311E+02  0.00000000000E+00 0.  1.
          2    1    6    6  502    0 -0.22707307924E+03 -0.33113334471E+03  0.24073391982E+03  0.46814986431E+03  0.00000000000E+00 0. -1.
          3    1    5    5  503    0  0.20066699295E+03  0.17347063390E+03  0.71489184544E+03  0.76251534644E+03  0.00000000000E+00 0. -1.
         -4    1    5    5    0  503  0.19930514649E+02  0.26149001629E+02  0.18808492822E+03  0.19093699464E+03  0.00000000000E+00 0.  1.
         -1    1    6    6    0  502 -0.48625945212E+02 -0.25214284807E+02  0.18883819868E+02  0.57938254711E+02  0.00000000000E+00 0.  1.
<mgrwt>
<rscale>  0 0.13502153E+04</rscale>
<asrwt>0</asrwt>
<pdfrwt beam="1">  1        2 0.21120930E+00 0.13502153E+04</pdfrwt>
<pdfrwt beam="2">  1       -2 0.51074760E-01 0.13502153E+04</pdfrwt>
<totfact> 0.53067703E+01</totfact>
</mgrwt>
</event>
<event>
12    1  0.1532786E-007  0.1348814E+04  0.7818608E-02  0.8991726E-01
          1   -1    0    0  501    0  0.00000000000E+00  0.00000000000E+00  0.19222857082E+04  0.19222857082E+04  0.00000000000E+00 0. -1.
         -1   -1    0    0    0  501 -0.00000000000E+00 -0.00000000000E+00 -0.23660629170E+03  0.23660629170E+03  0.00000000000E+00 0.  1.
         23    2    1    2    0    0 -0.44921295961E+02  0.51962728174E+02  0.10298509714E+04  0.10361625831E+04  0.91224050159E+02 0.  0.
        254    2    1    2    0    0  0.44921295961E+02 -0.51962728174E+02  0.65582844507E+03  0.11227294168E+04  0.90867615024E+03 0.  0.
        -24    2    4    4    0    0 -0.13073262018E+03  0.34595260706E+03  0.55058621131E+03  0.66811633115E+03  0.80374321490E+02 0.  0.
         24    2    4    4    0    0  0.17565391614E+03 -0.39791533523E+03  0.10524223375E+03  0.45461308564E+03  0.80038850563E+02 0.  0.
         13    1    3    3    0    0 -0.33054963487E+02  0.93067789010E+00  0.78836623048E+03  0.78905944651E+03  0.00000000000E+00 0. -1.
        -13    1    3    3    0    0 -0.11866332474E+02  0.51032050284E+02  0.24148474095E+03  0.24710313659E+03  0.00000000000E+00 0.  1.
          2    1    6    6  502    0  0.59242639748E+02 -0.60982518184E+02  0.30939489041E+02  0.90475465572E+02  0.00000000000E+00 0. -1.
          3    1    5    5  503    0 -0.68448843998E+02  0.86469161221E+02  0.13635604205E+03  0.17537140671E+03  0.00000000000E+00 0. -1.
         -4    1    5    5    0  503 -0.62283776182E+02  0.25948344584E+03  0.41423016926E+03  0.49274492444E+03  0.00000000000E+00 0.  1.
         -1    1    6    6    0  502  0.11641127639E+03 -0.33693281705E+03  0.74302744714E+02  0.36413762007E+03  0.00000000000E+00 0.  1.
<mgrwt>
<rscale>  0 0.13488141E+04</rscale>
<asrwt>0</asrwt>
<pdfrwt beam="1">  1        1 0.29573625E+00 0.13488141E+04</pdfrwt>
<pdfrwt beam="2">  1       -1 0.36400969E-01 0.13488141E+04</pdfrwt>
<totfact> 0.23835104E+01</totfact>
</mgrwt>
</event>
<event>
12    1  0.1532786E-007  0.1483039E+04  0.7818608E-02  0.8895810E-01
         -2   -1    0    0    0  501 -0.00000000000E+00  0.00000000000E+00  0.53362675223E+03  0.53362675223E+03  0.00000000000E+00 0.  1.
          2   -1    0    0  501    0  0.00000000000E+00 -0.00000000000E+00 -0.10304046646E+04  0.10304046646E+04  0.00000000000E+00 0. -1.
         23    2    1    2    0    0 -0.17190393874E+03 -0.18813186239E+02  0.29131706969E+03  0.35107865212E+03  0.92117776496E+02 0.  0.
        254    2    1    2    0    0  0.17190393874E+03  0.18813186239E+02 -0.78809498202E+03  0.12129527647E+04  0.90567974942E+03 0.  0.
        -24    2    4    4    0    0 -0.29060821806E+03  0.32960965582E+02 -0.65965245502E+03  0.72624399482E+03  0.82154835139E+02 0.  0.
         24    2    4    4    0    0  0.46251215680E+03 -0.14147779344E+02 -0.12844252700E+03  0.48670876986E+03  0.79185156835E+02 0.  0.
         13    1    3    3    0    0 -0.17136523437E+03 -0.38711316872E+02  0.26758830666E+03  0.32010640647E+03  0.00000000000E+00 0.  1.
        -13    1    3    3    0    0 -0.53870437080E+00  0.19898130633E+02  0.23728763038E+02  0.30972245647E+02  0.00000000000E+00 0. -1.
          2    1    6    6  502    0  0.17065285126E+03 -0.36176575547E+02 -0.71511354342E+02  0.18853385389E+03  0.00000000000E+00 0. -1.
          1    1    5    5  503    0  0.38287657618E+01 -0.18085363448E+01 -0.16743079048E+01  0.45534116802E+01  0.00000000000E+00 0. -1.
         -2    1    5    5    0  503 -0.29443698382E+03  0.34769501927E+02 -0.65797814712E+03  0.72169058314E+03  0.00000000000E+00 0.  1.
         -1    1    6    6    0  502  0.29185930554E+03  0.22028796204E+02 -0.56931172659E+02  0.29817491597E+03  0.00000000000E+00 0.  1.
<mgrwt>
<rscale>  0 0.14830394E+04</rscale>
<asrwt>0</asrwt>
<pdfrwt beam="1">  1        2 0.15852379E+00 0.14830394E+04</pdfrwt>
<pdfrwt beam="2">  1       -2 0.82096424E-01 0.14830394E+04</pdfrwt>
<totfact> 0.30389132E+01</totfact>
</mgrwt>
</event>
<event>
12    1  0.1532786E-007  0.2325234E+04  0.7818608E-02  0.8468037E-01
         -2   -1    0    0    0  501 -0.00000000000E+00  0.00000000000E+00  0.11575456386E+04  0.11575456386E+04  0.00000000000E+00 0.  1.
          2   -1    0    0  501    0  0.00000000000E+00 -0.00000000000E+00 -0.11677110047E+04  0.11677110047E+04  0.00000000000E+00 0. -1.
         23    2    1    2    0    0 -0.22320880270E+03  0.44540970529E+02  0.97250109819E+03  0.10032397345E+04  0.94474923555E+02 0.  0.
        254    2    1    2    0    0  0.22320880270E+03 -0.44540970529E+02 -0.98266646426E+03  0.13220169088E+04  0.85456963412E+03 0.  0.
        -24    2    4    4    0    0  0.22095541954E+03  0.30303790906E+03 -0.14251254839E+03  0.40910570001E+03  0.80027342701E+02 0.  0.
         24    2    4    4    0    0  0.22533831545E+01 -0.34757887959E+03 -0.84015391587E+03  0.91291120880E+03  0.82049482226E+02 0.  0.
         11    1    3    3    0    0 -0.19810809068E+03  0.52543821998E+02  0.69778033696E+03  0.72725859739E+03  0.00000000000E+00 0.  1.
        -11    1    3    3    0    0 -0.25100712016E+02 -0.80028514694E+01  0.27472076122E+03  0.27598113708E+03  0.00000000000E+00 0. -1.
          2    1    6    6  502    0  0.31658441661E+02 -0.60162711597E+02 -0.17349296448E+03  0.18633737553E+03  0.00000000000E+00 0. -1.
          3    1    5    5  503    0  0.38243365086E+02  0.77993376466E+02 -0.66586916561E+02  0.10945016767E+03  0.00000000000E+00 0. -1.
         -4    1    5    5    0  503  0.18271205446E+03  0.22504453260E+03 -0.75925631830E+02  0.29965553234E+03  0.00000000000E+00 0.  1.
         -1    1    6    6    0  502 -0.29405058506E+02 -0.28741616799E+03 -0.66666095139E+03  0.72657383327E+03  0.00000000000E+00 0.  1.
<mgrwt>
<rscale>  0 0.23252344E+04</rscale>
<asrwt>0</asrwt>
<pdfrwt beam="1">  1        2 0.17964785E+00 0.23252344E+04</pdfrwt>
<pdfrwt beam="2">  1       -2 0.17808394E+00 0.23252344E+04</pdfrwt>
<totfact> 0.33503429E+00</totfact>
</mgrwt>
</event>
<event>
12    1  0.1532786E-007  0.1481213E+04  0.7818608E-02  0.8897043E-01
         -1   -1    0    0    0  501 -0.00000000000E+00  0.00000000000E+00  0.44401102181E+03  0.44401102181E+03  0.00000000000E+00 0.  1.
          1   -1    0    0  501    0  0.00000000000E+00 -0.00000000000E+00 -0.12353247988E+04  0.12353247988E+04  0.00000000000E+00 0. -1.
         23    2    1    2    0    0 -0.14064142254E+03 -0.26189219009E+03 -0.58421621133E+03  0.66193809729E+03  0.92119129920E+02 0.  0.
        254    2    1    2    0    0  0.14064142254E+03  0.26189219009E+03 -0.20709756568E+03  0.10173977233E+04  0.95070563099E+03 0.  0.
        -24    2    4    4    0    0  0.12294278680E+03  0.52366136572E+03 -0.40493338065E+03  0.67832589897E+03  0.82576193176E+02 0.  0.
         24    2    4    4    0    0  0.17698635744E+02 -0.26176917563E+03  0.19783581497E+03  0.33907182437E+03  0.83632226950E+02 0.  0.
         11    1    3    3    0    0 -0.35173242559E+02 -0.79219770338E+01 -0.74738161256E+02  0.82980163052E+02  0.00000000000E+00 0.  1.
        -11    1    3    3    0    0 -0.10546817998E+03 -0.25397021306E+03 -0.50947805007E+03  0.57895793424E+03  0.00000000000E+00 0. -1.
          2    1    6    6  502    0  0.24627931089E+02 -0.25139569430E+03  0.20443263397E+03  0.32496004668E+03  0.00000000000E+00 0. -1.
          3    1    5    5  503    0  0.12227053025E+03  0.36714370000E+03 -0.30382185664E+03  0.49198810919E+03  0.00000000000E+00 0. -1.
         -4    1    5    5    0  503  0.67225654482E+00  0.15651766572E+03 -0.10111152401E+03  0.18633778978E+03  0.00000000000E+00 0.  1.
         -1    1    6    6    0  502 -0.69292953452E+01 -0.10373481322E+02 -0.65968190047E+01  0.14111777694E+02  0.00000000000E+00 0.  1.
<mgrwt>
<rscale>  0 0.14812128E+04</rscale>
<asrwt>0</asrwt>
<pdfrwt beam="1">  1        1 0.19004996E+00 0.14812128E+04</pdfrwt>
<pdfrwt beam="2">  1       -1 0.68309389E-01 0.14812128E+04</pdfrwt>
<totfact> 0.21165294E+01</totfact>
</mgrwt>
</event>
<event>
12    1  0.1532786E-007  0.1769500E+04  0.7818608E-02  0.8722689E-01
          1   -1    0    0  501    0  0.00000000000E+00  0.00000000000E+00  0.26264945889E+03  0.26264945889E+03  0.00000000000E+00 0. -1.
         -1   -1    0    0    0  501 -0.00000000000E+00 -0.00000000000E+00 -0.29803332430E+04  0.29803332430E+04  0.00000000000E+00 0.  1.
         23    2    1    2    0    0 -0.37066383030E+03 -0.55170870779E+03 -0.87614297970E+03  0.11035503117E+04  0.91774703611E+02 0.  0.
        254    2    1    2    0    0  0.37066383030E+03  0.55170870779E+03 -0.18415408045E+04  0.21394323902E+04  0.86262636442E+03 0.  0.
        -24    2    4    4    0    0  0.33890404714E+03  0.46903757027E+03 -0.43651999686E+03  0.72932050604E+03  0.80662862460E+02 0.  0.
         24    2    4    4    0    0  0.31759783159E+02  0.82671137515E+02 -0.14050208076E+04  0.14101118842E+04  0.80553431779E+02 0.  0.
         11    1    3    3    0    0 -0.22509316439E+03 -0.41014817428E+03 -0.60418439717E+03  0.76415132226E+03  0.00000000000E+00 0.  1.
        -11    1    3    3    0    0 -0.14557066591E+03 -0.14156053350E+03 -0.27195858253E+03  0.33939898944E+03  0.00000000000E+00 0. -1.
          2    1    6    6  502    0  0.28047166178E+02  0.98701160510E+02 -0.12563938094E+04  0.12605768390E+04  0.00000000000E+00 0. -1.
          1    1    5    5  503    0  0.26890119437E+03  0.33761802192E+03 -0.28714449284E+03  0.51840692590E+03  0.00000000000E+00 0. -1.
         -2    1    5    5    0  503  0.70002852779E+02  0.13141954835E+03 -0.14937550402E+03  0.21091358014E+03  0.00000000000E+00 0.  1.
         -1    1    6    6    0  502  0.37126169804E+01 -0.16030022995E+02 -0.14862699816E+03  0.14953504520E+03  0.00000000000E+00 0.  1.
<mgrwt>
<rscale>  0 0.17695004E+04</rscale>
<asrwt>0</asrwt>
<pdfrwt beam="1">  1        1 0.40407611E-01 0.17695004E+04</pdfrwt>
<pdfrwt beam="2">  1       -1 0.45851278E+00 0.17695004E+04</pdfrwt>
<totfact> 0.27945144E-01</totfact>
</mgrwt>
</event>
<event>
12    1  0.1532786E-007  0.2024686E+04  0.7818608E-02  0.8595166E-01
          1   -1    0    0  501    0  0.00000000000E+00  0.00000000000E+00  0.58760673235E+03  0.58760673235E+03  0.00000000000E+00 0. -1.
         -1   -1    0    0    0  501 -0.00000000000E+00 -0.00000000000E+00 -0.17440882995E+04  0.17440882995E+04  0.00000000000E+00 0.  1.
         23    2    1    2    0    0  0.28062552476E+03  0.84870156784E+02 -0.13365409188E+04  0.13716081959E+04  0.94940964263E+02 0.  0.
        254    2    1    2    0    0 -0.28062552476E+03 -0.84870156784E+02  0.18005935166E+03  0.96008683596E+03  0.89632122245E+03 0.  0.
        -24    2    4    4    0    0 -0.29572528703E+02  0.11338187817E+03  0.48800666729E+03  0.50829048157E+03  0.80490506186E+02 0.  0.
         24    2    4    4    0    0 -0.25105299605E+03 -0.19825203496E+03 -0.30794731563E+03  0.45179635439E+03  0.83408155775E+02 0.  0.
         11    1    3    3    0    0  0.85417721264E+02  0.53209020099E+02 -0.30171504288E+03  0.31805558323E+03  0.00000000000E+00 0. -1.
        -11    1    3    3    0    0  0.19520780349E+03  0.31661136684E+02 -0.10348258759E+04  0.10535526127E+04  0.00000000000E+00 0.  1.
          4    1    6    6  502    0 -0.46648473071E+02 -0.83081913614E+02 -0.75999749780E+02  0.12187963889E+03  0.00000000000E+00 0. -1.
          1    1    5    5  503    0 -0.87381522715E+01  0.50063087044E+02  0.36375251487E+03  0.36728539320E+03  0.00000000000E+00 0. -1.
         -2    1    5    5    0  503 -0.20834376432E+02  0.63318791129E+02  0.12425415242E+03  0.14100508837E+03  0.00000000000E+00 0.  1.
         -3    1    6    6    0  502 -0.20440452298E+03 -0.11517012134E+03 -0.23194756585E+03  0.32991671550E+03  0.00000000000E+00 0.  1.
<mgrwt>
<rscale>  0 0.20246857E+04</rscale>
<asrwt>0</asrwt>
<pdfrwt beam="1">  1        1 0.90401035E-01 0.20246857E+04</pdfrwt>
<pdfrwt beam="2">  1       -1 0.26832128E+00 0.20246857E+04</pdfrwt>
<totfact> 0.17313666E+00</totfact>
</mgrwt>
</event>
<event>
12    1  0.1532786E-007  0.1161947E+04  0.7818608E-02  0.9146832E-01
         -1   -1    0    0    0  501 -0.00000000000E+00  0.00000000000E+00  0.57498084966E+03  0.57498084966E+03  0.00000000000E+00 0.  1.
          1   -1    0    0  501    0  0.00000000000E+00 -0.00000000000E+00 -0.58702886341E+03  0.58702886341E+03  0.00000000000E+00 0. -1.
         23    2    1    2    0    0  0.69223082009E+02 -0.13966051341E+03  0.14435358313E+03  0.23021594457E+03  0.88682185833E+02 0.  0.
        254    2    1    2    0    0 -0.69223082009E+02  0.13966051341E+03 -0.15640159689E+03  0.93179376850E+03  0.90525204966E+03 0.  0.
        -24    2    4    4    0    0  0.27105028562E+03  0.12974359545E+03 -0.39932856420E+03  0.50618499240E+03  0.80363464628E+02 0.  0.
         24    2    4    4    0    0 -0.34027336763E+03  0.99169179551E+01  0.24292696732E+03  0.42560877610E+03  0.79025368507E+02 0.  0.
         11    1    3    3    0    0  0.86402055277E+02 -0.13682839480E+03  0.12798480202E+03  0.20631876872E+03  0.00000000000E+00 0.  1.
        -11    1    3    3    0    0 -0.17178973268E+02 -0.28321186037E+01  0.16368781110E+02  0.23897175845E+02  0.00000000000E+00 0. -1.
          4    1    6    6  502    0 -0.27821067197E+02 -0.85269642355E+01 -0.48743144241E+00  0.29102551236E+02  0.00000000000E+00 0. -1.
          1    1    5    5  503    0  0.41419250592E+02  0.29881113411E+01 -0.99512412538E+02  0.10782951070E+03  0.00000000000E+00 0. -1.
         -2    1    5    5    0  503  0.22963103503E+03  0.12675548411E+03 -0.29981615167E+03  0.39835548170E+03  0.00000000000E+00 0.  1.
         -3    1    6    6    0  502 -0.31245230043E+03  0.18443882191E+02  0.24341439876E+03  0.39650622487E+03  0.00000000000E+00 0.  1.
<mgrwt>
<rscale>  0 0.11619473E+04</rscale>
<asrwt>0</asrwt>
<pdfrwt beam="1">  1        1 0.90312132E-01 0.11619473E+04</pdfrwt>
<pdfrwt beam="2">  1       -1 0.88458593E-01 0.11619473E+04</pdfrwt>
<totfact> 0.44040205E+01</totfact>
</mgrwt>
</event>
<event>
12    1  0.1532786E-007  0.2202437E+04  0.7818608E-02  0.8517415E-01
          2   -1    0    0  501    0  0.00000000000E+00  0.00000000000E+00  0.27917222757E+04  0.27917222757E+04  0.00000000000E+00 0. -1.
         -2   -1    0    0    0  501 -0.00000000000E+00 -0.00000000000E+00 -0.43438484158E+03  0.43438484158E+03  0.00000000000E+00 0.  1.
         23    2    1    2    0    0 -0.53693957744E+03  0.21206879590E+03 -0.20266270481E+02  0.58446376611E+03  0.88937552028E+02 0.  0.
        254    2    1    2    0    0  0.53693957744E+03 -0.21206879590E+03  0.23776037046E+04  0.26416433512E+04  0.99599344105E+03 0.  0.
        -24    2    4    4    0    0  0.55362261797E+03 -0.49018105398E+03  0.10750803046E+04  0.13072786777E+04  0.80027563291E+02 0.  0.
         24    2    4    4    0    0 -0.16683040534E+02  0.27811225808E+03  0.13025234000E+04  0.13343646735E+04  0.79606045381E+02 0.  0.
         11    1    3    3    0    0 -0.17777697725E+03  0.87791505536E+02 -0.45995812228E+02  0.20353775283E+03  0.00000000000E+00 0. -1.
        -11    1    3    3    0    0 -0.35916260018E+03  0.12427729036E+03  0.25729541747E+02  0.38092601327E+03  0.00000000000E+00 0.  1.
          4    1    6    6  502    0 -0.12051373977E+02  0.67525861413E+02  0.18825539644E+03  0.20036235141E+03  0.00000000000E+00 0. -1.
          1    1    5    5  503    0  0.46974934747E+02 -0.39392632621E+02  0.55108919824E+02  0.82434319573E+02  0.00000000000E+00 0. -1.
         -2    1    5    5    0  503  0.50664768322E+03 -0.45078842136E+03  0.10199713848E+04  0.12248443581E+04  0.00000000000E+00 0.  1.
         -1    1    6    6    0  502 -0.46316665578E+01  0.21058639667E+03  0.11142680035E+04  0.11340023221E+04  0.00000000000E+00 0.  1.
<mgrwt>
<rscale>  0 0.22024367E+04</rscale>
<asrwt>0</asrwt>
<pdfrwt beam="1">  1        2 0.42949572E+00 0.22024367E+04</pdfrwt>
<pdfrwt beam="2">  1       -2 0.66828439E-01 0.22024367E+04</pdfrwt>
<totfact> 0.43984520E+00</totfact>
</mgrwt>
</event>
<event>
12    1  0.1532786E-007  0.2022964E+04  0.7818608E-02  0.8595959E-01
         -1   -1    0    0    0  501 -0.00000000000E+00  0.00000000000E+00  0.14539776125E+04  0.14539776125E+04  0.00000000000E+00 0.  1.
          1   -1    0    0  501    0  0.00000000000E+00 -0.00000000000E+00 -0.70365341507E+03  0.70365341507E+03  0.00000000000E+00 0. -1.
         23    2    1    2    0    0 -0.31393142173E+03  0.58683764457E+03  0.77949071049E+03  0.10287754207E+04  0.88553598586E+02 0.  0.
        254    2    1    2    0    0  0.31393142173E+03 -0.58683764457E+03 -0.29166513056E+02  0.11288556069E+04  0.91133579821E+03 0.  0.
        -24    2    4    4    0    0  0.47453808973E+03 -0.72722480873E+03  0.81004260999E+02  0.87588472491E+03  0.81055783165E+02 0.  0.
         24    2    4    4    0    0 -0.16060666800E+03  0.14038716416E+03 -0.11017077406E+03  0.25297088199E+03  0.79709535260E+02 0.  0.
         11    1    3    3    0    0 -0.17400135325E+03  0.33053851639E+03  0.36942668408E+03  0.52536487954E+03  0.00000000000E+00 0.  1.
        -11    1    3    3    0    0 -0.13993006848E+03  0.25629912818E+03  0.41006402641E+03  0.50341054114E+03  0.00000000000E+00 0. -1.
          4    1    6    6  502    0 -0.10821205655E+03  0.44832010219E+02 -0.42029141919E+02  0.12444359001E+03  0.00000000000E+00 0. -1.
          1    1    5    5  503    0  0.35211811624E+03 -0.48986021468E+03  0.81844437623E+02  0.60880925557E+03  0.00000000000E+00 0. -1.
         -2    1    5    5    0  503  0.12241997349E+03 -0.23736459406E+03 -0.84017662427E+00  0.26707546933E+03  0.00000000000E+00 0.  1.
         -3    1    6    6    0  502 -0.52394611445E+02  0.95555153945E+02 -0.68141632136E+02  0.12852729198E+03  0.00000000000E+00 0.  1.
<mgrwt>
<rscale>  0 0.20229645E+04</rscale>
<asrwt>0</asrwt>
<pdfrwt beam="1">  1        1 0.10825437E+00 0.20229645E+04</pdfrwt>
<pdfrwt beam="2">  1       -1 0.22368886E+00 0.20229645E+04</pdfrwt>
<totfact> 0.26014212E+00</totfact>
</mgrwt>
</event>
<event>
12    1  0.1532786E-007  0.1845823E+04  0.7818608E-02  0.8682304E-01
         -1   -1    0    0    0  501 -0.00000000000E+00  0.00000000000E+00  0.22970157131E+04  0.22970157131E+04  0.00000000000E+00 0.  1.
          1   -1    0    0  501    0  0.00000000000E+00 -0.00000000000E+00 -0.37081419714E+03  0.37081419714E+03  0.00000000000E+00 0. -1.
         23    2    1    2    0    0  0.54589216061E+03 -0.43410475363E+03  0.73810937637E+03  0.10195401226E+04  0.90616896558E+02 0.  0.
        254    2    1    2    0    0 -0.54589216061E+03  0.43410475363E+03  0.11880921396E+04  0.16482897877E+04  0.90490391965E+03 0.  0.
        -24    2    4    4    0    0 -0.70932287036E+03  0.52990707851E+03  0.11245689478E+04  0.14330711894E+04  0.71395163404E+02 0.  0.
         24    2    4    4    0    0  0.16343070976E+03 -0.95802324875E+02  0.63523191830E+02  0.21521859825E+03  0.79976038848E+02 0.  0.
         13    1    3    3    0    0  0.12955078338E+03 -0.13184903352E+03  0.14919219479E+03  0.23754133135E+03  0.00000000000E+00 0.  1.
        -13    1    3    3    0    0  0.41634137723E+03 -0.30225572011E+03  0.58891718158E+03  0.78199879123E+03  0.00000000000E+00 0. -1.
          4    1    6    6  502    0  0.16924079152E+03 -0.78896971806E+02  0.51581951652E+02  0.19372112794E+03  0.00000000000E+00 0. -1.
          1    1    5    5  503    0 -0.41978179614E+03  0.34053738972E+03  0.64109698419E+03  0.83856294535E+03  0.00000000000E+00 0. -1.
         -2    1    5    5    0  503 -0.28954107422E+03  0.18936968879E+03  0.48347196360E+03  0.59450824408E+03  0.00000000000E+00 0.  1.
         -3    1    6    6    0  502 -0.58100817687E+01 -0.16905353069E+02  0.11941240178E+02  0.21497470306E+02  0.00000000000E+00 0.  1.
<mgrwt>
<rscale>  0 0.18458234E+04</rscale>
<asrwt>0</asrwt>
<pdfrwt beam="1">  1        1 0.57048339E-01 0.18458234E+04</pdfrwt>
<pdfrwt beam="2">  1       -1 0.35338702E+00 0.18458234E+04</pdfrwt>
<totfact> 0.92228173E-01</totfact>
</mgrwt>
</event>
<event>
12    1  0.1532786E-007  0.2182904E+04  0.7818608E-02  0.8525578E-01
         -1   -1    0    0    0  501 -0.00000000000E+00  0.00000000000E+00  0.90620500869E+03  0.90620500869E+03  0.00000000000E+00 0.  1.
          1   -1    0    0  501    0  0.00000000000E+00 -0.00000000000E+00 -0.13145669087E+04  0.13145669087E+04  0.00000000000E+00 0. -1.
         23    2    1    2    0    0 -0.29378178615E+03  0.48058625099E+03  0.54110349122E+03  0.78641043677E+03  0.91528707706E+02 0.  0.
        254    2    1    2    0    0  0.29378178615E+03 -0.48058625099E+03 -0.94946539124E+03  0.14343614806E+04  0.91577150287E+03 0.  0.
        -24    2    4    4    0    0 -0.18507966839E+03 -0.39929252564E+03 -0.80617339773E+03  0.92164278583E+03  0.76294644446E+02 0.  0.
         24    2    4    4    0    0  0.47886145454E+03 -0.81293725351E+02 -0.14329199351E+03  0.51271869481E+03  0.80192906067E+02 0.  0.
         11    1    3    3    0    0 -0.27149022020E+03  0.44146572664E+03  0.52721005439E+03  0.73928977331E+03  0.00000000000E+00 0.  1.
        -11    1    3    3    0    0 -0.22291565944E+02  0.39120524358E+02  0.13893436820E+02  0.47120663461E+02  0.00000000000E+00 0. -1.
          2    1    6    6  502    0  0.42809860313E+03 -0.52943800600E+02 -0.14341431645E+03  0.45457576507E+03  0.00000000000E+00 0. -1.
          1    1    5    5  503    0 -0.16095252949E+03 -0.30031371517E+03 -0.56427198698E+03  0.65916380328E+03  0.00000000000E+00 0. -1.
         -2    1    5    5    0  503 -0.24127138907E+02 -0.98978810474E+02 -0.24190141075E+03  0.26247898254E+03  0.00000000000E+00 0.  1.
         -1    1    6    6    0  502  0.50762851410E+02 -0.28349924751E+02  0.12232294280E+00  0.58142929747E+02  0.00000000000E+00 0.  1.
<mgrwt>
<rscale>  0 0.21829037E+04</rscale>
<asrwt>0</asrwt>
<pdfrwt beam="1">  1        1 0.20224106E+00 0.21829037E+04</pdfrwt>
<pdfrwt beam="2">  1       -1 0.13941615E+00 0.21829037E+04</pdfrwt>
<totfact> 0.34174141E+00</totfact>
</mgrwt>
</event>
<event>
12    1  0.1532786E-007  0.1776627E+04  0.7818608E-02  0.8718828E-01
          2   -1    0    0  501    0  0.00000000000E+00  0.00000000000E+00  0.20188039354E+04  0.20188039354E+04  0.00000000000E+00 0. -1.
         -2   -1    0    0    0  501 -0.00000000000E+00 -0.00000000000E+00 -0.39087559900E+03  0.39087559900E+03  0.00000000000E+00 0.  1.
         23    2    1    2    0    0 -0.53332404077E+03  0.21200653778E+03  0.14627282451E+03  0.59901706163E+03  0.89690559241E+02 0.  0.
        254    2    1    2    0    0  0.53332404077E+03 -0.21200653778E+03  0.14816555119E+04  0.18106624727E+04  0.86822475767E+03 0.  0.
        -24    2    4    4    0    0  0.49215824439E+03  0.19963839446E+03  0.46517068103E+03  0.71037978619E+03  0.78615851300E+02 0.  0.
         24    2    4    4    0    0  0.41165796377E+02 -0.41164493223E+03  0.10164848308E+04  0.11002826865E+04  0.78958254692E+02 0.  0.
         13    1    3    3    0    0 -0.49981653066E+03  0.17366508307E+03  0.14237811748E+03  0.54794858676E+03  0.00000000000E+00 0.  1.
        -13    1    3    3    0    0 -0.33507510108E+02  0.38341454709E+02  0.38947070310E+01  0.51068474872E+02  0.00000000000E+00 0. -1.
          4    1    6    6  502    0  0.57581365489E+02 -0.36713326591E+03  0.93253947914E+03  0.10038587195E+04  0.00000000000E+00 0. -1.
          3    1    5    5  503    0  0.46942280677E+03  0.17130985984E+03  0.44318625117E+03  0.66792132233E+03  0.00000000000E+00 0. -1.
         -4    1    5    5    0  503  0.22735437619E+02  0.28328534614E+02  0.21984429854E+02  0.42458463857E+02  0.00000000000E+00 0.  1.
         -3    1    6    6    0  502 -0.16415569112E+02 -0.44511666325E+02  0.83945351694E+02  0.96423967038E+02  0.00000000000E+00 0.  1.
<mgrwt>
<rscale>  0 0.17766274E+04</rscale>
<asrwt>0</asrwt>
<pdfrwt beam="1">  1        2 0.31058521E+00 0.17766274E+04</pdfrwt>
<pdfrwt beam="2">  1       -2 0.60134709E-01 0.17766274E+04</pdfrwt>
<totfact> 0.15901624E+01</totfact>
</mgrwt>
</event>
<event>
12    1  0.1532786E-007  0.1668503E+04  0.7818608E-02  0.8779535E-01
         -2   -1    0    0    0  501 -0.00000000000E+00  0.00000000000E+00  0.99413328103E+03  0.99413328103E+03  0.00000000000E+00 0.  1.
          2   -1    0    0  501    0  0.00000000000E+00 -0.00000000000E+00 -0.70008300592E+03  0.70008300592E+03  0.00000000000E+00 0. -1.
         23    2    1    2    0    0  0.53539020894E+03  0.14205911302E+02  0.31746456688E+03  0.62987561510E+03  0.95472799997E+02 0.  0.
        254    2    1    2    0    0 -0.53539020894E+03 -0.14205911302E+02 -0.23414291765E+02  0.10643406719E+04  0.91947177932E+03 0.  0.
        -24    2    4    4    0    0  0.64029771941E+01 -0.20880186963E+03  0.31913887552E+03  0.39016885739E+03  0.82115141910E+02 0.  0.
         24    2    4    4    0    0 -0.54179318613E+03  0.19459595833E+03 -0.34255316729E+03  0.67417181446E+03  0.75878320097E+02 0.  0.
         13    1    3    3    0    0  0.20591102651E+02  0.18356598657E+02  0.61889435101E+01  0.28271208754E+02  0.00000000000E+00 0. -1.
        -13    1    3    3    0    0  0.51479910628E+03 -0.41506873542E+01  0.31127562337E+03  0.60160440635E+03  0.00000000000E+00 0.  1.
          2    1    6    6  502    0 -0.29814005179E+03  0.71364589036E+02 -0.16088579917E+03  0.34621472445E+03  0.00000000000E+00 0. -1.
          3    1    5    5  503    0 -0.64084161797E+00 -0.20522711113E+01  0.53201756507E+02  0.53245181849E+02  0.00000000000E+00 0. -1.
         -4    1    5    5    0  503  0.70438188121E+01 -0.20674959852E+03  0.26593711901E+03  0.33692367554E+03  0.00000000000E+00 0.  1.
         -1    1    6    6    0  502 -0.24365313434E+03  0.12323136929E+03 -0.18166736812E+03  0.32795709002E+03  0.00000000000E+00 0.  1.
<mgrwt>
<rscale>  0 0.16685033E+04</rscale>
<asrwt>0</asrwt>
<pdfrwt beam="1">  1        2 0.10770508E+00 0.16685033E+04</pdfrwt>
<pdfrwt beam="2">  1       -2 0.15294358E+00 0.16685033E+04</pdfrwt>
<totfact> 0.11111590E+01</totfact>
</mgrwt>
</event>
<event>
12    1  0.1720328E-007  0.1358523E+04  0.7818608E-02  0.8984401E-01
          2   -1    0    0  501    0  0.00000000000E+00  0.00000000000E+00  0.27457489332E+04  0.27457489332E+04  0.00000000000E+00 0. -1.
         -2   -1    0    0    0  501 -0.00000000000E+00 -0.00000000000E+00 -0.16804016396E+03  0.16804016396E+03  0.00000000000E+00 0.  1.
         23    2    1    2    0    0 -0.26931017941E+03 -0.19656223071E+03  0.36180437468E+03  0.50023011498E+03  0.90349759914E+02 0.  0.
        254    2    1    2    0    0  0.26931017941E+03  0.19656223071E+03  0.22159043946E+04  0.24135589822E+04  0.89658797191E+03 0.  0.
        -24    2    4    4    0    0 -0.24261671908E+03  0.54692361436E+02  0.14761310324E+04  0.14990780416E+04  0.80112564975E+02 0.  0.
         24    2    4    4    0    0  0.51192689850E+03  0.14186986928E+03  0.73977336215E+03  0.91448094062E+03  0.82550313149E+02 0.  0.
         11    1    3    3    0    0  0.13957506636E+00 -0.20542564977E+02  0.40717337263E+02  0.45606118129E+02  0.00000000000E+00 0. -1.
        -11    1    3    3    0    0 -0.26944975448E+03 -0.17601966574E+03  0.32108703742E+03  0.45462399685E+03  0.00000000000E+00 0.  1.
          2    1    6    6  502    0  0.36814813807E+02 -0.31918950330E+01  0.27390605560E+02  0.45997434521E+02  0.00000000000E+00 0. -1.
          1    1    5    5  503    0  0.46468515504E+01  0.75389101653E+01  0.33497958724E+02  0.34648833090E+02  0.00000000000E+00 0. -1.
         -2    1    5    5    0  503 -0.24726357063E+03  0.47153451271E+02  0.14426330737E+04  0.14644292085E+04  0.00000000000E+00 0.  1.
         -1    1    6    6    0  502  0.47511208469E+03  0.14506176431E+03  0.71238275659E+03  0.86848350610E+03  0.00000000000E+00 0.  1.
<mgrwt>
<rscale>  0 0.13585229E+04</rscale>
<asrwt>0</asrwt>
<pdfrwt beam="1">  1        2 0.42242288E+00 0.13585229E+04</pdfrwt>
<pdfrwt beam="2">  1       -2 0.25852335E-01 0.13585229E+04</pdfrwt>
<totfact> 0.33071149E+01</totfact>
</mgrwt>
</event>
<event>
12    1  0.1532786E-007  0.1259014E+04  0.7818608E-02  0.9062714E-01
          1   -1    0    0  501    0  0.00000000000E+00  0.00000000000E+00  0.27523926535E+04  0.27523926535E+04  0.00000000000E+00 0.  1.
         -1   -1    0    0    0  501 -0.00000000000E+00 -0.00000000000E+00 -0.14397630988E+03  0.14397630988E+03  0.00000000000E+00 0. -1.
         23    2    1    2    0    0  0.16634083055E+03 -0.25509483001E+03  0.76753086939E+03  0.83097062519E+03  0.93090817158E+02 0.  0.
        254    2    1    2    0    0 -0.16634083055E+03  0.25509483001E+03  0.18408854743E+04  0.20653983382E+04  0.88558925129E+03 0.  0.
        -24    2    4    4    0    0  0.23332028857E+03  0.42120811180E+03  0.82961492330E+03  0.96264214068E+03  0.81020611897E+02 0.  0.
         24    2    4    4    0    0 -0.39966111912E+03 -0.16611328179E+03  0.10112705510E+04  0.11027561976E+04  0.77977377858E+02 0.  0.
         11    1    3    3    0    0  0.78125257696E+01 -0.57414974883E+02  0.22240708085E+03  0.22983129577E+03  0.00000000000E+00 0.  1.
        -11    1    3    3    0    0  0.15852830478E+03 -0.19767985513E+03  0.54512378854E+03  0.60113932942E+03  0.00000000000E+00 0. -1.
          2    1    6    6  502    0 -0.27966819488E+03 -0.14363122146E+03  0.78572478859E+03  0.84629053547E+03  0.00000000000E+00 0. -1.
          3    1    5    5  503    0  0.21302595949E+03  0.39080872469E+03  0.80046494277E+03  0.91589062846E+03  0.00000000000E+00 0. -1.
         -4    1    5    5    0  503  0.20294329081E+02  0.30399387117E+02  0.29149980533E+02  0.46751512222E+02  0.00000000000E+00 0.  1.
         -1    1    6    6    0  502 -0.11999292424E+03 -0.22482060327E+02  0.22554576238E+03  0.25646566209E+03  0.00000000000E+00 0.  1.
<mgrwt>
<rscale>  0 0.12590144E+04</rscale>
<asrwt>0</asrwt>
<pdfrwt beam="1">  1        1 0.42344498E+00 0.12590144E+04</pdfrwt>
<pdfrwt beam="2">  1       -1 0.22150204E-01 0.12590144E+04</pdfrwt>
<totfact> 0.15413201E+01</totfact>
</mgrwt>
</event>
<event>
12    1  0.1532786E-007  0.1232499E+04  0.7818608E-02  0.9084876E-01
          2   -1    0    0  501    0  0.00000000000E+00  0.00000000000E+00  0.59052787732E+03  0.59052787732E+03  0.00000000000E+00 0. -1.
         -2   -1    0    0    0  501 -0.00000000000E+00 -0.00000000000E+00 -0.64309155420E+03  0.64309155420E+03  0.00000000000E+00 0.  1.
         23    2    1    2    0    0  0.12273814075E+03  0.58488977245E+02  0.23992419989E+03  0.29000577525E+03  0.89744728707E+02 0.  0.
        254    2    1    2    0    0 -0.12273814075E+03 -0.58488977245E+02 -0.29248787678E+03  0.94361365626E+03  0.88677616261E+03 0.  0.
        -24    2    4    4    0    0  0.17505634375E+03 -0.39244478425E+03 -0.87354613032E+02  0.44605969478E+03  0.81736104101E+02 0.  0.
         24    2    4    4    0    0 -0.29779448450E+03  0.33395580701E+03 -0.20513326375E+03  0.49755396148E+03  0.72610279328E+02 0.  0.
         13    1    3    3    0    0  0.10175389991E+03  0.79402718199E+02  0.21725202123E+03  0.25269960137E+03  0.00000000000E+00 0. -1.
        -13    1    3    3    0    0  0.20984240832E+02 -0.20913740954E+02  0.22672178662E+02  0.37306173876E+02  0.00000000000E+00 0.  1.
          2    1    6    6  502    0 -0.57967661128E+02  0.11219966608E+03 -0.66303795025E+02  0.14263662938E+03  0.00000000000E+00 0. -1.
          3    1    5    5  503    0  0.36895158326E+02 -0.32956789113E+02 -0.26613946499E+02  0.56175660253E+02  0.00000000000E+00 0. -1.
         -4    1    5    5    0  503  0.13816118542E+03 -0.35948799514E+03 -0.60740666532E+02  0.38988403453E+03  0.00000000000E+00 0.  1.
         -1    1    6    6    0  502 -0.23982682337E+03  0.22175614093E+03 -0.13882946872E+03  0.35491733211E+03  0.00000000000E+00 0.  1.
<mgrwt>
<rscale>  0 0.12324991E+04</rscale>
<asrwt>0</asrwt>
<pdfrwt beam="1">  1        2 0.90850443E-01 0.12324991E+04</pdfrwt>
<pdfrwt beam="2">  1       -2 0.98937162E-01 0.12324991E+04</pdfrwt>
<totfact> 0.42186176E+01</totfact>
</mgrwt>
</event>
<event>
12    1  0.1532786E-007  0.3383265E+04  0.7818608E-02  0.8142026E-01
         -2   -1    0    0    0  501 -0.00000000000E+00  0.00000000000E+00  0.10745509556E+04  0.10745509556E+04  0.00000000000E+00 0.  1.
          2   -1    0    0  501    0  0.00000000000E+00 -0.00000000000E+00 -0.26630855042E+04  0.26630855042E+04  0.00000000000E+00 0. -1.
         23    2    1    2    0    0 -0.36345527825E+03 -0.13613483996E+04 -0.15120773055E+04  0.20687895921E+04  0.90240757955E+02 0.  0.
        254    2    1    2    0    0  0.36345527825E+03  0.13613483996E+04 -0.76457243122E+02  0.16688468677E+04  0.89097415978E+03 0.  0.
        -24    2    4    4    0    0 -0.99922208567E+02  0.16613503694E+03 -0.29947276320E+03  0.36516877332E+03  0.77967934717E+02 0.  0.
         24    2    4    4    0    0  0.46337748682E+03  0.11952133627E+04  0.22301552008E+03  0.13036780944E+04  0.81160174849E+02 0.  0.
         13    1    3    3    0    0 -0.11487021470E+03 -0.50078988849E+03 -0.60965493682E+03  0.79728590896E+03  0.00000000000E+00 0. -1.
        -13    1    3    3    0    0 -0.24858506355E+03 -0.86055851112E+03 -0.90242236864E+03  0.12715036832E+04  0.00000000000E+00 0.  1.
          2    1    6    6  502    0  0.10911661683E+03  0.37546670406E+03  0.52237623251E+02  0.39447490568E+03  0.00000000000E+00 0. -1.
          1    1    5    5  503    0 -0.29842867530E+02  0.63090288663E+02 -0.17778261243E+03  0.19099120019E+03  0.00000000000E+00 0. -1.
         -4    1    5    5    0  503 -0.70079341038E+02  0.10304474828E+03 -0.12169015077E+03  0.17417757314E+03  0.00000000000E+00 0.  1.
         -1    1    6    6    0  502  0.35426086998E+03  0.81974665860E+03  0.17077789683E+03  0.90920318869E+03  0.00000000000E+00 0.  1.
<mgrwt>
<rscale>  0 0.33832653E+04</rscale>
<asrwt>0</asrwt>
<pdfrwt beam="1">  1        2 0.40970546E+00 0.33832653E+04</pdfrwt>
<pdfrwt beam="2">  1       -2 0.16531553E+00 0.33832653E+04</pdfrwt>
<totfact> 0.53347482E-01</totfact>
</mgrwt>
</event>
<event>
12    1  0.1532786E-007  0.1440493E+04  0.7818608E-02  0.8925018E-01
         -2   -1    0    0    0  501 -0.00000000000E+00  0.00000000000E+00  0.11580313803E+03  0.11580313803E+03  0.00000000000E+00 0.  1.
          2   -1    0    0  501    0  0.00000000000E+00 -0.00000000000E+00 -0.44796262228E+04  0.44796262228E+04  0.00000000000E+00 0. -1.
         23    2    1    2    0    0 -0.45124028021E+02 -0.32111262199E+02 -0.26241128294E+04  0.26262094086E+04  0.89108950105E+02 0.  0.
        254    2    1    2    0    0  0.45124028021E+02  0.32111262199E+02 -0.17397102554E+04  0.19692199523E+04  0.92096044257E+03 0.  0.
        -24    2    4    4    0    0  0.16655209851E+03  0.40005579722E+03 -0.49265121792E+03  0.66089451837E+03  0.79322755159E+02 0.  0.
         24    2    4    4    0    0 -0.12142807049E+03 -0.36794453502E+03 -0.12470590374E+04  0.13083254339E+04  0.80195018579E+02 0.  0.
         13    1    3    3    0    0 -0.43124138247E+02 -0.10724199986E+02 -0.24892524213E+04  0.24896490348E+04  0.00000000000E+00 0. -1.
        -13    1    3    3    0    0 -0.19998897735E+01 -0.21387062212E+02 -0.13486040819E+03  0.13656037378E+03  0.00000000000E+00 0.  1.
          2    1    6    6  502    0 -0.10985438747E+02 -0.26032197415E+02 -0.18471804207E+03  0.18686655729E+03  0.00000000000E+00 0. -1.
          3    1    5    5  503    0  0.46862235234E+02  0.21573886530E+03 -0.24585132634E+03  0.33042730177E+03  0.00000000000E+00 0. -1.
         -4    1    5    5    0  503  0.11968986328E+03  0.18431693192E+03 -0.24679989158E+03  0.33046721660E+03  0.00000000000E+00 0.  1.
         -1    1    6    6    0  502 -0.11044263174E+03 -0.34191233760E+03 -0.10623409954E+04  0.11214588766E+04  0.00000000000E+00 0.  1.
<mgrwt>
<rscale>  0 0.14404927E+04</rscale>
<asrwt>0</asrwt>
<pdfrwt beam="1">  1        2 0.68917334E+00 0.14404927E+04</pdfrwt>
<pdfrwt beam="2">  1       -2 0.17815865E-01 0.14404927E+04</pdfrwt>
<totfact> 0.33989749E+00</totfact>
</mgrwt>
</event>
<event>
12    1  0.1532786E-007  0.1210891E+04  0.7818608E-02  0.9103377E-01
          1   -1    0    0  501    0  0.00000000000E+00  0.00000000000E+00  0.71412319348E+03  0.71412319348E+03  0.00000000000E+00 0. -1.
         -1   -1    0    0    0  501 -0.00000000000E+00 -0.00000000000E+00 -0.51330675769E+03  0.51330675769E+03  0.00000000000E+00 0.  1.
         23    2    1    2    0    0 -0.25178350343E+03 -0.53212926708E+01  0.28591892703E+02  0.26935158584E+03  0.91156632857E+02 0.  0.
        254    2    1    2    0    0  0.25178350343E+03  0.53212926708E+01  0.17222454308E+03  0.95807836533E+03  0.90820130594E+03 0.  0.
        -24    2    4    4    0    0  0.13100910896E+03 -0.28812193883E+03 -0.25880398745E+03  0.41694137088E+03  0.81749401016E+02 0.  0.
         24    2    4    4    0    0  0.12077439446E+03  0.29344323150E+03  0.43102853053E+03  0.54113699444E+03  0.79676019916E+02 0.  0.
         11    1    3    3    0    0 -0.40045587971E+02 -0.80314203634E+01 -0.28777044055E+02  0.49962697020E+02  0.00000000000E+00 0.  1.
        -11    1    3    3    0    0 -0.21173791546E+03  0.27101276926E+01  0.57368936758E+02  0.21938888882E+03  0.00000000000E+00 0. -1.
          2    1    6    6  502    0  0.15984493981E+02  0.27614449962E+01  0.10615054117E+02  0.19385793773E+02  0.00000000000E+00 0. -1.
          1    1    5    5  503    0 -0.22142259287E+01 -0.77477623787E+02 -0.56110590529E+02  0.95687425264E+02  0.00000000000E+00 0. -1.
         -2    1    5    5    0  503  0.13322333489E+03 -0.21064431504E+03 -0.20269339692E+03  0.32125394562E+03  0.00000000000E+00 0.  1.
         -1    1    6    6    0  502  0.10478990048E+03  0.29068178650E+03  0.42041347642E+03  0.52175120067E+03  0.00000000000E+00 0.  1.
<mgrwt>
<rscale>  0 0.12108910E+04</rscale>
<asrwt>0</asrwt>
<pdfrwt beam="1">  1        1 0.10986511E+00 0.12108910E+04</pdfrwt>
<pdfrwt beam="2">  1       -1 0.78970271E-01 0.12108910E+04</pdfrwt>
<totfact> 0.41924065E+01</totfact>
</mgrwt>
</event>
<event>
12    1  0.1532786E-007  0.1528188E+04  0.7818608E-02  0.8865921E-01
          2   -1    0    0  501    0  0.00000000000E+00  0.00000000000E+00  0.14337989603E+04  0.14337989603E+04  0.00000000000E+00 0. -1.
         -2   -1    0    0    0  501 -0.00000000000E+00 -0.00000000000E+00 -0.40719794736E+03  0.40719794736E+03  0.00000000000E+00 0.  1.
         23    2    1    2    0    0 -0.14375661343E+03 -0.46690868639E+03  0.37618614628E+03  0.62315124413E+03  0.90176333243E+02 0.  0.
        254    2    1    2    0    0  0.14375661343E+03  0.46690868639E+03  0.65041486665E+03  0.12178456635E+04  0.90633265199E+03 0.  0.
        -24    2    4    4    0    0 -0.19876232743E+03  0.20860439887E+03  0.71627772040E+03  0.77622324088E+03  0.80290029960E+02 0.  0.
         24    2    4    4    0    0  0.34251894086E+03  0.25830428752E+03 -0.65862853756E+02  0.44162242263E+03  0.81560522713E+02 0.  0.
         13    1    3    3    0    0 -0.15282849725E+02 -0.86299033880E+01  0.29495766846E+02  0.34322601737E+02  0.00000000000E+00 0.  1.
        -13    1    3    3    0    0 -0.12847376371E+03 -0.45827878300E+03  0.34669037943E+03  0.58882864239E+03  0.00000000000E+00 0. -1.
          2    1    6    6  502    0  0.28153591788E+03  0.17991624462E+03 -0.73190256534E+02  0.34203675502E+03  0.00000000000E+00 0. -1.
          3    1    5    5  503    0 -0.12216338541E+03  0.10742641490E+03  0.30311065985E+03  0.34400639452E+03  0.00000000000E+00 0. -1.
         -4    1    5    5    0  503 -0.76598942019E+02  0.10117798397E+03  0.41316706055E+03  0.43221684637E+03  0.00000000000E+00 0.  1.
         -1    1    6    6    0  502  0.60983022984E+02  0.78388042898E+02  0.73274027784E+01  0.99585667609E+02  0.00000000000E+00 0.  1.
<mgrwt>
<rscale>  0 0.15281885E+04</rscale>
<asrwt>0</asrwt>
<pdfrwt beam="1">  1        2 0.22058445E+00 0.15281885E+04</pdfrwt>
<pdfrwt beam="2">  1       -2 0.62645839E-01 0.15281885E+04</pdfrwt>
<totfact> 0.31528876E+01</totfact>
</mgrwt>
</event>
<event>
12    1  0.1532786E-007  0.1334787E+04  0.7818608E-02  0.9002425E-01
         -2   -1    0    0    0  501 -0.00000000000E+00  0.00000000000E+00  0.28945322869E+03  0.28945322869E+03  0.00000000000E+00 0.  1.
          2   -1    0    0  501    0  0.00000000000E+00 -0.00000000000E+00 -0.15388123618E+04  0.15388123618E+04  0.00000000000E+00 0. -1.
         23    2    1    2    0    0 -0.25672515724E+02  0.15024857240E+03 -0.77870967554E+03  0.79894215622E+03  0.93199241578E+02 0.  0.
        254    2    1    2    0    0  0.25672515724E+02 -0.15024857240E+03 -0.47064945756E+03  0.10293234343E+04  0.90264173894E+03 0.  0.
        -24    2    4    4    0    0  0.23941776935E+03 -0.26981289249E+03 -0.62804018080E+03  0.72877191813E+03  0.80957857664E+02 0.  0.
         24    2    4    4    0    0 -0.21374525363E+03  0.11956432009E+03  0.15739072324E+03  0.30055151614E+03  0.74677399573E+02 0.  0.
         11    1    3    3    0    0  0.15001202614E+02  0.67749081396E+01 -0.22185490933E+03  0.22246468541E+03  0.00000000000E+00 0. -1.
        -11    1    3    3    0    0 -0.40673718339E+02  0.14347366426E+03 -0.55685476621E+03  0.57647747081E+03  0.00000000000E+00 0.  1.
          4    1    6    6  502    0 -0.17113472359E+02  0.34787826746E+01  0.40338109721E+02  0.43956068534E+02  0.00000000000E+00 0. -1.
          1    1    5    5  503    0  0.47770590009E+02 -0.15910167278E+02 -0.10783595009E+03  0.11901157433E+03  0.00000000000E+00 0. -1.
         -2    1    5    5    0  503  0.19164717934E+03 -0.25390272522E+03 -0.52020423071E+03  0.60976034380E+03  0.00000000000E+00 0.  1.
         -3    1    6    6    0  502 -0.19663178127E+03  0.11608553742E+03  0.11705261352E+03  0.25659544761E+03  0.00000000000E+00 0.  1.
<mgrwt>
<rscale>  0 0.13347872E+04</rscale>
<asrwt>0</asrwt>
<pdfrwt beam="1">  1        2 0.23674036E+00 0.13347872E+04</pdfrwt>
<pdfrwt beam="2">  1       -2 0.44531266E-01 0.13347872E+04</pdfrwt>
<totfact> 0.56424124E+01</totfact>
</mgrwt>
</event>
<event>
12    1  0.1532786E-007  0.1418893E+04  0.7818608E-02  0.8940255E-01
         -2   -1    0    0    0  501 -0.00000000000E+00  0.00000000000E+00  0.57682679444E+03  0.57682679444E+03  0.00000000000E+00 0. -1.
          2   -1    0    0  501    0  0.00000000000E+00 -0.00000000000E+00 -0.87255769794E+03  0.87255769794E+03  0.00000000000E+00 0.  1.
         23    2    1    2    0    0  0.14812123490E+03 -0.26064272909E+03 -0.38169982257E+03  0.49392633738E+03  0.91618446573E+02 0.  0.
        254    2    1    2    0    0 -0.14812123490E+03  0.26064272909E+03  0.85968919067E+02  0.95545815501E+03  0.90312518427E+03 0.  0.
        -24    2    4    4    0    0 -0.50096208773E+03  0.16847583278E+03 -0.91067032920E+02  0.54300010922E+03  0.84904620391E+02 0.  0.
         24    2    4    4    0    0  0.35284085282E+03  0.92166896310E+02  0.17703595199E+03  0.41245804578E+03  0.76082238642E+02 0.  0.
         13    1    3    3    0    0  0.71456258884E+02 -0.16197776288E+03 -0.28672942613E+03  0.33698153720E+03  0.00000000000E+00 0.  1.
        -13    1    3    3    0    0  0.76664976019E+02 -0.98664966207E+02 -0.94970396431E+02  0.15694480018E+03  0.00000000000E+00 0. -1.
          2    1    6    6  502    0 -0.28138777489E+01  0.36183661229E+01 -0.14342504301E+01  0.48028695257E+01  0.00000000000E+00 0. -1.
          1    1    5    5  503    0 -0.11790344854E+03  0.57776355262E+02  0.99330534560E+01  0.13167382411E+03  0.00000000000E+00 0. -1.
         -2    1    5    5    0  503 -0.38305863918E+03  0.11069947751E+03 -0.10100008638E+03  0.41132628511E+03  0.00000000000E+00 0.  1.
         -1    1    6    6    0  502  0.35565473057E+03  0.88548530187E+02  0.17847020242E+03  0.40765517626E+03  0.00000000000E+00 0.  1.
<mgrwt>
<rscale>  0 0.14188935E+04</rscale>
<asrwt>0</asrwt>
<pdfrwt beam="1">  1        2 0.13423965E+00 0.14188935E+04</pdfrwt>
<pdfrwt beam="2">  1       -2 0.88742584E-01 0.14188935E+04</pdfrwt>
<totfact> 0.32494879E+01</totfact>
</mgrwt>
</event>
<event>
12    1  0.1532786E-007  0.1837911E+04  0.7818608E-02  0.8686395E-01
         -2   -1    0    0    0  501 -0.00000000000E+00  0.00000000000E+00  0.43678371499E+03  0.43678371499E+03  0.00000000000E+00 0. -1.
          2   -1    0    0  501    0  0.00000000000E+00 -0.00000000000E+00 -0.19334036631E+04  0.19334036631E+04  0.00000000000E+00 0.  1.
         23    2    1    2    0    0 -0.46096795363E+03 -0.22969562999E+03 -0.87743947670E+03  0.10214200712E+04  0.90262893072E+02 0.  0.
        254    2    1    2    0    0  0.46096795363E+03  0.22969562999E+03 -0.61918047146E+03  0.13487673069E+04  0.10819137005E+04 0.  0.
        -24    2    4    4    0    0  0.55463432954E+03  0.44277400851E+03 -0.35332460469E+02  0.71493845634E+03  0.78870472735E+02 0.  0.
         24    2    4    4    0    0 -0.93666375915E+02 -0.21307837852E+03 -0.58384801099E+03  0.63382885061E+03  0.81760177049E+02 0.  0.
         11    1    3    3    0    0 -0.64820003700E+02 -0.60203168149E+01 -0.77958081764E+02  0.10156446035E+03  0.00000000000E+00 0. -1.
        -11    1    3    3    0    0 -0.39614794993E+03 -0.22367531318E+03 -0.79948139493E+03  0.91985561084E+03  0.00000000000E+00 0.  1.
          4    1    6    6  502    0 -0.77313293832E+02 -0.21442306936E+03 -0.56232076798E+03  0.60676127445E+03  0.00000000000E+00 0. -1.
          1    1    5    5  503    0  0.23426751745E+03  0.22964041218E+03 -0.37165750217E+02  0.33014736350E+03  0.00000000000E+00 0. -1.
         -4    1    5    5    0  503  0.32036681209E+03  0.21313359633E+03  0.18332897483E+01  0.38479109284E+03  0.00000000000E+00 0.  1.
         -3    1    6    6    0  502 -0.16353082083E+02  0.13446908379E+01 -0.21527243018E+02  0.27067576157E+02  0.00000000000E+00 0.  1.
<mgrwt>
<rscale>  0 0.18379110E+04</rscale>
<asrwt>0</asrwt>
<pdfrwt beam="1">  1        2 0.29744671E+00 0.18379110E+04</pdfrwt>
<pdfrwt beam="2">  1       -2 0.67197496E-01 0.18379110E+04</pdfrwt>
<totfact> 0.13913395E+01</totfact>
</mgrwt>
</event>
<event>
12    1  0.1532786E-007  0.3275258E+04  0.7818608E-02  0.8169220E-01
          1   -1    0    0  501    0  0.00000000000E+00  0.00000000000E+00  0.13417767202E+04  0.13417767202E+04  0.00000000000E+00 0. -1.
         -1   -1    0    0    0  501 -0.00000000000E+00 -0.00000000000E+00 -0.19987142291E+04  0.19987142291E+04  0.00000000000E+00 0.  1.
         23    2    1    2    0    0  0.12001035772E+03  0.23232371321E+03  0.12034536641E+04  0.12352596202E+04  0.95858301859E+02 0.  0.
        254    2    1    2    0    0 -0.12001035772E+03 -0.23232371321E+03 -0.18603911730E+04  0.21052313290E+04  0.95003517739E+03 0.  0.
        -24    2    4    4    0    0  0.10595554309E+03  0.11535445446E+03  0.20366248680E+02  0.17770088887E+03  0.81422322142E+02 0.  0.
         24    2    4    4    0    0 -0.22596590082E+03 -0.34767816767E+03 -0.18807574217E+04  0.19275304401E+04  0.78641094454E+02 0.  0.
         11    1    3    3    0    0  0.43207805289E+02  0.17601688299E+03  0.85702878792E+03  0.87598356198E+03  0.00000000000E+00 0. -1.
        -11    1    3    3    0    0  0.76802552434E+02  0.56306830218E+02  0.34642487619E+03  0.35927605825E+03  0.00000000000E+00 0.  1.
          2    1    6    6  502    0 -0.35141467344E+02 -0.10421402868E+03 -0.59558355857E+03  0.60565275673E+03  0.00000000000E+00 0. -1.
          1    1    5    5  503    0  0.85806187572E+02  0.97459300700E+02  0.48621846173E+02  0.13865461061E+03  0.00000000000E+00 0. -1.
         -2    1    5    5    0  503  0.20149355521E+02  0.17895153765E+02 -0.28255597493E+02  0.39046278259E+02  0.00000000000E+00 0.  1.
         -1    1    6    6    0  502 -0.19082443347E+03 -0.24346413899E+03 -0.12851738631E+04  0.13218776834E+04  0.00000000000E+00 0.  1.
<mgrwt>
<rscale>  0 0.32752577E+04</rscale>
<asrwt>0</asrwt>
<pdfrwt beam="1">  1        1 0.20642719E+00 0.32752577E+04</pdfrwt>
<pdfrwt beam="2">  1       -1 0.30749450E+00 0.32752577E+04</pdfrwt>
<totfact> 0.20726826E-01</totfact>
</mgrwt>
</event>
<event>
12    1  0.1532786E-007  0.2837502E+04  0.7818608E-02  0.8291719E-01
          1   -1    0    0  501    0  0.00000000000E+00  0.00000000000E+00  0.85941322810E+03  0.85941322810E+03  0.00000000000E+00 0. -1.
         -1   -1    0    0    0  501 -0.00000000000E+00 -0.00000000000E+00 -0.23421258799E+04  0.23421258799E+04  0.00000000000E+00 0.  1.
         23    2    1    2    0    0  0.10411277530E+04 -0.31581454885E+03 -0.14138056809E+04  0.17863858126E+04  0.92962038959E+02 0.  0.
        254    2    1    2    0    0 -0.10411277530E+04  0.31581454885E+03 -0.68906970862E+02  0.14151532954E+04  0.90234408713E+03 0.  0.
        -24    2    4    4    0    0 -0.78193465952E+03  0.16499650548E+03  0.36438890837E+03  0.88205766388E+03  0.81245229335E+02 0.  0.
         24    2    4    4    0    0 -0.25919309346E+03  0.15081804337E+03 -0.43329587923E+03  0.53309563153E+03  0.80737175400E+02 0.  0.
         13    1    3    3    0    0  0.46184155496E+03 -0.12535444007E+03 -0.55034183099E+03  0.72930616922E+03  0.00000000000E+00 0. -1.
        -13    1    3    3    0    0  0.57928619802E+03 -0.19046010878E+03 -0.86346384995E+03  0.10570796434E+04  0.00000000000E+00 0.  1.
          2    1    6    6  502    0 -0.63642571691E+02  0.35076447843E+02 -0.17255036963E+03  0.18722810735E+03  0.00000000000E+00 0. -1.
          1    1    5    5  503    0 -0.33739399216E+03  0.50742326578E+02  0.19384135678E+03  0.39240790162E+03  0.00000000000E+00 0. -1.
         -4    1    5    5    0  503 -0.44454066736E+03  0.11425417890E+03  0.17054755159E+03  0.48964976227E+03  0.00000000000E+00 0.  1.
         -1    1    6    6    0  502 -0.19555052177E+03  0.11574159553E+03 -0.26074550960E+03  0.34586752417E+03  0.00000000000E+00 0.  1.
<mgrwt>
<rscale>  0 0.28375017E+04</rscale>
<asrwt>0</asrwt>
<pdfrwt beam="1">  1        1 0.13221742E+00 0.28375017E+04</pdfrwt>
<pdfrwt beam="2">  1       -1 0.36032705E+00 0.28375017E+04</pdfrwt>
<totfact> 0.22504843E-01</totfact>
</mgrwt>
</event>
<event>
12    1  0.1532786E-007  0.1068109E+04  0.7818608E-02  0.9236845E-01
          1   -1    0    0  501    0  0.00000000000E+00  0.00000000000E+00  0.22616920739E+04  0.22616920739E+04  0.00000000000E+00 0.  1.
         -1   -1    0    0    0  501 -0.00000000000E+00 -0.00000000000E+00 -0.12610645802E+03  0.12610645802E+03  0.00000000000E+00 0. -1.
         23    2    1    2    0    0  0.97896677742E+02  0.29098542011E+01  0.28772338134E+03  0.32564793550E+03  0.11691709441E+03 0.  0.
        254    2    1    2    0    0 -0.97896677742E+02 -0.29098542011E+01  0.18478622345E+04  0.20621505964E+04  0.91009780663E+03 0.  0.
        -24    2    4    4    0    0 -0.17987943398E+03  0.41709625668E+03  0.11617574524E+04  0.12500209249E+04  0.80907579528E+02 0.  0.
         24    2    4    4    0    0  0.81982756242E+02 -0.42000611088E+03  0.68610478214E+03  0.81212967148E+03  0.75422315853E+02 0.  0.
         13    1    3    3    0    0  0.88327152112E+01  0.43394082647E+02  0.41459835625E+02  0.60662848901E+02  0.00000000000E+00 0. -1.
        -13    1    3    3    0    0  0.89063962531E+02 -0.40484228446E+02  0.24626354571E+03  0.26498508660E+03  0.00000000000E+00 0.  1.
          4    1    6    6  502    0 -0.64014462328E+01 -0.59217664855E+01  0.30185648448E+02  0.31420044628E+02  0.00000000000E+00 0. -1.
          1    1    5    5  503    0 -0.63382520094E+02  0.24394571293E+03  0.60255856585E+03  0.65314904883E+03  0.00000000000E+00 0. -1.
         -2    1    5    5    0  503 -0.11649691389E+03  0.17315054375E+03  0.55919888652E+03  0.59687187606E+03  0.00000000000E+00 0.  1.
         -3    1    6    6    0  502  0.88384202475E+02 -0.41408434440E+03  0.65591913369E+03  0.78070962685E+03  0.00000000000E+00 0.  1.
<mgrwt>
<rscale>  0 0.10681086E+04</rscale>
<asrwt>0</asrwt>
<pdfrwt beam="1">  1        1 0.34795260E+00 0.10681086E+04</pdfrwt>
<pdfrwt beam="2">  1       -1 0.19400995E-01 0.10681086E+04</pdfrwt>
<totfact> 0.42764038E+01</totfact>
</mgrwt>
</event>
<event>
12    1  0.1532786E-007  0.1588187E+04  0.7818608E-02  0.8827838E-01
          1   -1    0    0  501    0  0.00000000000E+00  0.00000000000E+00  0.15305777458E+04  0.15305777458E+04  0.00000000000E+00 0. -1.
         -1   -1    0    0    0  501 -0.00000000000E+00 -0.00000000000E+00 -0.41199134580E+03  0.41199134580E+03  0.00000000000E+00 0.  1.
         23    2    1    2    0    0 -0.35923047436E+03 -0.20806245124E+03 -0.61950204381E+02  0.42773139039E+03  0.82339523779E+02 0.  0.
        254    2    1    2    0    0  0.35923047436E+03  0.20806245124E+03  0.11805366044E+04  0.15148377012E+04  0.85365688036E+03 0.  0.
        -24    2    4    4    0    0 -0.89403545052E+02 -0.24223080976E+03  0.56542287737E+03  0.62689454648E+03  0.81393999038E+02 0.  0.
         24    2    4    4    0    0  0.44863401941E+03  0.45029326100E+03  0.61511372701E+03  0.88794315473E+03  0.77728016783E+02 0.  0.
         13    1    3    3    0    0 -0.33872203579E+03 -0.20985232269E+03 -0.44863880637E+02  0.40097803263E+03  0.00000000000E+00 0.  1.
        -13    1    3    3    0    0 -0.20508438570E+02  0.17898714425E+01 -0.17086323744E+02  0.26753357760E+02  0.00000000000E+00 0. -1.
          2    1    6    6  502    0  0.75330432729E+02  0.10548920223E+03  0.94426744095E+02  0.16037161807E+03  0.00000000000E+00 0. -1.
          3    1    5    5  503    0 -0.91607655850E+02 -0.17087649017E+03  0.35221227587E+03  0.40205002770E+03  0.00000000000E+00 0. -1.
         -4    1    5    5    0  503  0.22041107981E+01 -0.71354319592E+02  0.21321060150E+03  0.22484451877E+03  0.00000000000E+00 0.  1.
         -1    1    6    6    0  502  0.37330358668E+03  0.34480405878E+03  0.52068698291E+03  0.72757153666E+03  0.00000000000E+00 0.  1.
<mgrwt>
<rscale>  0 0.15881874E+04</rscale>
<asrwt>0</asrwt>
<pdfrwt beam="1">  1        1 0.23547350E+00 0.15881874E+04</pdfrwt>
<pdfrwt beam="2">  1       -1 0.63383285E-01 0.15881874E+04</pdfrwt>
<totfact> 0.15105890E+01</totfact>
</mgrwt>
</event>
<event>
12    1  0.1532786E-007  0.1633086E+04  0.7818608E-02  0.8800476E-01
         -1   -1    0    0    0  501 -0.00000000000E+00  0.00000000000E+00  0.22946970508E+03  0.22946970508E+03  0.00000000000E+00 0.  1.
          1   -1    0    0  501    0  0.00000000000E+00 -0.00000000000E+00 -0.29055796453E+04  0.29055796453E+04  0.00000000000E+00 0. -1.
         23    2    1    2    0    0 -0.29783247305E+03 -0.15844145506E+03 -0.17217819623E+04  0.17567883758E+04  0.89243458727E+02 0.  0.
        254    2    1    2    0    0  0.29783247305E+03  0.15844145506E+03 -0.95432797794E+03  0.13782609746E+04  0.93544296885E+03 0.  0.
        -24    2    4    4    0    0  0.30394476143E+01 -0.21261877816E+03  0.77664078899E+02  0.23987782559E+03  0.79332710704E+02 0.  0.
         24    2    4    4    0    0  0.29479302544E+03  0.37106023323E+03 -0.10319920568E+04  0.11383831490E+04  0.79498201737E+02 0.  0.
         11    1    3    3    0    0  0.44787996965E+01  0.27580453046E+01 -0.13475129486E+02  0.14465323200E+02  0.00000000000E+00 0.  1.
        -11    1    3    3    0    0 -0.30231127275E+03 -0.16119950037E+03 -0.17083068328E+04  0.17423230526E+04  0.00000000000E+00 0. -1.
          4    1    6    6  502    0  0.11043696829E+03  0.88564538015E+02 -0.34937523112E+03  0.37696558660E+03  0.00000000000E+00 0. -1.
          3    1    5    5  503    0 -0.33048488442E+01 -0.58835461243E+02  0.61406377754E+02  0.85107442415E+02  0.00000000000E+00 0. -1.
         -2    1    5    5    0  503  0.63442964585E+01 -0.15378331692E+03  0.16257701145E+02  0.15477038317E+03  0.00000000000E+00 0.  1.
         -3    1    6    6    0  502  0.18435605715E+03  0.28249569521E+03 -0.68261682572E+03  0.76141756243E+03  0.00000000000E+00 0.  1.
<mgrwt>
<rscale>  0 0.16330860E+04</rscale>
<asrwt>0</asrwt>
<pdfrwt beam="1">  1        1 0.44701228E+00 0.16330860E+04</pdfrwt>
<pdfrwt beam="2">  1       -1 0.35303030E-01 0.16330860E+04</pdfrwt>
<totfact> 0.51382939E+00</totfact>
</mgrwt>
</event>
<event>
12    1  0.1532786E-007  0.1653427E+04  0.7818608E-02  0.8788382E-01
          2   -1    0    0  501    0  0.00000000000E+00  0.00000000000E+00  0.17438010219E+04  0.17438010219E+04  0.00000000000E+00 0. -1.
         -2   -1    0    0    0  501 -0.00000000000E+00 -0.00000000000E+00 -0.39193408819E+03  0.39193408819E+03  0.00000000000E+00 0.  1.
         23    2    1    2    0    0  0.39130793345E+03  0.30138059732E+03  0.90105106308E+02  0.51052878717E+03  0.92566457865E+02 0.  0.
        254    2    1    2    0    0 -0.39130793345E+03 -0.30138059732E+03  0.12617618275E+04  0.16252063230E+04  0.89738537974E+03 0.  0.
        -24    2    4    4    0    0  0.24903532614E+02 -0.39156811452E+03  0.10877281583E+04  0.11590689976E+04  0.79640571564E+02 0.  0.
         24    2    4    4    0    0 -0.41621146607E+03  0.90187517202E+02  0.17403366918E+03  0.46613732537E+03  0.75036759978E+02 0.  0.
         11    1    3    3    0    0  0.38283387475E+02  0.71517891091E+02  0.18851264113E+02  0.83281430472E+02  0.00000000000E+00 0. -1.
        -11    1    3    3    0    0  0.35302454598E+03  0.22986270623E+03  0.71253842196E+02  0.42724735670E+03  0.00000000000E+00 0.  1.
          2    1    6    6  502    0 -0.30855552415E+03  0.36234960847E+02  0.10874356253E+03  0.32915747943E+03  0.00000000000E+00 0. -1.
          3    1    5    5  503    0  0.27583203772E+02 -0.22195055906E+03  0.72334251686E+03  0.75713095333E+03  0.00000000000E+00 0. -1.
         -4    1    5    5    0  503 -0.26796711580E+01 -0.16961755545E+03  0.36438564142E+03  0.40193804427E+03  0.00000000000E+00 0.  1.
         -1    1    6    6    0  502 -0.10765594191E+03  0.53952556355E+02  0.65290106650E+02  0.13697984594E+03  0.00000000000E+00 0.  1.
<mgrwt>
<rscale>  0 0.16534268E+04</rscale>
<asrwt>0</asrwt>
<pdfrwt beam="1">  1        2 0.26827707E+00 0.16534268E+04</pdfrwt>
<pdfrwt beam="2">  1       -2 0.60297553E-01 0.16534268E+04</pdfrwt>
<totfact> 0.22691711E+01</totfact>
</mgrwt>
</event>
<event>
12    1  0.1532786E-007  0.2326736E+04  0.7818608E-02  0.8467454E-01
         -1   -1    0    0    0  501 -0.00000000000E+00  0.00000000000E+00  0.11742360035E+04  0.11742360035E+04  0.00000000000E+00 0.  1.
          1   -1    0    0  501    0  0.00000000000E+00 -0.00000000000E+00 -0.11526005541E+04  0.11526005541E+04  0.00000000000E+00 0. -1.
         23    2    1    2    0    0 -0.22966559754E+03 -0.76803153654E+03  0.58567609624E+03  0.99675985138E+03  0.88853721360E+02 0.  0.
        254    2    1    2    0    0  0.22966559754E+03  0.76803153654E+03 -0.56404064683E+03  0.13300767062E+04  0.89907923188E+03 0.  0.
        -24    2    4    4    0    0  0.27054874974E+03  0.76346952410E+03 -0.59254927951E+02  0.81596276477E+03  0.78751170024E+02 0.  0.
         24    2    4    4    0    0 -0.40883152201E+02  0.45620124354E+01 -0.50478571888E+03  0.51411394140E+03  0.88387095567E+02 0.  0.
         11    1    3    3    0    0 -0.60918760845E+02 -0.33359268434E+03  0.21810564528E+03  0.40319380820E+03  0.00000000000E+00 0. -1.
        -11    1    3    3    0    0 -0.16874683669E+03 -0.43443885220E+03  0.36757045096E+03  0.59356604318E+03  0.00000000000E+00 0.  1.
          4    1    6    6  502    0  0.11631479729E+02 -0.73645473197E+01 -0.11616039330E+02  0.18012780119E+02  0.00000000000E+00 0. -1.
          3    1    5    5  503    0  0.67773870024E+02  0.16890903444E+03  0.18698422049E+02  0.18295679917E+03  0.00000000000E+00 0. -1.
         -4    1    5    5    0  503  0.20277487971E+03  0.59456048966E+03 -0.77953350000E+02  0.63300596560E+03  0.00000000000E+00 0.  1.
         -3    1    6    6    0  502 -0.52514631930E+02  0.11926559755E+02 -0.49316967955E+03  0.49610116128E+03  0.00000000000E+00 0.  1.
<mgrwt>
<rscale>  0 0.23267360E+04</rscale>
<asrwt>0</asrwt>
<pdfrwt beam="1">  1        1 0.17732316E+00 0.23267360E+04</pdfrwt>
<pdfrwt beam="2">  1       -1 0.18065169E+00 0.23267360E+04</pdfrwt>
<totfact> 0.21502043E+00</totfact>
</mgrwt>
</event>
<event>
12    1  0.1532786E-007  0.3658893E+04  0.7818608E-02  0.8077133E-01
         -2   -1    0    0    0  501 -0.00000000000E+00  0.00000000000E+00  0.12202969921E+04  0.12202969921E+04  0.00000000000E+00 0.  1.
          2   -1    0    0  501    0  0.00000000000E+00 -0.00000000000E+00 -0.27426725708E+04  0.27426725708E+04  0.00000000000E+00 0. -1.
         23    2    1    2    0    0  0.25222804510E+03 -0.13421163473E+04  0.41125588813E+03  0.14292643349E+04  0.93647514963E+02 0.  0.
        254    2    1    2    0    0 -0.25222804510E+03  0.13421163473E+04 -0.19336314669E+04  0.25337052281E+04  0.90323654546E+03 0.  0.
        -24    2    4    4    0    0 -0.52665652042E+03  0.80456400848E+03 -0.82726264979E+03  0.12709698622E+04  0.79439061931E+02 0.  0.
         24    2    4    4    0    0  0.27442847532E+03  0.53755233878E+03 -0.11063688171E+04  0.12627353660E+04  0.78582059342E+02 0.  0.
         13    1    3    3    0    0  0.16689897032E+03 -0.84359187320E+03  0.30515217986E+03  0.91248033825E+03  0.00000000000E+00 0. -1.
        -13    1    3    3    0    0  0.85329074780E+02 -0.49852447406E+03  0.10610370827E+03  0.51678399661E+03  0.00000000000E+00 0.  1.
          2    1    6    6  502    0  0.27583583455E+03  0.52684381110E+03 -0.10629696673E+04  0.12180124476E+04  0.00000000000E+00 0. -1.
          3    1    5    5  503    0 -0.41773666784E+03  0.57512416027E+03 -0.61659906586E+03  0.94099209954E+03  0.00000000000E+00 0. -1.
         -2    1    5    5    0  503 -0.10891985258E+03  0.22943984821E+03 -0.21066358393E+03  0.32997776262E+03  0.00000000000E+00 0.  1.
         -1    1    6    6    0  502 -0.14073592271E+01  0.10708527684E+02 -0.43399149777E+02  0.44722918358E+02  0.00000000000E+00 0.  1.
<mgrwt>
<rscale>  0 0.36588933E+04</rscale>
<asrwt>0</asrwt>
<pdfrwt beam="1">  1        2 0.42194962E+00 0.36588933E+04</pdfrwt>
<pdfrwt beam="2">  1       -2 0.18773800E+00 0.36588933E+04</pdfrwt>
<totfact> 0.32594974E-01</totfact>
</mgrwt>
</event>
<event>
12    1  0.1532786E-007  0.1925108E+04  0.7818608E-02  0.8642459E-01
          1   -1    0    0  501    0  0.00000000000E+00  0.00000000000E+00  0.13968653448E+04  0.13968653448E+04  0.00000000000E+00 0. -1.
         -1   -1    0    0    0  501 -0.00000000000E+00 -0.00000000000E+00 -0.66327776407E+03  0.66327776407E+03  0.00000000000E+00 0.  1.
         23    2    1    2    0    0 -0.19160027233E+03 -0.51967842784E+03 -0.24927307442E+03  0.61416175417E+03  0.91001439224E+02 0.  0.
        254    2    1    2    0    0  0.19160027233E+03  0.51967842784E+03  0.98286065517E+03  0.14459813547E+04  0.90447259659E+03 0.  0.
        -24    2    4    4    0    0  0.35669234806E+03  0.68932168646E+03  0.87849907909E+03  0.11750320722E+04  0.80906861153E+02 0.  0.
         24    2    4    4    0    0 -0.16509207573E+03 -0.16964325862E+03  0.10436157607E+03  0.27094928250E+03  0.80547789917E+02 0.  0.
         11    1    3    3    0    0 -0.20359949360E+02 -0.15596010856E+03 -0.93818416624E+02  0.18313923200E+03  0.00000000000E+00 0. -1.
        -11    1    3    3    0    0 -0.17124032297E+03 -0.36371831928E+03 -0.15545465779E+03  0.43102252217E+03  0.00000000000E+00 0.  1.
          2    1    6    6  502    0 -0.11912263060E+03 -0.77309373502E+02  0.86469796387E+02  0.16626474683E+03  0.00000000000E+00 0. -1.
          3    1    5    5  503    0  0.40241415462E+02  0.39927589106E+02  0.47703281484E+02  0.74089047467E+02  0.00000000000E+00 0. -1.
         -4    1    5    5    0  503  0.31645093260E+03  0.64939409736E+03  0.83079579761E+03  0.11009430248E+04  0.00000000000E+00 0.  1.
         -1    1    6    6    0  502 -0.45969445129E+02 -0.92333885118E+02  0.17891779688E+02  0.10468453566E+03  0.00000000000E+00 0.  1.
<mgrwt>
<rscale>  0 0.19251075E+04</rscale>
<asrwt>0</asrwt>
<pdfrwt beam="1">  1        1 0.21490236E+00 0.19251075E+04</pdfrwt>
<pdfrwt beam="2">  1       -1 0.10204273E+00 0.19251075E+04</pdfrwt>
<totfact> 0.65587894E+00</totfact>
</mgrwt>
</event>
<event>
12    1  0.1621836E-007  0.2727087E+04  0.7818608E-02  0.8326269E-01
          2   -1    0    0  501    0  0.00000000000E+00  0.00000000000E+00  0.19941706866E+04  0.19941706866E+04  0.00000000000E+00 0. -1.
         -2   -1    0    0    0  501 -0.00000000000E+00 -0.00000000000E+00 -0.93234297764E+03  0.93234297764E+03  0.00000000000E+00 0.  1.
         23    2    1    2    0    0 -0.69559621201E+03  0.85682971039E+03 -0.52062200761E+02  0.11086632615E+04  0.91719746056E+02 0.  0.
        254    2    1    2    0    0  0.69559621201E+03 -0.85682971039E+03  0.11138899097E+04  0.18178504028E+04  0.91968370275E+03 0.  0.
        -24    2    4    4    0    0  0.60512095641E+03 -0.49830361119E+03  0.11939207987E+04  0.14304257900E+04  0.78696928481E+02 0.  0.
         24    2    4    4    0    0  0.90475255599E+02 -0.35852609919E+03 -0.80030888943E+02  0.38742461272E+03  0.83463475096E+02 0.  0.
         11    1    3    3    0    0 -0.98541224201E+02  0.81398698346E+02 -0.20905623088E+02  0.12951125834E+03  0.00000000000E+00 0.  1.
        -11    1    3    3    0    0 -0.59705498781E+03  0.77543101204E+03 -0.31156577673E+02  0.97915200313E+03  0.00000000000E+00 0. -1.
          2    1    6    6  502    0  0.37337257509E+02 -0.23092589288E+03 -0.85587513641E+02  0.24909046808E+03  0.00000000000E+00 0. -1.
          1    1    5    5  503    0  0.48067538140E+03 -0.42486765672E+03  0.93524041580E+03  0.11341234427E+04  0.00000000000E+00 0. -1.
         -2    1    5    5    0  503  0.12444557501E+03 -0.73435954473E+02  0.25868038286E+03  0.29630234732E+03  0.00000000000E+00 0.  1.
         -1    1    6    6    0  502  0.53137998091E+02 -0.12760020632E+03  0.55566246978E+01  0.13833414463E+03  0.00000000000E+00 0.  1.
<mgrwt>
<rscale>  0 0.27270871E+04</rscale>
<asrwt>0</asrwt>
<pdfrwt beam="1">  1        2 0.30679549E+00 0.27270871E+04</pdfrwt>
<pdfrwt beam="2">  1       -2 0.14343738E+00 0.27270871E+04</pdfrwt>
<totfact> 0.19865748E+00</totfact>
</mgrwt>
</event>
<event>
12    1  0.1532786E-007  0.2419993E+04  0.7818608E-02  0.8432056E-01
         -2   -1    0    0    0  501 -0.00000000000E+00  0.00000000000E+00  0.78051252097E+03  0.78051252097E+03  0.00000000000E+00 0.  1.
          2   -1    0    0  501    0  0.00000000000E+00 -0.00000000000E+00 -0.18758079484E+04  0.18758079484E+04  0.00000000000E+00 0. -1.
         23    2    1    2    0    0 -0.21377285251E+03  0.57477609655E+03 -0.13957501225E+04  0.15272238679E+04  0.90708019472E+02 0.  0.
        254    2    1    2    0    0  0.21377285251E+03 -0.57477609655E+03  0.30045469502E+03  0.11290966015E+04  0.89917724506E+03 0.  0.
        -24    2    4    4    0    0 -0.29585716043E+03 -0.38622027272E+03 -0.19101635571E+02  0.49348606271E+03  0.80411834762E+02 0.  0.
         24    2    4    4    0    0  0.50963001293E+03 -0.18855582382E+03  0.31955633059E+03  0.63561053875E+03  0.81292433622E+02 0.  0.
         13    1    3    3    0    0 -0.12170381123E+03  0.40223295361E+03 -0.10308689841E+04  0.11132358371E+04  0.00000000000E+00 0. -1.
        -13    1    3    3    0    0 -0.92069041275E+02  0.17254314294E+03 -0.36488113840E+03  0.41398803086E+03  0.00000000000E+00 0.  1.
          4    1    6    6  502    0  0.44491944532E+03 -0.15063594763E+03  0.30246420709E+03  0.55868515115E+03  0.00000000000E+00 0. -1.
          3    1    5    5  503    0 -0.29903057619E+03 -0.36705098276E+03 -0.21379735375E+02  0.47392278118E+03  0.00000000000E+00 0. -1.
         -4    1    5    5    0  503  0.31734157622E+01 -0.19169289969E+02  0.22780998044E+01  0.19563281531E+02  0.00000000000E+00 0.  1.
         -3    1    6    6    0  502  0.64710567612E+02 -0.37919876193E+02  0.17092123500E+02  0.76925387597E+02  0.00000000000E+00 0.  1.
<mgrwt>
<rscale>  0 0.24199931E+04</rscale>
<asrwt>0</asrwt>
<pdfrwt beam="1">  1        2 0.28858583E+00 0.24199931E+04</pdfrwt>
<pdfrwt beam="2">  1       -2 0.12007885E+00 0.24199931E+04</pdfrwt>
<totfact> 0.37276832E+00</totfact>
</mgrwt>
</event>
<event>
12    1  0.1532786E-007  0.1125135E+04  0.7818608E-02  0.9181034E-01
         -1   -1    0    0    0  501 -0.00000000000E+00  0.00000000000E+00  0.16094844969E+03  0.16094844969E+03  0.00000000000E+00 0.  1.
          1   -1    0    0  501    0  0.00000000000E+00 -0.00000000000E+00 -0.19663579146E+04  0.19663579146E+04  0.00000000000E+00 0. -1.
         23    2    1    2    0    0 -0.32840828141E+02 -0.17904575155E+03 -0.31303378887E+03  0.37330667127E+03  0.90729359633E+02 0.  0.
        254    2    1    2    0    0  0.32840828141E+02  0.17904575155E+03 -0.14923756761E+04  0.17539996930E+04  0.90343448214E+03 0.  0.
        -24    2    4    4    0    0 -0.27332150831E+03 -0.15243790783E+03 -0.11153544317E+04  0.11611232910E+04  0.79055840885E+02 0.  0.
         24    2    4    4    0    0  0.30616233646E+03  0.33148365938E+03 -0.37702124433E+03  0.59287640199E+03  0.75766857235E+02 0.  0.
         11    1    3    3    0    0 -0.47779656776E+02 -0.46769196085E+02 -0.13857863668E+03  0.15386452434E+03  0.00000000000E+00 0. -1.
        -11    1    3    3    0    0  0.14938828634E+02 -0.13227655546E+03 -0.17445515218E+03  0.21944214693E+03  0.00000000000E+00 0.  1.
          4    1    6    6  502    0  0.68851032103E+02  0.12623969135E+03 -0.11697672122E+03  0.18536579404E+03  0.00000000000E+00 0. -1.
          3    1    5    5  503    0 -0.18312470018E+03 -0.13343858590E+03 -0.70388013740E+03  0.73945098543E+03  0.00000000000E+00 0. -1.
         -4    1    5    5    0  503 -0.90196808135E+02 -0.18999321932E+02 -0.41147429432E+03  0.42167230561E+03  0.00000000000E+00 0.  1.
         -3    1    6    6    0  502  0.23731130435E+03  0.20524396803E+03 -0.26004452311E+03  0.40751060795E+03  0.00000000000E+00 0.  1.
<mgrwt>
<rscale>  0 0.11251351E+04</rscale>
<asrwt>0</asrwt>
<pdfrwt beam="1">  1        1 0.30251660E+00 0.11251351E+04</pdfrwt>
<pdfrwt beam="2">  1       -1 0.24761300E-01 0.11251351E+04</pdfrwt>
<totfact> 0.44598932E+01</totfact>
</mgrwt>
</event>
<event>
12    1  0.1532786E-007  0.2806016E+04  0.7818608E-02  0.8301403E-01
          2   -1    0    0  501    0  0.00000000000E+00  0.00000000000E+00  0.19500120558E+04  0.19500120558E+04  0.00000000000E+00 0. -1.
         -2   -1    0    0    0  501 -0.00000000000E+00 -0.00000000000E+00 -0.10094456149E+04  0.10094456149E+04  0.00000000000E+00 0.  1.
         23    2    1    2    0    0  0.59282980972E+02 -0.59185840193E+03  0.15598761449E+04  0.16730677417E+04  0.11014191253E+03 0.  0.
        254    2    1    2    0    0 -0.59282980972E+02  0.59185840193E+03 -0.61930970398E+03  0.12863899291E+04  0.95783281440E+03 0.  0.
        -24    2    4    4    0    0 -0.37999360170E+03 -0.63342845056E+02 -0.19626292871E+03  0.43947865304E+03  0.78834611280E+02 0.  0.
         24    2    4    4    0    0  0.32071062073E+03  0.65520124698E+03 -0.42304677528E+03  0.84691127601E+03  0.78397443022E+02 0.  0.
         13    1    3    3    0    0  0.67469498862E+02 -0.57926255855E+03  0.15470377526E+04  0.16533067026E+04  0.00000000000E+00 0. -1.
        -13    1    3    3    0    0 -0.81865178900E+01 -0.12595843379E+02  0.12838392323E+02  0.19761039017E+02  0.00000000000E+00 0.  1.
          4    1    6    6  502    0  0.24684836856E+03  0.55932850268E+03 -0.33405347811E+03  0.69668803435E+03  0.00000000000E+00 0. -1.
          3    1    5    5  503    0 -0.24522592360E+03 -0.37820823664E+02 -0.16739327250E+03  0.29931033391E+03  0.00000000000E+00 0. -1.
         -4    1    5    5    0  503 -0.13476767810E+03 -0.25522021392E+02 -0.28869656211E+02  0.14016831913E+03  0.00000000000E+00 0.  1.
         -3    1    6    6    0  502  0.73862252164E+02  0.95872744308E+02 -0.88993297165E+02  0.15022324166E+03  0.00000000000E+00 0.  1.
<mgrwt>
<rscale>  0 0.28060158E+04</rscale>
<asrwt>0</asrwt>
<pdfrwt beam="1">  1        2 0.30000186E+00 0.28060158E+04</pdfrwt>
<pdfrwt beam="2">  1       -2 0.15529932E+00 0.28060158E+04</pdfrwt>
<totfact> 0.16920346E+00</totfact>
</mgrwt>
</event>
<event>
12    1  0.1532786E-007  0.1869347E+04  0.7818608E-02  0.8670266E-01
          3   -1    0    0  501    0  0.00000000000E+00  0.00000000000E+00  0.26907101043E+04  0.26907101043E+04  0.00000000000E+00 0. -1.
         -3   -1    0    0    0  501 -0.00000000000E+00 -0.00000000000E+00 -0.32467823897E+03  0.32467823897E+03  0.00000000000E+00 0.  1.
         23    2    1    2    0    0 -0.13324850399E+03 -0.41561461670E+03  0.43465118665E+01  0.44574456986E+03  0.90435921859E+02 0.  0.
        254    2    1    2    0    0  0.13324850399E+03  0.41561461670E+03  0.23616853535E+04  0.25696437734E+04  0.91379469252E+03 0.  0.
        -24    2    4    4    0    0  0.51681770665E+03  0.19821369995E+03  0.14409639818E+04  0.15456881434E+04  0.79908866980E+02 0.  0.
         24    2    4    4    0    0 -0.38356920266E+03  0.21740091675E+03  0.92072137167E+03  0.10239556300E+04  0.79804737904E+02 0.  0.
         13    1    3    3    0    0 -0.97957470405E+02 -0.37043547782E+03 -0.19475576914E+02  0.38366314304E+03  0.00000000000E+00 0.  1.
        -13    1    3    3    0    0 -0.35291033581E+02 -0.45179138885E+02  0.23822088781E+02  0.62081426815E+02  0.00000000000E+00 0. -1.
          4    1    6    6  502    0 -0.33596632325E+03  0.21755916643E+03  0.83196295880E+03  0.92323763251E+03  0.00000000000E+00 0. -1.
          1    1    5    5  503    0  0.35870544725E+03  0.15814431952E+03  0.92763515320E+03  0.10070681214E+04  0.00000000000E+00 0. -1.
         -2    1    5    5    0  503  0.15811225940E+03  0.40069380428E+02  0.51332882861E+03  0.53862002200E+03  0.00000000000E+00 0.  1.
         -3    1    6    6    0  502 -0.47602879409E+02 -0.15824967790E+00  0.88758412872E+02  0.10071799753E+03  0.00000000000E+00 0.  1.
<mgrwt>
<rscale>  0 0.18693475E+04</rscale>
<asrwt>0</asrwt>
<pdfrwt beam="1">  1        3 0.41395539E+00 0.18693475E+04</pdfrwt>
<pdfrwt beam="2">  1       -3 0.49950500E-01 0.18693475E+04</pdfrwt>
<totfact> 0.92091833E-02</totfact>
</mgrwt>
</event>
<event>
12    1  0.1532786E-007  0.1168221E+04  0.7818608E-02  0.9141136E-01
         -2   -1    0    0    0  501 -0.00000000000E+00  0.00000000000E+00  0.13100830129E+03  0.13100830129E+03  0.00000000000E+00 0.  1.
          2   -1    0    0  501    0  0.00000000000E+00 -0.00000000000E+00 -0.26043026984E+04  0.26043026984E+04  0.00000000000E+00 0. -1.
         23    2    1    2    0    0  0.12092301846E+03 -0.61212378664E+01 -0.10189475756E+04  0.10298921052E+04  0.88112090895E+02 0.  0.
        254    2    1    2    0    0 -0.12092301846E+03  0.61212378664E+01 -0.14543468214E+04  0.17054188944E+04  0.88242228128E+03 0.  0.
        -24    2    4    4    0    0 -0.41792763147E+03  0.13762865576E+03 -0.12132586296E+04  0.12932673097E+04  0.83298739144E+02 0.  0.
         24    2    4    4    0    0  0.29700461301E+03 -0.13150741790E+03 -0.24108819183E+03  0.41215158474E+03  0.78990325077E+02 0.  0.
         11    1    3    3    0    0  0.57576142460E+02  0.78119850003E+00 -0.79422998106E+03  0.79631456427E+03  0.00000000000E+00 0. -1.
        -11    1    3    3    0    0  0.63346875999E+02 -0.69024363665E+01 -0.22471759457E+03  0.23357754095E+03  0.00000000000E+00 0.  1.
          4    1    6    6  502    0  0.60283363527E+01  0.39424018705E+01  0.40714019850E+01  0.82740368511E+01  0.00000000000E+00 0. -1.
          1    1    5    5  503    0 -0.50559951919E+02 -0.59350856664E+01 -0.10018757787E+03  0.11237920065E+03  0.00000000000E+00 0. -1.
         -2    1    5    5    0  503 -0.36736767955E+03  0.14356374143E+03 -0.11130710517E+04  0.11808881090E+04  0.00000000000E+00 0.  1.
         -3    1    6    6    0  502  0.29097627666E+03 -0.13544981977E+03 -0.24515959381E+03  0.40387754789E+03  0.00000000000E+00 0.  1.
<mgrwt>
<rscale>  0 0.11682213E+04</rscale>
<asrwt>0</asrwt>
<pdfrwt beam="1">  1        2 0.40066191E+00 0.11682213E+04</pdfrwt>
<pdfrwt beam="2">  1       -2 0.20155125E-01 0.11682213E+04</pdfrwt>
<totfact> 0.63626753E+01</totfact>
</mgrwt>
</event>
<event>
12    1  0.1532786E-007  0.2813845E+04  0.7818608E-02  0.8298983E-01
          2   -1    0    0  501    0  0.00000000000E+00  0.00000000000E+00  0.17558722627E+04  0.17558722627E+04  0.00000000000E+00 0. -1.
         -2   -1    0    0    0  501 -0.00000000000E+00 -0.00000000000E+00 -0.11273209635E+04  0.11273209635E+04  0.00000000000E+00 0.  1.
         23    2    1    2    0    0 -0.38782742730E+03 -0.58311329046E+03  0.13353976050E+04  0.15105901927E+04  0.90358973257E+02 0.  0.
        254    2    1    2    0    0  0.38782742730E+03  0.58311329046E+03 -0.70684630582E+03  0.13726030335E+04  0.94550312785E+03 0.  0.
        -24    2    4    4    0    0  0.25548424676E+03  0.83625163553E+03 -0.49124508797E+03  0.10060173900E+04  0.78487287620E+02 0.  0.
         24    2    4    4    0    0  0.13234318054E+03 -0.25313834508E+03 -0.21560121785E+03  0.36658564352E+03  0.79419202410E+02 0.  0.
         11    1    3    3    0    0  0.35014904469E+01 -0.27895644587E+01  0.25954522592E+01  0.51747925223E+01  0.00000000000E+00 0.  1.
        -11    1    3    3    0    0 -0.39132891774E+03 -0.58032372600E+03  0.13328021527E+04  0.15054154002E+04  0.00000000000E+00 0. -1.
          4    1    6    6  502    0  0.11152871054E+03 -0.18998080540E+03 -0.20161840981E+03  0.29863245448E+03  0.00000000000E+00 0. -1.
          3    1    5    5  503    0  0.82505617721E+02  0.28785751619E+03 -0.12654600613E+03  0.32508924659E+03  0.00000000000E+00 0. -1.
         -4    1    5    5    0  503  0.17297862904E+03  0.54839411935E+03 -0.36469908184E+03  0.68092814344E+03  0.00000000000E+00 0.  1.
         -3    1    6    6    0  502  0.20814470002E+02 -0.63157539679E+02 -0.13982808038E+02  0.67953189038E+02  0.00000000000E+00 0.  1.
<mgrwt>
<rscale>  0 0.28138455E+04</rscale>
<asrwt>0</asrwt>
<pdfrwt beam="1">  1        2 0.27013419E+00 0.28138455E+04</pdfrwt>
<pdfrwt beam="2">  1       -2 0.17343399E+00 0.28138455E+04</pdfrwt>
<totfact> 0.15994651E+00</totfact>
</mgrwt>
</event>
<event>
12    1  0.1532786E-007  0.1488805E+04  0.7818608E-02  0.8891932E-01
          2   -1    0    0  501    0  0.00000000000E+00  0.00000000000E+00  0.32989697917E+03  0.32989697917E+03  0.00000000000E+00 0. -1.
         -2   -1    0    0    0  501 -0.00000000000E+00 -0.00000000000E+00 -0.16797220078E+04  0.16797220078E+04  0.00000000000E+00 0.  1.
         23    2    1    2    0    0  0.16312897879E+03  0.56081219867E+01  0.15798143837E+03  0.24466923435E+03  0.90897660111E+02 0.  0.
        254    2    1    2    0    0 -0.16312897879E+03 -0.56081219867E+01 -0.15078064670E+04  0.17649497526E+04  0.90273183870E+03 0.  0.
        -24    2    4    4    0    0  0.19242977889E+03  0.16213202553E+03 -0.71394484640E+02  0.27362498911E+03  0.80358252351E+02 0.  0.
         24    2    4    4    0    0 -0.35555875767E+03 -0.16774014752E+03 -0.14364119823E+04  0.14913247635E+04  0.78812308476E+02 0.  0.
         11    1    3    3    0    0  0.10944089505E+03 -0.39670076225E+02  0.10380714565E+03  0.15597098431E+03  0.00000000000E+00 0. -1.
        -11    1    3    3    0    0  0.53688083738E+02  0.45278198212E+02  0.54174292721E+02  0.88698250042E+02  0.00000000000E+00 0.  1.
          2    1    6    6  502    0 -0.23394853582E+03 -0.15038677080E+03 -0.99946719725E+03  0.10374404931E+04  0.00000000000E+00 0. -1.
          3    1    5    5  503    0  0.41492006523E+02  0.83875056227E+02 -0.33843937376E+02  0.99508912965E+02  0.00000000000E+00 0. -1.
         -4    1    5    5    0  503  0.15093777236E+03  0.78256969306E+02 -0.37550547263E+02  0.17411607614E+03  0.00000000000E+00 0.  1.
         -1    1    6    6    0  502 -0.12161022186E+03 -0.17353376725E+02 -0.43694478508E+03  0.45388427044E+03  0.00000000000E+00 0.  1.
<mgrwt>
<rscale>  0 0.14888052E+04</rscale>
<asrwt>0</asrwt>
<pdfrwt beam="1">  1        2 0.50753382E-01 0.14888052E+04</pdfrwt>
<pdfrwt beam="2">  1       -2 0.25841877E+00 0.14888052E+04</pdfrwt>
<totfact> 0.54532564E+00</totfact>
</mgrwt>
</event>
<event>
12    1  0.1532786E-007  0.1134250E+04  0.7818608E-02  0.9172438E-01
         -1   -1    0    0    0  501 -0.00000000000E+00  0.00000000000E+00  0.56642925300E+03  0.56642925300E+03  0.00000000000E+00 0.  1.
          1   -1    0    0  501    0  0.00000000000E+00 -0.00000000000E+00 -0.56782131123E+03  0.56782131123E+03  0.00000000000E+00 0. -1.
         23    2    1    2    0    0  0.16328090305E+03 -0.10656938998E+03  0.74429441554E+02  0.22766026727E+03  0.90949256972E+02 0.  0.
        254    2    1    2    0    0 -0.16328090305E+03  0.10656938998E+03 -0.75821499781E+02  0.90659029696E+03  0.88212208822E+03 0.  0.
        -24    2    4    4    0    0 -0.49439082373E+03 -0.83614433734E+02 -0.91988645943E+02  0.51599468683E+03  0.79843257274E+02 0.  0.
         24    2    4    4    0    0  0.33110992068E+03  0.19018382372E+03  0.16167146162E+02  0.39059561013E+03  0.80621880764E+02 0.  0.
         11    1    3    3    0    0 -0.57579113595E+01 -0.73980869913E+00 -0.96221917345E+01  0.11237768191E+02  0.00000000000E+00 0. -1.
        -11    1    3    3    0    0  0.16903881441E+03 -0.10582958129E+03  0.84051633289E+02  0.21642249908E+03  0.00000000000E+00 0.  1.
          4    1    6    6  502    0  0.32364110792E+03  0.19774293419E+03  0.18480769648E+02  0.37972012537E+03  0.00000000000E+00 0. -1.
          1    1    5    5  503    0 -0.24036366697E+03 -0.74252743248E+02 -0.23122040194E+02  0.25263173004E+03  0.00000000000E+00 0. -1.
         -2    1    5    5    0  503 -0.25402715676E+03 -0.93616904857E+01 -0.68866605749E+02  0.26336295678E+03  0.00000000000E+00 0.  1.
         -3    1    6    6    0  502  0.74688127591E+01 -0.75591104740E+01 -0.23136234858E+01  0.10875484763E+02  0.00000000000E+00 0.  1.
<mgrwt>
<rscale>  0 0.11342497E+04</rscale>
<asrwt>0</asrwt>
<pdfrwt beam="1">  1        1 0.87357125E-01 0.11342497E+04</pdfrwt>
<pdfrwt beam="2">  1       -1 0.87142962E-01 0.11342497E+04</pdfrwt>
<totfact> 0.47824385E+01</totfact>
</mgrwt>
</event>
<event>
12    1  0.1532786E-007  0.1281576E+04  0.7818608E-02  0.9044305E-01
          1   -1    0    0  501    0  0.00000000000E+00  0.00000000000E+00  0.47719675071E+03  0.47719675071E+03  0.00000000000E+00 0. -1.
         -1   -1    0    0    0  501 -0.00000000000E+00 -0.00000000000E+00 -0.86046085009E+03  0.86046085009E+03  0.00000000000E+00 0.  1.
         23    2    1    2    0    0  0.76320271617E+02  0.41994680802E+02 -0.43985913178E+03  0.45767743118E+03  0.91674631863E+02 0.  0.
        254    2    1    2    0    0 -0.76320271617E+02 -0.41994680802E+02  0.56595032394E+02  0.87998016962E+03  0.87382707909E+03 0.  0.
        -24    2    4    4    0    0 -0.85567458608E+01  0.26616359625E+03 -0.29179571992E+03  0.40321639474E+03  0.80761630460E+02 0.  0.
         24    2    4    4    0    0 -0.67763525756E+02 -0.30815827705E+03  0.34839075231E+03  0.47676377488E+03  0.79838346665E+02 0.  0.
         11    1    3    3    0    0 -0.49946715353E+01 -0.99588792130E+01 -0.18222690834E+03  0.18256717159E+03  0.00000000000E+00 0. -1.
        -11    1    3    3    0    0  0.81314943152E+02  0.51953560015E+02 -0.25763222344E+03  0.27511025959E+03  0.00000000000E+00 0.  1.
          4    1    6    6  502    0 -0.81992778485E+02 -0.23558941560E+03  0.29010707528E+03  0.38260593774E+03  0.00000000000E+00 0. -1.
          1    1    5    5  503    0  0.38587621028E+01  0.26168932205E+03 -0.26055939935E+03  0.36930663670E+03  0.00000000000E+00 0. -1.
         -2    1    5    5    0  503 -0.12415507964E+02  0.44742741992E+01 -0.31236320569E+02  0.33909758040E+02  0.00000000000E+00 0.  1.
         -3    1    6    6    0  502  0.14229252729E+02 -0.72568861455E+02  0.58283677037E+02  0.94157837141E+02  0.00000000000E+00 0.  1.
<mgrwt>
<rscale>  0 0.12815758E+04</rscale>
<asrwt>0</asrwt>
<pdfrwt beam="1">  1        1 0.73414886E-01 0.12815758E+04</pdfrwt>
<pdfrwt beam="2">  1       -1 0.13237859E+00 0.12815758E+04</pdfrwt>
<totfact> 0.22528659E+01</totfact>
</mgrwt>
</event>
<event>
12    1  0.1532786E-007  0.2746428E+04  0.7818608E-02  0.8320096E-01
         -2   -1    0    0    0  501 -0.00000000000E+00  0.00000000000E+00  0.72168974414E+03  0.72168974414E+03  0.00000000000E+00 0.  1.
          2   -1    0    0  501    0  0.00000000000E+00 -0.00000000000E+00 -0.26129183007E+04  0.26129183007E+04  0.00000000000E+00 0. -1.
         23    2    1    2    0    0  0.37663374848E+03 -0.11157039059E+04 -0.12657692444E+04  0.17312695109E+04  0.92055164841E+02 0.  0.
        254    2    1    2    0    0 -0.37663374848E+03  0.11157039059E+04 -0.62545931217E+03  0.16033385339E+04  0.89041951748E+03 0.  0.
        -24    2    4    4    0    0  0.23438890556E+02 -0.61487453805E+02  0.11534115920E+03  0.15384984067E+03  0.77692354208E+02 0.  0.
         24    2    4    4    0    0 -0.40007263903E+03  0.11771913597E+04 -0.74080047137E+03  0.14494886932E+04  0.79965740710E+02 0.  0.
         13    1    3    3    0    0  0.30930917069E+03 -0.98651740797E+03 -0.10784089320E+04  0.14939392839E+04  0.00000000000E+00 0. -1.
        -13    1    3    3    0    0  0.67324577784E+02 -0.12918649789E+03 -0.18736031239E+03  0.23733022705E+03  0.00000000000E+00 0.  1.
          2    1    6    6  502    0 -0.31247849122E+03  0.84164354823E+03 -0.50417982520E+03  0.10296620639E+04  0.00000000000E+00 0. -1.
          1    1    5    5  503    0 -0.22221540455E+02 -0.33033167298E+02  0.80346949237E+02  0.89669500131E+02  0.00000000000E+00 0. -1.
         -2    1    5    5    0  503  0.45660431011E+02 -0.28454286507E+02  0.34994209963E+02  0.64180340539E+02  0.00000000000E+00 0.  1.
         -1    1    6    6    0  502 -0.87594147816E+02  0.33554781144E+03 -0.23662064617E+03  0.41982662932E+03  0.00000000000E+00 0.  1.
<mgrwt>
<rscale>  0 0.27464277E+04</rscale>
<asrwt>0</asrwt>
<pdfrwt beam="1">  1        2 0.40198744E+00 0.27464277E+04</pdfrwt>
<pdfrwt beam="2">  1       -2 0.11102919E+00 0.27464277E+04</pdfrwt>
<totfact> 0.16783211E+00</totfact>
</mgrwt>
</event>
<event>
12    1  0.1532786E-007  0.1353328E+04  0.7818608E-02  0.8988312E-01
          1   -1    0    0  501    0  0.00000000000E+00  0.00000000000E+00  0.26004618214E+04  0.26004618214E+04  0.00000000000E+00 0. -1.
         -1   -1    0    0    0  501 -0.00000000000E+00 -0.00000000000E+00 -0.17607430286E+03  0.17607430286E+03  0.00000000000E+00 0.  1.
         23    2    1    2    0    0  0.24031496750E+03  0.16027548387E+03  0.20774349904E+03  0.36777949967E+03  0.93085362168E+02 0.  0.
        254    2    1    2    0    0 -0.24031496750E+03 -0.16027548387E+03  0.22166440195E+04  0.24087566246E+04  0.89730610883E+03 0.  0.
        -24    2    4    4    0    0 -0.22784811641E+03 -0.25653190738E+03  0.23573179888E+03  0.42387876178E+03  0.79877030689E+02 0.  0.
         24    2    4    4    0    0 -0.12466851088E+02  0.96256423513E+02  0.19809122206E+04  0.19848778628E+04  0.79411478791E+02 0.  0.
         11    1    3    3    0    0  0.90749792660E+02  0.79787048982E+02  0.13995939427E+03  0.18490573300E+03  0.00000000000E+00 0. -1.
        -11    1    3    3    0    0  0.14956517484E+03  0.80488434886E+02  0.67784104774E+02  0.18287376667E+03  0.00000000000E+00 0.  1.
          4    1    6    6  502    0 -0.24186046148E+02  0.82333069026E+02  0.19003158385E+04  0.19022523453E+04  0.00000000000E+00 0. -1.
          1    1    5    5  503    0 -0.91807210890E+02 -0.16306817946E+03  0.12035303960E+03  0.22249640281E+03  0.00000000000E+00 0. -1.
         -2    1    5    5    0  503 -0.13604090552E+03 -0.93463727924E+02  0.11537875928E+03  0.20138235897E+03  0.00000000000E+00 0.  1.
         -3    1    6    6    0  502  0.11719195060E+02  0.13923354487E+02  0.80596382130E+02  0.82625517521E+02  0.00000000000E+00 0.  1.
<mgrwt>
<rscale>  0 0.13533285E+04</rscale>
<asrwt>0</asrwt>
<pdfrwt beam="1">  1        1 0.40007102E+00 0.13533285E+04</pdfrwt>
<pdfrwt beam="2">  1       -1 0.27088356E-01 0.13533285E+04</pdfrwt>
<totfact> 0.13826722E+01</totfact>
</mgrwt>
</event>
<event>
12    1  0.1532786E-007  0.1642772E+04  0.7818608E-02  0.8794694E-01
          1   -1    0    0  501    0  0.00000000000E+00  0.00000000000E+00  0.11855412457E+04  0.11855412457E+04  0.00000000000E+00 0. -1.
         -1   -1    0    0    0  501 -0.00000000000E+00 -0.00000000000E+00 -0.56908569329E+03  0.56908569329E+03  0.00000000000E+00 0.  1.
         23    2    1    2    0    0 -0.38080014459E+03  0.97467172813E+02 -0.23007296245E+03  0.46447770412E+03  0.91089898891E+02 0.  0.
        254    2    1    2    0    0  0.38080014459E+03 -0.97467172813E+02  0.84652851481E+03  0.12901492348E+04  0.89071090813E+03 0.  0.
        -24    2    4    4    0    0  0.52967236381E+02 -0.44682072616E+03  0.25010841356E+03  0.52103609020E+03  0.80436927477E+02 0.  0.
         24    2    4    4    0    0  0.32783290821E+03  0.34935355334E+03  0.59642010125E+03  0.76911314463E+03  0.79345895535E+02 0.  0.
         13    1    3    3    0    0 -0.10592729819E+03 -0.58682008325E+01 -0.34098764403E+02  0.11143497663E+03  0.00000000000E+00 0. -1.
        -13    1    3    3    0    0 -0.27487284640E+03  0.10333537365E+03 -0.19597419805E+03  0.35304272749E+03  0.00000000000E+00 0.  1.
          2    1    6    6  502    0  0.26812882215E+03  0.23668014539E+03  0.45399165608E+03  0.57794375183E+03  0.00000000000E+00 0. -1.
          1    1    5    5  503    0  0.15588623546E+02 -0.45522738989E+02  0.55568003803E+02  0.73505972518E+02  0.00000000000E+00 0. -1.
         -2    1    5    5    0  503  0.37378612834E+02 -0.40129798717E+03  0.19454040976E+03  0.44753011768E+03  0.00000000000E+00 0.  1.
         -1    1    6    6    0  502  0.59704086054E+02  0.11267340795E+03  0.14242844516E+03  0.19116939280E+03  0.00000000000E+00 0.  1.
<mgrwt>
<rscale>  0 0.16427715E+04</rscale>
<asrwt>0</asrwt>
<pdfrwt beam="1">  1        1 0.18239096E+00 0.16427715E+04</pdfrwt>
<pdfrwt beam="2">  1       -1 0.87551645E-01 0.16427715E+04</pdfrwt>
<totfact> 0.13439940E+01</totfact>
</mgrwt>
</event>
<event>
12    1  0.1532786E-007  0.2345463E+04  0.7818608E-02  0.8460208E-01
          2   -1    0    0  501    0  0.00000000000E+00  0.00000000000E+00  0.15744302019E+04  0.15744302019E+04  0.00000000000E+00 0. -1.
         -2   -1    0    0    0  501 -0.00000000000E+00 -0.00000000000E+00 -0.87352208565E+03  0.87352208565E+03  0.00000000000E+00 0.  1.
         23    2    1    2    0    0 -0.81551633554E+03  0.30158222676E+03 -0.21455559924E+03  0.90008735330E+03  0.90024471008E+02 0.  0.
        254    2    1    2    0    0  0.81551633554E+03 -0.30158222676E+03  0.91546371551E+03  0.15478649343E+04  0.89542911909E+03 0.  0.
        -24    2    4    4    0    0  0.67671584720E+03  0.19587681565E+03  0.64808396469E+03  0.96084690928E+03  0.83077632504E+02 0.  0.
         24    2    4    4    0    0  0.13880048834E+03 -0.49745904240E+03  0.26737975082E+03  0.58701802499E+03  0.79794461513E+02 0.  0.
         11    1    3    3    0    0 -0.44624155040E+03  0.18884923023E+03 -0.79421206209E+02  0.49102268894E+03  0.00000000000E+00 0. -1.
        -11    1    3    3    0    0 -0.36927478514E+03  0.11273299652E+03 -0.13513439303E+03  0.40906466435E+03  0.00000000000E+00 0.  1.
          2    1    6    6  502    0  0.13149319726E+03 -0.48381690682E+03  0.27260195598E+03  0.57068475242E+03  0.00000000000E+00 0. -1.
          1    1    5    5  503    0  0.34394062962E+03  0.88850779320E+02  0.27210339435E+03  0.44747052965E+03  0.00000000000E+00 0. -1.
         -2    1    5    5    0  503  0.33277521758E+03  0.10702603633E+03  0.37598057033E+03  0.51337637962E+03  0.00000000000E+00 0.  1.
         -1    1    6    6    0  502  0.73072910765E+01 -0.13642135586E+02 -0.52222051527E+01  0.16333272571E+02  0.00000000000E+00 0.  1.
<mgrwt>
<rscale>  0 0.23454633E+04</rscale>
<asrwt>0</asrwt>
<pdfrwt beam="1">  1        2 0.24222003E+00 0.23454633E+04</pdfrwt>
<pdfrwt beam="2">  1       -2 0.13438801E+00 0.23454633E+04</pdfrwt>
<totfact> 0.41559597E+00</totfact>
</mgrwt>
</event>
<event>
12    1  0.1532786E-007  0.1454382E+04  0.7818608E-02  0.8915368E-01
         -1   -1    0    0    0  501 -0.00000000000E+00  0.00000000000E+00  0.40942392004E+03  0.40942392004E+03  0.00000000000E+00 0.  1.
          1   -1    0    0  501    0  0.00000000000E+00 -0.00000000000E+00 -0.12915874078E+04  0.12915874078E+04  0.00000000000E+00 0. -1.
         23    2    1    2    0    0  0.37726069669E+03 -0.97495991519E+02 -0.10093381463E+02  0.40102040979E+03  0.94257047964E+02 0.  0.
        254    2    1    2    0    0 -0.37726069669E+03  0.97495991519E+02 -0.87207010632E+03  0.12999909181E+04  0.88183842915E+03 0.  0.
        -24    2    4    4    0    0 -0.15731392636E+03 -0.82620410112E+02 -0.96956316107E+03  0.98893221902E+03  0.79752159217E+02 0.  0.
         24    2    4    4    0    0 -0.21994677033E+03  0.18011640163E+03  0.97493054755E+02  0.31105869906E+03  0.80212957950E+02 0.  0.
         11    1    3    3    0    0  0.21601979720E+03 -0.94055991351E+02 -0.33764412182E+02  0.23801495294E+03  0.00000000000E+00 0. -1.
        -11    1    3    3    0    0  0.16124089948E+03 -0.34400001680E+01  0.23671030718E+02  0.16300545685E+03  0.00000000000E+00 0.  1.
          2    1    6    6  502    0 -0.65316955936E+02  0.72990193462E+02  0.71255905511E+02  0.12112504755E+03  0.00000000000E+00 0. -1.
          3    1    5    5  503    0 -0.87961837750E+02 -0.18678772925E+01 -0.40984381985E+03  0.41918102358E+03  0.00000000000E+00 0. -1.
         -4    1    5    5    0  503 -0.69352088607E+02 -0.80752532819E+02 -0.55971934123E+03  0.56975119543E+03  0.00000000000E+00 0.  1.
         -1    1    6    6    0  502 -0.15462981439E+03  0.10712620817E+03  0.26237149243E+02  0.18993365151E+03  0.00000000000E+00 0.  1.
<mgrwt>
<rscale>  0 0.14543820E+04</rscale>
<asrwt>0</asrwt>
<pdfrwt beam="1">  1        1 0.19870575E+00 0.14543820E+04</pdfrwt>
<pdfrwt beam="2">  1       -1 0.62988295E-01 0.14543820E+04</pdfrwt>
<totfact> 0.22764302E+01</totfact>
</mgrwt>
</event>
<event>
12    1  0.1532786E-007  0.1495788E+04  0.7818608E-02  0.8887258E-01
         -1   -1    0    0    0  501 -0.00000000000E+00  0.00000000000E+00  0.70480222547E+03  0.70480222547E+03  0.00000000000E+00 0.  1.
          1   -1    0    0  501    0  0.00000000000E+00 -0.00000000000E+00 -0.79362093552E+03  0.79362093552E+03  0.00000000000E+00 0. -1.
         23    2    1    2    0    0 -0.57022927858E+02 -0.64960213171E+02 -0.49869265207E+03  0.51430860889E+03  0.91364874812E+02 0.  0.
        254    2    1    2    0    0  0.57022927858E+02  0.64960213171E+02  0.40987394203E+03  0.98411455211E+03  0.89051297560E+03 0.  0.
        -24    2    4    4    0    0  0.69890607105E+02  0.99462199557E+02 -0.26549920721E+03  0.30304918217E+03  0.81065107680E+02 0.  0.
         24    2    4    4    0    0 -0.12867679247E+02 -0.34501986387E+02  0.67537314924E+03  0.68106536993E+03  0.79782098117E+02 0.  0.
         11    1    3    3    0    0  0.15199832697E+02  0.11513976954E+02 -0.10970017876E+03  0.11134512023E+03  0.00000000000E+00 0.  1.
        -11    1    3    3    0    0 -0.72222760555E+02 -0.76474190125E+02 -0.38899247331E+03  0.40296348866E+03  0.00000000000E+00 0. -1.
          2    1    6    6  502    0  0.15751039116E+02  0.16848054296E+02  0.32297975488E+03  0.32380221467E+03  0.00000000000E+00 0. -1.
          1    1    5    5  503    0  0.43180493809E-01 -0.51154976245E+01  0.34364659303E+01  0.61627492721E+01  0.00000000000E+00 0. -1.
         -2    1    5    5    0  503  0.69847426612E+02  0.10457769718E+03 -0.26893567314E+03  0.29688643290E+03  0.00000000000E+00 0.  1.
         -1    1    6    6    0  502 -0.28618718363E+02 -0.51350040683E+02  0.35239339436E+03  0.35726315526E+03  0.00000000000E+00 0.  1.
<mgrwt>
<rscale>  0 0.14957885E+04</rscale>
<asrwt>0</asrwt>
<pdfrwt beam="1">  1        1 0.12209553E+00 0.14957885E+04</pdfrwt>
<pdfrwt beam="2">  1       -1 0.10843111E+00 0.14957885E+04</pdfrwt>
<totfact> 0.17116538E+01</totfact>
</mgrwt>
</event>
<event>
12    1  0.1532786E-007  0.2337354E+04  0.7818608E-02  0.8463337E-01
          1   -1    0    0  501    0  0.00000000000E+00  0.00000000000E+00  0.28848620706E+04  0.28848620706E+04  0.00000000000E+00 0. -1.
         -1   -1    0    0    0  501 -0.00000000000E+00 -0.00000000000E+00 -0.47343874974E+03  0.47343874974E+03  0.00000000000E+00 0.  1.
         23    2    1    2    0    0  0.23684896671E+03  0.85713826518E+03  0.39614312665E+03  0.97768250818E+03  0.90278853237E+02 0.  0.
        254    2    1    2    0    0 -0.23684896671E+03 -0.85713826518E+03  0.20152801942E+04  0.23806183121E+04  0.90288750591E+03 0.  0.
        -24    2    4    4    0    0  0.16158649337E+03 -0.22106562312E+03  0.13316575012E+04  0.13618925732E+04  0.80370863975E+02 0.  0.
         24    2    4    4    0    0 -0.39843546009E+03 -0.63607264207E+03  0.68362269295E+03  0.10187257389E+04  0.84397411212E+02 0.  0.
         13    1    3    3    0    0  0.11637912023E+03  0.26341000478E+03  0.12388347114E+03  0.31349010298E+03  0.00000000000E+00 0. -1.
        -13    1    3    3    0    0  0.12046984648E+03  0.59372826040E+03  0.27225965552E+03  0.66419240521E+03  0.00000000000E+00 0.  1.
          4    1    6    6  502    0 -0.15288079341E+03 -0.19242030790E+03  0.26243519674E+03  0.35954185344E+03  0.00000000000E+00 0. -1.
          3    1    5    5  503    0  0.12851593238E+03 -0.11417167435E+03  0.87498848985E+03  0.89171541058E+03  0.00000000000E+00 0. -1.
         -4    1    5    5    0  503  0.33070560993E+02 -0.10689394877E+03  0.45666901138E+03  0.47017716261E+03  0.00000000000E+00 0.  1.
         -3    1    6    6    0  502 -0.24555466668E+03 -0.44365233417E+03  0.42118749621E+03  0.65918388550E+03  0.00000000000E+00 0.  1.
<mgrwt>
<rscale>  0 0.23373536E+04</rscale>
<asrwt>0</asrwt>
<pdfrwt beam="1">  1        1 0.44382492E+00 0.23373536E+04</pdfrwt>
<pdfrwt beam="2">  1       -1 0.72836732E-01 0.23373536E+04</pdfrwt>
<totfact> 0.12408090E+00</totfact>
</mgrwt>
</event>
<event>
12    1  0.1532786E-007  0.1587801E+04  0.7818608E-02  0.8828077E-01
         -1   -1    0    0    0  501 -0.00000000000E+00  0.00000000000E+00  0.19765910141E+04  0.19765910141E+04  0.00000000000E+00 0.  1.
          1   -1    0    0  501    0  0.00000000000E+00 -0.00000000000E+00 -0.31887126636E+03  0.31887126636E+03  0.00000000000E+00 0. -1.
         23    2    1    2    0    0  0.44620846857E+03 -0.23691733896E+03  0.85218977900E+03  0.99696435411E+03  0.11170801682E+03 0.  0.
        254    2    1    2    0    0 -0.44620846857E+03  0.23691733896E+03  0.80552996874E+03  0.12984979263E+04  0.88430001203E+03 0.  0.
        -24    2    4    4    0    0 -0.56114480373E+03  0.27249872147E+02  0.13781262007E+03  0.58381459627E+03  0.78874065942E+02 0.  0.
         24    2    4    4    0    0  0.11493633516E+03  0.20966746681E+03  0.66771734867E+03  0.71468333008E+03  0.88062459673E+02 0.  0.
         13    1    3    3    0    0  0.26668496089E+03 -0.13521374631E+03  0.39531100069E+03  0.49565553848E+03  0.00000000000E+00 0.  1.
        -13    1    3    3    0    0  0.17952350768E+03 -0.10170359265E+03  0.45687877831E+03  0.50130881564E+03  0.00000000000E+00 0. -1.
          4    1    6    6  502    0  0.64562004642E+02  0.40988793698E+02  0.24858646526E+03  0.26008376413E+03  0.00000000000E+00 0. -1.
          1    1    5    5  503    0 -0.46725518408E+03  0.19486567013E+02  0.14420033959E+03  0.48938826230E+03  0.00000000000E+00 0. -1.
         -2    1    5    5    0  503 -0.93889619654E+02  0.77633051343E+01 -0.63877195229E+01  0.94426333965E+02  0.00000000000E+00 0.  1.
         -3    1    6    6    0  502  0.50374330520E+02  0.16867867311E+03  0.41913088340E+03  0.45459956595E+03  0.00000000000E+00 0.  1.
<mgrwt>
<rscale>  0 0.15878011E+04</rscale>
<asrwt>0</asrwt>
<pdfrwt beam="1">  1        1 0.49057119E-01 0.15878011E+04</pdfrwt>
<pdfrwt beam="2">  1       -1 0.30409092E+00 0.15878011E+04</pdfrwt>
<totfact> 0.24207136E+00</totfact>
</mgrwt>
</event>
<event>
12    1  0.1532786E-007  0.1283138E+04  0.7818608E-02  0.9043045E-01
         -2   -1    0    0    0  501 -0.00000000000E+00  0.00000000000E+00  0.21867442573E+03  0.21867442573E+03  0.00000000000E+00 0.  1.
          2   -1    0    0  501    0  0.00000000000E+00 -0.00000000000E+00 -0.18822990569E+04  0.18822990569E+04  0.00000000000E+00 0. -1.
         23    2    1    2    0    0 -0.21770319052E+02  0.17275458363E+03  0.47224144190E+01  0.19677470345E+03  0.91541737809E+02 0.  0.
        254    2    1    2    0    0  0.21770319052E+02 -0.17275458363E+03 -0.16683470456E+04  0.19041987792E+04  0.90126191153E+03 0.  0.
        -24    2    4    4    0    0  0.41646794354E+03  0.14719835376E+02 -0.50937917373E+03  0.66294679668E+03  0.79806585312E+02 0.  0.
         24    2    4    4    0    0 -0.39469762449E+03 -0.18747441901E+03 -0.11589678719E+04  0.12412519825E+04  0.81037543722E+02 0.  0.
         11    1    3    3    0    0 -0.15543728429E+02  0.70665104339E+02 -0.42723490493E+02  0.84026549998E+02  0.00000000000E+00 0. -1.
        -11    1    3    3    0    0 -0.62265906229E+01  0.10208947929E+03  0.47445904912E+02  0.11274815345E+03  0.00000000000E+00 0.  1.
          4    1    6    6  502    0 -0.33200241769E+03 -0.14082811009E+03 -0.10191859928E+04  0.10811097307E+04  0.00000000000E+00 0. -1.
          3    1    5    5  503    0  0.33799442542E+03  0.39027674499E+02 -0.43383945112E+03  0.55134386760E+03  0.00000000000E+00 0. -1.
         -2    1    5    5    0  503  0.78473518120E+02 -0.24307839123E+02 -0.75539722605E+02  0.11160292908E+03  0.00000000000E+00 0.  1.
         -3    1    6    6    0  502 -0.62695206798E+02 -0.46646308920E+02 -0.13978187912E+03  0.16014225183E+03  0.00000000000E+00 0.  1.
<mgrwt>
<rscale>  0 0.12831378E+04</rscale>
<asrwt>0</asrwt>
<pdfrwt beam="1">  1        2 0.28958448E+00 0.12831378E+04</pdfrwt>
<pdfrwt beam="2">  1       -2 0.33642218E-01 0.12831378E+04</pdfrwt>
<totfact> 0.62998198E+01</totfact>
</mgrwt>
</event>
<event>
12    1  0.1532786E-007  0.1994922E+04  0.7818608E-02  0.8608998E-01
          1   -1    0    0  501    0  0.00000000000E+00  0.00000000000E+00  0.16726334980E+04  0.16726334980E+04  0.00000000000E+00 0. -1.
         -1   -1    0    0    0  501 -0.00000000000E+00 -0.00000000000E+00 -0.59482757728E+03  0.59482757728E+03  0.00000000000E+00 0.  1.
         23    2    1    2    0    0 -0.41895637243E+03 -0.91603502031E+02  0.11778952730E+04  0.12569511169E+04  0.92591535813E+02 0.  0.
        254    2    1    2    0    0  0.41895637243E+03  0.91603502031E+02 -0.10008935232E+03  0.10105099584E+04  0.90950363051E+03 0.  0.
        -24    2    4    4    0    0  0.16325790094E+03  0.44422584401E+03 -0.25252959796E+03  0.54221895950E+03  0.78996579014E+02 0.  0.
         24    2    4    4    0    0  0.25569847149E+03 -0.35262234198E+03  0.15244024564E+03  0.46829099886E+03  0.79587729811E+02 0.  0.
         11    1    3    3    0    0 -0.18918299981E+03 -0.84320431892E+02  0.61408084139E+03  0.64807053814E+03  0.00000000000E+00 0.  1.
        -11    1    3    3    0    0 -0.22977337262E+03 -0.72830701388E+01  0.56381443165E+03  0.60888057878E+03  0.00000000000E+00 0. -1.
          4    1    6    6  502    0  0.13398574180E+03 -0.21563435729E+03  0.12508284094E+03  0.28301249469E+03  0.00000000000E+00 0. -1.
          1    1    5    5  503    0  0.24698004442E+02  0.15527699367E+02 -0.12566881598E+02  0.31765191391E+02  0.00000000000E+00 0. -1.
         -2    1    5    5    0  503  0.13855989650E+03  0.42869814464E+03 -0.23996271636E+03  0.51045376811E+03  0.00000000000E+00 0.  1.
         -3    1    6    6    0  502  0.12171272969E+03 -0.13698798468E+03  0.27357404701E+02  0.18527850417E+03  0.00000000000E+00 0.  1.
<mgrwt>
<rscale>  0 0.19949221E+04</rscale>
<asrwt>0</asrwt>
<pdfrwt beam="1">  1        1 0.25732823E+00 0.19949221E+04</pdfrwt>
<pdfrwt beam="2">  1       -1 0.91511936E-01 0.19949221E+04</pdfrwt>
<totfact> 0.53752329E+00</totfact>
</mgrwt>
</event>
<event>
12    1  0.1532786E-007  0.1610558E+04  0.7818608E-02  0.8814088E-01
          2   -1    0    0  501    0  0.00000000000E+00  0.00000000000E+00  0.17193508832E+04  0.17193508832E+04  0.00000000000E+00 0. -1.
         -2   -1    0    0    0  501 -0.00000000000E+00 -0.00000000000E+00 -0.37716210851E+03  0.37716210851E+03  0.00000000000E+00 0.  1.
         23    2    1    2    0    0 -0.49489603975E+03  0.16399139924E+03  0.65885609509E+03  0.84515158745E+03  0.91512745285E+02 0.  0.
        254    2    1    2    0    0  0.49489603975E+03 -0.16399139924E+03  0.68333267957E+03  0.12513614042E+04  0.90947597212E+03 0.  0.
        -24    2    4    4    0    0 -0.21993244562E+02 -0.41536025236E+03  0.47011971366E+03  0.63339167852E+03  0.84644144453E+02 0.  0.
         24    2    4    4    0    0  0.51688928431E+03  0.25136885312E+03  0.21321296591E+03  0.61796972572E+03  0.77884404834E+02 0.  0.
         11    1    3    3    0    0 -0.32523282176E+03  0.89251863595E+02  0.48684044210E+03  0.59224648548E+03  0.00000000000E+00 0. -1.
        -11    1    3    3    0    0 -0.16966321799E+03  0.74739535648E+02  0.17201565300E+03  0.25290510197E+03  0.00000000000E+00 0.  1.
          2    1    6    6  502    0  0.17484116618E+02  0.16368500623E+02  0.25511899012E+02  0.34992558319E+02  0.00000000000E+00 0. -1.
          1    1    5    5  503    0  0.24380768830E+02 -0.50631931875E+02  0.51325658035E+02  0.76107408226E+02  0.00000000000E+00 0. -1.
         -2    1    5    5    0  503 -0.46374013392E+02 -0.36472832049E+03  0.41879405563E+03  0.55728427029E+03  0.00000000000E+00 0.  1.
         -1    1    6    6    0  502  0.49940516769E+03  0.23500035250E+03  0.18770106690E+03  0.58297716740E+03  0.00000000000E+00 0.  1.
<mgrwt>
<rscale>  0 0.16105577E+04</rscale>
<asrwt>0</asrwt>
<pdfrwt beam="1">  1        2 0.26451552E+00 0.16105577E+04</pdfrwt>
<pdfrwt beam="2">  1       -2 0.58024941E-01 0.16105577E+04</pdfrwt>
<totfact> 0.25475052E+01</totfact>
</mgrwt>
</event>
<event>
12    1  0.1532786E-007  0.1336357E+04  0.7818608E-02  0.9001220E-01
          1   -1    0    0  501    0  0.00000000000E+00  0.00000000000E+00  0.80657618063E+03  0.80657618063E+03  0.00000000000E+00 0. -1.
         -1   -1    0    0    0  501 -0.00000000000E+00 -0.00000000000E+00 -0.55352823075E+03  0.55352823075E+03  0.00000000000E+00 0.  1.
         23    2    1    2    0    0  0.14634386029E+03 -0.25938432435E+03 -0.13633421064E+03  0.33921611980E+03  0.88225879286E+02 0.  0.
        254    2    1    2    0    0 -0.14634386029E+03  0.25938432435E+03  0.38938216052E+03  0.10208882916E+04  0.89548740014E+03 0.  0.
        -24    2    4    4    0    0 -0.49633726086E+03  0.29039268211E+03  0.20634347482E+03  0.61671742552E+03  0.84167493695E+02 0.  0.
         24    2    4    4    0    0  0.34999340058E+03 -0.31008357758E+02  0.18303868570E+03  0.40417086607E+03  0.79962677645E+02 0.  0.
         13    1    3    3    0    0  0.70524427886E+02 -0.20588937197E+03 -0.90138266679E+02  0.23556110787E+03  0.00000000000E+00 0.  1.
        -13    1    3    3    0    0  0.75819432400E+02 -0.53494952381E+02 -0.46195943960E+02  0.10365501193E+03  0.00000000000E+00 0. -1.
          2    1    6    6  502    0  0.16388259968E+02 -0.20620610451E+02  0.96321900506E+01  0.28045743444E+02  0.00000000000E+00 0. -1.
          1    1    5    5  503    0 -0.34120390541E+03  0.24004081365E+03  0.16357356122E+03  0.44810267486E+03  0.00000000000E+00 0. -1.
         -2    1    5    5    0  503 -0.15513335545E+03  0.50351868464E+02  0.42769913595E+02  0.16861475066E+03  0.00000000000E+00 0.  1.
         -1    1    6    6    0  502  0.33360514061E+03 -0.10387747308E+02  0.17340649565E+03  0.37612512262E+03  0.00000000000E+00 0.  1.
<mgrwt>
<rscale>  0 0.13363573E+04</rscale>
<asrwt>0</asrwt>
<pdfrwt beam="1">  1        1 0.12408864E+00 0.13363573E+04</pdfrwt>
<pdfrwt beam="2">  1       -1 0.85158189E-01 0.13363573E+04</pdfrwt>
<totfact> 0.29165086E+01</totfact>
</mgrwt>
</event>
<event>
12    1  0.1532786E-007  0.1129507E+04  0.7818608E-02  0.9176900E-01
         -1   -1    0    0    0  501 -0.00000000000E+00  0.00000000000E+00  0.31650738437E+03  0.31650738437E+03  0.00000000000E+00 0.  1.
          1   -1    0    0  501    0  0.00000000000E+00 -0.00000000000E+00 -0.10077058543E+04  0.10077058543E+04  0.00000000000E+00 0. -1.
         23    2    1    2    0    0 -0.17860412362E+03 -0.68585514457E+02 -0.85768876096E+02  0.22778767196E+03  0.89036608326E+02 0.  0.
        254    2    1    2    0    0  0.17860412362E+03  0.68585514457E+02 -0.60542959379E+03  0.10964255667E+04  0.89386834850E+03 0.  0.
        -24    2    4    4    0    0 -0.18020457235E+03  0.20134641192E+03  0.92367897320E+02  0.29661131313E+03  0.80202101799E+02 0.  0.
         24    2    4    4    0    0  0.35880869597E+03 -0.13276089747E+03 -0.69779749111E+03  0.79981425354E+03  0.80077246261E+02 0.  0.
         11    1    3    3    0    0 -0.16759796202E+03 -0.82962209244E+02 -0.60201874313E+02  0.19645882700E+03  0.00000000000E+00 0.  1.
        -11    1    3    3    0    0 -0.11006161599E+02  0.14376694787E+02 -0.25567001783E+02  0.31328844957E+02  0.00000000000E+00 0. -1.
          4    1    6    6  502    0  0.25195711480E+03 -0.95854301378E+02 -0.56056946118E+03  0.62201973892E+03  0.00000000000E+00 0. -1.
          1    1    5    5  503    0 -0.18116938538E+03  0.18334998942E+03  0.10073209684E+03  0.27674269665E+03  0.00000000000E+00 0. -1.
         -2    1    5    5    0  503  0.96481302622E+00  0.17996422506E+02 -0.83641995212E+01  0.19868616480E+02  0.00000000000E+00 0.  1.
         -3    1    6    6    0  502  0.10685158117E+03 -0.36906596089E+02 -0.13722802993E+03  0.17779451462E+03  0.00000000000E+00 0.  1.
<mgrwt>
<rscale>  0 0.11295067E+04</rscale>
<asrwt>0</asrwt>
<pdfrwt beam="1">  1        1 0.15503167E+00 0.11295067E+04</pdfrwt>
<pdfrwt beam="2">  1       -1 0.48693443E-01 0.11295067E+04</pdfrwt>
<totfact> 0.62623789E+01</totfact>
</mgrwt>
</event>
<event>
12    1  0.1532786E-007  0.2009765E+04  0.7818608E-02  0.8602069E-01
         -1   -1    0    0    0  501 -0.00000000000E+00  0.00000000000E+00  0.79715654934E+03  0.79715654934E+03  0.00000000000E+00 0.  1.
          1   -1    0    0  501    0  0.00000000000E+00 -0.00000000000E+00 -0.12667387883E+04  0.12667387883E+04  0.00000000000E+00 0. -1.
         23    2    1    2    0    0 -0.35060235458E+03  0.40623000091E+03 -0.80036719821E+03  0.96610136360E+03  0.69421668806E+02 0.  0.
        254    2    1    2    0    0  0.35060235458E+03 -0.40623000091E+03  0.33078495925E+03  0.10977939740E+04  0.89877032411E+03 0.  0.
        -24    2    4    4    0    0  0.39265214422E+03 -0.19190912441E+02  0.52150767013E+03  0.65776842640E+03  0.78390402968E+02 0.  0.
         24    2    4    4    0    0 -0.42049789640E+02 -0.38703908847E+03 -0.19072271088E+03  0.44002554764E+03  0.75365040426E+02 0.  0.
         13    1    3    3    0    0 -0.27323985547E+03  0.29694623587E+03 -0.54969260956E+03  0.68190838873E+03  0.00000000000E+00 0. -1.
        -13    1    3    3    0    0 -0.77362499107E+02  0.10928376503E+03 -0.25067458865E+03  0.28419297486E+03  0.00000000000E+00 0.  1.
          4    1    6    6  502    0  0.13291098344E+02 -0.89738747708E+02 -0.69271751292E+02  0.11414145462E+03  0.00000000000E+00 0. -1.
          3    1    5    5  503    0  0.71827306126E+02 -0.32939692896E+02  0.11926900510E+03  0.14307089449E+03  0.00000000000E+00 0. -1.
         -4    1    5    5    0  503  0.32082483809E+03  0.13748780454E+02  0.40223866504E+03  0.51469753191E+03  0.00000000000E+00 0.  1.
         -3    1    6    6    0  502 -0.55340887983E+02 -0.29730034076E+03 -0.12145095959E+03  0.32588409302E+03  0.00000000000E+00 0.  1.
<mgrwt>
<rscale>  0 0.20097653E+04</rscale>
<asrwt>0</asrwt>
<pdfrwt beam="1">  1        1 0.19488289E+00 0.20097653E+04</pdfrwt>
<pdfrwt beam="2">  1       -1 0.12263947E+00 0.20097653E+04</pdfrwt>
<totfact> 0.51980490E+00</totfact>
</mgrwt>
</event>
<event>
12    1  0.1532786E-007  0.1516237E+04  0.7818608E-02  0.8873727E-01
          2   -1    0    0  501    0  0.00000000000E+00  0.00000000000E+00  0.19565061312E+04  0.19565061312E+04  0.00000000000E+00 0. -1.
         -2   -1    0    0    0  501 -0.00000000000E+00 -0.00000000000E+00 -0.29376019188E+03  0.29376019188E+03  0.00000000000E+00 0.  1.
         23    2    1    2    0    0 -0.15888852455E+03  0.38757498193E+03  0.16853956923E+03  0.46141770957E+03  0.95083050295E+02 0.  0.
        254    2    1    2    0    0  0.15888852455E+03 -0.38757498193E+03  0.14942063700E+04  0.17888486135E+04  0.88986895428E+03 0.  0.
        -24    2    4    4    0    0 -0.22449044120E+03  0.17439057441E+03  0.40581119812E+03  0.50291847462E+03  0.86233595316E+02 0.  0.
         24    2    4    4    0    0  0.38337896575E+03 -0.56196555634E+03  0.10883951719E+04  0.12859301389E+04  0.78914851891E+02 0.  0.
         13    1    3    3    0    0 -0.16057319113E+03  0.38040993289E+03  0.17782024788E+03  0.44957258291E+03  0.00000000000E+00 0.  1.
        -13    1    3    3    0    0  0.16846665816E+01  0.71650490422E+01 -0.92806786496E+01  0.11845126655E+02  0.00000000000E+00 0. -1.
          2    1    6    6  502    0  0.25915508321E+01 -0.31379295415E+02  0.58071903170E+02  0.66058476021E+02  0.00000000000E+00 0. -1.
          1    1    5    5  503    0 -0.10040369029E+03  0.11500913610E+03  0.15945817856E+03  0.22075985396E+03  0.00000000000E+00 0. -1.
         -2    1    5    5    0  503 -0.12408675091E+03  0.59381438309E+02  0.24635301956E+03  0.28215862066E+03  0.00000000000E+00 0.  1.
         -1    1    6    6    0  502  0.38078741492E+03 -0.53058626092E+03  0.10303232688E+04  0.12198716628E+04  0.00000000000E+00 0.  1.
<mgrwt>
<rscale>  0 0.15162369E+04</rscale>
<asrwt>0</asrwt>
<pdfrwt beam="1">  1        2 0.30100094E+00 0.15162369E+04</pdfrwt>
<pdfrwt beam="2">  1       -2 0.45193877E-01 0.15162369E+04</pdfrwt>
<totfact> 0.31658206E+01</totfact>
</mgrwt>
</event>
<event>
12    1  0.1532786E-007  0.2062697E+04  0.7818608E-02  0.8577856E-01
         -1   -1    0    0    0  501 -0.00000000000E+00  0.00000000000E+00  0.99558319875E+03  0.99558319875E+03  0.00000000000E+00 0.  1.
          1   -1    0    0  501    0  0.00000000000E+00 -0.00000000000E+00 -0.10683985050E+04  0.10683985050E+04  0.00000000000E+00 0. -1.
         23    2    1    2    0    0  0.65353919239E+03 -0.36039299441E+03  0.31578715122E+03  0.81543580128E+03  0.90650067467E+02 0.  0.
        254    2    1    2    0    0 -0.65353919239E+03  0.36039299441E+03 -0.38860245751E+03  0.12485459025E+04  0.92241986875E+03 0.  0.
        -24    2    4    4    0    0 -0.86669612761E+03  0.17711369220E+03 -0.23774738288E+03  0.91967049122E+03  0.82088712814E+02 0.  0.
         24    2    4    4    0    0  0.21315693522E+03  0.18327930221E+03 -0.15085507463E+03  0.32887541129E+03  0.79841098182E+02 0.  0.
         13    1    3    3    0    0  0.35901508400E+03 -0.19126052982E+03  0.22044235632E+03  0.46267402484E+03  0.00000000000E+00 0. -1.
        -13    1    3    3    0    0  0.29452410840E+03 -0.16913246460E+03  0.95344794894E+02  0.35276177644E+03  0.00000000000E+00 0.  1.
          2    1    6    6  502    0  0.10935445204E+03  0.54937639431E+02 -0.93928735594E+02  0.15426972411E+03  0.00000000000E+00 0. -1.
          3    1    5    5  503    0 -0.69267570608E+03  0.17463708750E+03 -0.18875868638E+03  0.73886912766E+03  0.00000000000E+00 0. -1.
         -4    1    5    5    0  503 -0.17402042153E+03  0.24766047072E+01 -0.48988696506E+02  0.18080136356E+03  0.00000000000E+00 0.  1.
         -1    1    6    6    0  502  0.10380248318E+03  0.12834166278E+03 -0.56926339032E+02  0.17460568718E+03  0.00000000000E+00 0.  1.
<mgrwt>
<rscale>  0 0.20626969E+04</rscale>
<asrwt>0</asrwt>
<pdfrwt beam="1">  1        1 0.16436900E+00 0.20626969E+04</pdfrwt>
<pdfrwt beam="2">  1       -1 0.15316665E+00 0.20626969E+04</pdfrwt>
<totfact> 0.40756418E+00</totfact>
</mgrwt>
</event>
<event>
12    1  0.1532786E-007  0.1965163E+04  0.7818608E-02  0.8623084E-01
         -1   -1    0    0    0  501 -0.00000000000E+00  0.00000000000E+00  0.76101450038E+03  0.76101450038E+03  0.00000000000E+00 0.  1.
          1   -1    0    0  501    0  0.00000000000E+00 -0.00000000000E+00 -0.12686569357E+04  0.12686569357E+04  0.00000000000E+00 0. -1.
         23    2    1    2    0    0 -0.47788950784E+03  0.50451931611E+03 -0.53684540989E+03  0.88277591727E+03  0.90400243179E+02 0.  0.
        254    2    1    2    0    0  0.47788950784E+03 -0.50451931611E+03  0.29202974557E+02  0.11468955188E+04  0.91192016938E+03 0.  0.
        -24    2    4    4    0    0  0.25946842289E+03 -0.19331055597E+03  0.45909371100E+03  0.56733442282E+03  0.80052971844E+02 0.  0.
         24    2    4    4    0    0  0.21842108496E+03 -0.31120876014E+03 -0.42989073645E+03  0.57956109600E+03  0.80785864938E+02 0.  0.
         11    1    3    3    0    0 -0.32016140781E+03  0.35483271382E+03 -0.31661977211E+03  0.57328671879E+03  0.00000000000E+00 0.  1.
        -11    1    3    3    0    0 -0.15772810003E+03  0.14968660229E+03 -0.22022563778E+03  0.30948919848E+03  0.00000000000E+00 0. -1.
          2    1    6    6  502    0  0.70194509302E+02 -0.16831454956E+03 -0.21576395984E+03  0.28250866021E+03  0.00000000000E+00 0. -1.
          1    1    5    5  503    0  0.26232693372E+03 -0.19360509371E+03  0.43788484380E+03  0.54593176212E+03  0.00000000000E+00 0. -1.
         -2    1    5    5    0  503 -0.28585108342E+01  0.29453773166E+00  0.21208867202E+02  0.21402660691E+02  0.00000000000E+00 0.  1.
         -1    1    6    6    0  502  0.14822657565E+03 -0.14289421058E+03 -0.21412677661E+03  0.29705243579E+03  0.00000000000E+00 0.  1.
<mgrwt>
<rscale>  0 0.19651629E+04</rscale>
<asrwt>0</asrwt>
<pdfrwt beam="1">  1        1 0.19517799E+00 0.19651629E+04</pdfrwt>
<pdfrwt beam="2">  1       -1 0.11707915E+00 0.19651629E+04</pdfrwt>
<totfact> 0.58274897E+00</totfact>
</mgrwt>
</event>
<event>
12    1  0.1532786E-007  0.1628744E+04  0.7818608E-02  0.8803082E-01
          2   -1    0    0  501    0  0.00000000000E+00  0.00000000000E+00  0.12059258790E+04  0.12059258790E+04  0.00000000000E+00 0. -1.
         -2   -1    0    0    0  501 -0.00000000000E+00 -0.00000000000E+00 -0.54995219379E+03  0.54995219379E+03  0.00000000000E+00 0.  1.
         23    2    1    2    0    0 -0.55029884704E+02 -0.31159790485E+03 -0.27313649094E+03  0.42863519267E+03  0.94884367504E+02 0.  0.
        254    2    1    2    0    0  0.55029884704E+02  0.31159790485E+03  0.92911017617E+03  0.13272428801E+04  0.89342397600E+03 0.  0.
        -24    2    4    4    0    0 -0.35365750683E+03  0.40067325457E+02  0.13289785755E+03  0.38834557374E+03  0.80445145270E+02 0.  0.
         24    2    4    4    0    0  0.40868739153E+03  0.27153057939E+03  0.79621231862E+03  0.93889730639E+03  0.82582419907E+02 0.  0.
         13    1    3    3    0    0 -0.56528896984E+02 -0.84795987348E+02 -0.65549461511E+02  0.12117181012E+03  0.00000000000E+00 0. -1.
        -13    1    3    3    0    0  0.14990122794E+01 -0.22680191750E+03 -0.20758702943E+03  0.30746338255E+03  0.00000000000E+00 0.  1.
          4    1    6    6  502    0  0.27848892050E+03  0.22856514709E+03  0.56504833779E+03  0.67013262071E+03  0.00000000000E+00 0. -1.
          3    1    5    5  503    0 -0.30723626173E+03  0.61353949547E+01  0.10861447797E+03  0.32592770428E+03  0.00000000000E+00 0. -1.
         -4    1    5    5    0  503 -0.46421245098E+02  0.33931930502E+02  0.24283379581E+02  0.62417869460E+02  0.00000000000E+00 0.  1.
         -3    1    6    6    0  502  0.13019847103E+03  0.42965432301E+02  0.23116398084E+03  0.26876468568E+03  0.00000000000E+00 0.  1.
<mgrwt>
<rscale>  0 0.16287438E+04</rscale>
<asrwt>0</asrwt>
<pdfrwt beam="1">  1        2 0.18552706E+00 0.16287438E+04</pdfrwt>
<pdfrwt beam="2">  1       -2 0.84608030E-01 0.16287438E+04</pdfrwt>
<totfact> 0.21891532E+01</totfact>
</mgrwt>
</event>
<event>
12    1  0.1532786E-007  0.1855101E+04  0.7818608E-02  0.8677534E-01
         -2   -1    0    0    0  501 -0.00000000000E+00  0.00000000000E+00  0.49213973624E+03  0.49213973624E+03  0.00000000000E+00 0.  1.
          2   -1    0    0  501    0  0.00000000000E+00 -0.00000000000E+00 -0.17481818272E+04  0.17481818272E+04  0.00000000000E+00 0. -1.
         23    2    1    2    0    0 -0.33283903377E+03 -0.50938304687E+03 -0.58272133699E+02  0.61929115500E+03  0.99362881719E+02 0.  0.
        254    2    1    2    0    0  0.33283903377E+03  0.50938304687E+03 -0.11977699573E+04  0.16210304084E+04  0.90710187065E+03 0.  0.
        -24    2    4    4    0    0 -0.15506026024E+03  0.56672393041E+03 -0.60596178050E+03  0.84775660103E+03  0.79258296476E+02 0.  0.
         24    2    4    4    0    0  0.48789929401E+03 -0.57340883538E+02 -0.59180817677E+03  0.77327380742E+03  0.79885950798E+02 0.  0.
         13    1    3    3    0    0 -0.30861536139E+03 -0.46522328901E+03 -0.24828058282E+02  0.55883144364E+03  0.00000000000E+00 0.  1.
        -13    1    3    3    0    0 -0.24223672372E+02 -0.44159757862E+02 -0.33444075417E+02  0.60459711363E+02  0.00000000000E+00 0. -1.
          2    1    6    6  502    0  0.24142636446E+03 -0.51273391935E+02 -0.34707524786E+03  0.42588364356E+03  0.00000000000E+00 0. -1.
          1    1    5    5  503    0 -0.68739400042E+02  0.32001155932E+03 -0.28646198220E+03  0.43496318288E+03  0.00000000000E+00 0. -1.
         -2    1    5    5    0  503 -0.86320860198E+02  0.24671237109E+03 -0.31949979830E+03  0.41279341815E+03  0.00000000000E+00 0.  1.
         -1    1    6    6    0  502  0.24647292954E+03 -0.60674916032E+01 -0.24473292891E+03  0.34739016385E+03  0.00000000000E+00 0.  1.
<mgrwt>
<rscale>  0 0.18551008E+04</rscale>
<asrwt>0</asrwt>
<pdfrwt beam="1">  1        2 0.26895105E+00 0.18551008E+04</pdfrwt>
<pdfrwt beam="2">  1       -2 0.75713805E-01 0.18551008E+04</pdfrwt>
<totfact> 0.13548691E+01</totfact>
</mgrwt>
</event>
<event>
12    1  0.1532786E-007  0.1147198E+04  0.7818608E-02  0.9160372E-01
          1   -1    0    0  501    0  0.00000000000E+00  0.00000000000E+00  0.26535109431E+03  0.26535109431E+03  0.00000000000E+00 0. -1.
         -1   -1    0    0    0  501 -0.00000000000E+00 -0.00000000000E+00 -0.12399264657E+04  0.12399264657E+04  0.00000000000E+00 0.  1.
         23    2    1    2    0    0 -0.10944901161E+03 -0.11060030040E+03 -0.38968652417E+03  0.42956760563E+03  0.91984934066E+02 0.  0.
        254    2    1    2    0    0  0.10944901161E+03  0.11060030040E+03 -0.58488884720E+03  0.10757099544E+04  0.88929490594E+03 0.  0.
        -24    2    4    4    0    0 -0.88818105926E+02  0.18997651573E+03  0.17356432681E+03  0.28382122819E+03  0.80313022375E+02 0.  0.
         24    2    4    4    0    0  0.19826711754E+03 -0.79376215323E+02 -0.75845317402E+03  0.79188872617E+03  0.78905665180E+02 0.  0.
         11    1    3    3    0    0 -0.17195721597E+02  0.15796815881E+02 -0.37405373982E+02  0.44095285870E+02  0.00000000000E+00 0. -1.
        -11    1    3    3    0    0 -0.92253290017E+02 -0.12639711628E+03 -0.35228115019E+03  0.38547231976E+03  0.00000000000E+00 0.  1.
          4    1    6    6  502    0  0.36775622899E+02 -0.46915449857E+02 -0.14675091781E+03  0.15839614185E+03  0.00000000000E+00 0. -1.
          1    1    5    5  503    0 -0.15372502400E+01 -0.60087304971E+01  0.17370998256E+02  0.18445041634E+02  0.00000000000E+00 0. -1.
         -2    1    5    5    0  503 -0.87280855686E+02  0.19598524622E+03  0.15619332856E+03  0.26537618656E+03  0.00000000000E+00 0.  1.
         -3    1    6    6    0  502  0.16149149464E+03 -0.32460765466E+02 -0.61170225621E+03  0.63349258432E+03  0.00000000000E+00 0.  1.
<mgrwt>
<rscale>  0 0.11471981E+04</rscale>
<asrwt>0</asrwt>
<pdfrwt beam="1">  1        1 0.40823244E-01 0.11471981E+04</pdfrwt>
<pdfrwt beam="2">  1       -1 0.19075792E+00 0.11471981E+04</pdfrwt>
<totfact> 0.17847520E+01</totfact>
</mgrwt>
</event>
<event>
12    1  0.1532786E-007  0.1311018E+04  0.7818608E-02  0.9020873E-01
          4   -1    0    0  501    0  0.00000000000E+00  0.00000000000E+00  0.55003929669E+03  0.55003929669E+03  0.00000000000E+00 0. -1.
         -4   -1    0    0    0  501 -0.00000000000E+00 -0.00000000000E+00 -0.78120192370E+03  0.78120192370E+03  0.00000000000E+00 0.  1.
         23    2    1    2    0    0  0.66627402419E+02  0.24128412640E+02 -0.40346023576E+03  0.41984704068E+03  0.92032519700E+02 0.  0.
        254    2    1    2    0    0 -0.66627402419E+02 -0.24128412640E+02  0.17229760874E+03  0.91139417970E+03  0.89214992785E+03 0.  0.
        -24    2    4    4    0    0 -0.99733246937E+00  0.16636110246E+03 -0.32216192727E+03  0.37159338705E+03  0.81340806692E+02 0.  0.
         24    2    4    4    0    0 -0.65630069949E+02 -0.19048951510E+03  0.49445953601E+03  0.53980079266E+03  0.79379478183E+02 0.  0.
         13    1    3    3    0    0  0.19549745135E+02  0.53253996371E+02 -0.25906944845E+03  0.26520776720E+03  0.00000000000E+00 0. -1.
        -13    1    3    3    0    0  0.47077657284E+02 -0.29125583731E+02 -0.14439078731E+03  0.15463927348E+03  0.00000000000E+00 0.  1.
          4    1    6    6  502    0 -0.21062052914E+02 -0.51120645051E+02  0.61084633615E+02  0.82390915077E+02  0.00000000000E+00 0. -1.
          1    1    5    5  503    0  0.94189709603E+01  0.66404494125E+02 -0.56975539739E+02  0.88002761221E+02  0.00000000000E+00 0. -1.
         -2    1    5    5    0  503 -0.10416303430E+02  0.99956608339E+02 -0.26518638753E+03  0.28359062583E+03  0.00000000000E+00 0.  1.
         -3    1    6    6    0  502 -0.44568017035E+02 -0.13936887005E+03  0.43337490239E+03  0.45740987758E+03  0.00000000000E+00 0.  1.
<mgrwt>
<rscale>  0 0.13110176E+04</rscale>
<asrwt>0</asrwt>
<pdfrwt beam="1">  1        4 0.84621430E-01 0.13110176E+04</pdfrwt>
<pdfrwt beam="2">  1       -4 0.12018491E+00 0.13110176E+04</pdfrwt>
<totfact> 0.12587127E+00</totfact>
</mgrwt>
</event>
<event>
12    1  0.1532786E-007  0.1261695E+04  0.7818608E-02  0.9060506E-01
         -1   -1    0    0    0  501 -0.00000000000E+00  0.00000000000E+00  0.13887944856E+03  0.13887944856E+03  0.00000000000E+00 0.  1.
          1   -1    0    0  501    0  0.00000000000E+00 -0.00000000000E+00 -0.28655674801E+04  0.28655674801E+04  0.00000000000E+00 0. -1.
         23    2    1    2    0    0  0.92586654498E+00 -0.13163391202E+03 -0.13464851865E+04  0.13559066948E+04  0.90179062859E+02 0.  0.
        254    2    1    2    0    0 -0.92586654498E+00  0.13163391202E+03 -0.13802028451E+04  0.16485402339E+04  0.89185013614E+03 0.  0.
        -24    2    4    4    0    0  0.26492594396E+03 -0.20181510824E+03 -0.10467641638E+04  0.11012447568E+04  0.78164609659E+02 0.  0.
         24    2    4    4    0    0 -0.26585181051E+03  0.33344902027E+03 -0.33343868128E+03  0.54729547708E+03  0.80532917399E+02 0.  0.
         13    1    3    3    0    0 -0.33760319813E+02 -0.11460799800E+03 -0.10897711611E+04  0.10963010244E+04  0.00000000000E+00 0. -1.
        -13    1    3    3    0    0  0.34686186358E+02 -0.17025914023E+02 -0.25671402539E+03  0.25960567040E+03  0.00000000000E+00 0.  1.
          2    1    6    6  502    0 -0.14734815459E+03  0.20861339872E+03 -0.24441863276E+03  0.35351307872E+03  0.00000000000E+00 0. -1.
          1    1    5    5  503    0  0.15703648843E+03 -0.15691956246E+03 -0.61088695518E+03  0.64997467626E+03  0.00000000000E+00 0. -1.
         -2    1    5    5    0  503  0.10788945553E+03 -0.44895545787E+02 -0.43587720861E+03  0.45127008058E+03  0.00000000000E+00 0.  1.
         -1    1    6    6    0  502 -0.11850365592E+03  0.12483562155E+03 -0.89020048520E+02  0.19378239835E+03  0.00000000000E+00 0.  1.
<mgrwt>
<rscale>  0 0.12616948E+04</rscale>
<asrwt>0</asrwt>
<pdfrwt beam="1">  1        1 0.44085655E+00 0.12616948E+04</pdfrwt>
<pdfrwt beam="2">  1       -1 0.21366068E-01 0.12616948E+04</pdfrwt>
<totfact> 0.13615299E+01</totfact>
</mgrwt>
</event>
<event>
12    1  0.1532786E-007  0.1465738E+04  0.7818608E-02  0.8907562E-01
         -2   -1    0    0    0  501 -0.00000000000E+00  0.00000000000E+00  0.59319884403E+03  0.59319884403E+03  0.00000000000E+00 0.  1.
          2   -1    0    0  501    0  0.00000000000E+00 -0.00000000000E+00 -0.90542538092E+03  0.90542538092E+03  0.00000000000E+00 0. -1.
         23    2    1    2    0    0 -0.69801513506E+02 -0.24759566186E+03  0.24207820105E+03  0.36567456057E+03  0.94552449838E+02 0.  0.
        254    2    1    2    0    0  0.69801513506E+02  0.24759566186E+03 -0.55430473794E+03  0.11329496644E+04  0.95401537537E+03 0.  0.
        -24    2    4    4    0    0 -0.16147343750E+03 -0.32104961655E+03 -0.22991702204E+03  0.43375375039E+03  0.78319548336E+02 0.  0.
         24    2    4    4    0    0  0.23127495100E+03  0.56864527841E+03 -0.32438771590E+03  0.69919591397E+03  0.82474118805E+02 0.  0.
         11    1    3    3    0    0  0.11367662616E+02 -0.41934517216E+02  0.89226870619E+01  0.44354727278E+02  0.00000000000E+00 0. -1.
        -11    1    3    3    0    0 -0.81169176123E+02 -0.20566114464E+03  0.23315551398E+03  0.32131983330E+03  0.00000000000E+00 0.  1.
          4    1    6    6  502    0  0.20358285798E+03  0.54308165894E+03 -0.29122849151E+03  0.64899745963E+03  0.00000000000E+00 0. -1.
          3    1    5    5  503    0 -0.73697602434E+02 -0.21641246612E+03 -0.11855048591E+03  0.25752652253E+03  0.00000000000E+00 0. -1.
         -2    1    5    5    0  503 -0.87775835062E+02 -0.10463715044E+03 -0.11136653613E+03  0.17622722787E+03  0.00000000000E+00 0.  1.
         -3    1    6    6    0  502  0.27692093027E+02  0.25563619473E+02 -0.33159224387E+02  0.50198454346E+02  0.00000000000E+00 0.  1.
<mgrwt>
<rscale>  0 0.14657384E+04</rscale>
<asrwt>0</asrwt>
<pdfrwt beam="1">  1        2 0.13929621E+00 0.14657384E+04</pdfrwt>
<pdfrwt beam="2">  1       -2 0.91261361E-01 0.14657384E+04</pdfrwt>
<totfact> 0.28828185E+01</totfact>
</mgrwt>
</event>
<event>
12    1  0.1532786E-007  0.1595584E+04  0.7818608E-02  0.8823265E-01
          1   -1    0    0  501    0  0.00000000000E+00  0.00000000000E+00  0.73664423138E+03  0.73664423138E+03  0.00000000000E+00 0. -1.
         -1   -1    0    0    0  501 -0.00000000000E+00 -0.00000000000E+00 -0.86401566186E+03  0.86401566186E+03  0.00000000000E+00 0.  1.
         23    2    1    2    0    0 -0.45280907820E+03  0.32439543209E+02 -0.34519002398E+03  0.57740302133E+03  0.90275750426E+02 0.  0.
        254    2    1    2    0    0  0.45280907820E+03 -0.32439543209E+02  0.21781859350E+03  0.10232568719E+04  0.89079812582E+03 0.  0.
        -24    2    4    4    0    0  0.25368593745E+03  0.36971495824E+03  0.31963498001E+03  0.55626483417E+03  0.78856452388E+02 0.  0.
         24    2    4    4    0    0  0.19912314076E+03 -0.40215450145E+03 -0.10181638651E+03  0.46699203774E+03  0.79603508302E+02 0.  0.
         13    1    3    3    0    0 -0.25411139179E+03  0.26820526225E+02 -0.24820851818E+03  0.35622943247E+03  0.00000000000E+00 0. -1.
        -13    1    3    3    0    0 -0.19869768642E+03  0.56190169834E+01 -0.96981505798E+02  0.22117358885E+03  0.00000000000E+00 0.  1.
          2    1    6    6  502    0  0.91425378292E+02 -0.20092248997E+03 -0.90183698954E+02  0.23845659213E+03  0.00000000000E+00 0. -1.
          3    1    5    5  503    0  0.23710755268E+02  0.22267940472E+02  0.51066067553E+02  0.60545886265E+02  0.00000000000E+00 0. -1.
         -4    1    5    5    0  503  0.22997518218E+03  0.34744701776E+03  0.26856891246E+03  0.49571894790E+03  0.00000000000E+00 0.  1.
         -1    1    6    6    0  502  0.10769776247E+03 -0.20123201147E+03 -0.11632687555E+02  0.22853544561E+03  0.00000000000E+00 0.  1.
<mgrwt>
<rscale>  0 0.15955841E+04</rscale>
<asrwt>0</asrwt>
<pdfrwt beam="1">  1        1 0.11332988E+00 0.15955841E+04</pdfrwt>
<pdfrwt beam="2">  1       -1 0.13292549E+00 0.15955841E+04</pdfrwt>
<totfact> 0.11589770E+01</totfact>
</mgrwt>
</event>
<event>
12    1  0.1532786E-007  0.1834977E+04  0.7818608E-02  0.8687917E-01
          2   -1    0    0  501    0  0.00000000000E+00  0.00000000000E+00  0.45065439862E+03  0.45065439862E+03  0.00000000000E+00 0. -1.
         -2   -1    0    0    0  501 -0.00000000000E+00 -0.00000000000E+00 -0.18679176452E+04  0.18679176452E+04  0.00000000000E+00 0.  1.
         23    2    1    2    0    0  0.23132253217E+03 -0.61118108500E+03 -0.24649066013E+03  0.70435129045E+03  0.91107970418E+02 0.  0.
        254    2    1    2    0    0 -0.23132253217E+03  0.61118108500E+03 -0.11707725864E+04  0.16142207533E+04  0.89885914294E+03 0.  0.
        -24    2    4    4    0    0 -0.53918102387E+03  0.17821628435E+03 -0.63097387554E+03  0.85269038788E+03  0.80471395280E+02 0.  0.
         24    2    4    4    0    0  0.30785849170E+03  0.43296480066E+03 -0.53979871087E+03  0.76153036545E+03  0.79438527981E+02 0.  0.
         13    1    3    3    0    0  0.55314191794E+02 -0.11525794683E+03 -0.86423115319E+02  0.15431464280E+03  0.00000000000E+00 0.  1.
        -13    1    3    3    0    0  0.17600834038E+03 -0.49592313817E+03 -0.16006754482E+03  0.55003664765E+03  0.00000000000E+00 0. -1.
          2    1    6    6  502    0  0.28466064039E+03  0.40872087797E+03 -0.52826269845E+03  0.72604814912E+03  0.00000000000E+00 0. -1.
          3    1    5    5  503    0 -0.35322611186E+03  0.13913884367E+03 -0.46584225248E+03  0.60094700941E+03  0.00000000000E+00 0. -1.
         -4    1    5    5    0  503 -0.18595491201E+03  0.39077440679E+02 -0.16513162306E+03  0.25174337847E+03  0.00000000000E+00 0.  1.
         -1    1    6    6    0  502  0.23197851314E+02  0.24243922685E+02 -0.11536012417E+02  0.35482216323E+02  0.00000000000E+00 0.  1.
<mgrwt>
<rscale>  0 0.18349772E+04</rscale>
<asrwt>0</asrwt>
<pdfrwt beam="1">  1        2 0.69331444E-01 0.18349772E+04</pdfrwt>
<pdfrwt beam="2">  1       -2 0.28737195E+00 0.18349772E+04</pdfrwt>
<totfact> 0.24844910E+00</totfact>
</mgrwt>
</event>
<event>
12    1  0.1532786E-007  0.2316631E+04  0.7818608E-02  0.8471392E-01
          1   -1    0    0  501    0  0.00000000000E+00  0.00000000000E+00  0.49615593976E+03  0.49615593976E+03  0.00000000000E+00 0. -1.
         -1   -1    0    0    0  501 -0.00000000000E+00 -0.00000000000E+00 -0.27041801233E+04  0.27041801233E+04  0.00000000000E+00 0.  1.
         23    2    1    2    0    0 -0.64546166771E+03 -0.41385407862E+03 -0.17842890549E+04  0.19442458185E+04  0.92241033327E+02 0.  0.
        254    2    1    2    0    0  0.64546166771E+03  0.41385407862E+03 -0.42373512866E+03  0.12560902446E+04  0.90017513881E+03 0.  0.
        -24    2    4    4    0    0  0.71694891479E+03  0.61966365861E+03 -0.33855844010E+03  0.10093982709E+04  0.79147051098E+02 0.  0.
         24    2    4    4    0    0 -0.71487247072E+02 -0.20580957999E+03 -0.85176688565E+02  0.24669197375E+03  0.78318911687E+02 0.  0.
         11    1    3    3    0    0 -0.15014931831E+02 -0.29598428242E+02 -0.60741503977E+02  0.69217378148E+02  0.00000000000E+00 0. -1.
        -11    1    3    3    0    0 -0.63044673588E+03 -0.38425565038E+03 -0.17235475509E+04  0.18750284403E+04  0.00000000000E+00 0.  1.
          2    1    6    6  502    0 -0.39582045711E+02 -0.16455545298E+03 -0.32071763756E+02  0.17226094589E+03  0.00000000000E+00 0. -1.
          3    1    5    5  503    0  0.46022687201E+03  0.37545393075E+03 -0.24829945575E+03  0.64376008540E+03  0.00000000000E+00 0. -1.
         -4    1    5    5    0  503  0.25672204278E+03  0.24420972786E+03 -0.90258984353E+02  0.36563818548E+03  0.00000000000E+00 0.  1.
         -1    1    6    6    0  502 -0.31905201361E+02 -0.41254127008E+02 -0.53104924810E+02  0.74431027859E+02  0.00000000000E+00 0.  1.
<mgrwt>
<rscale>  0 0.23166312E+04</rscale>
<asrwt>0</asrwt>
<pdfrwt beam="1">  1        1 0.76331684E-01 0.23166312E+04</pdfrwt>
<pdfrwt beam="2">  1       -1 0.41602771E+00 0.23166312E+04</pdfrwt>
<totfact> 0.22460938E-01</totfact>
</mgrwt>
</event>
<event>
12    1  0.1532786E-007  0.2573387E+04  0.7818608E-02  0.8377298E-01
         -2   -1    0    0    0  501 -0.00000000000E+00  0.00000000000E+00  0.24094892299E+04  0.24094892299E+04  0.00000000000E+00 0.  1.
          2   -1    0    0  501    0  0.00000000000E+00 -0.00000000000E+00 -0.68710836741E+03  0.68710836741E+03  0.00000000000E+00 0. -1.
         23    2    1    2    0    0  0.87934410667E+03 -0.51028366248E+03  0.17631285642E+03  0.10360972248E+04  0.93679035855E+02 0.  0.
        254    2    1    2    0    0 -0.87934410667E+03  0.51028366248E+03  0.15460680061E+04  0.20605003726E+04  0.90647671325E+03 0.  0.
        -24    2    4    4    0    0 -0.75416745987E+03  0.41524103477E+03  0.49883098551E+03  0.99829684080E+03  0.81058964732E+02 0.  0.
         24    2    4    4    0    0 -0.12517664679E+03  0.95042627716E+02  0.10472370206E+04  0.10622035318E+04  0.82877449174E+02 0.  0.
         13    1    3    3    0    0  0.12674381327E+03 -0.11053406605E+03  0.42704101805E+02  0.17350911870E+03  0.00000000000E+00 0.  1.
        -13    1    3    3    0    0  0.75260029340E+03 -0.39974959643E+03  0.13360875461E+03  0.86258810610E+03  0.00000000000E+00 0. -1.
          4    1    6    6  502    0 -0.11170433309E+03  0.72533146027E+02  0.61913747485E+03  0.63330097747E+03  0.00000000000E+00 0. -1.
          3    1    5    5  503    0 -0.65962798542E+03  0.37573937578E+03  0.41049974912E+03  0.86301749790E+03  0.00000000000E+00 0. -1.
         -4    1    5    5    0  503 -0.94539474455E+02  0.39501658991E+02  0.88331236394E+02  0.13527934290E+03  0.00000000000E+00 0.  1.
         -3    1    6    6    0  502 -0.13472313700E+02  0.22509481689E+02  0.42809954574E+03  0.42890255428E+03  0.00000000000E+00 0.  1.
<mgrwt>
<rscale>  0 0.25733870E+04</rscale>
<asrwt>0</asrwt>
<pdfrwt beam="1">  1        2 0.10570898E+00 0.25733870E+04</pdfrwt>
<pdfrwt beam="2">  1       -2 0.37069065E+00 0.25733870E+04</pdfrwt>
<totfact> 0.42749298E-01</totfact>
</mgrwt>
</event>
<event>
12    1  0.1532786E-007  0.1299983E+04  0.7818608E-02  0.9029578E-01
          2   -1    0    0  501    0  0.00000000000E+00  0.00000000000E+00  0.24632864335E+04  0.24632864335E+04  0.00000000000E+00 0. -1.
         -2   -1    0    0    0  501 -0.00000000000E+00 -0.00000000000E+00 -0.17151446652E+03  0.17151446652E+03  0.00000000000E+00 0.  1.
         23    2    1    2    0    0  0.18969771415E+02  0.31655988202E+03  0.42532772880E+03  0.53937428382E+03  0.97215893898E+02 0.  0.
        254    2    1    2    0    0 -0.18969771415E+02 -0.31655988202E+03  0.18664442382E+04  0.20954266162E+04  0.89812504616E+03 0.  0.
        -24    2    4    4    0    0  0.21723040496E+03 -0.13189794165E+03  0.17392223502E+04  0.17595767180E+04  0.81423136407E+02 0.  0.
         24    2    4    4    0    0 -0.23620017637E+03 -0.18466194037E+03  0.12722188800E+03  0.33584989825E+03  0.81970664452E+02 0.  0.
         13    1    3    3    0    0 -0.19462405454E+02  0.22642298578E+03  0.34266619916E+03  0.41117669896E+03  0.00000000000E+00 0.  1.
        -13    1    3    3    0    0  0.38432176869E+02  0.90136896241E+02  0.82661529640E+02  0.12819758487E+03  0.00000000000E+00 0. -1.
          4    1    6    6  502    0 -0.54229478149E+02 -0.90314992060E+02  0.34226996022E+02  0.11076606587E+03  0.00000000000E+00 0. -1.
          1    1    5    5  503    0  0.68640913215E+02 -0.24842997834E+02  0.75004637555E+03  0.75359028323E+03  0.00000000000E+00 0. -1.
         -2    1    5    5    0  503  0.14858949174E+03 -0.10705494382E+03  0.98917597465E+03  0.10059864347E+04  0.00000000000E+00 0.  1.
         -3    1    6    6    0  502 -0.18197069822E+03 -0.94346948308E+02  0.92994891974E+02  0.22508383238E+03  0.00000000000E+00 0.  1.
<mgrwt>
<rscale>  0 0.12999835E+04</rscale>
<asrwt>0</asrwt>
<pdfrwt beam="1">  1        2 0.37896712E+00 0.12999835E+04</pdfrwt>
<pdfrwt beam="2">  1       -2 0.26386843E-01 0.12999835E+04</pdfrwt>
<totfact> 0.46792224E+01</totfact>
</mgrwt>
</event>
<event>
12    1  0.1532786E-007  0.1789480E+04  0.7818608E-02  0.8711914E-01
          1   -1    0    0  501    0  0.00000000000E+00  0.00000000000E+00  0.35946433968E+04  0.35946433968E+04  0.00000000000E+00 0. -1.
         -1   -1    0    0    0  501 -0.00000000000E+00 -0.00000000000E+00 -0.22270900974E+03  0.22270900974E+03  0.00000000000E+00 0.  1.
         23    2    1    2    0    0 -0.62260269047E+03  0.16470369887E+03  0.15832348807E+04  0.17117323290E+04  0.92916412976E+02 0.  0.
        254    2    1    2    0    0  0.62260269047E+03 -0.16470369887E+03  0.17886995063E+04  0.21056200776E+04  0.90522293860E+03 0.  0.
        -24    2    4    4    0    0 -0.17421003293E+03 -0.50740674142E+01  0.80308162624E+03  0.82582563033E+03  0.81688380883E+02 0.  0.
         24    2    4    4    0    0  0.79681272340E+03 -0.15962963145E+03  0.98561788006E+03  0.12797944472E+04  0.77711558028E+02 0.  0.
         13    1    3    3    0    0 -0.54196566011E+03  0.10990062507E+03  0.13306636679E+04  0.14409964334E+04  0.00000000000E+00 0. -1.
        -13    1    3    3    0    0 -0.80637030359E+02  0.54803073801E+02  0.25257121285E+03  0.27073589552E+03  0.00000000000E+00 0.  1.
          4    1    6    6  502    0  0.81482177899E+02 -0.26494304745E+02  0.14092026639E+03  0.16492366409E+03  0.00000000000E+00 0. -1.
          3    1    5    5  503    0 -0.17842710314E+01 -0.19367354318E+02  0.78448409610E+02  0.80823455795E+02  0.00000000000E+00 0. -1.
         -4    1    5    5    0  503 -0.17242576190E+03  0.14293286904E+02  0.72463321663E+03  0.74500217454E+03  0.00000000000E+00 0.  1.
         -3    1    6    6    0  502  0.71533054550E+03 -0.13313532671E+03  0.84469761367E+03  0.11148707831E+04  0.00000000000E+00 0.  1.
<mgrwt>
<rscale>  0 0.17894798E+04</rscale>
<asrwt>0</asrwt>
<pdfrwt beam="1">  1        1 0.55302202E+00 0.17894798E+04</pdfrwt>
<pdfrwt beam="2">  1       -1 0.34262927E-01 0.17894798E+04</pdfrwt>
<totfact> 0.16117238E+00</totfact>
</mgrwt>
</event>
<event>
12    1  0.1532786E-007  0.1186623E+04  0.7818608E-02  0.9124646E-01
          1   -1    0    0  501    0  0.00000000000E+00  0.00000000000E+00  0.96086467670E+03  0.96086467670E+03  0.00000000000E+00 0. -1.
         -1   -1    0    0    0  501 -0.00000000000E+00 -0.00000000000E+00 -0.36635613062E+03  0.36635613062E+03  0.00000000000E+00 0.  1.
         23    2    1    2    0    0 -0.17566614111E+03 -0.17591687127E+03  0.14812901555E+03  0.30177517875E+03  0.85561174206E+02 0.  0.
        254    2    1    2    0    0  0.17566614111E+03  0.17591687127E+03  0.44637953053E+03  0.10254456286E+04  0.88908869813E+03 0.  0.
        -24    2    4    4    0    0  0.35655704224E+03  0.45218947356E+03  0.31534245405E+03  0.66146831662E+03  0.80568146264E+02 0.  0.
         24    2    4    4    0    0 -0.18089090113E+03 -0.27627260230E+03  0.13103707648E+03  0.36397731195E+03  0.79124580940E+02 0.  0.
         13    1    3    3    0    0 -0.70316270890E+02 -0.94686359475E+02  0.11490211168E+03  0.16465837328E+03  0.00000000000E+00 0. -1.
        -13    1    3    3    0    0 -0.10534987022E+03 -0.81230511790E+02  0.33226903875E+02  0.13711680547E+03  0.00000000000E+00 0.  1.
          4    1    6    6  502    0 -0.18289863301E+03 -0.27895821812E+03  0.13402223990E+03  0.35948791107E+03  0.00000000000E+00 0. -1.
          1    1    5    5  503    0  0.11563375202E+03  0.20165425285E+03  0.10382788115E+03  0.25458953475E+03  0.00000000000E+00 0. -1.
         -2    1    5    5    0  503  0.24092329022E+03  0.25053522071E+03  0.21151457290E+03  0.40687878187E+03  0.00000000000E+00 0.  1.
         -3    1    6    6    0  502  0.20077318808E+01  0.26856158259E+01 -0.29851634152E+01  0.44894008827E+01  0.00000000000E+00 0.  1.
<mgrwt>
<rscale>  0 0.11866232E+04</rscale>
<asrwt>0</asrwt>
<pdfrwt beam="1">  1        1 0.14782533E+00 0.11866232E+04</pdfrwt>
<pdfrwt beam="2">  1       -1 0.56362482E-01 0.11866232E+04</pdfrwt>
<totfact> 0.51266505E+01</totfact>
</mgrwt>
</event>
<event>
12    1  0.1532786E-007  0.1408567E+04  0.7818608E-02  0.8947641E-01
         -2   -1    0    0    0  501 -0.00000000000E+00  0.00000000000E+00  0.39770467087E+03  0.39770467087E+03  0.00000000000E+00 0.  1.
          2   -1    0    0  501    0  0.00000000000E+00 -0.00000000000E+00 -0.12471950253E+04  0.12471950253E+04  0.00000000000E+00 0. -1.
         23    2    1    2    0    0 -0.20429270206E+03  0.35525214959E+03 -0.23985177815E+03  0.48354082746E+03  0.91341438751E+02 0.  0.
        254    2    1    2    0    0  0.20429270206E+03 -0.35525214959E+03 -0.60963857629E+03  0.11613588687E+04  0.89953078343E+03 0.  0.
        -24    2    4    4    0    0  0.42881730152E+03  0.72183257165E+02 -0.48522827386E+03  0.65656143191E+03  0.80819152525E+02 0.  0.
         24    2    4    4    0    0 -0.22452459946E+03 -0.42743540676E+03 -0.12441030243E+03  0.50479743680E+03  0.78931654876E+02 0.  0.
         13    1    3    3    0    0 -0.34031108431E+02  0.72928210279E+02 -0.88192901506E+01  0.80959372986E+02  0.00000000000E+00 0. -1.
        -13    1    3    3    0    0 -0.17026159363E+03  0.28232393931E+03 -0.23103248800E+03  0.40258145447E+03  0.00000000000E+00 0.  1.
          2    1    6    6  502    0 -0.33479600028E+02 -0.20122440517E+02 -0.14582325701E+02  0.41694609403E+02  0.00000000000E+00 0. -1.
          3    1    5    5  503    0  0.32605146368E+02 -0.12621480336E+02 -0.58199473475E+02  0.67893858693E+02  0.00000000000E+00 0. -1.
         -4    1    5    5    0  503  0.39621215516E+03  0.84804737501E+02 -0.42702880039E+03  0.58866757322E+03  0.00000000000E+00 0.  1.
         -1    1    6    6    0  502 -0.19104499943E+03 -0.40731296624E+03 -0.10982797673E+03  0.46310282740E+03  0.00000000000E+00 0.  1.
<mgrwt>
<rscale>  0 0.14085671E+04</rscale>
<asrwt>0</asrwt>
<pdfrwt beam="1">  1        2 0.19187616E+00 0.14085671E+04</pdfrwt>
<pdfrwt beam="2">  1       -2 0.61185333E-01 0.14085671E+04</pdfrwt>
<totfact> 0.42910838E+01</totfact>
</mgrwt>
</event>
<event>
12    1  0.1532786E-007  0.1374177E+04  0.7818608E-02  0.8972726E-01
          2   -1    0    0  501    0  0.00000000000E+00  0.00000000000E+00  0.12326647699E+04  0.12326647699E+04  0.00000000000E+00 0. -1.
         -2   -1    0    0    0  501 -0.00000000000E+00 -0.00000000000E+00 -0.38298373510E+03  0.38298373510E+03  0.00000000000E+00 0.  1.
         23    2    1    2    0    0  0.38742681471E+03 -0.19958782914E+02  0.18156297717E+03  0.43690253940E+03  0.86144207478E+02 0.  0.
        254    2    1    2    0    0 -0.38742681471E+03  0.19958782914E+02  0.66811805763E+03  0.11787459656E+04  0.89025975014E+03 0.  0.
        -24    2    4    4    0    0 -0.36520432384E+03 -0.26612332432E+03  0.12835561983E+02  0.45898586025E+03  0.79419433167E+02 0.  0.
         24    2    4    4    0    0 -0.22222490869E+02  0.28608210723E+03  0.65528249565E+03  0.71976010535E+03  0.79515086417E+02 0.  0.
         13    1    3    3    0    0  0.21272561912E+03 -0.21042102412E+02  0.14530994176E+03  0.25847618513E+03  0.00000000000E+00 0. -1.
        -13    1    3    3    0    0  0.17470119558E+03  0.10833194985E+01  0.36253035408E+02  0.17842635426E+03  0.00000000000E+00 0.  1.
          2    1    6    6  502    0 -0.15054214383E+02  0.28931738319E+03  0.63349994851E+03  0.69660129368E+03  0.00000000000E+00 0. -1.
          3    1    5    5  503    0 -0.33502882107E+03 -0.21125050046E+03  0.14598118935E+02  0.39633847904E+03  0.00000000000E+00 0. -1.
         -4    1    5    5    0  503 -0.30175502767E+02 -0.54872823863E+02 -0.17625569525E+01  0.62647381214E+02  0.00000000000E+00 0.  1.
         -3    1    6    6    0  502 -0.71682764858E+01 -0.32352759571E+01  0.21782547135E+02  0.23158811670E+02  0.00000000000E+00 0.  1.
<mgrwt>
<rscale>  0 0.13741769E+04</rscale>
<asrwt>0</asrwt>
<pdfrwt beam="1">  1        2 0.18964073E+00 0.13741769E+04</pdfrwt>
<pdfrwt beam="2">  1       -2 0.58920575E-01 0.13741769E+04</pdfrwt>
<totfact> 0.47524439E+01</totfact>
</mgrwt>
</event>
<event>
12    1  0.1532786E-007  0.1586228E+04  0.7818608E-02  0.8829054E-01
         -1   -1    0    0    0  501 -0.00000000000E+00  0.00000000000E+00  0.54566243451E+03  0.54566243451E+03  0.00000000000E+00 0.  1.
          1   -1    0    0  501    0  0.00000000000E+00 -0.00000000000E+00 -0.11527820082E+04  0.11527820082E+04  0.00000000000E+00 0. -1.
         23    2    1    2    0    0  0.34345723799E+03  0.38456223515E+03 -0.36806903972E+03  0.64014304315E+03  0.91963637687E+02 0.  0.
        254    2    1    2    0    0 -0.34345723799E+03 -0.38456223515E+03 -0.23905053397E+03  0.10583013996E+04  0.89275176141E+03 0.  0.
        -24    2    4    4    0    0 -0.70731339057E+02  0.27834460776E+03 -0.14030298686E+03  0.33014714622E+03  0.82665392048E+02 0.  0.
         24    2    4    4    0    0 -0.27272589893E+03 -0.66290684292E+03 -0.98747547115E+02  0.72815425335E+03  0.81441023263E+02 0.  0.
         13    1    3    3    0    0  0.12583098545E+03  0.89488130927E+02 -0.13946196507E+03  0.20806537957E+03  0.00000000000E+00 0.  1.
        -13    1    3    3    0    0  0.21762625253E+03  0.29507410422E+03 -0.22860707465E+03  0.43207766357E+03  0.00000000000E+00 0. -1.
          2    1    6    6  502    0 -0.14240371928E+03 -0.42310145183E+03 -0.87995740717E+02  0.45501308573E+03  0.00000000000E+00 0. -1.
          3    1    5    5  503    0 -0.61970796193E+02  0.25683711978E+03 -0.15128844144E+03  0.30445669346E+03  0.00000000000E+00 0. -1.
         -4    1    5    5    0  503 -0.87605428637E+01  0.21507487989E+02  0.10985454589E+02  0.25690452767E+02  0.00000000000E+00 0.  1.
         -1    1    6    6    0  502 -0.13032217965E+03 -0.23980539109E+03 -0.10751806398E+02  0.27314116761E+03  0.00000000000E+00 0.  1.
<mgrwt>
<rscale>  0 0.15862280E+04</rscale>
<asrwt>0</asrwt>
<pdfrwt beam="1">  1        1 0.17735108E+00 0.15862280E+04</pdfrwt>
<pdfrwt beam="2">  1       -1 0.83948067E-01 0.15862280E+04</pdfrwt>
<totfact> 0.15644514E+01</totfact>
</mgrwt>
</event>
<event>
12    1  0.1532786E-007  0.2345523E+04  0.7818608E-02  0.8460185E-01
          2   -1    0    0  501    0  0.00000000000E+00  0.00000000000E+00  0.40138512442E+04  0.40138512442E+04  0.00000000000E+00 0. -1.
         -2   -1    0    0    0  501 -0.00000000000E+00 -0.00000000000E+00 -0.34265592854E+03  0.34265592854E+03  0.00000000000E+00 0.  1.
         23    2    1    2    0    0 -0.77860942422E+03 -0.24332309884E+02  0.41079506957E+03  0.88536912687E+03  0.91110947983E+02 0.  0.
        254    2    1    2    0    0  0.77860942422E+03  0.24332309884E+02  0.32604002461E+04  0.34711380459E+04  0.90097995097E+03 0.  0.
        -24    2    4    4    0    0  0.32089535448E+03 -0.65582897303E+02  0.27675388778E+04  0.27881494787E+04  0.85036055994E+02 0.  0.
         24    2    4    4    0    0  0.45771406975E+03  0.89915207187E+02  0.49286136835E+03  0.68298856717E+03  0.77292563395E+02 0.  0.
         13    1    3    3    0    0 -0.13194178499E+03  0.33753260886E+01  0.10914889526E+03  0.17127027993E+03  0.00000000000E+00 0. -1.
        -13    1    3    3    0    0 -0.64666763923E+03 -0.27707635973E+02  0.30164617431E+03  0.71409884694E+03  0.00000000000E+00 0.  1.
          2    1    6    6  502    0  0.31557126635E+03  0.60458991854E+02  0.28524461316E+03  0.42965684351E+03  0.00000000000E+00 0. -1.
          3    1    5    5  503    0  0.30504046114E+02  0.86589380488E+01  0.13869425814E+03  0.14227287612E+03  0.00000000000E+00 0. -1.
         -4    1    5    5    0  503  0.29039130836E+03 -0.74241835352E+02  0.26288446196E+04  0.26458766026E+04  0.00000000000E+00 0.  1.
         -1    1    6    6    0  502  0.14214280340E+03  0.29456215333E+02  0.20761675519E+03  0.25333172366E+03  0.00000000000E+00 0.  1.
<mgrwt>
<rscale>  0 0.23455233E+04</rscale>
<asrwt>0</asrwt>
<pdfrwt beam="1">  1        2 0.61751554E+00 0.23455233E+04</pdfrwt>
<pdfrwt beam="2">  1       -2 0.52716300E-01 0.23455233E+04</pdfrwt>
<totfact> 0.10276689E+00</totfact>
</mgrwt>
</event>
<event>
12    1  0.1532786E-007  0.2058304E+04  0.7818608E-02  0.8579836E-01
         -2   -1    0    0    0  501 -0.00000000000E+00  0.00000000000E+00  0.16849483073E+04  0.16849483073E+04  0.00000000000E+00 0.  1.
          2   -1    0    0  501    0  0.00000000000E+00 -0.00000000000E+00 -0.62859727829E+03  0.62859727829E+03  0.00000000000E+00 0. -1.
         23    2    1    2    0    0 -0.42424167225E+03 -0.36986609039E+03  0.11077335580E+04  0.12459197603E+04  0.91980935232E+02 0.  0.
        254    2    1    2    0    0  0.42424167225E+03  0.36986609039E+03 -0.51382528909E+02  0.10676258253E+04  0.90576090515E+03 0.  0.
        -24    2    4    4    0    0  0.20111940802E+03  0.32352103744E+03 -0.45359730100E+03  0.59764315484E+03  0.79447788522E+02 0.  0.
         24    2    4    4    0    0  0.22312226424E+03  0.46345052942E+02  0.40221477209E+03  0.46998267047E+03  0.84708788975E+02 0.  0.
         13    1    3    3    0    0 -0.15486786447E+03 -0.18712340790E+03  0.42373156857E+03  0.48841341857E+03  0.00000000000E+00 0. -1.
        -13    1    3    3    0    0 -0.26937380778E+03 -0.18274268249E+03  0.68400198939E+03  0.75750634177E+03  0.00000000000E+00 0.  1.
          4    1    6    6  502    0  0.20736916163E+03  0.43743932411E+02  0.40149803075E+03  0.45400018669E+03  0.00000000000E+00 0. -1.
          3    1    5    5  503    0  0.14236176306E+03  0.27597149998E+03 -0.33303628785E+03  0.45534636202E+03  0.00000000000E+00 0. -1.
         -2    1    5    5    0  503  0.58757644956E+02  0.47549537463E+02 -0.12056101315E+03  0.14229679281E+03  0.00000000000E+00 0.  1.
         -3    1    6    6    0  502  0.15753102604E+02  0.26011205313E+01  0.71674133550E+00  0.15982483781E+02  0.00000000000E+00 0.  1.
<mgrwt>
<rscale>  0 0.20583041E+04</rscale>
<asrwt>0</asrwt>
<pdfrwt beam="1">  1        2 0.96707274E-01 0.20583041E+04</pdfrwt>
<pdfrwt beam="2">  1       -2 0.25922281E+00 0.20583041E+04</pdfrwt>
<totfact> 0.24439605E+00</totfact>
</mgrwt>
</event>
<event>
12    1  0.1532786E-007  0.1471888E+04  0.7818608E-02  0.8903365E-01
          1   -1    0    0  501    0  0.00000000000E+00  0.00000000000E+00  0.66290791545E+03  0.66290791545E+03  0.00000000000E+00 0. -1.
         -1   -1    0    0    0  501 -0.00000000000E+00 -0.00000000000E+00 -0.81702653113E+03  0.81702653113E+03  0.00000000000E+00 0.  1.
         23    2    1    2    0    0  0.43129545568E+03  0.13858921489E+03  0.74061358491E+02  0.46784109588E+03  0.90374031681E+02 0.  0.
        254    2    1    2    0    0 -0.43129545568E+03 -0.13858921489E+03 -0.22817997417E+03  0.10120933507E+04  0.87581054420E+03 0.  0.
        -24    2    4    4    0    0 -0.66322908294E+03  0.52036124019E+02 -0.10733302588E+03  0.67865325927E+03  0.80431916586E+02 0.  0.
         24    2    4    4    0    0  0.23193362726E+03 -0.19062533891E+03 -0.12084694829E+03  0.33344009143E+03  0.80293725596E+02 0.  0.
         13    1    3    3    0    0  0.28975436399E+03  0.10229161451E+03  0.77514787219E+01  0.30737802666E+03  0.00000000000E+00 0.  1.
        -13    1    3    3    0    0  0.14154109169E+03  0.36297600380E+02  0.66309879769E+02  0.16046306922E+03  0.00000000000E+00 0. -1.
          4    1    6    6  502    0  0.13467632918E+03 -0.10327265787E+03 -0.11004194046E+03  0.20226760533E+03  0.00000000000E+00 0. -1.
          1    1    5    5  503    0 -0.29638490047E+03 -0.14094688237E+02 -0.32912056529E+02  0.29853956677E+03  0.00000000000E+00 0. -1.
         -2    1    5    5    0  503 -0.36684418248E+03  0.66130812256E+02 -0.74420969355E+02  0.38011369250E+03  0.00000000000E+00 0.  1.
         -3    1    6    6    0  502  0.97257298087E+02 -0.87352681035E+02 -0.10805007829E+02  0.13117248610E+03  0.00000000000E+00 0.  1.
<mgrwt>
<rscale>  0 0.14718877E+04</rscale>
<asrwt>0</asrwt>
<pdfrwt beam="1">  1        1 0.10198583E+00 0.14718877E+04</pdfrwt>
<pdfrwt beam="2">  1       -1 0.12569639E+00 0.14718877E+04</pdfrwt>
<totfact> 0.15831667E+01</totfact>
</mgrwt>
</event>
<event>
12    1  0.1532786E-007  0.2219479E+04  0.7818608E-02  0.8510364E-01
         -2   -1    0    0    0  501 -0.00000000000E+00  0.00000000000E+00  0.88163573353E+03  0.88163573353E+03  0.00000000000E+00 0.  1.
          2   -1    0    0  501    0  0.00000000000E+00 -0.00000000000E+00 -0.13968603010E+04  0.13968603010E+04  0.00000000000E+00 0. -1.
         23    2    1    2    0    0  0.65818469629E+02 -0.52294653634E+03 -0.90133103079E+03  0.10481217719E+04  0.91413734209E+02 0.  0.
        254    2    1    2    0    0 -0.65818469629E+02  0.52294653634E+03  0.38610646335E+03  0.12303742626E+04  0.10425629354E+04 0.  0.
        -24    2    4    4    0    0 -0.22084747959E+03  0.78392590553E+03  0.13718436424E+03  0.82989749499E+03  0.81221104373E+02 0.  0.
         24    2    4    4    0    0  0.15502900996E+03 -0.26097936920E+03  0.24892209911E+03  0.40047676764E+03  0.79216191008E+02 0.  0.
         11    1    3    3    0    0  0.58903351128E+02 -0.51219685374E+03 -0.89702386516E+03  0.10346337692E+04  0.00000000000E+00 0. -1.
        -11    1    3    3    0    0  0.69151185005E+01 -0.10749682600E+02 -0.43071656390E+01  0.13488002659E+02  0.00000000000E+00 0.  1.
          2    1    6    6  502    0  0.13480413461E+03 -0.24086214243E+03  0.24931590446E+03  0.37194777400E+03  0.00000000000E+00 0. -1.
          3    1    5    5  503    0 -0.21516406621E+03  0.69377376499E+03  0.10458234918E+03  0.73386312085E+03  0.00000000000E+00 0. -1.
         -4    1    5    5    0  503 -0.56834133789E+01  0.90152140542E+02  0.32602015051E+02  0.96034374144E+02  0.00000000000E+00 0.  1.
         -1    1    6    6    0  502  0.20224875353E+02 -0.20117226760E+02 -0.39380534714E+00  0.28528993642E+02  0.00000000000E+00 0.  1.
<mgrwt>
<rscale>  0 0.22194792E+04</rscale>
<asrwt>0</asrwt>
<pdfrwt beam="1">  1        2 0.21490158E+00 0.22194792E+04</pdfrwt>
<pdfrwt beam="2">  1       -2 0.13563627E+00 0.22194792E+04</pdfrwt>
<totfact> 0.51697851E+00</totfact>
</mgrwt>
</event>
<event>
12    1  0.1532786E-007  0.1322871E+04  0.7818608E-02  0.9011622E-01
          3   -1    0    0  501    0  0.00000000000E+00  0.00000000000E+00  0.12385413524E+04  0.12385413524E+04  0.00000000000E+00 0. -1.
         -3   -1    0    0    0  501 -0.00000000000E+00 -0.00000000000E+00 -0.35323554433E+03  0.35323554433E+03  0.00000000000E+00 0.  1.
         23    2    1    2    0    0  0.36002907932E+02  0.23702327076E+03 -0.69450153816E+02  0.26327194234E+03  0.83740978626E+02 0.  0.
        254    2    1    2    0    0 -0.36002907932E+02 -0.23702327076E+03  0.95475596192E+03  0.13285049544E+04  0.89212679976E+03 0.  0.
        -24    2    4    4    0    0  0.16845838683E+03 -0.25674361980E+03  0.10454119295E+04  0.10925401344E+04  0.80388609045E+02 0.  0.
         24    2    4    4    0    0 -0.20446129477E+03  0.19720349047E+02 -0.90655967579E+02  0.23596482006E+03  0.72578086386E+02 0.  0.
         13    1    3    3    0    0  0.30569207079E+01  0.47252622365E+02  0.19382097806E+02  0.51164644042E+02  0.00000000000E+00 0. -1.
        -13    1    3    3    0    0  0.32945987224E+02  0.18977064839E+03 -0.88832251622E+02  0.21210729830E+03  0.00000000000E+00 0.  1.
          2    1    6    6  502    0 -0.16434222393E+03 -0.79565837225E+01 -0.48528249026E+02  0.17154202035E+03  0.00000000000E+00 0. -1.
          3    1    5    5  503    0  0.10038989574E+03 -0.21545858761E+03  0.79569949177E+03  0.83044458897E+03  0.00000000000E+00 0. -1.
         -4    1    5    5    0  503  0.68068491096E+02 -0.41285032195E+02  0.24971243773E+03  0.26209554540E+03  0.00000000000E+00 0.  1.
         -1    1    6    6    0  502 -0.40119070836E+02  0.27676932769E+02 -0.42127718553E+02  0.64422799712E+02  0.00000000000E+00 0.  1.
<mgrwt>
<rscale>  0 0.13228709E+04</rscale>
<asrwt>0</asrwt>
<pdfrwt beam="1">  1        3 0.19054482E+00 0.13228709E+04</pdfrwt>
<pdfrwt beam="2">  1       -3 0.54343930E-01 0.13228709E+04</pdfrwt>
<totfact> 0.14516344E+00</totfact>
</mgrwt>
</event>
<event>
12    1  0.1532786E-007  0.2387862E+04  0.7818608E-02  0.8444062E-01
          2   -1    0    0  501    0  0.00000000000E+00  0.00000000000E+00  0.10261591987E+04  0.10261591987E+04  0.00000000000E+00 0.  1.
         -2   -1    0    0    0  501 -0.00000000000E+00 -0.00000000000E+00 -0.13891323055E+04  0.13891323055E+04  0.00000000000E+00 0. -1.
         23    2    1    2    0    0 -0.61935495550E+03  0.34169445264E+03 -0.90221001961E+03  0.11496445089E+04  0.85696659969E+02 0.  0.
        254    2    1    2    0    0  0.61935495550E+03 -0.34169445264E+03  0.53923691281E+03  0.12656469953E+04  0.90040558006E+03 0.  0.
        -24    2    4    4    0    0  0.30943959740E+03 -0.38199184910E+03  0.73622612615E+03  0.88847385775E+03  0.75407226857E+02 0.  0.
         24    2    4    4    0    0  0.30991535810E+03  0.40297396460E+02 -0.19698921333E+03  0.37717313751E+03  0.76048774760E+02 0.  0.
         11    1    3    3    0    0 -0.14625748396E+03  0.12048865990E+03 -0.26438550779E+03  0.32528213217E+03  0.00000000000E+00 0.  1.
        -11    1    3    3    0    0 -0.47309747154E+03  0.22120579274E+03 -0.63782451182E+03  0.82436237674E+03  0.00000000000E+00 0. -1.
          2    1    6    6  502    0  0.22085050753E+03  0.55524139262E+02 -0.11477981205E+03  0.25501427798E+03  0.00000000000E+00 0. -1.
          3    1    5    5  503    0  0.23560432581E+03 -0.33543055143E+03  0.61521932171E+03  0.73926846746E+03  0.00000000000E+00 0. -1.
         -4    1    5    5    0  503  0.73835271587E+02 -0.46561297668E+02  0.12100680443E+03  0.14920539028E+03  0.00000000000E+00 0.  1.
         -1    1    6    6    0  502  0.89064850562E+02 -0.15226742802E+02 -0.82209401285E+02  0.12215885953E+03  0.00000000000E+00 0.  1.
<mgrwt>
<rscale>  0 0.23878617E+04</rscale>
<asrwt>0</asrwt>
<pdfrwt beam="1">  1        2 0.15787065E+00 0.23878617E+04</pdfrwt>
<pdfrwt beam="2">  1       -2 0.21371266E+00 0.23878617E+04</pdfrwt>
<totfact> 0.23640910E+00</totfact>
</mgrwt>
</event>
<event>
12    1  0.1532786E-007  0.1820617E+04  0.7818608E-02  0.8695412E-01
          1   -1    0    0  501    0  0.00000000000E+00  0.00000000000E+00  0.15593946292E+04  0.15593946292E+04  0.00000000000E+00 0. -1.
         -1   -1    0    0    0  501 -0.00000000000E+00 -0.00000000000E+00 -0.53139943665E+03  0.53139943665E+03  0.00000000000E+00 0.  1.
         23    2    1    2    0    0  0.52046831293E+03  0.41767899804E+03  0.54918580558E+03  0.86930891360E+03  0.93541050110E+02 0.  0.
        254    2    1    2    0    0 -0.52046831293E+03 -0.41767899804E+03  0.47880938702E+03  0.12214851523E+04  0.90411533446E+03 0.  0.
        -24    2    4    4    0    0 -0.25654370984E+03  0.11660597290E+03  0.54237720464E+03  0.61676718010E+03  0.82565697278E+02 0.  0.
         24    2    4    4    0    0 -0.26392460309E+03 -0.53428497093E+03 -0.63567817619E+02  0.60471797219E+03  0.80785717604E+02 0.  0.
         11    1    3    3    0    0  0.30001118404E+03  0.24888279050E+03  0.37878871421E+03  0.54353495193E+03  0.00000000000E+00 0. -1.
        -11    1    3    3    0    0  0.22045712889E+03  0.16879620754E+03  0.17039709136E+03  0.32577396167E+03  0.00000000000E+00 0.  1.
          4    1    6    6  502    0 -0.18672760639E+02 -0.88060147731E+02  0.86862341957E+01  0.90436233185E+02  0.00000000000E+00 0. -1.
          1    1    5    5  503    0 -0.10435687342E+03  0.22792967926E+02  0.13701960372E+03  0.17373614541E+03  0.00000000000E+00 0. -1.
         -2    1    5    5    0  503 -0.15218683642E+03  0.93813004973E+02  0.40535760092E+03  0.44303103470E+03  0.00000000000E+00 0.  1.
         -3    1    6    6    0  502 -0.24525184245E+03 -0.44622482320E+03 -0.72254051814E+02  0.51428173900E+03  0.00000000000E+00 0.  1.
<mgrwt>
<rscale>  0 0.18206168E+04</rscale>
<asrwt>0</asrwt>
<pdfrwt beam="1">  1        1 0.23990686E+00 0.18206168E+04</pdfrwt>
<pdfrwt beam="2">  1       -1 0.81753760E-01 0.18206168E+04</pdfrwt>
<totfact> 0.83473035E+00</totfact>
</mgrwt>
</event>
<event>
12    1  0.1532786E-007  0.2598449E+04  0.7818608E-02  0.8368728E-01
         -2   -1    0    0    0  501 -0.00000000000E+00  0.00000000000E+00  0.16310903483E+04  0.16310903483E+04  0.00000000000E+00 0. -1.
          2   -1    0    0  501    0  0.00000000000E+00 -0.00000000000E+00 -0.10348811314E+04  0.10348811314E+04  0.00000000000E+00 0.  1.
         23    2    1    2    0    0  0.11341307998E+02  0.10933651139E+04  0.59342717269E+03  0.12474585210E+04  0.91766304164E+02 0.  0.
        254    2    1    2    0    0 -0.11341307998E+02 -0.10933651139E+04  0.27820442007E+01  0.14185129587E+04  0.90365666963E+03 0.  0.
        -24    2    4    4    0    0 -0.10213551089E+03 -0.64233517664E+03 -0.42845676485E+03  0.78286241375E+03  0.79197334498E+02 0.  0.
         24    2    4    4    0    0  0.90794202893E+02 -0.45102993731E+03  0.43123880905E+03  0.63565054494E+03  0.80081915750E+02 0.  0.
         13    1    3    3    0    0  0.18994415208E+02  0.91993556265E+03  0.46125479273E+03  0.10292707181E+04  0.00000000000E+00 0. -1.
        -13    1    3    3    0    0 -0.76531072098E+01  0.17342955130E+03  0.13217237996E+03  0.21818780291E+03  0.00000000000E+00 0.  1.
          2    1    6    6  502    0  0.25021601168E+02 -0.29215647470E+03  0.29846227552E+03  0.41840317416E+03  0.00000000000E+00 0. -1.
          3    1    5    5  503    0 -0.68869422190E+02 -0.57848379281E+03 -0.37014252570E+03  0.69021155104E+03  0.00000000000E+00 0. -1.
         -4    1    5    5    0  503 -0.33266088701E+02 -0.63851383828E+02 -0.58314239145E+02  0.92650862712E+02  0.00000000000E+00 0.  1.
         -1    1    6    6    0  502  0.65772601725E+02 -0.15887346260E+03  0.13277653353E+03  0.21724737078E+03  0.00000000000E+00 0.  1.
<mgrwt>
<rscale>  0 0.25984492E+04</rscale>
<asrwt>0</asrwt>
<pdfrwt beam="1">  1        2 0.15921248E+00 0.25984492E+04</pdfrwt>
<pdfrwt beam="2">  1       -2 0.25093698E+00 0.25984492E+04</pdfrwt>
<totfact> 0.13423225E+00</totfact>
</mgrwt>
</event>
<event>
12    1  0.1532786E-007  0.2321976E+04  0.7818608E-02  0.8469306E-01
          1   -1    0    0  501    0  0.00000000000E+00  0.00000000000E+00  0.77679669110E+03  0.77679669110E+03  0.00000000000E+00 0. -1.
         -1   -1    0    0    0  501 -0.00000000000E+00 -0.00000000000E+00 -0.17351943202E+04  0.17351943202E+04  0.00000000000E+00 0.  1.
         23    2    1    2    0    0 -0.91992298214E+03 -0.39718349056E+02 -0.14389982889E+02  0.92573139580E+03  0.94528859288E+02 0.  0.
        254    2    1    2    0    0  0.91992298214E+03  0.39718349056E+02 -0.94400764618E+03  0.15862596155E+04  0.88160835482E+03 0.  0.
        -24    2    4    4    0    0  0.71176728920E+03  0.41067891921E+03 -0.49727173486E+03  0.96383803551E+03  0.80216779672E+02 0.  0.
         24    2    4    4    0    0  0.20815569294E+03 -0.37096057016E+03 -0.44673591131E+03  0.62242157995E+03  0.83036808817E+02 0.  0.
         11    1    3    3    0    0 -0.84587531219E+03 -0.32708325348E+02 -0.38948804700E+02  0.84740302555E+03  0.00000000000E+00 0.  1.
        -11    1    3    3    0    0 -0.74047669949E+02 -0.70100237080E+01  0.24558821811E+02  0.78328370250E+02  0.00000000000E+00 0. -1.
          4    1    6    6  502    0  0.16235829271E+03 -0.33967456472E+03 -0.37114882658E+03  0.52866858863E+03  0.00000000000E+00 0. -1.
          1    1    5    5  503    0  0.26096665614E+03  0.12760380866E+03 -0.21433315648E+03  0.36100558108E+03  0.00000000000E+00 0. -1.
         -2    1    5    5    0  503  0.45080063306E+03  0.28307511055E+03 -0.28293857838E+03  0.60283245443E+03  0.00000000000E+00 0.  1.
         -1    1    6    6    0  502  0.45797400229E+02 -0.31286005438E+02 -0.75587084729E+02  0.93752991322E+02  0.00000000000E+00 0.  1.
<mgrwt>
<rscale>  0 0.23219761E+04</rscale>
<asrwt>0</asrwt>
<pdfrwt beam="1">  1        1 0.11950719E+00 0.23219761E+04</pdfrwt>
<pdfrwt beam="2">  1       -1 0.26695297E+00 0.23219761E+04</pdfrwt>
<totfact> 0.11306165E+00</totfact>
</mgrwt>
</event>
<event>
12    1  0.1532786E-007  0.2158462E+04  0.7818608E-02  0.8535919E-01
         -1   -1    0    0    0  501 -0.00000000000E+00  0.00000000000E+00  0.14460386311E+04  0.14460386311E+04  0.00000000000E+00 0.  1.
          1   -1    0    0  501    0  0.00000000000E+00 -0.00000000000E+00 -0.80546923665E+03  0.80546923665E+03  0.00000000000E+00 0. -1.
         23    2    1    2    0    0  0.50909165393E+03  0.10940052484E+03  0.10138422893E+04  0.11433307723E+04  0.90478065498E+02 0.  0.
        254    2    1    2    0    0 -0.50909165393E+03 -0.10940052484E+03 -0.37327289483E+03  0.11081770955E+04  0.90420187680E+03 0.  0.
        -24    2    4    4    0    0  0.10300287967E+02  0.33943874193E+03 -0.16265961500E+03  0.38518251237E+03  0.81133606019E+02 0.  0.
         24    2    4    4    0    0 -0.51939194190E+03 -0.44883926677E+03 -0.21061327983E+03  0.72299458312E+03  0.84489862519E+02 0.  0.
         13    1    3    3    0    0  0.25190588280E+03  0.18124881848E+02  0.42617511445E+03  0.49538905247E+03  0.00000000000E+00 0. -1.
        -13    1    3    3    0    0  0.25718577113E+03  0.91275642990E+02  0.58766717483E+03  0.64794171980E+03  0.00000000000E+00 0.  1.
          2    1    6    6  502    0 -0.13611979927E+03 -0.92491429544E+02 -0.18916278970E+02  0.16565352366E+03  0.00000000000E+00 0. -1.
          3    1    5    5  503    0 -0.11778347122E+02  0.15947836599E+03 -0.35722379556E+02  0.16385410303E+03  0.00000000000E+00 0. -1.
         -4    1    5    5    0  503  0.22078635089E+02  0.17996037594E+03 -0.12693723544E+03  0.22132840934E+03  0.00000000000E+00 0.  1.
         -1    1    6    6    0  502 -0.38327214263E+03 -0.35634783723E+03 -0.19169700086E+03  0.55734105946E+03  0.00000000000E+00 0.  1.
<mgrwt>
<rscale>  0 0.21584621E+04</rscale>
<asrwt>0</asrwt>
<pdfrwt beam="1">  1        1 0.12391834E+00 0.21584621E+04</pdfrwt>
<pdfrwt beam="2">  1       -1 0.22246748E+00 0.21584621E+04</pdfrwt>
<totfact> 0.21196942E+00</totfact>
</mgrwt>
</event>
<event>
12    1  0.1532786E-007  0.1774253E+04  0.7818608E-02  0.8720113E-01
          2   -1    0    0  501    0  0.00000000000E+00  0.00000000000E+00  0.30400387997E+04  0.30400387997E+04  0.00000000000E+00 0. -1.
         -2   -1    0    0    0  501 -0.00000000000E+00 -0.00000000000E+00 -0.25887610957E+03  0.25887610957E+03  0.00000000000E+00 0.  1.
         23    2    1    2    0    0  0.12385006521E+03  0.47956222818E+03  0.18247197058E+04  0.18928967518E+04  0.90207200292E+02 0.  0.
        254    2    1    2    0    0 -0.12385006521E+03 -0.47956222818E+03  0.95644298438E+03  0.14060181575E+04  0.90376164308E+03 0.  0.
        -24    2    4    4    0    0  0.47687786801E+01  0.18977825019E+03 -0.25576096781E+02  0.20810950634E+03  0.81344356964E+02 0.  0.
         24    2    4    4    0    0 -0.12861884389E+03 -0.66934047837E+03  0.98201908116E+03  0.11979086512E+04  0.77872830769E+02 0.  0.
         11    1    3    3    0    0  0.12257717934E+03  0.45919992935E+03  0.17949434432E+04  0.18568014715E+04  0.00000000000E+00 0. -1.
        -11    1    3    3    0    0  0.12728858737E+01  0.20362298830E+02  0.29776262557E+02  0.36095280355E+02  0.00000000000E+00 0.  1.
          2    1    6    6  502    0 -0.12924729884E+03 -0.53125720942E+03  0.81123557785E+03  0.97828536204E+03  0.00000000000E+00 0. -1.
          1    1    5    5  503    0  0.65367964323E+01  0.19187390818E+03 -0.37723678917E+02  0.19565633723E+03  0.00000000000E+00 0. -1.
         -2    1    5    5    0  503 -0.17680177522E+01 -0.20956579929E+01  0.12147582136E+02  0.12453169112E+02  0.00000000000E+00 0.  1.
         -1    1    6    6    0  502  0.62845495003E+00 -0.13808326895E+03  0.17078350331E+03  0.21962328911E+03  0.00000000000E+00 0.  1.
<mgrwt>
<rscale>  0 0.17742530E+04</rscale>
<asrwt>0</asrwt>
<pdfrwt beam="1">  1        2 0.46769825E+00 0.17742530E+04</pdfrwt>
<pdfrwt beam="2">  1       -2 0.39827096E-01 0.17742530E+04</pdfrwt>
<totfact> 0.93113961E+00</totfact>
</mgrwt>
</event>
<event>
12    1  0.1532786E-007  0.2025343E+04  0.7818608E-02  0.8594863E-01
         -2   -1    0    0    0  501 -0.00000000000E+00  0.00000000000E+00  0.64713034138E+03  0.64713034138E+03  0.00000000000E+00 0.  1.
          2   -1    0    0  501    0  0.00000000000E+00 -0.00000000000E+00 -0.15846943425E+04  0.15846943425E+04  0.00000000000E+00 0. -1.
         23    2    1    2    0    0 -0.36247217106E+03 -0.19380216982E+03 -0.11476066863E+04  0.12222408652E+04  0.89029603565E+02 0.  0.
        254    2    1    2    0    0  0.36247217106E+03  0.19380216982E+03  0.21004268516E+03  0.10095838187E+04  0.89788429184E+03 0.  0.
        -24    2    4    4    0    0  0.62370883347E+03  0.75722725928E+02 -0.18607612380E+02  0.63381505435E+03  0.81416458473E+02 0.  0.
         24    2    4    4    0    0 -0.26123666241E+03  0.11807944390E+03  0.22865029754E+03  0.37576876433E+03  0.82060080581E+02 0.  0.
         13    1    3    3    0    0 -0.95546675973E+02 -0.18010262494E+02 -0.20424051567E+03  0.22620284058E+03  0.00000000000E+00 0.  1.
        -13    1    3    3    0    0 -0.26692549509E+03 -0.17579190733E+03 -0.94336617062E+03  0.99603802462E+03  0.00000000000E+00 0. -1.
          2    1    6    6  502    0 -0.21627162903E+03  0.63301508744E+02  0.15465808531E+03  0.27331231565E+03  0.00000000000E+00 0. -1.
          3    1    5    5  503    0  0.61924620903E+03  0.72588245845E+02 -0.99288774821E+01  0.62356515573E+03  0.00000000000E+00 0. -1.
         -2    1    5    5    0  503  0.44626244421E+01  0.31344800836E+01 -0.86787348980E+01  0.10249898621E+02  0.00000000000E+00 0.  1.
         -1    1    6    6    0  502 -0.44965033378E+02  0.54777935152E+02  0.73992212232E+02  0.10245644869E+03  0.00000000000E+00 0.  1.
<mgrwt>
<rscale>  0 0.20253432E+04</rscale>
<asrwt>0</asrwt>
<pdfrwt beam="1">  1        2 0.24379913E+00 0.20253432E+04</pdfrwt>
<pdfrwt beam="2">  1       -2 0.99558514E-01 0.20253432E+04</pdfrwt>
<totfact> 0.88034169E+00</totfact>
</mgrwt>
</event>
<event>
12    1  0.2028136E-007  0.2164130E+04  0.7818608E-02  0.8533508E-01
          2   -1    0    0  501    0  0.00000000000E+00  0.00000000000E+00  0.11993901289E+04  0.11993901289E+04  0.00000000000E+00 0. -1.
         -2   -1    0    0    0  501 -0.00000000000E+00 -0.00000000000E+00 -0.97621636303E+03  0.97621636303E+03  0.00000000000E+00 0.  1.
         23    2    1    2    0    0  0.43172672945E+03 -0.69348323805E+03 -0.27444435505E+03  0.86570391509E+03  0.82562668249E+02 0.  0.
        254    2    1    2    0    0 -0.43172672945E+03  0.69348323805E+03  0.49761812092E+03  0.13099025768E+04  0.89493798452E+03 0.  0.
        -24    2    4    4    0    0 -0.16265615844E+02  0.70125227218E+02  0.54424260990E+03  0.55507920933E+03  0.82041406933E+02 0.  0.
         24    2    4    4    0    0 -0.41546111361E+03  0.62335801084E+03 -0.46624488983E+02  0.75482336750E+03  0.80008290548E+02 0.  0.
         13    1    3    3    0    0  0.20562393939E+02 -0.45149349933E+02  0.22041985287E+01  0.49660188633E+02  0.00000000000E+00 0. -1.
        -13    1    3    3    0    0  0.41116433552E+03 -0.64833388812E+03 -0.27664855358E+03  0.81604372645E+03  0.00000000000E+00 0.  1.
          2    1    6    6  502    0 -0.24267420953E+02  0.41047672241E+02 -0.22932331504E+02  0.52912294832E+02  0.00000000000E+00 0. -1.
          3    1    5    5  503    0  0.13755908013E+02  0.25842608104E+01  0.14310191200E+02  0.20017117209E+02  0.00000000000E+00 0. -1.
         -4    1    5    5    0  503 -0.30021523857E+02  0.67540966408E+02  0.52993241870E+03  0.53506209213E+03  0.00000000000E+00 0.  1.
         -1    1    6    6    0  502 -0.39119369266E+03  0.58231033860E+03 -0.23692157478E+02  0.70191107267E+03  0.00000000000E+00 0.  1.
<mgrwt>
<rscale>  0 0.21641296E+04</rscale>
<asrwt>0</asrwt>
<pdfrwt beam="1">  1        2 0.18452156E+00 0.21641296E+04</pdfrwt>
<pdfrwt beam="2">  1       -2 0.15018713E+00 0.21641296E+04</pdfrwt>
<totfact> 0.51900718E+00</totfact>
</mgrwt>
</event>
<event>
12    1  0.1532786E-007  0.1562659E+04  0.7818608E-02  0.8843822E-01
         -2   -1    0    0    0  501 -0.00000000000E+00  0.00000000000E+00  0.68105765433E+03  0.68105765433E+03  0.00000000000E+00 0.  1.
          2   -1    0    0  501    0  0.00000000000E+00 -0.00000000000E+00 -0.89636480435E+03  0.89636480435E+03  0.00000000000E+00 0. -1.
         23    2    1    2    0    0 -0.11536946391E+03 -0.45162532302E+03 -0.29901671820E+03  0.56108557904E+03  0.90169194568E+02 0.  0.
        254    2    1    2    0    0  0.11536946391E+03  0.45162532302E+03  0.83709568179E+02  0.10163368796E+04  0.89925403280E+03 0.  0.
        -24    2    4    4    0    0 -0.33846201776E+03  0.42667113138E+03  0.29351230594E+02  0.55128005111E+03  0.80270842730E+02 0.  0.
         24    2    4    4    0    0  0.45383148168E+03  0.24954191636E+02  0.54358337585E+02  0.46505682853E+03  0.82081054169E+02 0.  0.
         11    1    3    3    0    0 -0.12672101331E+03 -0.41098729812E+03 -0.25444873823E+03  0.49971285237E+03  0.00000000000E+00 0. -1.
        -11    1    3    3    0    0  0.11351549393E+02 -0.40638024896E+02 -0.44567979968E+02  0.61372726675E+02  0.00000000000E+00 0.  1.
          2    1    6    6  502    0  0.20283906180E+02  0.19718207962E+02  0.30680190247E+01  0.28454477958E+02  0.00000000000E+00 0. -1.
          3    1    5    5  503    0 -0.13896890891E+03  0.13484745034E+03  0.39555009581E+02  0.19763803098E+03  0.00000000000E+00 0. -1.
         -4    1    5    5    0  503 -0.19949310885E+03  0.29182368104E+03 -0.10203778988E+02  0.35364202013E+03  0.00000000000E+00 0.  1.
         -1    1    6    6    0  502  0.43354757550E+03  0.52359836746E+01  0.51290318561E+02  0.43660235057E+03  0.00000000000E+00 0.  1.
<mgrwt>
<rscale>  0 0.15626594E+04</rscale>
<asrwt>0</asrwt>
<pdfrwt beam="1">  1        2 0.13790228E+00 0.15626594E+04</pdfrwt>
<pdfrwt beam="2">  1       -2 0.10477810E+00 0.15626594E+04</pdfrwt>
<totfact> 0.20955032E+01</totfact>
</mgrwt>
</event>
<event>
12    1  0.1532786E-007  0.1967633E+04  0.7818608E-02  0.8621905E-01
          2   -1    0    0  501    0  0.00000000000E+00  0.00000000000E+00  0.30411275569E+04  0.30411275569E+04  0.00000000000E+00 0. -1.
         -2   -1    0    0    0  501 -0.00000000000E+00 -0.00000000000E+00 -0.31826833979E+03  0.31826833979E+03  0.00000000000E+00 0.  1.
         23    2    1    2    0    0  0.12282810504E+03  0.20553497749E+03  0.23230479370E+04  0.23371738403E+04  0.92187158273E+02 0.  0.
        254    2    1    2    0    0 -0.12282810504E+03 -0.20553497749E+03  0.39981128017E+03  0.10222220564E+04  0.90981179506E+03 0.  0.
        -24    2    4    4    0    0 -0.27851544085E+03  0.18600889176E+03 -0.10453975895E+03  0.35963688879E+03  0.78993493213E+02 0.  0.
         24    2    4    4    0    0  0.15568733581E+03 -0.39154386925E+03  0.50435103912E+03  0.66258516758E+03  0.84285144352E+02 0.  0.
         11    1    3    3    0    0 -0.33809538364E+01  0.81015079074E+01  0.15948072472E+02  0.18204567965E+02  0.00000000000E+00 0.  1.
        -11    1    3    3    0    0  0.12620905888E+03  0.19743346958E+03  0.23070998645E+04  0.23189692724E+04  0.00000000000E+00 0. -1.
          4    1    6    6  502    0  0.89338037722E+02 -0.31699677924E+03  0.37234264522E+03  0.49709887194E+03  0.00000000000E+00 0. -1.
          1    1    5    5  503    0 -0.32603170880E+02  0.56627852954E+02 -0.30258007761E+02  0.72008523907E+02  0.00000000000E+00 0. -1.
         -2    1    5    5    0  503 -0.24591226997E+03  0.12938103881E+03 -0.74281751192E+02  0.28762836488E+03  0.00000000000E+00 0.  1.
         -3    1    6    6    0  502  0.66349298089E+02 -0.74547090011E+02  0.13200839390E+03  0.16548629565E+03  0.00000000000E+00 0.  1.
<mgrwt>
<rscale>  0 0.19676327E+04</rscale>
<asrwt>0</asrwt>
<pdfrwt beam="1">  1        2 0.46786576E+00 0.19676327E+04</pdfrwt>
<pdfrwt beam="2">  1       -2 0.48964362E-01 0.19676327E+04</pdfrwt>
<totfact> 0.60514142E+00</totfact>
</mgrwt>
</event>
<event>
12    1  0.1532786E-007  0.1468535E+04  0.7818608E-02  0.8905650E-01
         -2   -1    0    0    0  501 -0.00000000000E+00  0.00000000000E+00  0.15113012341E+03  0.15113012341E+03  0.00000000000E+00 0.  1.
          2   -1    0    0  501    0  0.00000000000E+00 -0.00000000000E+00 -0.35674487579E+04  0.35674487579E+04  0.00000000000E+00 0. -1.
         23    2    1    2    0    0  0.39356717913E+03  0.12948067308E+03 -0.14814482297E+04  0.15427213847E+04  0.11679060025E+03 0.  0.
        254    2    1    2    0    0 -0.39356717913E+03 -0.12948067308E+03 -0.19348704048E+04  0.21758574966E+04  0.90497071392E+03 0.  0.
        -24    2    4    4    0    0 -0.22554832472E+03  0.23715414614E+03 -0.19730505019E+03  0.39037007483E+03  0.79657872645E+02 0.  0.
         24    2    4    4    0    0 -0.16801885441E+03 -0.36663481922E+03 -0.17375653546E+04  0.17854874218E+04  0.78616446937E+02 0.  0.
         13    1    3    3    0    0  0.13272435331E+02  0.17213804848E+02 -0.20383429119E+03  0.20498997751E+03  0.00000000000E+00 0.  1.
        -13    1    3    3    0    0  0.38029474380E+03  0.11226686823E+03 -0.12776139385E+04  0.13377314072E+04  0.00000000000E+00 0. -1.
          2    1    6    6  502    0 -0.11884970501E+03 -0.31343895619E+03 -0.13340298753E+04  0.13755017047E+04  0.00000000000E+00 0. -1.
          3    1    5    5  503    0 -0.16096052406E+03  0.12564663260E+03 -0.92044763595E+02  0.22398126058E+03  0.00000000000E+00 0. -1.
         -4    1    5    5    0  503 -0.64587800666E+02  0.11150751355E+03 -0.10526028659E+03  0.16638881425E+03  0.00000000000E+00 0.  1.
         -1    1    6    6    0  502 -0.49169149401E+02 -0.53195863030E+02 -0.40353547936E+03  0.40998571706E+03  0.00000000000E+00 0.  1.
<mgrwt>
<rscale>  0 0.14685353E+04</rscale>
<asrwt>0</asrwt>
<pdfrwt beam="1">  1        2 0.54883827E+00 0.14685353E+04</pdfrwt>
<pdfrwt beam="2">  1       -2 0.23250788E-01 0.14685353E+04</pdfrwt>
<totfact> 0.11727097E+01</totfact>
</mgrwt>
</event>
<event>
12    1  0.1532786E-007  0.1189649E+04  0.7818608E-02  0.9121965E-01
          1   -1    0    0  501    0  0.00000000000E+00  0.00000000000E+00  0.56664583605E+03  0.56664583605E+03  0.00000000000E+00 0.  1.
         -1   -1    0    0    0  501 -0.00000000000E+00 -0.00000000000E+00 -0.62440431927E+03  0.62440431927E+03  0.00000000000E+00 0. -1.
         23    2    1    2    0    0 -0.13087769003E+03 -0.10404590418E+02 -0.21455832729E+03  0.26780776679E+03  0.91915716238E+02 0.  0.
        254    2    1    2    0    0  0.13087769003E+03  0.10404590418E+02  0.15679984407E+03  0.92324238854E+03  0.90030722070E+03 0.  0.
        -24    2    4    4    0    0 -0.93117315023E+02  0.42631506009E+02  0.49320574607E+03  0.50992317420E+03  0.79255636839E+02 0.  0.
         24    2    4    4    0    0  0.22399500506E+03 -0.32226915591E+02 -0.33640590200E+03  0.41331921434E+03  0.80321265336E+02 0.  0.
         11    1    3    3    0    0 -0.74644920381E+02 -0.39535528317E+02 -0.68997619582E+02  0.10906692279E+03  0.00000000000E+00 0.  1.
        -11    1    3    3    0    0 -0.56232769653E+02  0.29130937899E+02 -0.14556070771E+03  0.15874084400E+03  0.00000000000E+00 0. -1.
          4    1    6    6  502    0  0.20562181279E+01  0.11894873637E+02 -0.30619058951E+02  0.32912654449E+02  0.00000000000E+00 0. -1.
          3    1    5    5  503    0 -0.57380490657E+02 -0.47753015877E+01  0.13403595155E+03  0.14587995243E+03  0.00000000000E+00 0. -1.
         -4    1    5    5    0  503 -0.35736824366E+02  0.47406807597E+02  0.35916979452E+03  0.36404322177E+03  0.00000000000E+00 0.  1.
         -3    1    6    6    0  502  0.22193878693E+03 -0.44121789228E+02 -0.30578684305E+03  0.38040655989E+03  0.00000000000E+00 0.  1.
<mgrwt>
<rscale>  0 0.11896489E+04</rscale>
<asrwt>0</asrwt>
<pdfrwt beam="1">  1        1 0.87176283E-01 0.11896489E+04</pdfrwt>
<pdfrwt beam="2">  1       -1 0.96062202E-01 0.11896489E+04</pdfrwt>
<totfact> 0.38478834E+01</totfact>
</mgrwt>
</event>
<event>
12    1  0.1532786E-007  0.2164844E+04  0.7818608E-02  0.8533205E-01
          2   -1    0    0  501    0  0.00000000000E+00  0.00000000000E+00  0.14988823096E+04  0.14988823096E+04  0.00000000000E+00 0.  1.
         -2   -1    0    0    0  501 -0.00000000000E+00 -0.00000000000E+00 -0.78167415189E+03  0.78167415189E+03  0.00000000000E+00 0. -1.
         23    2    1    2    0    0 -0.64214742547E+03  0.16652988393E+03  0.92384272499E+03  0.11410900226E+04  0.92279687793E+02 0.  0.
        254    2    1    2    0    0  0.64214742547E+03 -0.16652988393E+03 -0.20663456731E+03  0.11394664389E+04  0.90310597534E+03 0.  0.
        -24    2    4    4    0    0  0.56575922897E+03  0.20426046846E+03 -0.37970753349E+03  0.71558848862E+03  0.77995063438E+02 0.  0.
         24    2    4    4    0    0  0.76388196501E+02 -0.37079035239E+03  0.17307296617E+03  0.42387795028E+03  0.79985143126E+02 0.  0.
         11    1    3    3    0    0 -0.51203539639E-01 -0.49746200608E+01  0.95221668607E+01  0.10743422559E+02  0.00000000000E+00 0. -1.
        -11    1    3    3    0    0 -0.64209622193E+03  0.17150450399E+03  0.91432055812E+03  0.11303466000E+04  0.00000000000E+00 0.  1.
          4    1    6    6  502    0  0.27103269883E+01 -0.25940623724E+02  0.38365887080E+02  0.46391843281E+02  0.00000000000E+00 0. -1.
          3    1    5    5  503    0  0.18529498690E+03  0.10645977533E+03 -0.13242998794E+03  0.25140727443E+03  0.00000000000E+00 0. -1.
         -4    1    5    5    0  503  0.38046424207E+03  0.97800693131E+02 -0.24727754554E+03  0.46418121418E+03  0.00000000000E+00 0.  1.
         -3    1    6    6    0  502  0.73677869513E+02 -0.34484972867E+03  0.13470707909E+03  0.37748610700E+03  0.00000000000E+00 0.  1.
<mgrwt>
<rscale>  0 0.21648442E+04</rscale>
<asrwt>0</asrwt>
<pdfrwt beam="1">  1        2 0.23059728E+00 0.21648442E+04</pdfrwt>
<pdfrwt beam="2">  1       -2 0.12025756E+00 0.21648442E+04</pdfrwt>
<totfact> 0.61559211E+00</totfact>
</mgrwt>
</event>
<event>
12    1  0.1532786E-007  0.1154595E+04  0.7818608E-02  0.9153555E-01
          1   -1    0    0  501    0  0.00000000000E+00  0.00000000000E+00  0.66629182792E+03  0.66629182792E+03  0.00000000000E+00 0. -1.
         -1   -1    0    0    0  501 -0.00000000000E+00 -0.00000000000E+00 -0.50018947387E+03  0.50018947387E+03  0.00000000000E+00 0.  1.
         23    2    1    2    0    0  0.11014547610E+03 -0.13704619388E+03 -0.81767369528E+02  0.21501450995E+03  0.92906682260E+02 0.  0.
        254    2    1    2    0    0 -0.11014547610E+03  0.13704619388E+03  0.24786972358E+03  0.95146679183E+03  0.90162961959E+03 0.  0.
        -24    2    4    4    0    0  0.27227829962E+03 -0.17967353755E+03 -0.88782105793E+02  0.34647401760E+03  0.75788719628E+02 0.  0.
         24    2    4    4    0    0 -0.38242377573E+03  0.31671973143E+03  0.33665182937E+03  0.60499277423E+03  0.78246214822E+02 0.  0.
         11    1    3    3    0    0  0.59526347730E+00  0.74093101273E+01 -0.23401976540E+02  0.24554118211E+02  0.00000000000E+00 0. -1.
        -11    1    3    3    0    0  0.10955021262E+03 -0.14445550401E+03 -0.58365392988E+02  0.19046039174E+03  0.00000000000E+00 0.  1.
          2    1    6    6  502    0 -0.77557821208E+02  0.71312058394E+02  0.11184159265E+03  0.15365274859E+03  0.00000000000E+00 0. -1.
          3    1    5    5  503    0  0.79193140562E+02 -0.18908600957E+02 -0.48081153190E+01  0.81561061023E+02  0.00000000000E+00 0. -1.
         -2    1    5    5    0  503  0.19308515906E+03 -0.16076493659E+03 -0.83973990474E+02  0.26491295658E+03  0.00000000000E+00 0.  1.
         -1    1    6    6    0  502 -0.30486595452E+03  0.24540767304E+03  0.22481023672E+03  0.45134002564E+03  0.00000000000E+00 0.  1.
<mgrwt>
<rscale>  0 0.11545946E+04</rscale>
<asrwt>0</asrwt>
<pdfrwt beam="1">  1        1 0.10250644E+00 0.11545946E+04</pdfrwt>
<pdfrwt beam="2">  1       -1 0.76952227E-01 0.11545946E+04</pdfrwt>
<totfact> 0.49388219E+01</totfact>
</mgrwt>
</event>
<event>
12    1  0.1532786E-007  0.2608168E+04  0.7818608E-02  0.8365432E-01
         -1   -1    0    0    0  501 -0.00000000000E+00  0.00000000000E+00  0.11998265183E+04  0.11998265183E+04  0.00000000000E+00 0.  1.
          1   -1    0    0  501    0  0.00000000000E+00 -0.00000000000E+00 -0.14174012011E+04  0.14174012011E+04  0.00000000000E+00 0. -1.
         23    2    1    2    0    0  0.77139630350E+03  0.58775515021E+03  0.51671441179E+03  0.11026630200E+04  0.91452603211E+02 0.  0.
        254    2    1    2    0    0 -0.77139630350E+03 -0.58775515021E+03 -0.73428909461E+03  0.15145646994E+04  0.90233994740E+03 0.  0.
        -24    2    4    4    0    0 -0.33878243425E+03 -0.75915799716E+03 -0.58456285295E+03  0.10191921571E+04  0.77100723864E+02 0.  0.
         24    2    4    4    0    0 -0.43261386924E+03  0.17140284695E+03 -0.14972624166E+03  0.49537254234E+03  0.80264017208E+02 0.  0.
         11    1    3    3    0    0  0.74224800360E+03  0.55569731257E+03  0.47215269366E+03  0.10405093792E+04  0.00000000000E+00 0.  1.
        -11    1    3    3    0    0  0.29148299891E+02  0.32057837638E+02  0.44561718129E+02  0.62153640788E+02  0.00000000000E+00 0. -1.
          4    1    6    6  502    0 -0.43518226645E+03  0.17380279031E+03 -0.14778359720E+03  0.49135629288E+03  0.00000000000E+00 0. -1.
          1    1    5    5  503    0 -0.88995200642E+02 -0.28987066573E+03 -0.20753939294E+03  0.36744761288E+03  0.00000000000E+00 0. -1.
         -2    1    5    5    0  503 -0.24978723361E+03 -0.46928733143E+03 -0.37702346001E+03  0.65174454421E+03  0.00000000000E+00 0.  1.
         -3    1    6    6    0  502  0.25683972007E+01 -0.23999433553E+01 -0.19426444511E+01  0.40162494634E+01  0.00000000000E+00 0.  1.
<mgrwt>
<rscale>  0 0.26081684E+04</rscale>
<asrwt>0</asrwt>
<pdfrwt beam="1">  1        1 0.21806172E+00 0.26081684E+04</pdfrwt>
<pdfrwt beam="2">  1       -1 0.18458870E+00 0.26081684E+04</pdfrwt>
<totfact> 0.12686732E+00</totfact>
</mgrwt>
</event>
<event>
12    1  0.1532786E-007  0.1302253E+04  0.7818608E-02  0.9027781E-01
          1   -1    0    0  501    0  0.00000000000E+00  0.00000000000E+00  0.16933166010E+04  0.16933166010E+04  0.00000000000E+00 0. -1.
         -1   -1    0    0    0  501 -0.00000000000E+00 -0.00000000000E+00 -0.25037576778E+03  0.25037576778E+03  0.00000000000E+00 0.  1.
         23    2    1    2    0    0  0.25122376553E+03  0.12279269727E+02  0.48755495541E+02  0.27199758570E+03  0.91331415457E+02 0.  0.
        254    2    1    2    0    0 -0.25122376553E+03 -0.12279269727E+02  0.13941853376E+04  0.16716947830E+04  0.88743818438E+03 0.  0.
        -24    2    4    4    0    0 -0.95382318878E+02 -0.40971827638E+03  0.98821513432E+03  0.10771398236E+04  0.81818061700E+02 0.  0.
         24    2    4    4    0    0 -0.15584144665E+03  0.39743900666E+03  0.40597020331E+03  0.59455495938E+03  0.80246328556E+02 0.  0.
         13    1    3    3    0    0  0.46410492565E+02  0.69032166197E+01 -0.26311533016E+02  0.53794841662E+02  0.00000000000E+00 0.  1.
        -13    1    3    3    0    0  0.20481327296E+03  0.53760531077E+01  0.75067028556E+02  0.21820274404E+03  0.00000000000E+00 0. -1.
          2    1    6    6  502    0 -0.13393648543E+03  0.23592765612E+03  0.25953314809E+03  0.37544413168E+03  0.00000000000E+00 0. -1.
          1    1    5    5  503    0 -0.26165298933E+02 -0.19545958682E+03  0.55336575094E+03  0.58745444697E+03  0.00000000000E+00 0. -1.
         -2    1    5    5    0  503 -0.69217019944E+02 -0.21425868956E+03  0.43484938338E+03  0.48968537667E+03  0.00000000000E+00 0.  1.
         -1    1    6    6    0  502 -0.21904961223E+02  0.16151135054E+03  0.14643705522E+03  0.21911082771E+03  0.00000000000E+00 0.  1.
<mgrwt>
<rscale>  0 0.13022526E+04</rscale>
<asrwt>0</asrwt>
<pdfrwt beam="1">  1        1 0.26051024E+00 0.13022526E+04</pdfrwt>
<pdfrwt beam="2">  1       -1 0.38519350E-01 0.13022526E+04</pdfrwt>
<totfact> 0.30880300E+01</totfact>
</mgrwt>
</event>
<event>
12    1  0.1532786E-007  0.1211640E+04  0.7818608E-02  0.9102728E-01
         -1   -1    0    0    0  501 -0.00000000000E+00  0.00000000000E+00  0.17392269528E+03  0.17392269528E+03  0.00000000000E+00 0.  1.
          1   -1    0    0  501    0  0.00000000000E+00 -0.00000000000E+00 -0.21102368396E+04  0.21102368396E+04  0.00000000000E+00 0. -1.
         23    2    1    2    0    0  0.20262671835E+03  0.13946204766E+03 -0.36323361809E+03  0.44760481595E+03  0.88905344183E+02 0.  0.
        254    2    1    2    0    0 -0.20262671835E+03 -0.13946204766E+03 -0.15730805262E+04  0.18365547189E+04  0.91533799431E+03 0.  0.
        -24    2    4    4    0    0  0.25851023498E+03 -0.11254322421E+03 -0.12045897553E+04  0.12401685070E+04  0.86532816503E+02 0.  0.
         24    2    4    4    0    0 -0.46113695333E+03 -0.26918823444E+02 -0.36849077090E+03  0.59638621187E+03  0.80741270039E+02 0.  0.
         13    1    3    3    0    0 -0.81323149362E+01 -0.96006501308E+00 -0.92284024678E+01  0.12337734118E+02  0.00000000000E+00 0.  1.
        -13    1    3    3    0    0  0.21075903329E+03  0.14042211267E+03 -0.35400521563E+03  0.43526708184E+03  0.00000000000E+00 0. -1.
          4    1    6    6  502    0 -0.41193306261E+03 -0.47387121924E+01 -0.34573125209E+03  0.53781167906E+03  0.00000000000E+00 0. -1.
          3    1    5    5  503    0  0.17442025062E+03 -0.95689231266E+02 -0.97485286553E+03  0.99494570819E+03  0.00000000000E+00 0. -1.
         -2    1    5    5    0  503  0.84089984357E+02 -0.16853992946E+02 -0.22973688975E+03  0.24522279882E+03  0.00000000000E+00 0.  1.
         -3    1    6    6    0  502 -0.49203890719E+02 -0.22180111252E+02 -0.22759518812E+02  0.58574532808E+02  0.00000000000E+00 0.  1.
<mgrwt>
<rscale>  0 0.12116403E+04</rscale>
<asrwt>0</asrwt>
<pdfrwt beam="1">  1        1 0.32465181E+00 0.12116403E+04</pdfrwt>
<pdfrwt beam="2">  1       -1 0.26757338E-01 0.12116403E+04</pdfrwt>
<totfact> 0.30977058E+01</totfact>
</mgrwt>
</event>
<event>
12    1  0.1532786E-007  0.1512959E+04  0.7818608E-02  0.8875881E-01
         -2   -1    0    0    0  501 -0.00000000000E+00  0.00000000000E+00  0.67289687169E+03  0.67289687169E+03  0.00000000000E+00 0.  1.
          2   -1    0    0  501    0  0.00000000000E+00 -0.00000000000E+00 -0.85044401037E+03  0.85044401037E+03  0.00000000000E+00 0. -1.
         23    2    1    2    0    0 -0.44870473423E+03  0.64373162127E+02 -0.20262618272E+03  0.50533603615E+03  0.93953695942E+02 0.  0.
        254    2    1    2    0    0  0.44870473423E+03 -0.64373162127E+02  0.25079044052E+02  0.10180048459E+04  0.91116687018E+03 0.  0.
        -24    2    4    4    0    0  0.34449401247E+03  0.37907987419E+03  0.14835783876E+03  0.53922123022E+03  0.79823625300E+02 0.  0.
         24    2    4    4    0    0  0.10421072176E+03 -0.44345303632E+03 -0.12327879471E+03  0.47878361569E+03  0.80781306474E+02 0.  0.
         13    1    3    3    0    0 -0.40782597057E+03  0.31657889276E+02 -0.19216978834E+03  0.45194410249E+03  0.00000000000E+00 0. -1.
        -13    1    3    3    0    0 -0.40878763664E+02  0.32715272851E+02 -0.10456394378E+02  0.53391933659E+02  0.00000000000E+00 0.  1.
          2    1    6    6  502    0  0.41599524566E+02 -0.28938648802E+03 -0.10842396055E+03  0.31181856121E+03  0.00000000000E+00 0. -1.
          3    1    5    5  503    0  0.15080892043E+03  0.17136619472E+03  0.10739799114E+03  0.25227768763E+03  0.00000000000E+00 0. -1.
         -4    1    5    5    0  503  0.19368509205E+03  0.20771367948E+03  0.40959847613E+02  0.28694354260E+03  0.00000000000E+00 0.  1.
         -1    1    6    6    0  502  0.62611197196E+02 -0.15406654830E+03 -0.14854834153E+02  0.16696505447E+03  0.00000000000E+00 0.  1.
<mgrwt>
<rscale>  0 0.15129588E+04</rscale>
<asrwt>0</asrwt>
<pdfrwt beam="1">  1        2 0.13083754E+00 0.15129588E+04</pdfrwt>
<pdfrwt beam="2">  1       -2 0.10352260E+00 0.15129588E+04</pdfrwt>
<totfact> 0.23286369E+01</totfact>
</mgrwt>
</event>
<event>
12    1  0.1532786E-007  0.1912639E+04  0.7818608E-02  0.8648591E-01
         -1   -1    0    0    0  501 -0.00000000000E+00  0.00000000000E+00  0.99410543687E+03  0.99410543687E+03  0.00000000000E+00 0.  1.
          1   -1    0    0  501    0  0.00000000000E+00 -0.00000000000E+00 -0.91997000454E+03  0.91997000454E+03  0.00000000000E+00 0. -1.
         23    2    1    2    0    0 -0.52216520215E+02 -0.48040541712E+03  0.58789459752E+03  0.76661903888E+03  0.92567614252E+02 0.  0.
        254    2    1    2    0    0  0.52216520215E+02  0.48040541712E+03 -0.51375916519E+03  0.11474564025E+04  0.90509214233E+03 0.  0.
        -24    2    4    4    0    0 -0.45042492061E+02  0.67991537516E+03 -0.13133822785E+03  0.69843145090E+03  0.79012771433E+02 0.  0.
         24    2    4    4    0    0  0.97259012276E+02 -0.19950995804E+03 -0.38242093734E+03  0.44902495162E+03  0.78192678938E+02 0.  0.
         13    1    3    3    0    0 -0.24685766423E+02 -0.24739986723E+03  0.37416821942E+03  0.44924151388E+03  0.00000000000E+00 0.  1.
        -13    1    3    3    0    0 -0.27530753792E+02 -0.23300554988E+03  0.21372637810E+03  0.31737752500E+03  0.00000000000E+00 0. -1.
          2    1    6    6  502    0  0.61719411522E+02 -0.18813385290E+03 -0.32029098908E+03  0.37655006314E+03  0.00000000000E+00 0. -1.
          3    1    5    5  503    0 -0.53319057960E+02  0.62366208826E+03 -0.10115577718E+03  0.63405820990E+03  0.00000000000E+00 0. -1.
         -4    1    5    5    0  503  0.82765658982E+01  0.56253286891E+02 -0.30182450668E+02  0.64373241005E+02  0.00000000000E+00 0.  1.
         -1    1    6    6    0  502  0.35539600754E+02 -0.11376105140E+02 -0.62129948257E+02  0.72474888481E+02  0.00000000000E+00 0.  1.
<mgrwt>
<rscale>  0 0.19126392E+04</rscale>
<asrwt>0</asrwt>
<pdfrwt beam="1">  1        1 0.14153385E+00 0.19126392E+04</pdfrwt>
<pdfrwt beam="2">  1       -1 0.15293930E+00 0.19126392E+04</pdfrwt>
<totfact> 0.54222580E+00</totfact>
</mgrwt>
</event>
<event>
12    1  0.1532786E-007  0.2657002E+04  0.7818608E-02  0.8349093E-01
         -2   -1    0    0    0  501 -0.00000000000E+00  0.00000000000E+00  0.24722371894E+04  0.24722371894E+04  0.00000000000E+00 0. -1.
          2   -1    0    0  501    0  0.00000000000E+00 -0.00000000000E+00 -0.71389404708E+03  0.71389404708E+03  0.00000000000E+00 0.  1.
         23    2    1    2    0    0 -0.77110411110E+03  0.29033647910E+03  0.17806217791E+04  0.19641600112E+04  0.91726813916E+02 0.  0.
        254    2    1    2    0    0  0.77110411110E+03 -0.29033647910E+03 -0.22278636712E+02  0.12219712253E+04  0.90212001225E+03 0.  0.
        -24    2    4    4    0    0  0.35764050400E+03  0.23272325135E+03 -0.26461451409E+03  0.50824390321E+03  0.78893486852E+02 0.  0.
         24    2    4    4    0    0  0.41346360710E+03 -0.52305973044E+03  0.24233587738E+03  0.71372732206E+03  0.78335029117E+02 0.  0.
         13    1    3    3    0    0 -0.77098386778E+03  0.28370097835E+03  0.17561634494E+04  0.19388172762E+04  0.00000000000E+00 0. -1.
        -13    1    3    3    0    0 -0.12024331868E+00  0.66355007520E+01  0.24458329688E+02  0.25342735050E+02  0.00000000000E+00 0.  1.
          2    1    6    6  502    0  0.26389031186E+03 -0.36975004537E+03  0.13348188124E+03  0.47346658316E+03  0.00000000000E+00 0. -1.
          1    1    5    5  503    0  0.21032082124E+03  0.10736802004E+03 -0.18091235266E+03  0.29747608126E+03  0.00000000000E+00 0. -1.
         -2    1    5    5    0  503  0.14731968276E+03  0.12535523130E+03 -0.83702161424E+02  0.21076782195E+03  0.00000000000E+00 0.  1.
         -1    1    6    6    0  502  0.14957329523E+03 -0.15330968508E+03  0.10885399613E+03  0.24026073891E+03  0.00000000000E+00 0.  1.
<mgrwt>
<rscale>  0 0.26570024E+04</rscale>
<asrwt>0</asrwt>
<pdfrwt beam="1">  1        2 0.10982985E+00 0.26570024E+04</pdfrwt>
<pdfrwt beam="2">  1       -2 0.38034418E+00 0.26570024E+04</pdfrwt>
<totfact> 0.35046452E-01</totfact>
</mgrwt>
</event>
<event>
12    1  0.1532786E-007  0.1642683E+04  0.7818608E-02  0.8794747E-01
         -1   -1    0    0    0  501 -0.00000000000E+00  0.00000000000E+00  0.50459110312E+03  0.50459110312E+03  0.00000000000E+00 0.  1.
          1   -1    0    0  501    0  0.00000000000E+00 -0.00000000000E+00 -0.13369283955E+04  0.13369283955E+04  0.00000000000E+00 0. -1.
         23    2    1    2    0    0 -0.42358219283E+03  0.20231654678E+03 -0.65297526732E+03  0.80950437932E+03  0.92556907999E+02 0.  0.
        254    2    1    2    0    0  0.42358219283E+03 -0.20231654678E+03 -0.17936202504E+03  0.10320151193E+04  0.90140479877E+03 0.  0.
        -24    2    4    4    0    0  0.44167837722E+03 -0.51630953877E+03 -0.18200817175E+03  0.70784622867E+03  0.79145310213E+02 0.  0.
         24    2    4    4    0    0 -0.18096184388E+02  0.31399299199E+03  0.26461467100E+01  0.32416889062E+03  0.78481823653E+02 0.  0.
         13    1    3    3    0    0 -0.52608456358E+01  0.10418537419E+01 -0.41147933084E+02  0.41495955864E+02  0.00000000000E+00 0.  1.
        -13    1    3    3    0    0 -0.41832134720E+03  0.20127469303E+03 -0.61182733424E+03  0.76800842346E+03  0.00000000000E+00 0. -1.
          2    1    6    6  502    0  0.20286562315E+02  0.12621750000E+03  0.27921887258E+02  0.13085118916E+03  0.00000000000E+00 0. -1.
          1    1    5    5  503    0  0.15775804407E+03 -0.18635190956E+03 -0.10504329141E+03  0.26579828392E+03  0.00000000000E+00 0. -1.
         -4    1    5    5    0  503  0.28392033315E+03 -0.32995762921E+03 -0.76964880342E+02  0.44204794475E+03  0.00000000000E+00 0.  1.
         -1    1    6    6    0  502 -0.38382746702E+02  0.18777549199E+03 -0.25275740548E+02  0.19331770146E+03  0.00000000000E+00 0.  1.
<mgrwt>
<rscale>  0 0.16426834E+04</rscale>
<asrwt>0</asrwt>
<pdfrwt beam="1">  1        1 0.20568129E+00 0.16426834E+04</pdfrwt>
<pdfrwt beam="2">  1       -1 0.77629402E-01 0.16426834E+04</pdfrwt>
<totfact> 0.13535859E+01</totfact>
</mgrwt>
</event>
<event>
12    1  0.1532786E-007  0.3554256E+04  0.7818608E-02  0.8101051E-01
         -2   -1    0    0    0  501 -0.00000000000E+00  0.00000000000E+00  0.83863320178E+03  0.83863320178E+03  0.00000000000E+00 0.  1.
          2   -1    0    0  501    0  0.00000000000E+00 -0.00000000000E+00 -0.37658697589E+04  0.37658697589E+04  0.00000000000E+00 0. -1.
         23    2    1    2    0    0  0.63891081093E+03  0.13811528058E+04 -0.22346597615E+04  0.27050578303E+04  0.88563640277E+02 0.  0.
        254    2    1    2    0    0 -0.63891081093E+03 -0.13811528058E+04 -0.69257679570E+03  0.18994451305E+04  0.90135403066E+03 0.  0.
        -24    2    4    4    0    0  0.22017244512E+03 -0.21501630834E+03 -0.13147913554E+03  0.34411071134E+03  0.80109301183E+02 0.  0.
         24    2    4    4    0    0 -0.85908325605E+03 -0.11661364974E+04 -0.56109766016E+03  0.15553344191E+04  0.79600249183E+02 0.  0.
         13    1    3    3    0    0  0.15658392120E+03  0.31195401267E+03 -0.57742597413E+03  0.67472556348E+03  0.00000000000E+00 0.  1.
        -13    1    3    3    0    0  0.48232688972E+03  0.10691987931E+04 -0.16572337873E+04  0.20303322668E+04  0.00000000000E+00 0. -1.
          2    1    6    6  502    0 -0.55267243443E+03 -0.68481871829E+03 -0.33744779867E+03  0.94249377374E+03  0.00000000000E+00 0. -1.
          1    1    5    5  503    0  0.13679311247E+03 -0.18288049999E+03 -0.88152101714E+02  0.24480283073E+03  0.00000000000E+00 0. -1.
         -2    1    5    5    0  503  0.83379332656E+02 -0.32135808347E+02 -0.43327033827E+02  0.99307880616E+02  0.00000000000E+00 0.  1.
         -1    1    6    6    0  502 -0.30641082162E+03 -0.48131777912E+03 -0.22364986149E+03  0.61284064539E+03  0.00000000000E+00 0.  1.
<mgrwt>
<rscale>  0 0.35542557E+04</rscale>
<asrwt>0</asrwt>
<pdfrwt beam="1">  1        2 0.57936458E+00 0.35542557E+04</pdfrwt>
<pdfrwt beam="2">  1       -2 0.12902049E+00 0.35542557E+04</pdfrwt>
<totfact> 0.18835097E-01</totfact>
</mgrwt>
</event>
<event>
12    1  0.1532786E-007  0.1629307E+04  0.7818608E-02  0.8802743E-01
          2   -1    0    0  501    0  0.00000000000E+00  0.00000000000E+00  0.13822210388E+04  0.13822210388E+04  0.00000000000E+00 0.  1.
         -2   -1    0    0    0  501 -0.00000000000E+00 -0.00000000000E+00 -0.48014080459E+03  0.48014080459E+03  0.00000000000E+00 0. -1.
         23    2    1    2    0    0  0.39529513891E+03  0.31476353506E+03  0.59095326198E+03  0.78292247419E+03  0.91692490914E+02 0.  0.
        254    2    1    2    0    0 -0.39529513891E+03 -0.31476353506E+03  0.31112697225E+03  0.10794393692E+04  0.90169564106E+03 0.  0.
        -24    2    4    4    0    0 -0.25582923996E+03  0.28905119398E+03  0.21091468386E+03  0.44700634157E+03  0.79564268237E+02 0.  0.
         24    2    4    4    0    0 -0.13946589896E+03 -0.60381472904E+03  0.10021228839E+03  0.63243302764E+03  0.76720712514E+02 0.  0.
         13    1    3    3    0    0  0.37358074990E+03  0.26295916200E+03  0.53697874964E+03  0.70502218060E+03  0.00000000000E+00 0.  1.
        -13    1    3    3    0    0  0.21714389015E+02  0.51804373061E+02  0.53974512344E+02  0.77900293589E+02  0.00000000000E+00 0. -1.
          2    1    6    6  502    0 -0.22234189097E+02 -0.28693292662E+02 -0.32165070627E+01  0.36441873254E+02  0.00000000000E+00 0. -1.
          1    1    5    5  503    0 -0.27230247521E+02  0.79247552566E+02  0.42214323584E+02  0.93828087923E+02  0.00000000000E+00 0. -1.
         -2    1    5    5    0  503 -0.22859899244E+03  0.20980364142E+03  0.16870036028E+03  0.35317825365E+03  0.00000000000E+00 0.  1.
         -3    1    6    6    0  502 -0.11723170986E+03 -0.57512143638E+03  0.10342879545E+03  0.59599115439E+03  0.00000000000E+00 0.  1.
<mgrwt>
<rscale>  0 0.16293075E+04</rscale>
<asrwt>0</asrwt>
<pdfrwt beam="1">  1        2 0.21264939E+00 0.16293075E+04</pdfrwt>
<pdfrwt beam="2">  1       -2 0.73867817E-01 0.16293075E+04</pdfrwt>
<totfact> 0.23409689E+01</totfact>
</mgrwt>
</event>
<event>
12    1  0.1532786E-007  0.2183904E+04  0.7818608E-02  0.8525157E-01
          1   -1    0    0  501    0  0.00000000000E+00  0.00000000000E+00  0.65680746501E+03  0.65680746501E+03  0.00000000000E+00 0. -1.
         -1   -1    0    0    0  501 -0.00000000000E+00 -0.00000000000E+00 -0.18153867682E+04  0.18153867682E+04  0.00000000000E+00 0.  1.
         23    2    1    2    0    0 -0.48305830828E+03 -0.73845245756E+03 -0.26789629978E+03  0.92673943459E+03  0.91761598166E+02 0.  0.
        254    2    1    2    0    0  0.48305830828E+03  0.73845245756E+03 -0.89068300338E+03  0.15454547986E+04  0.90358007987E+03 0.  0.
        -24    2    4    4    0    0  0.40722995027E+03 -0.40255176864E+02 -0.97676104025E+02  0.42858176195E+03  0.81761810901E+02 0.  0.
         24    2    4    4    0    0  0.75828358015E+02  0.77870763443E+03 -0.79300689935E+03  0.11168730366E+04  0.80061962113E+02 0.  0.
         11    1    3    3    0    0 -0.84323173438E+02 -0.14019810052E+03 -0.13726218720E+02  0.16417769047E+03  0.00000000000E+00 0. -1.
        -11    1    3    3    0    0 -0.39873513484E+03 -0.59825435705E+03 -0.25417008106E+03  0.76256174412E+03  0.00000000000E+00 0.  1.
          4    1    6    6  502    0  0.24423256444E+01  0.16023168147E+03 -0.20633455088E+03  0.26125486328E+03  0.00000000000E+00 0. -1.
          1    1    5    5  503    0  0.91336833364E+01 -0.11784881091E+02  0.62388904071E+01  0.16162652849E+02  0.00000000000E+00 0. -1.
         -2    1    5    5    0  503  0.39809626693E+03 -0.28470295773E+02 -0.10391499443E+03  0.41241910910E+03  0.00000000000E+00 0.  1.
         -3    1    6    6    0  502  0.73386032371E+02  0.61847595296E+03 -0.58667234847E+03  0.85561817337E+03  0.00000000000E+00 0.  1.
<mgrwt>
<rscale>  0 0.21839044E+04</rscale>
<asrwt>0</asrwt>
<pdfrwt beam="1">  1        1 0.10104730E+00 0.21839044E+04</pdfrwt>
<pdfrwt beam="2">  1       -1 0.27929027E+00 0.21839044E+04</pdfrwt>
<totfact> 0.12317244E+00</totfact>
</mgrwt>
</event>
<event>
12    1  0.1532786E-007  0.1955233E+04  0.7818608E-02  0.8627841E-01
          1   -1    0    0  501    0  0.00000000000E+00  0.00000000000E+00  0.10022890515E+04  0.10022890515E+04  0.00000000000E+00 0. -1.
         -1   -1    0    0    0  501 -0.00000000000E+00 -0.00000000000E+00 -0.95355145056E+03  0.95355145056E+03  0.00000000000E+00 0.  1.
         23    2    1    2    0    0  0.87843412254E+02  0.48978626656E+03  0.59458407250E+03  0.78120316682E+03  0.95609186731E+02 0.  0.
        254    2    1    2    0    0 -0.87843412254E+02 -0.48978626656E+03 -0.54584647161E+03  0.11746373352E+04  0.91335504963E+03 0.  0.
        -24    2    4    4    0    0  0.35026603405E+03 -0.45347614564E+03 -0.40544112112E+03  0.70632893785E+03  0.78683902265E+02 0.  0.
         24    2    4    4    0    0 -0.43810944631E+03 -0.36310120923E+02 -0.14040535048E+03  0.46830839734E+03  0.79629019532E+02 0.  0.
         13    1    3    3    0    0  0.37108760530E+02  0.11045198778E+03  0.20028187949E+03  0.23171001913E+03  0.00000000000E+00 0.  1.
        -13    1    3    3    0    0  0.50734651724E+02  0.37933427879E+03  0.39430219301E+03  0.54949314769E+03  0.00000000000E+00 0. -1.
          4    1    6    6  502    0 -0.27239579725E+03 -0.10932654204E+02 -0.12515303059E+03  0.29997045580E+03  0.00000000000E+00 0. -1.
          1    1    5    5  503    0  0.29375745288E+03 -0.40121334204E+03 -0.37797244917E+03  0.62460288127E+03  0.00000000000E+00 0. -1.
         -2    1    5    5    0  503  0.56508581173E+02 -0.52262803606E+02 -0.27468671948E+02  0.81726056589E+02  0.00000000000E+00 0.  1.
         -3    1    6    6    0  502 -0.16571364905E+03 -0.25377466719E+02 -0.15252319899E+02  0.16833794154E+03  0.00000000000E+00 0.  1.
<mgrwt>
<rscale>  0 0.19552332E+04</rscale>
<asrwt>0</asrwt>
<pdfrwt beam="1">  1        1 0.15419832E+00 0.19552332E+04</pdfrwt>
<pdfrwt beam="2">  1       -1 0.14670022E+00 0.19552332E+04</pdfrwt>
<totfact> 0.51978393E+00</totfact>
</mgrwt>
</event>
<event>
12    1  0.1532786E-007  0.1652544E+04  0.7818608E-02  0.8788903E-01
         -1   -1    0    0    0  501 -0.00000000000E+00  0.00000000000E+00  0.80234882834E+03  0.80234882834E+03  0.00000000000E+00 0.  1.
          1   -1    0    0  501    0  0.00000000000E+00 -0.00000000000E+00 -0.85090891422E+03  0.85090891422E+03  0.00000000000E+00 0. -1.
         23    2    1    2    0    0  0.49373176290E+03 -0.22464531665E+03  0.17083642435E+03  0.57734817466E+03  0.99545260629E+02 0.  0.
        254    2    1    2    0    0 -0.49373176290E+03  0.22464531665E+03 -0.21939651024E+03  0.10759095679E+04  0.90288980369E+03 0.  0.
        -24    2    4    4    0    0  0.24891256952E+03  0.70437754368E+02 -0.14954405712E+03  0.31009115143E+03  0.82910510023E+02 0.  0.
         24    2    4    4    0    0 -0.74264433241E+03  0.15420756228E+03 -0.69852453118E+02  0.76581841647E+03  0.79359341382E+02 0.  0.
         11    1    3    3    0    0  0.25741991227E+02 -0.40981579964E+02  0.91881063567E+01  0.49260139130E+02  0.00000000000E+00 0. -1.
        -11    1    3    3    0    0  0.46798977167E+03 -0.18366373669E+03  0.16164831800E+03  0.52808803553E+03  0.00000000000E+00 0.  1.
          2    1    6    6  502    0 -0.47063522926E+03  0.65726194187E+02 -0.65921120069E+02  0.47975310911E+03  0.00000000000E+00 0. -1.
          3    1    5    5  503    0  0.11134540204E+03  0.65071625380E+02 -0.42790687527E+02  0.13587920342E+03  0.00000000000E+00 0. -1.
         -4    1    5    5    0  503  0.13756716748E+03  0.53661289887E+01 -0.10675336959E+03  0.17421194801E+03  0.00000000000E+00 0.  1.
         -1    1    6    6    0  502 -0.27200910315E+03  0.88481368096E+02 -0.39313330487E+01  0.28606530736E+03  0.00000000000E+00 0.  1.
<mgrwt>
<rscale>  0 0.16525444E+04</rscale>
<asrwt>0</asrwt>
<pdfrwt beam="1">  1        1 0.13090906E+00 0.16525444E+04</pdfrwt>
<pdfrwt beam="2">  1       -1 0.12343828E+00 0.16525444E+04</pdfrwt>
<totfact> 0.11031086E+01</totfact>
</mgrwt>
</event>
<event>
12    1  0.1532786E-007  0.1396757E+04  0.7818608E-02  0.8956169E-01
          1   -1    0    0  501    0  0.00000000000E+00  0.00000000000E+00  0.63404626122E+03  0.63404626122E+03  0.00000000000E+00 0. -1.
         -1   -1    0    0    0  501 -0.00000000000E+00 -0.00000000000E+00 -0.76923805803E+03  0.76923805803E+03  0.00000000000E+00 0.  1.
         23    2    1    2    0    0  0.45889748471E+02  0.10566680443E+03 -0.42273126398E+03  0.44740894612E+03  0.90563242812E+02 0.  0.
        254    2    1    2    0    0 -0.45889748471E+02 -0.10566680443E+03  0.28753946717E+03  0.95587537313E+03  0.90429389095E+03 0.  0.
        -24    2    4    4    0    0  0.41236214853E+03 -0.12076127081E+03  0.20638351594E+03  0.48347444904E+03  0.80793323709E+02 0.  0.
         24    2    4    4    0    0 -0.45825189700E+03  0.15094466374E+02  0.81155951230E+02  0.47240092409E+03  0.79710103789E+02 0.  0.
         13    1    3    3    0    0  0.34786841625E+02  0.11121781398E+03 -0.41829994036E+03  0.43422847281E+03  0.00000000000E+00 0.  1.
        -13    1    3    3    0    0  0.11102906846E+02 -0.55510095531E+01 -0.44313236176E+01  0.13180473303E+02  0.00000000000E+00 0. -1.
          4    1    6    6  502    0 -0.17534185991E+02  0.14211866992E+02 -0.55299412188E+01  0.23238009632E+02  0.00000000000E+00 0. -1.
          3    1    5    5  503    0  0.13765027150E+03 -0.27719636818E+02  0.10820159865E+03  0.17726692151E+03  0.00000000000E+00 0. -1.
         -4    1    5    5    0  503  0.27471187702E+03 -0.93041633987E+02  0.98181917290E+02  0.30620752753E+03  0.00000000000E+00 0.  1.
         -3    1    6    6    0  502 -0.44071771101E+03  0.88259938171E+00  0.86685892449E+02  0.44916291446E+03  0.00000000000E+00 0.  1.
<mgrwt>
<rscale>  0 0.13967570E+04</rscale>
<asrwt>0</asrwt>
<pdfrwt beam="1">  1        1 0.97545579E-01 0.13967570E+04</pdfrwt>
<pdfrwt beam="2">  1       -1 0.11834432E+00 0.13967570E+04</pdfrwt>
<totfact> 0.19744870E+01</totfact>
</mgrwt>
</event>
<event>
12    1  0.1532786E-007  0.2062885E+04  0.7818608E-02  0.8577771E-01
          1   -1    0    0  501    0  0.00000000000E+00  0.00000000000E+00  0.29115633161E+04  0.29115633161E+04  0.00000000000E+00 0. -1.
         -1   -1    0    0    0  501 -0.00000000000E+00 -0.00000000000E+00 -0.36539593035E+03  0.36539593035E+03  0.00000000000E+00 0.  1.
         23    2    1    2    0    0 -0.63182955937E+02 -0.51062061839E+03  0.21052570297E+04  0.21691633577E+04  0.91853193722E+02 0.  0.
        254    2    1    2    0    0  0.63182955937E+02  0.51062061839E+03  0.44091035602E+03  0.11077958888E+04  0.87640418034E+03 0.  0.
        -24    2    4    4    0    0  0.40808090476E+03  0.49827943839E+02  0.88067745510E+02  0.42810007879E+03  0.80628164124E+02 0.  0.
         24    2    4    4    0    0 -0.34489794882E+03  0.46079267455E+03  0.35284261051E+03  0.67969580999E+03  0.78765489326E+02 0.  0.
         13    1    3    3    0    0 -0.45405757125E+01 -0.27432500408E+03  0.12610356929E+04  0.12905370368E+04  0.00000000000E+00 0.  1.
        -13    1    3    3    0    0 -0.58642380224E+02 -0.23629561430E+03  0.84422133685E+03  0.87862632085E+03  0.00000000000E+00 0. -1.
          4    1    6    6  502    0 -0.42633545412E+02  0.10793832254E+03  0.78850543411E+02  0.14030576917E+03  0.00000000000E+00 0. -1.
          1    1    5    5  503    0  0.75521952869E+02 -0.16969293080E+02  0.34299788085E+02  0.84664028581E+02  0.00000000000E+00 0. -1.
         -2    1    5    5    0  503  0.33255895189E+03  0.66797236919E+02  0.53767957425E+02  0.34343605021E+03  0.00000000000E+00 0.  1.
         -3    1    6    6    0  502 -0.30226440341E+03  0.35285435201E+03  0.27399206710E+03  0.53939004081E+03  0.00000000000E+00 0.  1.
<mgrwt>
<rscale>  0 0.20628848E+04</rscale>
<asrwt>0</asrwt>
<pdfrwt beam="1">  1        1 0.44793280E+00 0.20628848E+04</pdfrwt>
<pdfrwt beam="2">  1       -1 0.56214760E-01 0.20628848E+04</pdfrwt>
<totfact> 0.20499629E+00</totfact>
</mgrwt>
</event>
<event>
12    1  0.1532786E-007  0.1373742E+04  0.7818608E-02  0.8973047E-01
         -2   -1    0    0    0  501 -0.00000000000E+00  0.00000000000E+00  0.13651437911E+04  0.13651437911E+04  0.00000000000E+00 0.  1.
          2   -1    0    0  501    0  0.00000000000E+00 -0.00000000000E+00 -0.34559883397E+03  0.34559883397E+03  0.00000000000E+00 0. -1.
         23    2    1    2    0    0 -0.18882757433E+03  0.31193094838E+03  0.13525664128E+03  0.39922108971E+03  0.90146270434E+02 0.  0.
        254    2    1    2    0    0  0.18882757433E+03 -0.31193094838E+03  0.88428831584E+03  0.13115215354E+04  0.89731050522E+03 0.  0.
        -24    2    4    4    0    0  0.22229577430E+03  0.16554164555E+03 -0.15833676484E+02  0.28895950087E+03  0.80171317518E+02 0.  0.
         24    2    4    4    0    0 -0.33468199962E+02 -0.47747259393E+03  0.90012199232E+03  0.10225620345E+04  0.79456371238E+02 0.  0.
         11    1    3    3    0    0 -0.14355318479E+02  0.22103699748E+02 -0.13565469700E+02  0.29642379786E+02  0.00000000000E+00 0. -1.
        -11    1    3    3    0    0 -0.17447225586E+03  0.28982724863E+03  0.14882211098E+03  0.36957870993E+03  0.00000000000E+00 0.  1.
          4    1    6    6  502    0 -0.10773446388E+02 -0.36368891729E+03  0.74233760464E+03  0.82671084121E+03  0.00000000000E+00 0. -1.
          3    1    5    5  503    0  0.16717477529E+03  0.14123269338E+03 -0.42738553690E+02  0.22298130672E+03  0.00000000000E+00 0. -1.
         -4    1    5    5    0  503  0.55120999005E+02  0.24308952171E+02  0.26904877206E+02  0.65978194158E+02  0.00000000000E+00 0.  1.
         -3    1    6    6    0  502 -0.22694753574E+02 -0.11378367664E+03  0.15778438769E+03  0.19585119327E+03  0.00000000000E+00 0.  1.
<mgrwt>
<rscale>  0 0.13737425E+04</rscale>
<asrwt>0</asrwt>
<pdfrwt beam="1">  1        2 0.53169052E-01 0.13737425E+04</pdfrwt>
<pdfrwt beam="2">  1       -2 0.21002212E+00 0.13737425E+04</pdfrwt>
<totfact> 0.10455536E+01</totfact>
</mgrwt>
</event>
<event>
12    1  0.1532786E-007  0.1766647E+04  0.7818608E-02  0.8724240E-01
          2   -1    0    0  501    0  0.00000000000E+00  0.00000000000E+00  0.17657761009E+04  0.17657761009E+04  0.00000000000E+00 0. -1.
         -2   -1    0    0    0  501 -0.00000000000E+00 -0.00000000000E+00 -0.44187966870E+03  0.44187966870E+03  0.00000000000E+00 0.  1.
         23    2    1    2    0    0  0.23247391556E+03 -0.57747835049E+03  0.26444147589E+03  0.68250318866E+03  0.91410839914E+02 0.  0.
        254    2    1    2    0    0 -0.23247391556E+03  0.57747835049E+03  0.10594549563E+04  0.15251525809E+04  0.90339372589E+03 0.  0.
        -24    2    4    4    0    0 -0.26544927016E+03 -0.12254956592E+03  0.71743299453E+02  0.31162023621E+03  0.80488256687E+02 0.  0.
         24    2    4    4    0    0  0.32975354598E+02  0.70002791642E+03  0.98771165681E+03  0.12135323447E+04  0.77200886272E+02 0.  0.
         13    1    3    3    0    0  0.77576436168E+02 -0.18512640143E+03  0.13256344851E+03  0.24054720085E+03  0.00000000000E+00 0. -1.
        -13    1    3    3    0    0  0.15489747939E+03 -0.39235194906E+03  0.13187802738E+03  0.44195598781E+03  0.00000000000E+00 0.  1.
          2    1    6    6  502    0  0.27444472876E+02  0.33568499304E+03  0.53794780415E+03  0.63468531859E+03  0.00000000000E+00 0. -1.
          3    1    5    5  503    0 -0.11902738649E+03 -0.18034584511E+02  0.50219698907E+02  0.13044072651E+03  0.00000000000E+00 0. -1.
         -4    1    5    5    0  503 -0.14642188367E+03 -0.10451498141E+03  0.21523600546E+02  0.18117950970E+03  0.00000000000E+00 0.  1.
         -1    1    6    6    0  502  0.55308817221E+01  0.36434292338E+03  0.44976385267E+03  0.57884702611E+03  0.00000000000E+00 0.  1.
<mgrwt>
<rscale>  0 0.17666472E+04</rscale>
<asrwt>0</asrwt>
<pdfrwt beam="1">  1        2 0.27165786E+00 0.17666472E+04</pdfrwt>
<pdfrwt beam="2">  1       -2 0.67981489E-01 0.17666472E+04</pdfrwt>
<totfact> 0.16905373E+01</totfact>
</mgrwt>
</event>
<event>
12    1  0.1532786E-007  0.1392671E+04  0.7818608E-02  0.8959141E-01
         -1   -1    0    0    0  501 -0.00000000000E+00  0.00000000000E+00  0.92803586396E+03  0.92803586396E+03  0.00000000000E+00 0.  1.
          1   -1    0    0  501    0  0.00000000000E+00 -0.00000000000E+00 -0.52248305036E+03  0.52248305036E+03  0.00000000000E+00 0. -1.
         23    2    1    2    0    0 -0.13115654475E+03 -0.35140181798E+03 -0.23105286058E+02  0.38667678379E+03  0.91103259891E+02 0.  0.
        254    2    1    2    0    0  0.13115654475E+03  0.35140181798E+03  0.42865809966E+03  0.10638421305E+04  0.89851379253E+03 0.  0.
        -24    2    4    4    0    0 -0.17482947311E+03 -0.79827565713E+02  0.48341942696E+03  0.52630461701E+03  0.79777331421E+02 0.  0.
         24    2    4    4    0    0  0.30598601786E+03  0.43122938370E+03 -0.54761327304E+02  0.53753751351E+03  0.79759331569E+02 0.  0.
         13    1    3    3    0    0 -0.42890840220E+02 -0.79402476203E+02  0.31426200797E+02  0.95561412183E+02  0.00000000000E+00 0.  1.
        -13    1    3    3    0    0 -0.88265704531E+02 -0.27199934178E+03 -0.54531486854E+02  0.29111537160E+03  0.00000000000E+00 0. -1.
          2    1    6    6  502    0  0.27494650342E+03  0.33673357421E+03 -0.54054670073E+02  0.43807189718E+03  0.00000000000E+00 0. -1.
          3    1    5    5  503    0 -0.75700828057E+02 -0.83459227192E+01  0.26822585714E+03  0.27882858575E+03  0.00000000000E+00 0. -1.
         -4    1    5    5    0  503 -0.99128645058E+02 -0.71481642994E+02  0.21519356983E+03  0.24747603126E+03  0.00000000000E+00 0.  1.
         -1    1    6    6    0  502  0.31039514444E+02  0.94495809488E+02 -0.70665723032E+00  0.99465616331E+02  0.00000000000E+00 0.  1.
<mgrwt>
<rscale>  0 0.13926708E+04</rscale>
<asrwt>0</asrwt>
<pdfrwt beam="1">  1        1 0.80382008E-01 0.13926708E+04</pdfrwt>
<pdfrwt beam="2">  1       -1 0.14277475E+00 0.13926708E+04</pdfrwt>
<totfact> 0.16194468E+01</totfact>
</mgrwt>
</event>
<event>
12    1  0.1532786E-007  0.1739315E+04  0.7818608E-02  0.8739254E-01
          1   -1    0    0  501    0  0.00000000000E+00  0.00000000000E+00  0.21038585377E+04  0.21038585377E+04  0.00000000000E+00 0. -1.
         -1   -1    0    0    0  501 -0.00000000000E+00 -0.00000000000E+00 -0.35948446578E+03  0.35948446578E+03  0.00000000000E+00 0.  1.
         23    2    1    2    0    0  0.17678184893E+02  0.24603292762E+03 -0.18475921110E+03  0.31762550085E+03  0.76845774171E+02 0.  0.
        254    2    1    2    0    0 -0.17678184893E+02 -0.24603292762E+03  0.19291332830E+04  0.21457175027E+04  0.90647871336E+03 0.  0.
        -24    2    4    4    0    0  0.19212877082E+03  0.16043265120E+03  0.14076306837E+03  0.29804414299E+03  0.79774492191E+02 0.  0.
         24    2    4    4    0    0 -0.20980695572E+03 -0.40646557882E+03  0.17883702147E+04  0.18476733597E+04  0.79972456834E+02 0.  0.
         13    1    3    3    0    0  0.20653613221E+02  0.22938568545E+02 -0.44256338958E+02  0.53957142289E+02  0.00000000000E+00 0. -1.
        -13    1    3    3    0    0 -0.29754283280E+01  0.22309435908E+03 -0.14050287214E+03  0.26366835856E+03  0.00000000000E+00 0.  1.
          4    1    6    6  502    0 -0.19114501691E+03 -0.34327813318E+03  0.16176037111E+04  0.16646375162E+04  0.00000000000E+00 0. -1.
          3    1    5    5  503    0  0.15798475294E+03  0.14558795954E+03  0.85101497919E+02  0.23107856039E+03  0.00000000000E+00 0. -1.
         -4    1    5    5    0  503  0.34144017882E+02  0.14844691659E+02  0.55661570448E+02  0.66965582596E+02  0.00000000000E+00 0.  1.
         -3    1    6    6    0  502 -0.18661938809E+02 -0.63187445639E+02  0.17076650356E+03  0.18303584345E+03  0.00000000000E+00 0.  1.
<mgrwt>
<rscale>  0 0.17393153E+04</rscale>
<asrwt>0</asrwt>
<pdfrwt beam="1">  1        1 0.32367054E+00 0.17393153E+04</pdfrwt>
<pdfrwt beam="2">  1       -1 0.55305304E-01 0.17393153E+04</pdfrwt>
<totfact> 0.79441516E+00</totfact>
</mgrwt>
</event>
<event>
12    1  0.1532786E-007  0.1491752E+04  0.7818608E-02  0.8889956E-01
         -1   -1    0    0    0  501 -0.00000000000E+00  0.00000000000E+00  0.49171986147E+03  0.49171986147E+03  0.00000000000E+00 0.  1.
          1   -1    0    0  501    0  0.00000000000E+00 -0.00000000000E+00 -0.11313981534E+04  0.11313981534E+04  0.00000000000E+00 0. -1.
         23    2    1    2    0    0 -0.13837353145E+03  0.34188537920E+02  0.28191729490E+03  0.32898971111E+03  0.91873709648E+02 0.  0.
        254    2    1    2    0    0  0.13837353145E+03 -0.34188537920E+02 -0.92159558686E+03  0.12941283038E+04  0.89728119929E+03 0.  0.
        -24    2    4    4    0    0 -0.18556347844E+03 -0.78124452842E+02  0.85068349881E+02  0.23273845396E+03  0.79958296233E+02 0.  0.
         24    2    4    4    0    0  0.32393700989E+03  0.43935914922E+02 -0.10066639367E+04  0.10613898498E+04  0.79439164032E+02 0.  0.
         11    1    3    3    0    0 -0.11466018607E+03  0.63819241854E+02  0.20884331422E+03  0.24664829981E+03  0.00000000000E+00 0.  1.
        -11    1    3    3    0    0 -0.23713345381E+02 -0.29630703934E+02  0.73073980674E+02  0.82341411309E+02  0.00000000000E+00 0. -1.
          4    1    6    6  502    0  0.12577260708E+03 -0.21746419417E+02 -0.38625211787E+03  0.40679522368E+03  0.00000000000E+00 0. -1.
          3    1    5    5  503    0 -0.57471759999E+02  0.12444035064E+02  0.13631774341E+02  0.60362923039E+02  0.00000000000E+00 0. -1.
         -4    1    5    5    0  503 -0.12809171844E+03 -0.90568487906E+02  0.71436575539E+02  0.17237553092E+03  0.00000000000E+00 0.  1.
         -3    1    6    6    0  502  0.19816440281E+03  0.65682334339E+02 -0.62041181887E+03  0.65459462615E+03  0.00000000000E+00 0.  1.
<mgrwt>
<rscale>  0 0.14917519E+04</rscale>
<asrwt>0</asrwt>
<pdfrwt beam="1">  1        1 0.17406125E+00 0.14917519E+04</pdfrwt>
<pdfrwt beam="2">  1       -1 0.75649210E-01 0.14917519E+04</pdfrwt>
<totfact> 0.20414310E+01</totfact>
</mgrwt>
</event>
<event>
12    1  0.1532786E-007  0.1326714E+04  0.7818608E-02  0.9008645E-01
         -1   -1    0    0    0  501 -0.00000000000E+00  0.00000000000E+00  0.66214506380E+03  0.66214506380E+03  0.00000000000E+00 0.  1.
          1   -1    0    0  501    0  0.00000000000E+00 -0.00000000000E+00 -0.66457163783E+03  0.66457163783E+03  0.00000000000E+00 0. -1.
         23    2    1    2    0    0 -0.12227920773E+03 -0.28143066163E+03  0.16235190045E+03  0.35950430031E+03  0.93433293924E+02 0.  0.
        254    2    1    2    0    0  0.12227920773E+03  0.28143066163E+03 -0.16477847448E+03  0.96721240132E+03  0.90232613930E+03 0.  0.
        -24    2    4    4    0    0 -0.27576676906E+03  0.37373030687E+03 -0.26279898866E+03  0.53944324599E+03  0.78829271280E+02 0.  0.
         24    2    4    4    0    0  0.39804597680E+03 -0.92299645241E+02  0.98020514184E+02  0.42776915533E+03  0.80116196178E+02 0.  0.
         11    1    3    3    0    0 -0.12536048305E+03 -0.18046144846E+03  0.11255728247E+03  0.24688201013E+03  0.00000000000E+00 0.  1.
        -11    1    3    3    0    0  0.30812753114E+01 -0.10096921317E+03  0.49794617982E+02  0.11262229018E+03  0.00000000000E+00 0. -1.
          4    1    6    6  502    0 -0.38011959232E+01 -0.14972518857E+01 -0.65680267060E+00  0.41379032618E+01  0.00000000000E+00 0. -1.
          1    1    5    5  503    0 -0.10895177925E+03  0.10880828100E+03 -0.12064269497E+03  0.19561286273E+03  0.00000000000E+00 0. -1.
         -2    1    5    5    0  503 -0.16681498982E+03  0.26492202587E+03 -0.14215629369E+03  0.34383038326E+03  0.00000000000E+00 0.  1.
         -3    1    6    6    0  502  0.40184717272E+03 -0.90802393355E+02  0.98677316855E+02  0.42363125206E+03  0.00000000000E+00 0.  1.
<mgrwt>
<rscale>  0 0.13267145E+04</rscale>
<asrwt>0</asrwt>
<pdfrwt beam="1">  1        1 0.10224179E+00 0.13267145E+04</pdfrwt>
<pdfrwt beam="2">  1       -1 0.10186847E+00 0.13267145E+04</pdfrwt>
<totfact> 0.26402890E+01</totfact>
</mgrwt>
</event>
<event>
12    1  0.1532786E-007  0.1147923E+04  0.7818608E-02  0.9159702E-01
          2   -1    0    0  501    0  0.00000000000E+00  0.00000000000E+00  0.62919051498E+03  0.62919051498E+03  0.00000000000E+00 0. -1.
         -2   -1    0    0    0  501 -0.00000000000E+00 -0.00000000000E+00 -0.52358017054E+03  0.52358017054E+03  0.00000000000E+00 0.  1.
         23    2    1    2    0    0  0.18088499307E+03  0.86890863311E+02 -0.34527654757E+02  0.22177142286E+03  0.87869233556E+02 0.  0.
        254    2    1    2    0    0 -0.18088499307E+03 -0.86890863311E+02  0.14013799919E+03  0.93099926267E+03  0.89824916667E+03 0.  0.
        -24    2    4    4    0    0 -0.28652323062E+03  0.33864071159E+03 -0.37015897994E+02  0.45138090366E+03  0.74842837024E+02 0.  0.
         24    2    4    4    0    0  0.10563823755E+03 -0.42553157490E+03  0.17715389719E+03  0.47961835901E+03  0.80085632535E+02 0.  0.
         11    1    3    3    0    0  0.12081054810E+03  0.30901084550E+02 -0.56290199316E+02  0.13681612513E+03  0.00000000000E+00 0.  1.
        -11    1    3    3    0    0  0.60074444979E+02  0.55989778762E+02  0.21762544559E+02  0.84955297722E+02  0.00000000000E+00 0. -1.
          4    1    6    6  502    0  0.25347854581E+01 -0.16809534490E+03  0.58761985655E+02  0.17808829572E+03  0.00000000000E+00 0. -1.
          3    1    5    5  503    0  0.16674889049E+01  0.57531620672E+01 -0.81727007415E+01  0.10132740519E+02  0.00000000000E+00 0. -1.
         -4    1    5    5    0  503 -0.28819071953E+03  0.33288754952E+03 -0.28843197252E+02  0.44124816314E+03  0.00000000000E+00 0.  1.
         -3    1    6    6    0  502  0.10310345209E+03 -0.25743623000E+03  0.11839191153E+03  0.30153006329E+03  0.00000000000E+00 0.  1.
<mgrwt>
<rscale>  0 0.11479228E+04</rscale>
<asrwt>0</asrwt>
<pdfrwt beam="1">  1        2 0.96798540E-01 0.11479228E+04</pdfrwt>
<pdfrwt beam="2">  1       -2 0.80550796E-01 0.11479228E+04</pdfrwt>
<totfact> 0.63103204E+01</totfact>
</mgrwt>
</event>
<event>
12    1  0.1532786E-007  0.2244645E+04  0.7818608E-02  0.8500072E-01
          2   -1    0    0  501    0  0.00000000000E+00  0.00000000000E+00  0.15057842575E+04  0.15057842575E+04  0.00000000000E+00 0.  1.
         -2   -1    0    0    0  501 -0.00000000000E+00 -0.00000000000E+00 -0.83651260730E+03  0.83651260730E+03  0.00000000000E+00 0. -1.
         23    2    1    2    0    0  0.36550732405E+03 -0.43787418846E+03  0.10653467193E+04  0.12118918234E+04  0.91590121905E+02 0.  0.
        254    2    1    2    0    0 -0.36550732405E+03  0.43787418846E+03 -0.39607506909E+03  0.11304050414E+04  0.89197011634E+03 0.  0.
        -24    2    4    4    0    0 -0.39059254644E+03 -0.17357434237E+03 -0.10264620175E+03  0.44713620074E+03  0.81877650280E+02 0.  0.
         24    2    4    4    0    0  0.25085222393E+02  0.61144853083E+03 -0.29342886735E+03  0.68326884067E+03  0.79102681363E+02 0.  0.
         11    1    3    3    0    0  0.97449359410E+01 -0.71816360067E+01  0.44323309182E+01  0.12891285025E+02  0.00000000000E+00 0. -1.
        -11    1    3    3    0    0  0.35576238811E+03 -0.43069255246E+03  0.10609143884E+04  0.11990005384E+04  0.00000000000E+00 0.  1.
          2    1    6    6  502    0  0.42561411940E+02  0.54626089941E+03 -0.24497963041E+03  0.60018952284E+03  0.00000000000E+00 0. -1.
          1    1    5    5  503    0 -0.31486945592E+03 -0.15611027578E+03 -0.11201203832E+03  0.36886296806E+03  0.00000000000E+00 0. -1.
         -2    1    5    5    0  503 -0.75723090523E+02 -0.17464066588E+02  0.93658365730E+01  0.78273232684E+02  0.00000000000E+00 0.  1.
         -1    1    6    6    0  502 -0.17476189548E+02  0.65187631426E+02 -0.48449236935E+02  0.83079317833E+02  0.00000000000E+00 0.  1.
<mgrwt>
<rscale>  0 0.22446448E+04</rscale>
<asrwt>0</asrwt>
<pdfrwt beam="1">  1        2 0.23165912E+00 0.22446448E+04</pdfrwt>
<pdfrwt beam="2">  1       -2 0.12869425E+00 0.22446448E+04</pdfrwt>
<totfact> 0.51129458E+00</totfact>
</mgrwt>
</event>
<event>
12    1  0.1532786E-007  0.1740577E+04  0.7818608E-02  0.8738554E-01
          2   -1    0    0  501    0  0.00000000000E+00  0.00000000000E+00  0.56912739290E+03  0.56912739290E+03  0.00000000000E+00 0. -1.
         -2   -1    0    0    0  501 -0.00000000000E+00 -0.00000000000E+00 -0.13308124683E+04  0.13308124683E+04  0.00000000000E+00 0.  1.
         23    2    1    2    0    0  0.22061403936E+03  0.14658016184E+03 -0.91480125535E+03  0.95678991472E+03  0.91811251543E+02 0.  0.
        254    2    1    2    0    0 -0.22061403936E+03 -0.14658016184E+03  0.15311617994E+03  0.94314994649E+03  0.89214962803E+03 0.  0.
        -24    2    4    4    0    0  0.29178933614E+03  0.10171858027E+03  0.18197280423E+03  0.36752906604E+03  0.80472521079E+02 0.  0.
         24    2    4    4    0    0 -0.51240337550E+03 -0.24829874211E+03 -0.28856624297E+02  0.57562088045E+03  0.79354953717E+02 0.  0.
         13    1    3    3    0    0  0.43233172303E+01  0.19585049400E+02 -0.23624569954E+02  0.30990087727E+02  0.00000000000E+00 0. -1.
        -13    1    3    3    0    0  0.21629072213E+03  0.12699511244E+03 -0.89117668540E+03  0.92579982700E+03  0.00000000000E+00 0.  1.
          2    1    6    6  502    0 -0.38380143186E+03 -0.21192154271E+03  0.21307471829E+01  0.43842766729E+03  0.00000000000E+00 0. -1.
          3    1    5    5  503    0  0.23699538987E+03  0.11419125602E+03  0.14743560341E+03  0.30156875655E+03  0.00000000000E+00 0. -1.
         -4    1    5    5    0  503  0.54793946267E+02 -0.12472675752E+02  0.34537200827E+02  0.65960309496E+02  0.00000000000E+00 0.  1.
         -1    1    6    6    0  502 -0.12860194364E+03 -0.36377199404E+02 -0.30987371480E+02  0.13719321316E+03  0.00000000000E+00 0.  1.
<mgrwt>
<rscale>  0 0.17405767E+04</rscale>
<asrwt>0</asrwt>
<pdfrwt beam="1">  1        2 0.87558062E-01 0.17405767E+04</pdfrwt>
<pdfrwt beam="2">  1       -2 0.20474038E+00 0.17405767E+04</pdfrwt>
<totfact> 0.62031822E+00</totfact>
</mgrwt>
</event>
<event>
12    1  0.1532786E-007  0.2187464E+04  0.7818608E-02  0.8523664E-01
          1   -1    0    0  501    0  0.00000000000E+00  0.00000000000E+00  0.14405287888E+04  0.14405287888E+04  0.00000000000E+00 0. -1.
         -1   -1    0    0    0  501 -0.00000000000E+00 -0.00000000000E+00 -0.83042387952E+03  0.83042387952E+03  0.00000000000E+00 0.  1.
         23    2    1    2    0    0 -0.45218435185E+03 -0.49498984109E+03 -0.37829159590E+03  0.77533588266E+03  0.92496316464E+02 0.  0.
        254    2    1    2    0    0  0.45218435185E+03  0.49498984109E+03  0.98839650521E+03  0.14956167857E+04  0.90025345725E+03 0.  0.
        -24    2    4    4    0    0  0.13178292230E+03 -0.24342811854E+03  0.13094776319E+03  0.31661043486E+03  0.80441676187E+02 0.  0.
         24    2    4    4    0    0  0.32040142955E+03  0.73841795964E+03  0.85744874202E+03  0.11790063508E+04  0.83183357411E+02 0.  0.
         13    1    3    3    0    0 -0.21102199993E+03 -0.16802859483E+03 -0.16902287770E+03  0.31832785979E+03  0.00000000000E+00 0. -1.
        -13    1    3    3    0    0 -0.24116235192E+03 -0.32696124627E+03 -0.20926871821E+03  0.45700802287E+03  0.00000000000E+00 0.  1.
          2    1    6    6  502    0  0.24499348337E+02  0.11959631405E+03  0.10731357429E+03  0.16254137821E+03  0.00000000000E+00 0. -1.
          1    1    5    5  503    0  0.67411087063E+02 -0.56658506390E+02  0.60647589738E+02  0.10692320210E+03  0.00000000000E+00 0. -1.
         -4    1    5    5    0  503  0.64371835239E+02 -0.18676961215E+03  0.70300173454E+02  0.20968723276E+03  0.00000000000E+00 0.  1.
         -1    1    6    6    0  502  0.29590208121E+03  0.61882164559E+03  0.75013516773E+03  0.10164649726E+04  0.00000000000E+00 0.  1.
<mgrwt>
<rscale>  0 0.21874638E+04</rscale>
<asrwt>0</asrwt>
<pdfrwt beam="1">  1        1 0.22161981E+00 0.21874638E+04</pdfrwt>
<pdfrwt beam="2">  1       -1 0.12775752E+00 0.21874638E+04</pdfrwt>
<totfact> 0.34804835E+00</totfact>
</mgrwt>
</event>
<event>
12    1  0.1532786E-007  0.1351887E+04  0.7818608E-02  0.8989401E-01
         -2   -1    0    0    0  501 -0.00000000000E+00  0.00000000000E+00  0.25882364168E+03  0.25882364168E+03  0.00000000000E+00 0.  1.
          2   -1    0    0  501    0  0.00000000000E+00 -0.00000000000E+00 -0.17652920190E+04  0.17652920190E+04  0.00000000000E+00 0. -1.
         23    2    1    2    0    0 -0.48625287447E+02  0.27289501624E+03 -0.83947110251E+03  0.88893903602E+03  0.93084742753E+02 0.  0.
        254    2    1    2    0    0  0.48625287447E+02 -0.27289501624E+03 -0.66699727480E+03  0.11351766246E+04  0.87573083541E+03 0.  0.
        -24    2    4    4    0    0  0.68511173221E+01 -0.57468499471E+03 -0.55216887421E+03  0.80012703263E+03  0.70732041895E+02 0.  0.
         24    2    4    4    0    0  0.41774170125E+02  0.30178997847E+03 -0.11482840059E+03  0.33504959201E+03  0.79059440497E+02 0.  0.
         13    1    3    3    0    0 -0.10532246526E+02  0.24471049964E+03 -0.71099852379E+03  0.75200602237E+03  0.00000000000E+00 0. -1.
        -13    1    3    3    0    0 -0.38093040921E+02  0.28184516604E+02 -0.12847257872E+03  0.13693301365E+03  0.00000000000E+00 0.  1.
          4    1    6    6  502    0  0.38042562655E+02  0.18005323696E+03 -0.29592113430E+02  0.18639232251E+03  0.00000000000E+00 0. -1.
          1    1    5    5  503    0 -0.92604719896E+01 -0.38000817519E+02 -0.19121911344E+02  0.43536949446E+02  0.00000000000E+00 0. -1.
         -2    1    5    5    0  503  0.16111589312E+02 -0.53668417719E+03 -0.53304696286E+03  0.75659008319E+03  0.00000000000E+00 0.  1.
         -3    1    6    6    0  502  0.37316074703E+01  0.12173674151E+03 -0.85236287158E+02  0.14865726950E+03  0.00000000000E+00 0.  1.
<mgrwt>
<rscale>  0 0.13518865E+04</rscale>
<asrwt>0</asrwt>
<pdfrwt beam="1">  1        2 0.27158340E+00 0.13518865E+04</pdfrwt>
<pdfrwt beam="2">  1       -2 0.39819020E-01 0.13518865E+04</pdfrwt>
<totfact> 0.52567304E+01</totfact>
</mgrwt>
</event>
<event>
12    1  0.1689654E-007  0.1905837E+04  0.7818608E-02  0.8651956E-01
         -2   -1    0    0    0  501 -0.00000000000E+00  0.00000000000E+00  0.40152941402E+03  0.40152941402E+03  0.00000000000E+00 0.  1.
          2   -1    0    0  501    0  0.00000000000E+00 -0.00000000000E+00 -0.22614884481E+04  0.22614884481E+04  0.00000000000E+00 0. -1.
         23    2    1    2    0    0  0.18446549058E+03  0.38503511596E+03 -0.15457493126E+04  0.16061310677E+04  0.89646590866E+02 0.  0.
        254    2    1    2    0    0 -0.18446549058E+03 -0.38503511596E+03 -0.31420972146E+03  0.10568867945E+04  0.91433166278E+03 0.  0.
        -24    2    4    4    0    0  0.16259811979E+02 -0.23426643527E+03  0.29958467349E+03  0.38884787530E+03  0.79413785640E+02 0.  0.
         24    2    4    4    0    0 -0.20072530256E+03 -0.15076868069E+03 -0.61379439496E+03  0.66803891919E+03  0.80688264984E+02 0.  0.
         13    1    3    3    0    0  0.16983362775E+03  0.31792841401E+03 -0.13887722917E+04  0.14347858431E+04  0.00000000000E+00 0. -1.
        -13    1    3    3    0    0  0.14631862834E+02  0.67106701950E+02 -0.15697702096E+03  0.17134522452E+03  0.00000000000E+00 0.  1.
          4    1    6    6  502    0 -0.20118332666E+03 -0.15353023062E+03 -0.56412388538E+03  0.61828959290E+03  0.00000000000E+00 0. -1.
          3    1    5    5  503    0  0.26751653193E+02 -0.17473941898E+03  0.26689805766E+03  0.32013136160E+03  0.00000000000E+00 0. -1.
         -4    1    5    5    0  503 -0.10491841213E+02 -0.59527016286E+02  0.32686615830E+02  0.68716513694E+02  0.00000000000E+00 0.  1.
         -3    1    6    6    0  502  0.45802409610E+00  0.27615499295E+01 -0.49670509577E+02  0.49749326285E+02  0.00000000000E+00 0.  1.
<mgrwt>
<rscale>  0 0.19058375E+04</rscale>
<asrwt>0</asrwt>
<pdfrwt beam="1">  1        2 0.34792130E+00 0.19058375E+04</pdfrwt>
<pdfrwt beam="2">  1       -2 0.61773756E-01 0.19058375E+04</pdfrwt>
<totfact> 0.10867432E+01</totfact>
</mgrwt>
</event>
<event>
12    1  0.1532786E-007  0.2359164E+04  0.7818608E-02  0.8454952E-01
         -2   -1    0    0    0  501 -0.00000000000E+00  0.00000000000E+00  0.92732415913E+03  0.92732415913E+03  0.00000000000E+00 0.  1.
          2   -1    0    0  501    0  0.00000000000E+00 -0.00000000000E+00 -0.15004615444E+04  0.15004615444E+04  0.00000000000E+00 0. -1.
         23    2    1    2    0    0  0.99380106714E+03 -0.21601295310E+02 -0.36919739761E+03  0.10642726537E+04  0.90897667955E+02 0.  0.
        254    2    1    2    0    0 -0.99380106714E+03  0.21601295310E+02 -0.20393998765E+03  0.13635130498E+04  0.91075196482E+03 0.  0.
        -24    2    4    4    0    0 -0.44658664218E+03  0.36106580199E+03 -0.37655495068E+03  0.69137382365E+03  0.79974938600E+02 0.  0.
         24    2    4    4    0    0 -0.54721442497E+03 -0.33946450668E+03  0.17261496303E+03  0.67213922616E+03  0.85413322726E+02 0.  0.
         13    1    3    3    0    0  0.39228982408E+03  0.19695589674E+02 -0.18242055444E+03  0.43307791563E+03  0.00000000000E+00 0. -1.
        -13    1    3    3    0    0  0.60151124306E+03 -0.41296884984E+02 -0.18677684318E+03  0.63119473809E+03  0.00000000000E+00 0.  1.
          2    1    6    6  502    0 -0.27217238690E+03 -0.18317679561E+03  0.45507669315E+02  0.33121366911E+03  0.00000000000E+00 0. -1.
          1    1    5    5  503    0 -0.19947351181E+03  0.17880038472E+03 -0.13095354744E+03  0.29817459831E+03  0.00000000000E+00 0. -1.
         -2    1    5    5    0  503 -0.24711313037E+03  0.18226541727E+03 -0.24560140324E+03  0.39319922534E+03  0.00000000000E+00 0.  1.
         -1    1    6    6    0  502 -0.27504203806E+03 -0.15628771108E+03  0.12710729371E+03  0.34092555705E+03  0.00000000000E+00 0.  1.
<mgrwt>
<rscale>  0 0.23591645E+04</rscale>
<asrwt>0</asrwt>
<pdfrwt beam="1">  1        2 0.23084023E+00 0.23591645E+04</pdfrwt>
<pdfrwt beam="2">  1       -2 0.14266526E+00 0.23591645E+04</pdfrwt>
<totfact> 0.39143268E+00</totfact>
</mgrwt>
</event>
<event>
12    1  0.1532786E-007  0.1316227E+04  0.7818608E-02  0.9016795E-01
         -1   -1    0    0    0  501 -0.00000000000E+00  0.00000000000E+00  0.42004067081E+03  0.42004067081E+03  0.00000000000E+00 0.  1.
          1   -1    0    0  501    0  0.00000000000E+00 -0.00000000000E+00 -0.10311223491E+04  0.10311223491E+04  0.00000000000E+00 0. -1.
         23    2    1    2    0    0  0.29422270290E+03 -0.27350165218E+02  0.20657457678E+02  0.31030919693E+03  0.92466408528E+02 0.  0.
        254    2    1    2    0    0 -0.29422270290E+03  0.27350165218E+02 -0.63173913594E+03  0.11408538229E+04  0.90284997591E+03 0.  0.
        -24    2    4    4    0    0 -0.27908769043E+03 -0.37450007503E+03 -0.12683648130E+03  0.49028155697E+03  0.78410885504E+02 0.  0.
         24    2    4    4    0    0 -0.15135012463E+02  0.40185024025E+03 -0.50490265464E+03  0.65057226597E+03  0.81270526012E+02 0.  0.
         13    1    3    3    0    0  0.41432303075E+02 -0.10120675514E+02  0.36920577749E+02  0.56410928660E+02  0.00000000000E+00 0. -1.
        -13    1    3    3    0    0  0.25279039982E+03 -0.17229489704E+02 -0.16263120071E+02  0.25389826827E+03  0.00000000000E+00 0.  1.
          2    1    6    6  502    0 -0.23030455519E+02  0.27199219281E+03 -0.28193623323E+03  0.39242603690E+03  0.00000000000E+00 0. -1.
          1    1    5    5  503    0 -0.10850741598E+03 -0.10290660724E+03 -0.67704355089E+02  0.16415696401E+03  0.00000000000E+00 0. -1.
         -2    1    5    5    0  503 -0.17058027445E+03 -0.27159346779E+03 -0.59132126210E+02  0.32612459296E+03  0.00000000000E+00 0.  1.
         -1    1    6    6    0  502  0.78954430566E+01  0.12985804744E+03 -0.22296642141E+03  0.25814622907E+03  0.00000000000E+00 0.  1.
<mgrwt>
<rscale>  0 0.13162269E+04</rscale>
<asrwt>0</asrwt>
<pdfrwt beam="1">  1        1 0.15863421E+00 0.13162269E+04</pdfrwt>
<pdfrwt beam="2">  1       -1 0.64621642E-01 0.13162269E+04</pdfrwt>
<totfact> 0.34101936E+01</totfact>
</mgrwt>
</event>
<event>
12    1  0.1532786E-007  0.2020400E+04  0.7818608E-02  0.8597142E-01
         -2   -1    0    0    0  501 -0.00000000000E+00  0.00000000000E+00  0.45523734191E+03  0.45523734191E+03  0.00000000000E+00 0.  1.
          2   -1    0    0  501    0  0.00000000000E+00 -0.00000000000E+00 -0.22416956430E+04  0.22416956430E+04  0.00000000000E+00 0. -1.
         23    2    1    2    0    0  0.71532051687E+03 -0.36503434684E+03 -0.65083511902E+03  0.10377093644E+04  0.91218729005E+02 0.  0.
        254    2    1    2    0    0 -0.71532051687E+03  0.36503434684E+03 -0.11356231821E+04  0.16592236206E+04  0.90468198564E+03 0.  0.
        -24    2    4    4    0    0 -0.85253084104E+03  0.13223167699E+03 -0.60129790031E+03  0.10546422846E+04  0.80107004190E+02 0.  0.
         24    2    4    4    0    0  0.13721032418E+03  0.23280266985E+03 -0.53432528178E+03  0.60458133602E+03  0.83614167243E+02 0.  0.
         11    1    3    3    0    0  0.20368309642E+03 -0.14758658689E+03 -0.18185892243E+03  0.31038890455E+03  0.00000000000E+00 0. -1.
        -11    1    3    3    0    0  0.51163742044E+03 -0.21744775995E+03 -0.46897619659E+03  0.72732045982E+03  0.00000000000E+00 0.  1.
          2    1    6    6  502    0  0.22265499234E+01 -0.71393965519E+01 -0.16681286383E+02  0.18280968877E+02  0.00000000000E+00 0. -1.
          3    1    5    5  503    0 -0.66791919748E+02 -0.32994310305E+01 -0.68119878159E+02  0.95458706199E+02  0.00000000000E+00 0. -1.
         -2    1    5    5    0  503 -0.78573892129E+03  0.13553110802E+03 -0.53317802215E+03  0.95918357835E+03  0.00000000000E+00 0.  1.
         -1    1    6    6    0  502  0.13498377425E+03  0.23994206640E+03 -0.51764399540E+03  0.58630036714E+03  0.00000000000E+00 0.  1.
<mgrwt>
<rscale>  0 0.20203995E+04</rscale>
<asrwt>0</asrwt>
<pdfrwt beam="1">  1        2 0.34487625E+00 0.20203995E+04</pdfrwt>
<pdfrwt beam="2">  1       -2 0.70036515E-01 0.20203995E+04</pdfrwt>
<totfact> 0.84250815E+00</totfact>
</mgrwt>
</event>
<event>
12    1  0.1532786E-007  0.3378953E+04  0.7818608E-02  0.8143091E-01
         -2   -1    0    0    0  501 -0.00000000000E+00  0.00000000000E+00  0.10696339329E+04  0.10696339329E+04  0.00000000000E+00 0. -1.
          2   -1    0    0  501    0  0.00000000000E+00 -0.00000000000E+00 -0.26685126306E+04  0.26685126306E+04  0.00000000000E+00 0.  1.
         23    2    1    2    0    0 -0.33087386466E+03  0.12014835502E+04  0.31252720870E+03  0.12880783270E+04  0.91827471973E+02 0.  0.
        254    2    1    2    0    0  0.33087386466E+03 -0.12014835502E+04 -0.19114059064E+04  0.24500682365E+04  0.89236852750E+03 0.  0.
        -24    2    4    4    0    0  0.36145235465E+03 -0.53634685467E+03 -0.15652170130E+04  0.16954796613E+04  0.80194954543E+02 0.  0.
         24    2    4    4    0    0 -0.30578489991E+02 -0.66513669556E+03 -0.34618889334E+03  0.75458857524E+03  0.78837175048E+02 0.  0.
         11    1    3    3    0    0 -0.25911887739E+03  0.10226171061E+04  0.28982500125E+03  0.10940232491E+04  0.00000000000E+00 0. -1.
        -11    1    3    3    0    0 -0.71754987273E+02  0.17886644415E+03  0.22702207456E+02  0.19405507791E+03  0.00000000000E+00 0.  1.
          2    1    6    6  502    0 -0.23006626226E+02 -0.18322384111E+03 -0.13299482538E+03  0.22756955943E+03  0.00000000000E+00 0. -1.
          3    1    5    5  503    0  0.18711011115E+03 -0.34022875533E+03 -0.88670786457E+03  0.96799619665E+03  0.00000000000E+00 0. -1.
         -4    1    5    5    0  503  0.17434224350E+03 -0.19611809934E+03 -0.67850914845E+03  0.72748346462E+03  0.00000000000E+00 0.  1.
         -1    1    6    6    0  502 -0.75718637651E+01 -0.48191285445E+03 -0.21319406796E+03  0.52701901581E+03  0.00000000000E+00 0.  1.
<mgrwt>
<rscale>  0 0.33789535E+04</rscale>
<asrwt>0</asrwt>
<pdfrwt beam="1">  1        2 0.41054040E+00 0.33789535E+04</pdfrwt>
<pdfrwt beam="2">  1       -2 0.16455907E+00 0.33789535E+04</pdfrwt>
<totfact> 0.53645482E-01</totfact>
</mgrwt>
</event>
<event>
12    1  0.1532786E-007  0.1612179E+04  0.7818608E-02  0.8813101E-01
          2   -1    0    0  501    0  0.00000000000E+00  0.00000000000E+00  0.26458552648E+04  0.26458552648E+04  0.00000000000E+00 0. -1.
         -2   -1    0    0    0  501 -0.00000000000E+00 -0.00000000000E+00 -0.24558424400E+03  0.24558424400E+03  0.00000000000E+00 0.  1.
         23    2    1    2    0    0 -0.15169738352E+03 -0.44136721058E+03  0.31598020692E+03  0.57090019761E+03  0.90919930290E+02 0.  0.
        254    2    1    2    0    0  0.15169738352E+03  0.44136721058E+03  0.20842908139E+04  0.23205393112E+04  0.90709282173E+03 0.  0.
        -24    2    4    4    0    0  0.27654618242E+01 -0.36008296432E+02 -0.67220629396E+02  0.11019281629E+03  0.79495902750E+02 0.  0.
         24    2    4    4    0    0  0.14893192169E+03  0.47737550702E+03  0.21515114433E+04  0.22103464949E+04  0.81006450326E+02 0.  0.
         11    1    3    3    0    0 -0.12170054622E+02 -0.66060195590E+02  0.12128391322E+02  0.68258021851E+02  0.00000000000E+00 0. -1.
        -11    1    3    3    0    0 -0.13952732890E+03 -0.37530701499E+03  0.30385181560E+03  0.50264217576E+03  0.00000000000E+00 0.  1.
          2    1    6    6  502    0  0.40040857424E+02  0.22552684884E+03  0.11026968627E+04  0.11262353221E+04  0.00000000000E+00 0. -1.
          3    1    5    5  503    0  0.25283288728E+02  0.13583167981E+02 -0.40199805812E+02  0.49394043453E+02  0.00000000000E+00 0. -1.
         -4    1    5    5    0  503 -0.22517826904E+02 -0.49591464413E+02 -0.27020823584E+02  0.60798772835E+02  0.00000000000E+00 0.  1.
         -1    1    6    6    0  502  0.10889106427E+03  0.25184865818E+03  0.10488145806E+04  0.10841111728E+04  0.00000000000E+00 0.  1.
<mgrwt>
<rscale>  0 0.16121791E+04</rscale>
<asrwt>0</asrwt>
<pdfrwt beam="1">  1        2 0.40705464E+00 0.16121791E+04</pdfrwt>
<pdfrwt beam="2">  1       -2 0.37782193E-01 0.16121791E+04</pdfrwt>
<totfact> 0.18163511E+01</totfact>
</mgrwt>
</event>
<event>
12    1  0.1532786E-007  0.1385873E+04  0.7818608E-02  0.8964108E-01
          2   -1    0    0  501    0  0.00000000000E+00  0.00000000000E+00  0.10328301390E+04  0.10328301390E+04  0.00000000000E+00 0. -1.
         -2   -1    0    0    0  501 -0.00000000000E+00 -0.00000000000E+00 -0.46489820885E+03  0.46489820885E+03  0.00000000000E+00 0.  1.
         23    2    1    2    0    0  0.86755743528E+02  0.47893350392E+02  0.56295035512E+03  0.57875789557E+03  0.90704284938E+02 0.  0.
        254    2    1    2    0    0 -0.86755743528E+02 -0.47893350392E+02  0.49815750482E+01  0.91897045231E+03  0.91359813051E+03 0.  0.
        -24    2    4    4    0    0  0.17870383665E+03 -0.54499639629E+02 -0.38763967214E+03  0.43757398266E+03  0.79380116750E+02 0.  0.
         24    2    4    4    0    0 -0.26545958018E+03  0.66062892366E+01  0.39262124719E+03  0.48139646964E+03  0.84134924243E+02 0.  0.
         11    1    3    3    0    0  0.21751972365E+01  0.13605672382E+02  0.30188630997E+03  0.30220057901E+03  0.00000000000E+00 0.  1.
        -11    1    3    3    0    0  0.84580546291E+02  0.34287678010E+02  0.26106404515E+03  0.27655731656E+03  0.00000000000E+00 0. -1.
          2    1    6    6  502    0 -0.36351483859E+02  0.15233635386E+01  0.14324764751E+02  0.39101788967E+02  0.00000000000E+00 0. -1.
          3    1    5    5  503    0  0.71604469960E+02 -0.62048015767E+02 -0.16150430184E+03  0.18724528269E+03  0.00000000000E+00 0. -1.
         -4    1    5    5    0  503  0.10709936669E+03  0.75483761376E+01 -0.22613537030E+03  0.25032869997E+03  0.00000000000E+00 0.  1.
         -1    1    6    6    0  502 -0.22910809632E+03  0.50829256980E+01  0.37829648243E+03  0.44229468068E+03  0.00000000000E+00 0.  1.
<mgrwt>
<rscale>  0 0.13858728E+04</rscale>
<asrwt>0</asrwt>
<pdfrwt beam="1">  1        2 0.15889694E+00 0.13858728E+04</pdfrwt>
<pdfrwt beam="2">  1       -2 0.71522802E-01 0.13858728E+04</pdfrwt>
<totfact> 0.41474928E+01</totfact>
</mgrwt>
</event>
<event>
12    1  0.1532786E-007  0.1482223E+04  0.7818608E-02  0.8896362E-01
          2   -1    0    0  501    0  0.00000000000E+00  0.00000000000E+00  0.20019062716E+04  0.20019062716E+04  0.00000000000E+00 0. -1.
         -2   -1    0    0    0  501 -0.00000000000E+00 -0.00000000000E+00 -0.27436145453E+03  0.27436145453E+03  0.00000000000E+00 0.  1.
         23    2    1    2    0    0  0.44032147023E+03  0.98919566277E+02  0.41785065627E+03  0.62192965739E+03  0.92353939031E+02 0.  0.
        254    2    1    2    0    0 -0.44032147023E+03 -0.98919566277E+02  0.13096941608E+04  0.16543380687E+04  0.90436031156E+03 0.  0.
        -24    2    4    4    0    0 -0.68160315021E+03 -0.22073654337E+03  0.84270243794E+03  0.11089873378E+04  0.79987752458E+02 0.  0.
         24    2    4    4    0    0  0.24128167998E+03  0.12181697710E+03  0.46699172283E+03  0.54535073092E+03  0.79182861273E+02 0.  0.
         13    1    3    3    0    0  0.15912706240E+03  0.71858812206E+02  0.12287990018E+03  0.21350545836E+03  0.00000000000E+00 0. -1.
        -13    1    3    3    0    0  0.28119440782E+03  0.27060754071E+02  0.29497075609E+03  0.40842419902E+03  0.00000000000E+00 0.  1.
          4    1    6    6  502    0  0.54353404367E+02  0.64956517991E+01  0.15021948772E+03  0.15988239599E+03  0.00000000000E+00 0. -1.
          3    1    5    5  503    0 -0.16296018075E+03 -0.65095263940E+02  0.15876441765E+03  0.23664224941E+03  0.00000000000E+00 0. -1.
         -4    1    5    5    0  503 -0.51864296946E+03 -0.15564127943E+03  0.68393802030E+03  0.87234508839E+03  0.00000000000E+00 0.  1.
         -3    1    6    6    0  502  0.18692827561E+03  0.11532132530E+03  0.31677223511E+03  0.38546833493E+03  0.00000000000E+00 0.  1.
<mgrwt>
<rscale>  0 0.14822225E+04</rscale>
<asrwt>0</asrwt>
<pdfrwt beam="1">  1        2 0.30798557E+00 0.14822225E+04</pdfrwt>
<pdfrwt beam="2">  1       -2 0.42209456E-01 0.14822225E+04</pdfrwt>
<totfact> 0.34317705E+01</totfact>
</mgrwt>
</event>
<event>
12    1  0.1532786E-007  0.1228661E+04  0.7818608E-02  0.9088133E-01
         -1   -1    0    0    0  501 -0.00000000000E+00  0.00000000000E+00  0.17831474430E+03  0.17831474430E+03  0.00000000000E+00 0.  1.
          1   -1    0    0  501    0  0.00000000000E+00 -0.00000000000E+00 -0.21164942580E+04  0.21164942580E+04  0.00000000000E+00 0. -1.
         23    2    1    2    0    0 -0.13304117519E+03  0.79942543273E+02 -0.27804278440E+02  0.18272679791E+03  0.92332227596E+02 0.  0.
        254    2    1    2    0    0  0.13304117519E+03 -0.79942543273E+02 -0.19103752352E+04  0.21120822044E+04  0.88728063996E+03 0.  0.
        -24    2    4    4    0    0 -0.10700318733E+03  0.25589190732E+03 -0.14888205109E+04  0.15166197040E+04  0.81353934449E+02 0.  0.
         24    2    4    4    0    0  0.24004436252E+03 -0.33583445059E+03 -0.42155472438E+03  0.59546250037E+03  0.80381151487E+02 0.  0.
         11    1    3    3    0    0  0.12736064983E+02  0.85078750361E+01 -0.12310076151E+02  0.19650172104E+02  0.00000000000E+00 0. -1.
        -11    1    3    3    0    0 -0.14577724018E+03  0.71434668237E+02 -0.15494202289E+02  0.16307662581E+03  0.00000000000E+00 0.  1.
          2    1    6    6  502    0  0.19671773132E+03 -0.22559104165E+03 -0.26991438610E+03  0.40304213144E+03  0.00000000000E+00 0. -1.
          3    1    5    5  503    0 -0.50889972698E+02  0.40125648151E+02 -0.39907250856E+03  0.40430028945E+03  0.00000000000E+00 0. -1.
         -4    1    5    5    0  503 -0.56113214633E+02  0.21576625917E+03 -0.10897480023E+04  0.11123194145E+04  0.00000000000E+00 0.  1.
         -1    1    6    6    0  502  0.43326631205E+02 -0.11024340894E+03 -0.15164033829E+03  0.19242036894E+03  0.00000000000E+00 0.  1.
<mgrwt>
<rscale>  0 0.12286613E+04</rscale>
<asrwt>0</asrwt>
<pdfrwt beam="1">  1        1 0.32561449E+00 0.12286613E+04</pdfrwt>
<pdfrwt beam="2">  1       -1 0.27433039E-01 0.12286613E+04</pdfrwt>
<totfact> 0.29336499E+01</totfact>
</mgrwt>
</event>
<event>
12    1  0.1532786E-007  0.1807371E+04  0.7818608E-02  0.8702390E-01
         -1   -1    0    0    0  501 -0.00000000000E+00  0.00000000000E+00  0.49673508717E+03  0.49673508717E+03  0.00000000000E+00 0.  1.
          1   -1    0    0  501    0  0.00000000000E+00 -0.00000000000E+00 -0.16440298821E+04  0.16440298821E+04  0.00000000000E+00 0. -1.
         23    2    1    2    0    0  0.28665642095E+02  0.50077910213E+03 -0.96482957512E+03  0.10915997325E+04  0.95354279983E+02 0.  0.
        254    2    1    2    0    0 -0.28665642095E+02 -0.50077910213E+03 -0.18246521979E+03  0.10491652368E+04  0.90324565290E+03 0.  0.
        -24    2    4    4    0    0  0.10990002976E+03 -0.20446401701E+03 -0.51708470485E+03  0.57266307272E+03  0.81748712990E+02 0.  0.
         24    2    4    4    0    0 -0.13856567186E+03 -0.29631508513E+03  0.33461948506E+03  0.47650216406E+03  0.89894590967E+02 0.  0.
         11    1    3    3    0    0  0.59533953108E+02  0.41719373540E+03 -0.79008158865E+03  0.89544615760E+03  0.00000000000E+00 0. -1.
        -11    1    3    3    0    0 -0.30868311013E+02  0.83585366734E+02 -0.17474798646E+03  0.19615357486E+03  0.00000000000E+00 0.  1.
          4    1    6    6  502    0 -0.13704790235E+03 -0.21105917670E+03  0.27304846826E+03  0.37132676934E+03  0.00000000000E+00 0. -1.
          1    1    5    5  503    0  0.11795543363E+03 -0.16315781619E+03 -0.45618612421E+03  0.49863788186E+03  0.00000000000E+00 0. -1.
         -2    1    5    5    0  503 -0.80554038692E+01 -0.41306200820E+02 -0.60898580641E+02  0.74025190859E+02  0.00000000000E+00 0.  1.
         -3    1    6    6    0  502 -0.15177695116E+01 -0.85255908431E+02  0.61571016795E+02  0.10517539473E+03  0.00000000000E+00 0.  1.
<mgrwt>
<rscale>  0 0.18073708E+04</rscale>
<asrwt>0</asrwt>
<pdfrwt beam="1">  1        1 0.25292768E+00 0.18073708E+04</pdfrwt>
<pdfrwt beam="2">  1       -1 0.76420782E-01 0.18073708E+04</pdfrwt>
<totfact> 0.84361498E+00</totfact>
</mgrwt>
</event>
<event>
12    1  0.1532786E-007  0.3580709E+04  0.7818608E-02  0.8094925E-01
          4   -1    0    0  501    0  0.00000000000E+00  0.00000000000E+00  0.17451931370E+04  0.17451931370E+04  0.00000000000E+00 0. -1.
         -4   -1    0    0    0  501 -0.00000000000E+00 -0.00000000000E+00 -0.18366842026E+04  0.18366842026E+04  0.00000000000E+00 0.  1.
         23    2    1    2    0    0  0.16637599398E+04  0.77850233115E+02 -0.49376986760E+02  0.16688026857E+04  0.91140116809E+02 0.  0.
        254    2    1    2    0    0 -0.16637599398E+04 -0.77850233115E+02 -0.42114078851E+02  0.19130746539E+04  0.94017192024E+03 0.  0.
        -24    2    4    4    0    0 -0.15984691177E+04  0.17325002858E+03  0.86478574212E+02  0.16121738712E+04  0.80665696124E+02 0.  0.
         24    2    4    4    0    0 -0.65290822174E+02 -0.25110026170E+03 -0.12859265306E+03  0.30090078275E+03  0.81798397026E+02 0.  0.
         13    1    3    3    0    0  0.73958497707E+03  0.76958252990E+02 -0.38224083070E+02  0.74455999862E+03  0.00000000000E+00 0.  1.
        -13    1    3    3    0    0  0.92417496277E+03  0.89198012466E+00 -0.11152903690E+02  0.92424268713E+03  0.00000000000E+00 0. -1.
          2    1    6    6  502    0 -0.44713328313E+02 -0.19885799709E+03 -0.60435589601E+02  0.21259408559E+03  0.00000000000E+00 0. -1.
          1    1    5    5  503    0 -0.49413586430E+02  0.11882285630E+01  0.16174110498E+02  0.52006886673E+02  0.00000000000E+00 0. -1.
         -2    1    5    5    0  503 -0.15490555312E+04  0.17206180002E+03  0.70304463713E+02  0.15601669845E+04  0.00000000000E+00 0.  1.
         -1    1    6    6    0  502 -0.20577493861E+02 -0.52242264602E+02 -0.68157063462E+02  0.88306697165E+02  0.00000000000E+00 0.  1.
<mgrwt>
<rscale>  0 0.35807087E+04</rscale>
<asrwt>0</asrwt>
<pdfrwt beam="1">  1        4 0.26849125E+00 0.35807087E+04</pdfrwt>
<pdfrwt beam="2">  1       -4 0.28256680E+00 0.35807087E+04</pdfrwt>
<totfact> 0.30910625E-03</totfact>
</mgrwt>
</event>
<event>
12    1  0.1532786E-007  0.1794019E+04  0.7818608E-02  0.8709486E-01
          2   -1    0    0  501    0  0.00000000000E+00  0.00000000000E+00  0.21904207640E+04  0.21904207640E+04  0.00000000000E+00 0.  1.
         -2   -1    0    0    0  501 -0.00000000000E+00 -0.00000000000E+00 -0.36733864849E+03  0.36733864849E+03  0.00000000000E+00 0. -1.
         23    2    1    2    0    0 -0.30600239811E+03 -0.55489673199E+03  0.70591692905E+03  0.95292215213E+03  0.90521083037E+02 0.  0.
        254    2    1    2    0    0  0.30600239811E+03  0.55489673199E+03  0.11171651865E+04  0.16048372604E+04  0.96223527666E+03 0.  0.
        -24    2    4    4    0    0  0.19921176421E+03  0.81900803362E+03  0.74066817216E+03  0.11249216181E+04  0.79998872460E+02 0.  0.
         24    2    4    4    0    0  0.10679063390E+03 -0.26411130163E+03  0.37649701434E+03  0.47991564227E+03  0.86081372815E+02 0.  0.
         13    1    3    3    0    0 -0.27517293637E+02 -0.28675089976E+02  0.78491833417E+02  0.87979714409E+02  0.00000000000E+00 0.  1.
        -13    1    3    3    0    0 -0.27848510447E+03 -0.52622164202E+03  0.62742509563E+03  0.86494243772E+03  0.00000000000E+00 0. -1.
          4    1    6    6  502    0  0.11408364568E+03 -0.18317118548E+03  0.28612360081E+03  0.35837616598E+03  0.00000000000E+00 0. -1.
          3    1    5    5  503    0  0.19911779123E+03  0.80104413619E+03  0.73704422463E+03  0.11065955865E+04  0.00000000000E+00 0. -1.
         -4    1    5    5    0  503  0.93972976619E-01  0.17963897428E+02  0.36239475277E+01  0.18326031687E+02  0.00000000000E+00 0.  1.
         -3    1    6    6    0  502 -0.72930117749E+01 -0.80940116145E+02  0.90373413537E+02  0.12153947629E+03  0.00000000000E+00 0.  1.
<mgrwt>
<rscale>  0 0.17940192E+04</rscale>
<asrwt>0</asrwt>
<pdfrwt beam="1">  1        2 0.33698780E+00 0.17940192E+04</pdfrwt>
<pdfrwt beam="2">  1       -2 0.56513640E-01 0.17940192E+04</pdfrwt>
<totfact> 0.14511207E+01</totfact>
</mgrwt>
</event>
<event>
12    1  0.1532786E-007  0.1703830E+04  0.7818608E-02  0.8759183E-01
         -1   -1    0    0    0  501 -0.00000000000E+00  0.00000000000E+00  0.29378226375E+03  0.29378226375E+03  0.00000000000E+00 0.  1.
          1   -1    0    0  501    0  0.00000000000E+00 -0.00000000000E+00 -0.24703993203E+04  0.24703993203E+04  0.00000000000E+00 0. -1.
         23    2    1    2    0    0 -0.11077350566E+02  0.58566558746E+03 -0.50542253803E+03  0.77902283648E+03  0.91091985249E+02 0.  0.
        254    2    1    2    0    0  0.11077350566E+02 -0.58566558746E+03 -0.16711945185E+04  0.19851587476E+04  0.89712721858E+03 0.  0.
        -24    2    4    4    0    0  0.11775582499E+03 -0.61030890305E+02 -0.13445568187E+04  0.13534738390E+04  0.80418842483E+02 0.  0.
         24    2    4    4    0    0 -0.10667847442E+03 -0.52463469716E+03 -0.32663769982E+03  0.63168490858E+03  0.75576282135E+02 0.  0.
         11    1    3    3    0    0  0.33821681729E+02  0.11155766728E+03 -0.97627241555E+02  0.15205294333E+03  0.00000000000E+00 0. -1.
        -11    1    3    3    0    0 -0.44899032296E+02  0.47410792019E+03 -0.40779529648E+03  0.62696989315E+03  0.00000000000E+00 0.  1.
          2    1    6    6  502    0 -0.39074243812E+02 -0.35903379648E+03 -0.20366553663E+03  0.41462237561E+03  0.00000000000E+00 0. -1.
          1    1    5    5  503    0  0.15821116006E+02 -0.49595511929E+02 -0.50407051591E+03  0.50675152444E+03  0.00000000000E+00 0. -1.
         -2    1    5    5    0  503  0.10193470898E+03 -0.11435378376E+02 -0.84048630282E+03  0.84672231458E+03  0.00000000000E+00 0.  1.
         -1    1    6    6    0  502 -0.67604230613E+02 -0.16560090067E+03 -0.12297216318E+03  0.21706253297E+03  0.00000000000E+00 0.  1.
<mgrwt>
<rscale>  0 0.17038304E+04</rscale>
<asrwt>0</asrwt>
<pdfrwt beam="1">  1        1 0.38006144E+00 0.17038304E+04</pdfrwt>
<pdfrwt beam="2">  1       -1 0.45197271E-01 0.17038304E+04</pdfrwt>
<totfact> 0.65725396E+00</totfact>
</mgrwt>
</event>
<event>
12    1  0.1532786E-007  0.1155853E+04  0.7818608E-02  0.9152401E-01
         -1   -1    0    0    0  501 -0.00000000000E+00  0.00000000000E+00  0.20009561462E+03  0.20009561462E+03  0.00000000000E+00 0.  1.
          1   -1    0    0  501    0  0.00000000000E+00 -0.00000000000E+00 -0.16691966928E+04  0.16691966928E+04  0.00000000000E+00 0. -1.
         23    2    1    2    0    0 -0.13719506155E+02 -0.11181114480E+03 -0.15195783544E+01  0.14434049348E+03  0.90232543963E+02 0.  0.
        254    2    1    2    0    0  0.13719506155E+02  0.11181114480E+03 -0.14675814998E+04  0.17249518139E+04  0.89942945515E+03 0.  0.
        -24    2    4    4    0    0 -0.19258673374E+03  0.16091749979E+03 -0.24919663883E+02  0.26437323147E+03  0.79297693002E+02 0.  0.
         24    2    4    4    0    0  0.20630623990E+03 -0.49106354989E+02 -0.14426618359E+04  0.14605785824E+04  0.83922130317E+02 0.  0.
         11    1    3    3    0    0 -0.49796800133E+02 -0.85156282961E+02 -0.82095767886E+01  0.98988438630E+02  0.00000000000E+00 0.  1.
        -11    1    3    3    0    0  0.36077293978E+02 -0.26654861839E+02  0.66899984342E+01  0.45352054854E+02  0.00000000000E+00 0. -1.
          4    1    6    6  502    0  0.26488711153E+01 -0.21628027811E+02 -0.10653832527E+03  0.10874374859E+03  0.00000000000E+00 0. -1.
          3    1    5    5  503    0 -0.51601818262E+02  0.47219813512E+02  0.28517547626E+02  0.75536143393E+02  0.00000000000E+00 0. -1.
         -4    1    5    5    0  503 -0.14098491548E+03  0.11369768628E+03 -0.53437211509E+02  0.18883708807E+03  0.00000000000E+00 0.  1.
         -3    1    6    6    0  502  0.20365736878E+03 -0.27478327177E+02 -0.13361235106E+04  0.13518348338E+04  0.00000000000E+00 0.  1.
<mgrwt>
<rscale>  0 0.11558528E+04</rscale>
<asrwt>0</asrwt>
<pdfrwt beam="1">  1        1 0.25679951E+00 0.11558528E+04</pdfrwt>
<pdfrwt beam="2">  1       -1 0.30783939E-01 0.11558528E+04</pdfrwt>
<totfact> 0.48442788E+01</totfact>
</mgrwt>
</event>
<event>
12    1  0.1532786E-007  0.1757266E+04  0.7818608E-02  0.8729361E-01
          2   -1    0    0  501    0  0.00000000000E+00  0.00000000000E+00  0.26131099400E+03  0.26131099400E+03  0.00000000000E+00 0. -1.
         -2   -1    0    0    0  501 -0.00000000000E+00 -0.00000000000E+00 -0.29543177016E+04  0.29543177016E+04  0.00000000000E+00 0.  1.
         23    2    1    2    0    0  0.36263949459E+03 -0.16817078701E+03 -0.72211176056E+02  0.41661049104E+03  0.92525837767E+02 0.  0.
        254    2    1    2    0    0 -0.36263949459E+03  0.16817078701E+03 -0.26207955315E+04  0.27990182045E+04  0.89785570924E+03 0.  0.
        -24    2    4    4    0    0  0.30753976471E+02 -0.32885722449E+03 -0.10327096646E+04  0.10871954732E+04  0.80074118349E+02 0.  0.
         24    2    4    4    0    0 -0.39339347106E+03  0.49702801150E+03 -0.15880858669E+04  0.17118227313E+04  0.80777939325E+02 0.  0.
         13    1    3    3    0    0  0.26337959413E+02 -0.23683060465E+02  0.17854905286E+02  0.39665767380E+02  0.00000000000E+00 0. -1.
        -13    1    3    3    0    0  0.33630153518E+03 -0.14448772655E+03 -0.90066081343E+02  0.37694472366E+03  0.00000000000E+00 0.  1.
          2    1    6    6  502    0 -0.26672622273E+03  0.37796350823E+03 -0.12196688007E+04  0.13044505644E+04  0.00000000000E+00 0. -1.
          3    1    5    5  503    0  0.34993766388E+02 -0.22452653475E+03 -0.58774433888E+03  0.63014294916E+03  0.00000000000E+00 0. -1.
         -4    1    5    5    0  503 -0.42397899171E+01 -0.10433068974E+03 -0.44496532575E+03  0.45705252407E+03  0.00000000000E+00 0.  1.
         -1    1    6    6    0  502 -0.12666724833E+03  0.11906450328E+03 -0.36841706617E+03  0.40737216692E+03  0.00000000000E+00 0.  1.
<mgrwt>
<rscale>  0 0.17572657E+04</rscale>
<asrwt>0</asrwt>
<pdfrwt beam="1">  1        2 0.40201693E-01 0.17572657E+04</pdfrwt>
<pdfrwt beam="2">  1       -2 0.45451040E+00 0.17572657E+04</pdfrwt>
<totfact> 0.39470770E-01</totfact>
</mgrwt>
</event>
<event>
12    1  0.1532786E-007  0.1070137E+04  0.7818608E-02  0.9234798E-01
          2   -1    0    0  501    0  0.00000000000E+00  0.00000000000E+00  0.33755643307E+03  0.33755643307E+03  0.00000000000E+00 0. -1.
         -2   -1    0    0    0  501 -0.00000000000E+00 -0.00000000000E+00 -0.84814902765E+03  0.84814902765E+03  0.00000000000E+00 0.  1.
         23    2    1    2    0    0  0.11647841258E+03  0.29534803635E+02 -0.14054189852E+02  0.15165411918E+03  0.91443569425E+02 0.  0.
        254    2    1    2    0    0 -0.11647841258E+03 -0.29534803635E+02 -0.49653840473E+03  0.10340513415E+04  0.89903963446E+03 0.  0.
        -24    2    4    4    0    0 -0.76047557008E+02 -0.41078058444E+03 -0.32645933520E+02  0.42690837440E+03  0.81615462234E+02 0.  0.
         24    2    4    4    0    0 -0.40430855570E+02  0.38124578081E+03 -0.46389247121E+03  0.60714296714E+03  0.80270531544E+02 0.  0.
         13    1    3    3    0    0  0.10574482897E+03 -0.24245275565E+00  0.17242279205E+02  0.10714160644E+03  0.00000000000E+00 0. -1.
        -13    1    3    3    0    0  0.10733583605E+02  0.29777256391E+02 -0.31296469056E+02  0.44512512742E+02  0.00000000000E+00 0.  1.
          2    1    6    6  502    0 -0.56574935569E+02  0.36016315175E+03 -0.44004605134E+03  0.57145318838E+03  0.00000000000E+00 0. -1.
          3    1    5    5  503    0 -0.61302315428E+02 -0.29216541240E+03  0.13374677600E+02  0.29882684631E+03  0.00000000000E+00 0. -1.
         -4    1    5    5    0  503 -0.14745241580E+02 -0.11861517205E+03 -0.46020611120E+02  0.12808152808E+03  0.00000000000E+00 0.  1.
         -1    1    6    6    0  502  0.16144079999E+02  0.21082629054E+02 -0.23846419873E+02  0.35689778755E+02  0.00000000000E+00 0.  1.
<mgrwt>
<rscale>  0 0.10701367E+04</rscale>
<asrwt>0</asrwt>
<pdfrwt beam="1">  1        2 0.51931759E-01 0.10701367E+04</pdfrwt>
<pdfrwt beam="2">  1       -2 0.13048446E+00 0.10701367E+04</pdfrwt>
<totfact> 0.41148927E+01</totfact>
</mgrwt>
</event>
<event>
12    1  0.1532786E-007  0.1355138E+04  0.7818608E-02  0.8986948E-01
          2   -1    0    0  501    0  0.00000000000E+00  0.00000000000E+00  0.22299719072E+04  0.22299719072E+04  0.00000000000E+00 0. -1.
         -2   -1    0    0    0  501 -0.00000000000E+00 -0.00000000000E+00 -0.20587703705E+03  0.20587703705E+03  0.00000000000E+00 0.  1.
         23    2    1    2    0    0 -0.32192448488E+03 -0.13703606899E+03  0.82860360354E+03  0.90401169700E+03  0.90768707934E+02 0.  0.
        254    2    1    2    0    0  0.32192448488E+03  0.13703606899E+03  0.11954912666E+04  0.15318372473E+04  0.89157822169E+03 0.  0.
        -24    2    4    4    0    0  0.31346625794E+03  0.16678019868E+03  0.13266468808E+04  0.13755856958E+04  0.78532354166E+02 0.  0.
         24    2    4    4    0    0  0.84582269395E+01 -0.29744129688E+02 -0.13115561421E+03  0.15625155143E+03  0.79098023550E+02 0.  0.
         13    1    3    3    0    0  0.61866122832E+01 -0.14121227319E+01  0.12250765998E+02  0.13796721701E+02  0.00000000000E+00 0.  1.
        -13    1    3    3    0    0 -0.32811109716E+03 -0.13562394626E+03  0.81635283754E+03  0.89021497529E+03  0.00000000000E+00 0. -1.
          2    1    6    6  502    0 -0.22115927558E+02  0.85877795627E+01 -0.10367765861E+02  0.25891210449E+02  0.00000000000E+00 0. -1.
          3    1    5    5  503    0  0.55000898944E+02  0.15425364331E+02  0.12951509010E+03  0.14155281457E+03  0.00000000000E+00 0. -1.
         -4    1    5    5    0  503  0.25846535899E+03  0.15135483435E+03  0.11971317907E+04  0.12340328813E+04  0.00000000000E+00 0.  1.
         -1    1    6    6    0  502  0.30574154498E+02 -0.38331909250E+02 -0.12078784835E+03  0.13036034098E+03  0.00000000000E+00 0.  1.
<mgrwt>
<rscale>  0 0.13551384E+04</rscale>
<asrwt>0</asrwt>
<pdfrwt beam="1">  1        2 0.34307258E+00 0.13551384E+04</pdfrwt>
<pdfrwt beam="2">  1       -2 0.31673392E-01 0.13551384E+04</pdfrwt>
<totfact> 0.45004473E+01</totfact>
</mgrwt>
</event>
<event>
12    1  0.1532786E-007  0.1368211E+04  0.7818608E-02  0.8977156E-01
         -1   -1    0    0    0  501 -0.00000000000E+00  0.00000000000E+00  0.41771265257E+03  0.41771265257E+03  0.00000000000E+00 0.  1.
          1   -1    0    0  501    0  0.00000000000E+00 -0.00000000000E+00 -0.11203880197E+04  0.11203880197E+04  0.00000000000E+00 0. -1.
         23    2    1    2    0    0 -0.26376460669E+03 -0.16108865878E+03  0.55438435275E+02  0.32726348744E+03  0.92231482590E+02 0.  0.
        254    2    1    2    0    0  0.26376460669E+03  0.16108865878E+03 -0.75811380242E+03  0.12108371848E+04  0.89211480599E+03 0.  0.
        -24    2    4    4    0    0  0.54441564115E+03 -0.24790214970E+02 -0.27241798169E+03  0.61448837910E+03  0.79884079852E+02 0.  0.
         24    2    4    4    0    0 -0.28065103447E+03  0.18587887375E+03 -0.48569582073E+03  0.59634880574E+03  0.80096872501E+02 0.  0.
         13    1    3    3    0    0 -0.22168965554E+03 -0.11635151705E+03  0.77371439835E+02  0.26205022152E+03  0.00000000000E+00 0.  1.
        -13    1    3    3    0    0 -0.42074951141E+02 -0.44737141733E+02 -0.21933004559E+02  0.65213265928E+02  0.00000000000E+00 0. -1.
          4    1    6    6  502    0 -0.28621439652E+03  0.18197422991E+03 -0.47452987328E+03  0.58327686544E+03  0.00000000000E+00 0. -1.
          1    1    5    5  503    0  0.49014999216E+03 -0.33441176297E+02 -0.21913228237E+03  0.53794449924E+03  0.00000000000E+00 0. -1.
         -2    1    5    5    0  503  0.54265648998E+02  0.86509613272E+01 -0.53285699319E+02  0.76543879866E+02  0.00000000000E+00 0.  1.
         -3    1    6    6    0  502  0.55633620500E+01  0.39046438378E+01 -0.11165947446E+02  0.13071940299E+02  0.00000000000E+00 0.  1.
<mgrwt>
<rscale>  0 0.13682109E+04</rscale>
<asrwt>0</asrwt>
<pdfrwt beam="1">  1        1 0.17236738E+00 0.13682109E+04</pdfrwt>
<pdfrwt beam="2">  1       -1 0.64263486E-01 0.13682109E+04</pdfrwt>
<totfact> 0.29376880E+01</totfact>
</mgrwt>
</event>
<event>
12    1  0.1532786E-007  0.1368677E+04  0.7818608E-02  0.8976809E-01
         -2   -1    0    0    0  501 -0.00000000000E+00  0.00000000000E+00  0.59401397495E+03  0.59401397495E+03  0.00000000000E+00 0. -1.
          2   -1    0    0  501    0  0.00000000000E+00 -0.00000000000E+00 -0.78839815260E+03  0.78839815260E+03  0.00000000000E+00 0.  1.
         23    2    1    2    0    0  0.13884681412E+03  0.17456283279E+02 -0.37290149704E+03  0.40838376985E+03  0.90214285814E+02 0.  0.
        254    2    1    2    0    0 -0.13884681412E+03 -0.17456283279E+02  0.17851731939E+03  0.97402835769E+03  0.94724846194E+03 0.  0.
        -24    2    4    4    0    0 -0.29411477784E+03  0.13721142652E+03 -0.29525840886E+03  0.44602884468E+03  0.80210499132E+02 0.  0.
         24    2    4    4    0    0  0.15526796372E+03 -0.15466770979E+03  0.47377572825E+03  0.52799951302E+03  0.79308284885E+02 0.  0.
         11    1    3    3    0    0  0.13246969373E+03 -0.12473584565E+02 -0.26961644710E+03  0.30066067022E+03  0.00000000000E+00 0. -1.
        -11    1    3    3    0    0  0.63771203931E+01  0.29929867844E+02 -0.10328504994E+03  0.10772309963E+03  0.00000000000E+00 0.  1.
          2    1    6    6  502    0  0.24400725964E+02 -0.21549641844E+01  0.10708180995E+03  0.10984786444E+03  0.00000000000E+00 0. -1.
          1    1    5    5  503    0 -0.14150827204E+03  0.28964218674E+02 -0.15736303599E+03  0.21360393750E+03  0.00000000000E+00 0. -1.
         -2    1    5    5    0  503 -0.15260650580E+03  0.10824720784E+03 -0.13789537287E+03  0.23242490718E+03  0.00000000000E+00 0.  1.
         -1    1    6    6    0  502  0.13086723776E+03 -0.15251274561E+03  0.36669391830E+03  0.41815164858E+03  0.00000000000E+00 0.  1.
<mgrwt>
<rscale>  0 0.13686775E+04</rscale>
<asrwt>0</asrwt>
<pdfrwt beam="1">  1        2 0.12129202E+00 0.13686775E+04</pdfrwt>
<pdfrwt beam="2">  1       -2 0.91386765E-01 0.13686775E+04</pdfrwt>
<totfact> 0.34959964E+01</totfact>
</mgrwt>
</event>
<event>
12    1  0.1532786E-007  0.1779008E+04  0.7818608E-02  0.8717543E-01
         -1   -1    0    0    0  501 -0.00000000000E+00  0.00000000000E+00  0.73539657666E+03  0.73539657666E+03  0.00000000000E+00 0.  1.
          1   -1    0    0  501    0  0.00000000000E+00 -0.00000000000E+00 -0.10759060789E+04  0.10759060789E+04  0.00000000000E+00 0. -1.
         23    2    1    2    0    0 -0.27247112643E+03  0.44988332288E+03 -0.53364238042E+03  0.75468876830E+03  0.90252024225E+02 0.  0.
        254    2    1    2    0    0  0.27247112643E+03 -0.44988332288E+03  0.19313287822E+03  0.10566138872E+04  0.89582201306E+03 0.  0.
        -24    2    4    4    0    0 -0.26911542493E+02 -0.65899797144E+03  0.10414690858E+03  0.67236050829E+03  0.78863914843E+02 0.  0.
         24    2    4    4    0    0  0.29938266892E+03  0.20911464856E+03  0.88985969642E+02  0.38425337894E+03  0.79832560639E+02 0.  0.
         13    1    3    3    0    0 -0.15978876586E+03  0.18880057049E+03 -0.28048946384E+03  0.37396850728E+03  0.00000000000E+00 0.  1.
        -13    1    3    3    0    0 -0.11268236057E+03  0.26108275239E+03 -0.25315291658E+03  0.38072026102E+03  0.00000000000E+00 0. -1.
          4    1    6    6  502    0  0.37482120077E+02  0.56816809961E+02 -0.14455392632E+01  0.68081927142E+02  0.00000000000E+00 0. -1.
          1    1    5    5  503    0  0.17155325723E+02 -0.22055008116E+03  0.81382092198E+01  0.22136592771E+03  0.00000000000E+00 0. -1.
         -4    1    5    5    0  503 -0.44066868216E+02 -0.43844789027E+03  0.96008699358E+02  0.45099458058E+03  0.00000000000E+00 0.  1.
         -3    1    6    6    0  502  0.26190054885E+03  0.15229783860E+03  0.90431508905E+02  0.31617145180E+03  0.00000000000E+00 0.  1.
<mgrwt>
<rscale>  0 0.17790083E+04</rscale>
<asrwt>0</asrwt>
<pdfrwt beam="1">  1        1 0.16552401E+00 0.17790083E+04</pdfrwt>
<pdfrwt beam="2">  1       -1 0.11313794E+00 0.17790083E+04</pdfrwt>
<totfact> 0.89233140E+00</totfact>
</mgrwt>
</event>
<event>
12    1  0.1532786E-007  0.1457370E+04  0.7818608E-02  0.8913307E-01
         -3   -1    0    0    0  501 -0.00000000000E+00  0.00000000000E+00  0.98917651328E+03  0.98917651328E+03  0.00000000000E+00 0.  1.
          3   -1    0    0  501    0  0.00000000000E+00 -0.00000000000E+00 -0.53679174184E+03  0.53679174184E+03  0.00000000000E+00 0. -1.
         23    2    1    2    0    0 -0.10469176413E+03  0.29435284488E+03  0.47570157874E+03  0.57624783125E+03  0.90363755067E+02 0.  0.
        254    2    1    2    0    0  0.10469176413E+03 -0.29435284488E+03 -0.23316807305E+02  0.94972042387E+03  0.89656078837E+03 0.  0.
        -24    2    4    4    0    0  0.22697711494E+03 -0.26757339789E+03 -0.40394785773E+03  0.54092257451E+03  0.79430635697E+02 0.  0.
         24    2    4    4    0    0 -0.12228535081E+03 -0.26779446995E+02  0.38063105042E+03  0.40879784936E+03  0.81023695873E+02 0.  0.
         13    1    3    3    0    0 -0.43269333010E+02  0.23391493587E+03  0.32682673400E+03  0.40423278746E+03  0.00000000000E+00 0.  1.
        -13    1    3    3    0    0 -0.61422431123E+02  0.60437909013E+02  0.14887484475E+03  0.17201504379E+03  0.00000000000E+00 0. -1.
          4    1    6    6  502    0 -0.17618827186E+01 -0.22295969698E+02  0.26412894284E+02  0.34610048829E+02  0.00000000000E+00 0. -1.
          1    1    5    5  503    0  0.14911564858E+03 -0.11705726852E+03 -0.19617446988E+03  0.27280451499E+03  0.00000000000E+00 0. -1.
         -2    1    5    5    0  503  0.77861466358E+02 -0.15051612937E+03 -0.20777338785E+03  0.26811805952E+03  0.00000000000E+00 0.  1.
         -3    1    6    6    0  502 -0.12052346809E+03 -0.44834772970E+01  0.35421815614E+03  0.37418780053E+03  0.00000000000E+00 0.  1.
<mgrwt>
<rscale>  0 0.14573699E+04</rscale>
<asrwt>0</asrwt>
<pdfrwt beam="1">  1        3 0.82583345E-01 0.14573699E+04</pdfrwt>
<pdfrwt beam="2">  1       -3 0.15218100E+00 0.14573699E+04</pdfrwt>
<totfact> 0.10688140E+00</totfact>
</mgrwt>
</event>
<event>
12    1  0.1532786E-007  0.2280596E+04  0.7818608E-02  0.8485611E-01
          1   -1    0    0  501    0  0.00000000000E+00  0.00000000000E+00  0.10641611547E+04  0.10641611547E+04  0.00000000000E+00 0. -1.
         -1   -1    0    0    0  501 -0.00000000000E+00 -0.00000000000E+00 -0.12218819831E+04  0.12218819831E+04  0.00000000000E+00 0.  1.
         23    2    1    2    0    0  0.77219959993E+02  0.35600630935E+02 -0.10120161828E+04  0.10194465187E+04  0.88679891218E+02 0.  0.
        254    2    1    2    0    0 -0.77219959993E+02 -0.35600630935E+02  0.85429535449E+03  0.12665966191E+04  0.93124439094E+03 0.  0.
        -24    2    4    4    0    0  0.32201834060E+03  0.20058536404E+03  0.14200251403E+03  0.41299456966E+03  0.80433206023E+02 0.  0.
         24    2    4    4    0    0 -0.39923830059E+03 -0.23618599498E+03  0.71229284046E+03  0.85360204943E+03  0.78104566776E+02 0.  0.
         13    1    3    3    0    0  0.62272587129E+02  0.64589124690E+02 -0.69853730491E+03  0.70427551177E+03  0.00000000000E+00 0.  1.
        -13    1    3    3    0    0  0.14947372864E+02 -0.28988493755E+02 -0.31347887790E+03  0.31517100694E+03  0.00000000000E+00 0. -1.
          2    1    6    6  502    0 -0.16817490810E+03 -0.57868283799E+02  0.29216463423E+03  0.34204051146E+03  0.00000000000E+00 0. -1.
          3    1    5    5  503    0  0.25338992399E+03  0.13819689484E+03  0.13861241482E+03  0.32018469181E+03  0.00000000000E+00 0. -1.
         -4    1    5    5    0  503  0.68628416602E+02  0.62388469202E+02  0.33900992087E+01  0.92809877854E+02  0.00000000000E+00 0.  1.
         -1    1    6    6    0  502 -0.23106339249E+03 -0.17831771118E+03  0.42012820622E+03  0.51156153797E+03  0.00000000000E+00 0.  1.
<mgrwt>
<rscale>  0 0.22805958E+04</rscale>
<asrwt>0</asrwt>
<pdfrwt beam="1">  1        1 0.16371710E+00 0.22805958E+04</pdfrwt>
<pdfrwt beam="2">  1       -1 0.18798184E+00 0.22805958E+04</pdfrwt>
<totfact> 0.22313129E+00</totfact>
</mgrwt>
</event>
<event>
12    1  0.1532786E-007  0.1452638E+04  0.7818608E-02  0.8916574E-01
          1   -1    0    0  501    0  0.00000000000E+00  0.00000000000E+00  0.16509040775E+04  0.16509040775E+04  0.00000000000E+00 0. -1.
         -1   -1    0    0    0  501 -0.00000000000E+00 -0.00000000000E+00 -0.31954574853E+03  0.31954574853E+03  0.00000000000E+00 0.  1.
         23    2    1    2    0    0 -0.11720370746E+02 -0.31086030348E+03  0.83542471264E+03  0.89580976845E+03  0.88143039378E+02 0.  0.
        254    2    1    2    0    0  0.11720370746E+02  0.31086030348E+03  0.49593361636E+03  0.10746400576E+04  0.90118233793E+03 0.  0.
        -24    2    4    4    0    0 -0.34247824208E+03  0.30481796456E+03  0.66894601065E+01  0.46521956271E+03  0.78607600359E+02 0.  0.
         24    2    4    4    0    0  0.35419861283E+03  0.60423389228E+01  0.48924415625E+03  0.60942049489E+03  0.80872294280E+02 0.  0.
         13    1    3    3    0    0 -0.56358577387E+01 -0.18104798262E+03  0.60185098435E+03  0.62851789335E+03  0.00000000000E+00 0. -1.
        -13    1    3    3    0    0 -0.60845130070E+01 -0.12981232086E+03  0.23357372830E+03  0.26729187510E+03  0.00000000000E+00 0.  1.
          2    1    6    6  502    0  0.48550708852E+02  0.19698436976E+02  0.40137015102E+02  0.66001361581E+02  0.00000000000E+00 0. -1.
          1    1    5    5  503    0 -0.24012489065E+03  0.17754151704E+03  0.30424352629E+02  0.30017760512E+03  0.00000000000E+00 0. -1.
         -2    1    5    5    0  503 -0.10235335144E+03  0.12727644752E+03 -0.23734892523E+02  0.16504195759E+03  0.00000000000E+00 0.  1.
         -1    1    6    6    0  502  0.30564790398E+03 -0.13656098053E+02  0.44910714115E+03  0.54341913331E+03  0.00000000000E+00 0.  1.
<mgrwt>
<rscale>  0 0.14526381E+04</rscale>
<asrwt>0</asrwt>
<pdfrwt beam="1">  1        1 0.25398524E+00 0.14526381E+04</pdfrwt>
<pdfrwt beam="2">  1       -1 0.49160885E-01 0.14526381E+04</pdfrwt>
<totfact> 0.20726750E+01</totfact>
</mgrwt>
</event>
<event>
12    1  0.1532786E-007  0.2046090E+04  0.7818608E-02  0.8585370E-01
          2   -1    0    0  501    0  0.00000000000E+00  0.00000000000E+00  0.12545281517E+04  0.12545281517E+04  0.00000000000E+00 0. -1.
         -2   -1    0    0    0  501 -0.00000000000E+00 -0.00000000000E+00 -0.83427490120E+03  0.83427490120E+03  0.00000000000E+00 0.  1.
         23    2    1    2    0    0 -0.21130775892E+02 -0.47858710509E+03  0.85505918167E+03  0.98449123990E+03  0.92761362865E+02 0.  0.
        254    2    1    2    0    0  0.21130775892E+02  0.47858710509E+03 -0.43480593114E+03  0.11043118130E+04  0.89496159459E+03 0.  0.
        -24    2    4    4    0    0  0.35848611874E+03  0.21168696919E+03 -0.50561042848E+03  0.66095404996E+03  0.88852014717E+02 0.  0.
         24    2    4    4    0    0 -0.33735534285E+03  0.26690013591E+03  0.70804497338E+02  0.44335776307E+03  0.80675394857E+02 0.  0.
         13    1    3    3    0    0 -0.45292492683E+02 -0.17347337289E+03  0.36598784357E+03  0.40754327701E+03  0.00000000000E+00 0.  1.
        -13    1    3    3    0    0  0.24161716791E+02 -0.30511373221E+03  0.48907133810E+03  0.57694796289E+03  0.00000000000E+00 0. -1.
          4    1    6    6  502    0 -0.30748742882E+03  0.20682065365E+03  0.59509571397E+02  0.37531945160E+03  0.00000000000E+00 0. -1.
          3    1    5    5  503    0  0.18100995042E+03  0.15648778680E+03 -0.26768309686E+03  0.35903658576E+03  0.00000000000E+00 0. -1.
         -4    1    5    5    0  503  0.17747616832E+03  0.55199182383E+02 -0.23792733162E+03  0.30191746421E+03  0.00000000000E+00 0.  1.
         -3    1    6    6    0  502 -0.29867914034E+02  0.60079482251E+02  0.11294925942E+02  0.68038311475E+02  0.00000000000E+00 0.  1.
<mgrwt>
<rscale>  0 0.20460903E+04</rscale>
<asrwt>0</asrwt>
<pdfrwt beam="1">  1        2 0.19300433E+00 0.20460903E+04</pdfrwt>
<pdfrwt beam="2">  1       -2 0.12834998E+00 0.20460903E+04</pdfrwt>
<totfact> 0.72999913E+00</totfact>
</mgrwt>
</event>
<event>
12    1  0.1532786E-007  0.1341474E+04  0.7818608E-02  0.8997307E-01
         -3   -1    0    0    0  501 -0.00000000000E+00  0.00000000000E+00  0.95576018322E+03  0.95576018322E+03  0.00000000000E+00 0.  1.
          3   -1    0    0  501    0  0.00000000000E+00 -0.00000000000E+00 -0.47071266644E+03  0.47071266644E+03  0.00000000000E+00 0. -1.
         23    2    1    2    0    0 -0.16871707277E+03  0.30620366084E+03  0.23611733309E+03  0.43211119924E+03  0.93501662897E+02 0.  0.
        254    2    1    2    0    0  0.16871707277E+03 -0.30620366084E+03  0.24893018368E+03  0.99436165043E+03  0.89697420416E+03 0.  0.
        -24    2    4    4    0    0 -0.36402956827E+03 -0.99906409797E+02  0.10643893744E+03  0.40016131284E+03  0.79378911527E+02 0.  0.
         24    2    4    4    0    0  0.53274664103E+03 -0.20629725104E+03  0.14249124624E+03  0.59420033759E+03  0.79954653488E+02 0.  0.
         13    1    3    3    0    0 -0.62404843014E+02  0.11722440142E+03  0.14582268187E+03  0.19723128370E+03  0.00000000000E+00 0.  1.
        -13    1    3    3    0    0 -0.10631222975E+03  0.18897925942E+03  0.90294651223E+02  0.23487991554E+03  0.00000000000E+00 0. -1.
          4    1    6    6  502    0  0.26535750120E+03 -0.11725625744E+03  0.11100713315E+03  0.31062230596E+03  0.00000000000E+00 0. -1.
          1    1    5    5  503    0 -0.34810016750E+02  0.41252709962E+01 -0.88549511094E+01  0.36154740852E+02  0.00000000000E+00 0. -1.
         -2    1    5    5    0  503 -0.32921955152E+03 -0.10403168079E+03  0.11529388855E+03  0.36400657199E+03  0.00000000000E+00 0.  1.
         -3    1    6    6    0  502  0.26738913984E+03 -0.89040993604E+02  0.31484113087E+02  0.28357803163E+03  0.00000000000E+00 0.  1.
<mgrwt>
<rscale>  0 0.13414744E+04</rscale>
<asrwt>0</asrwt>
<pdfrwt beam="1">  1        3 0.72417333E-01 0.13414744E+04</pdfrwt>
<pdfrwt beam="2">  1       -3 0.14704003E+00 0.13414744E+04</pdfrwt>
<totfact> 0.15764847E+00</totfact>
</mgrwt>
</event>
<event>
12    1  0.1532786E-007  0.1167000E+04  0.7818608E-02  0.9142242E-01
         -1   -1    0    0    0  501 -0.00000000000E+00  0.00000000000E+00  0.25698229933E+03  0.25698229933E+03  0.00000000000E+00 0.  1.
          1   -1    0    0  501    0  0.00000000000E+00 -0.00000000000E+00 -0.13248869202E+04  0.13248869202E+04  0.00000000000E+00 0. -1.
         23    2    1    2    0    0 -0.22400596758E+03  0.27196561618E+02 -0.29391146727E+03  0.38166569471E+03  0.91468166299E+02 0.  0.
        254    2    1    2    0    0  0.22400596758E+03 -0.27196561618E+02 -0.77399315361E+03  0.12002035248E+04  0.88910335322E+03 0.  0.
        -24    2    4    4    0    0  0.97260649697E+02 -0.41437981986E+03 -0.16528683750E+03  0.46350220929E+03  0.79651053221E+02 0.  0.
         24    2    4    4    0    0  0.12674531788E+03  0.38718325824E+03 -0.60870631611E+03  0.73670131554E+03  0.78931603182E+02 0.  0.
         13    1    3    3    0    0 -0.17020072564E+03  0.28380602459E+01 -0.26726572743E+03  0.31687112625E+03  0.00000000000E+00 0. -1.
        -13    1    3    3    0    0 -0.53805241945E+02  0.24358501372E+02 -0.26645739846E+02  0.64794568459E+02  0.00000000000E+00 0.  1.
          4    1    6    6  502    0  0.49922025949E+02  0.80778320349E+02 -0.18780061542E+03  0.21044338161E+03  0.00000000000E+00 0. -1.
          3    1    5    5  503    0  0.23701575096E+02 -0.55901554266E+02  0.28317804466E+01  0.60784598476E+02  0.00000000000E+00 0. -1.
         -4    1    5    5    0  503  0.73559074601E+02 -0.35847826559E+03 -0.16811861795E+03  0.40271761081E+03  0.00000000000E+00 0.  1.
         -3    1    6    6    0  502  0.76823291934E+02  0.30640493789E+03 -0.42090570070E+03  0.52625793393E+03  0.00000000000E+00 0.  1.
<mgrwt>
<rscale>  0 0.11670004E+04</rscale>
<asrwt>0</asrwt>
<pdfrwt beam="1">  1        1 0.20382876E+00 0.11670004E+04</pdfrwt>
<pdfrwt beam="2">  1       -1 0.39535738E-01 0.11670004E+04</pdfrwt>
<totfact> 0.53572933E+01</totfact>
</mgrwt>
</event>
<event>
12    1  0.1532786E-007  0.1329277E+04  0.7818608E-02  0.9006665E-01
          2   -1    0    0  501    0  0.00000000000E+00  0.00000000000E+00  0.21692662445E+03  0.21692662445E+03  0.00000000000E+00 0. -1.
         -2   -1    0    0    0  501 -0.00000000000E+00 -0.00000000000E+00 -0.20363779330E+04  0.20363779330E+04  0.00000000000E+00 0.  1.
         23    2    1    2    0    0 -0.27013472766E+02 -0.19435013596E+03 -0.99852240404E+03  0.10218183053E+04  0.92541637425E+02 0.  0.
        254    2    1    2    0    0  0.27013472766E+02  0.19435013596E+03 -0.82092890449E+03  0.12314862521E+04  0.89673430838E+03 0.  0.
        -24    2    4    4    0    0 -0.41554239160E+03  0.15823789601E+03 -0.29948361986E+03  0.54189881529E+03  0.79051733075E+02 0.  0.
         24    2    4    4    0    0  0.44255586436E+03  0.36112239950E+02 -0.52144528462E+03  0.68958743680E+03  0.80410578815E+02 0.  0.
         11    1    3    3    0    0  0.12773104836E+02 -0.35656366933E+02 -0.38493150507E+03  0.38679037256E+03  0.00000000000E+00 0. -1.
        -11    1    3    3    0    0 -0.39786577602E+02 -0.15869376902E+03 -0.61359089897E+03  0.63502793276E+03  0.00000000000E+00 0.  1.
          4    1    6    6  502    0  0.44021809877E+03  0.43518213477E+02 -0.50467083277E+03  0.67110242053E+03  0.00000000000E+00 0. -1.
          3    1    5    5  503    0 -0.35964259670E+03  0.15637538070E+03 -0.28291033640E+03  0.48356417929E+03  0.00000000000E+00 0. -1.
         -4    1    5    5    0  503 -0.55899794898E+02  0.18625153114E+01 -0.16573283459E+02  0.58334636003E+02  0.00000000000E+00 0.  1.
         -3    1    6    6    0  502  0.23377655972E+01 -0.74059735268E+01 -0.16774451852E+02  0.18485016278E+02  0.00000000000E+00 0.  1.
<mgrwt>
<rscale>  0 0.13292774E+04</rscale>
<asrwt>0</asrwt>
<pdfrwt beam="1">  1        2 0.33373326E-01 0.13292774E+04</pdfrwt>
<pdfrwt beam="2">  1       -2 0.31328892E+00 0.13292774E+04</pdfrwt>
<totfact> 0.40963163E+00</totfact>
</mgrwt>
</event>
<event>
12    1  0.1532786E-007  0.2714536E+04  0.7818608E-02  0.8330304E-01
          2   -1    0    0  501    0  0.00000000000E+00  0.00000000000E+00  0.29684944604E+04  0.29684944604E+04  0.00000000000E+00 0. -1.
         -2   -1    0    0    0  501 -0.00000000000E+00 -0.00000000000E+00 -0.62057581122E+03  0.62057581122E+03  0.00000000000E+00 0.  1.
         23    2    1    2    0    0 -0.28518521323E+03 -0.26565656121E+03  0.25525577587E+04  0.25837480320E+04  0.91097570708E+02 0.  0.
        254    2    1    2    0    0  0.28518521323E+03  0.26565656121E+03 -0.20463910952E+03  0.10053222395E+04  0.90382057169E+03 0.  0.
        -24    2    4    4    0    0  0.51151174719E+03  0.38970676528E+03  0.25822902422E+02  0.64862932514E+03  0.80855109451E+02 0.  0.
         24    2    4    4    0    0 -0.22632653396E+03 -0.12405020407E+03 -0.23046201194E+03  0.35669291440E+03  0.86631074837E+02 0.  0.
         11    1    3    3    0    0 -0.26692991019E+03 -0.25835174065E+03  0.25032649523E+04  0.25306782926E+04  0.00000000000E+00 0. -1.
        -11    1    3    3    0    0 -0.18255303039E+02 -0.73048205572E+01  0.49292806334E+02  0.53069739483E+02  0.00000000000E+00 0.  1.
          2    1    6    6  502    0 -0.47288315217E+02 -0.65983344992E+02 -0.94050369737E+02  0.12423952117E+03  0.00000000000E+00 0. -1.
          3    1    5    5  503    0  0.14009894271E+03  0.63667536967E+02  0.78328931146E+01  0.15408641481E+03  0.00000000000E+00 0. -1.
         -4    1    5    5    0  503  0.37141280447E+03  0.32603922831E+03  0.17990009308E+02  0.49454291033E+03  0.00000000000E+00 0.  1.
         -1    1    6    6    0  502 -0.17903821875E+03 -0.58066859082E+02 -0.13641164220E+03  0.23245339323E+03  0.00000000000E+00 0.  1.
<mgrwt>
<rscale>  0 0.27145356E+04</rscale>
<asrwt>0</asrwt>
<pdfrwt beam="1">  1        2 0.45669145E+00 0.27145356E+04</pdfrwt>
<pdfrwt beam="2">  1       -2 0.95473204E-01 0.27145356E+04</pdfrwt>
<totfact> 0.14703043E+00</totfact>
</mgrwt>
</event>
<event>
12    1  0.1532786E-007  0.1667559E+04  0.7818608E-02  0.8780086E-01
          1   -1    0    0  501    0  0.00000000000E+00  0.00000000000E+00  0.26318547287E+04  0.26318547287E+04  0.00000000000E+00 0. -1.
         -1   -1    0    0    0  501 -0.00000000000E+00 -0.00000000000E+00 -0.26414387691E+03  0.26414387691E+03  0.00000000000E+00 0.  1.
         23    2    1    2    0    0  0.35237597142E+03 -0.11152452237E+02  0.29199842624E+02  0.36435120336E+03  0.87212190395E+02 0.  0.
        254    2    1    2    0    0 -0.35237597142E+03  0.11152452237E+02  0.23385110092E+04  0.25316474023E+04  0.90349965518E+03 0.  0.
        -24    2    4    4    0    0 -0.30836541202E+03  0.29207295428E+03  0.21226036440E+04  0.21661467689E+04  0.79685362605E+02 0.  0.
         24    2    4    4    0    0 -0.44010559396E+02 -0.28092050205E+03  0.21590736520E+03  0.36550063337E+03  0.78239790605E+02 0.  0.
         11    1    3    3    0    0  0.22395251869E+03 -0.33147191001E+02 -0.14679163140E+02  0.22686768110E+03  0.00000000000E+00 0.  1.
        -11    1    3    3    0    0  0.12842345273E+03  0.21994738765E+02  0.43879005764E+02  0.13748352226E+03  0.00000000000E+00 0. -1.
          2    1    6    6  502    0  0.38508574743E+01  0.25103516331E+01 -0.17800477354E+01  0.49294562123E+01  0.00000000000E+00 0. -1.
          1    1    5    5  503    0 -0.42015508302E+02  0.12133883982E+02  0.28710905102E+03  0.29042062815E+03  0.00000000000E+00 0. -1.
         -2    1    5    5    0  503 -0.26634990372E+03  0.27993907030E+03  0.18354945930E+04  0.18757261407E+04  0.00000000000E+00 0.  1.
         -1    1    6    6    0  502 -0.47861416871E+02 -0.28343085368E+03  0.21768741294E+03  0.36057117715E+03  0.00000000000E+00 0.  1.
<mgrwt>
<rscale>  0 0.16675591E+04</rscale>
<asrwt>0</asrwt>
<pdfrwt beam="1">  1        1 0.40490071E+00 0.16675591E+04</pdfrwt>
<pdfrwt beam="2">  1       -1 0.40637521E-01 0.16675591E+04</pdfrwt>
<totfact> 0.62016401E+00</totfact>
</mgrwt>
</event>
<event>
12    1  0.1532786E-007  0.1413052E+04  0.7818608E-02  0.8944425E-01
         -2   -1    0    0    0  501 -0.00000000000E+00  0.00000000000E+00  0.22826344332E+03  0.22826344332E+03  0.00000000000E+00 0. -1.
          2   -1    0    0  501    0  0.00000000000E+00 -0.00000000000E+00 -0.21868553378E+04  0.21868553378E+04  0.00000000000E+00 0.  1.
         23    2    1    2    0    0  0.32288078789E+03 -0.12439857204E+03 -0.95705918341E+03  0.10218543326E+04  0.92179111078E+02 0.  0.
        254    2    1    2    0    0 -0.32288078789E+03  0.12439857204E+03 -0.10015327111E+04  0.13932644485E+04  0.90464968045E+03 0.  0.
        -24    2    4    4    0    0 -0.21364832954E+03  0.45815899401E+03 -0.87113597125E+03  0.10102702602E+04  0.78821607395E+02 0.  0.
         24    2    4    4    0    0 -0.10923245836E+03 -0.33376042197E+03 -0.13039673980E+03  0.38299418831E+03  0.79708778047E+02 0.  0.
         11    1    3    3    0    0  0.18497227775E+03 -0.70928745519E+02 -0.67356901768E+03  0.70209746621E+03  0.00000000000E+00 0.  1.
        -11    1    3    3    0    0  0.13790851014E+03 -0.53469826520E+02 -0.28349016573E+03  0.31975686636E+03  0.00000000000E+00 0. -1.
          2    1    6    6  502    0  0.21336947298E+01 -0.19683522832E+02 -0.28166656363E+02  0.34428974062E+02  0.00000000000E+00 0. -1.
          1    1    5    5  503    0 -0.24218716445E+02  0.12816583796E+03 -0.19992171698E+03  0.23870844385E+03  0.00000000000E+00 0. -1.
         -2    1    5    5    0  503 -0.18942961309E+03  0.32999315605E+03 -0.67121425428E+03  0.77156181638E+03  0.00000000000E+00 0.  1.
         -1    1    6    6    0  502 -0.11136615309E+03 -0.31407689914E+03 -0.10223008344E+03  0.34856521425E+03  0.00000000000E+00 0.  1.
<mgrwt>
<rscale>  0 0.14130522E+04</rscale>
<asrwt>0</asrwt>
<pdfrwt beam="1">  1        2 0.33643927E+00 0.14130522E+04</pdfrwt>
<pdfrwt beam="2">  1       -2 0.35117454E-01 0.14130522E+04</pdfrwt>
<totfact> 0.38931976E+01</totfact>
</mgrwt>
</event>
<event>
12    1  0.1532786E-007  0.1809301E+04  0.7818608E-02  0.8701369E-01
          1   -1    0    0  501    0  0.00000000000E+00  0.00000000000E+00  0.12744580551E+04  0.12744580551E+04  0.00000000000E+00 0. -1.
         -1   -1    0    0    0  501 -0.00000000000E+00 -0.00000000000E+00 -0.64214927457E+03  0.64214927457E+03  0.00000000000E+00 0.  1.
         23    2    1    2    0    0  0.40824909192E+03  0.32482262296E+03 -0.21988504249E+03  0.57444472141E+03  0.97263809343E+02 0.  0.
        254    2    1    2    0    0 -0.40824909192E+03 -0.32482262296E+03  0.85219382307E+03  0.13421626083E+04  0.89609658945E+03 0.  0.
        -24    2    4    4    0    0 -0.64545487238E+03 -0.19748351474E+03  0.34353615782E+03  0.76165514651E+03  0.80558920076E+02 0.  0.
         24    2    4    4    0    0  0.23720578046E+03 -0.12733910822E+03  0.50865766525E+03  0.58050746180E+03  0.75989881070E+02 0.  0.
         13    1    3    3    0    0  0.31557942527E+03  0.19442920611E+03 -0.15756031698E+03  0.40276338380E+03  0.00000000000E+00 0.  1.
        -13    1    3    3    0    0  0.92669666650E+02  0.13039341685E+03 -0.62324725512E+02  0.17168133762E+03  0.00000000000E+00 0. -1.
          4    1    6    6  502    0  0.50057593834E+02 -0.46328954491E+02  0.75504848645E+02  0.10175026729E+03  0.00000000000E+00 0. -1.
          3    1    5    5  503    0 -0.39424696586E+03 -0.80289891595E+02  0.21334444934E+03  0.45540420601E+03  0.00000000000E+00 0. -1.
         -4    1    5    5    0  503 -0.25120790651E+03 -0.11719362315E+03  0.13019170848E+03  0.30625094050E+03  0.00000000000E+00 0.  1.
         -3    1    6    6    0  502  0.18714818662E+03 -0.81010153725E+02  0.43315281661E+03  0.47875719451E+03  0.00000000000E+00 0.  1.
<mgrwt>
<rscale>  0 0.18093008E+04</rscale>
<asrwt>0</asrwt>
<pdfrwt beam="1">  1        1 0.19607047E+00 0.18093008E+04</pdfrwt>
<pdfrwt beam="2">  1       -1 0.98792196E-01 0.18093008E+04</pdfrwt>
<totfact> 0.87186537E+00</totfact>
</mgrwt>
</event>
<event>
12    1  0.1532786E-007  0.1597070E+04  0.7818608E-02  0.8822350E-01
         -1   -1    0    0    0  501 -0.00000000000E+00  0.00000000000E+00  0.50141424715E+03  0.50141424715E+03  0.00000000000E+00 0.  1.
          1   -1    0    0  501    0  0.00000000000E+00 -0.00000000000E+00 -0.12717191081E+04  0.12717191081E+04  0.00000000000E+00 0. -1.
         23    2    1    2    0    0  0.30882500207E+02 -0.40140203224E+03 -0.67103571729E+03  0.78839564195E+03  0.95924105735E+02 0.  0.
        254    2    1    2    0    0 -0.30882500207E+02  0.40140203224E+03 -0.99269143624E+02  0.98473771327E+03  0.89318345302E+03 0.  0.
        -24    2    4    4    0    0  0.16522839085E+03 -0.20950555864E+03 -0.18272521672E+03  0.33314126493E+03  0.80009982682E+02 0.  0.
         24    2    4    4    0    0 -0.19611089105E+03  0.61090759088E+03  0.83456073095E+02  0.65159644834E+03  0.77106738778E+02 0.  0.
         11    1    3    3    0    0  0.26517808217E+02 -0.31966095768E+03 -0.44942089754E+03  0.55214623530E+03  0.00000000000E+00 0.  1.
        -11    1    3    3    0    0  0.43646919898E+01 -0.81741074562E+02 -0.22161481976E+03  0.23624940665E+03  0.00000000000E+00 0. -1.
          4    1    6    6  502    0 -0.14150334117E+03  0.37606679557E+03  0.83978428421E+02  0.41048971574E+03  0.00000000000E+00 0. -1.
          1    1    5    5  503    0  0.16405390846E+03 -0.21464350451E+03 -0.16956183093E+03  0.31896196234E+03  0.00000000000E+00 0. -1.
         -2    1    5    5    0  503  0.11744823840E+01  0.51379458656E+01 -0.13163385784E+02  0.14179302589E+02  0.00000000000E+00 0.  1.
         -3    1    6    6    0  502 -0.54607549884E+02  0.23484079532E+03 -0.52235532592E+00  0.24110673260E+03  0.00000000000E+00 0.  1.
<mgrwt>
<rscale>  0 0.15970699E+04</rscale>
<asrwt>0</asrwt>
<pdfrwt beam="1">  1        1 0.19564909E+00 0.15970699E+04</pdfrwt>
<pdfrwt beam="2">  1       -1 0.77140654E-01 0.15970699E+04</pdfrwt>
<totfact> 0.15330668E+01</totfact>
</mgrwt>
</event>
<event>
12    1  0.1532786E-007  0.2693152E+04  0.7818608E-02  0.8337230E-01
          2   -1    0    0  501    0  0.00000000000E+00  0.00000000000E+00  0.29410295556E+04  0.29410295556E+04  0.00000000000E+00 0. -1.
         -2   -1    0    0    0  501 -0.00000000000E+00 -0.00000000000E+00 -0.61654142778E+03  0.61654142778E+03  0.00000000000E+00 0.  1.
         23    2    1    2    0    0 -0.53317511723E+03  0.89764391935E+03  0.17972243221E+04  0.20804201957E+04  0.89958964224E+02 0.  0.
        254    2    1    2    0    0  0.53317511723E+03 -0.89764391935E+03  0.52726380574E+03  0.14771507877E+04  0.90217903828E+03 0.  0.
        -24    2    4    4    0    0  0.43533204074E+02 -0.80603371241E+03  0.10223661475E+03  0.81753622210E+03  0.79546613009E+02 0.  0.
         24    2    4    4    0    0  0.48964191316E+03 -0.91610206935E+02  0.42502719099E+03  0.65961456558E+03  0.79382799821E+02 0.  0.
         11    1    3    3    0    0 -0.47491195700E+03  0.78061889145E+03  0.16239651336E+04  0.18633759620E+04  0.00000000000E+00 0. -1.
        -11    1    3    3    0    0 -0.58263160228E+02  0.11702502790E+03  0.17325918849E+03  0.21704423372E+03  0.00000000000E+00 0.  1.
          4    1    6    6  502    0  0.24222447394E+03 -0.25806113231E+02  0.16190722501E+03  0.29249376193E+03  0.00000000000E+00 0. -1.
          3    1    5    5  503    0 -0.14195166367E+02 -0.53721124466E+02  0.17569588926E+02  0.58276516858E+02  0.00000000000E+00 0. -1.
         -4    1    5    5    0  503  0.57728370441E+02 -0.75231258795E+03  0.84667025824E+02  0.75925970524E+03  0.00000000000E+00 0.  1.
         -3    1    6    6    0  502  0.24741743922E+03 -0.65804093703E+02  0.26311996598E+03  0.36712080365E+03  0.00000000000E+00 0.  1.
<mgrwt>
<rscale>  0 0.26931517E+04</rscale>
<asrwt>0</asrwt>
<pdfrwt beam="1">  1        2 0.45246608E+00 0.26931517E+04</pdfrwt>
<pdfrwt beam="2">  1       -2 0.94852529E-01 0.26931517E+04</pdfrwt>
<totfact> 0.15555624E+00</totfact>
</mgrwt>
</event>
<event>
12    1  0.1532786E-007  0.1170028E+04  0.7818608E-02  0.9139503E-01
         -4   -1    0    0    0  501 -0.00000000000E+00  0.00000000000E+00  0.25334705492E+04  0.25334705492E+04  0.00000000000E+00 0.  1.
          4   -1    0    0  501    0  0.00000000000E+00 -0.00000000000E+00 -0.13508793504E+03  0.13508793504E+03  0.00000000000E+00 0. -1.
         23    2    1    2    0    0 -0.39242028550E+02  0.65815748355E+02  0.97696012128E+03  0.98401191082E+03  0.89200406608E+02 0.  0.
        254    2    1    2    0    0  0.39242028550E+02 -0.65815748355E+02  0.14214224929E+04  0.16845465735E+04  0.90076834160E+03 0.  0.
        -24    2    4    4    0    0 -0.36558146994E+03  0.18576913728E+03  0.59123434430E+03  0.72394875285E+03  0.79898456502E+02 0.  0.
         24    2    4    4    0    0  0.40482349849E+03 -0.25158488564E+03  0.83018814863E+03  0.96059782061E+03  0.79742029254E+02 0.  0.
         13    1    3    3    0    0 -0.30707035891E+02 -0.16484742892E+02  0.29009781383E+03  0.29218386401E+03  0.00000000000E+00 0. -1.
        -13    1    3    3    0    0 -0.85349926591E+01  0.82300491247E+02  0.68686230745E+03  0.69182804681E+03  0.00000000000E+00 0.  1.
          2    1    6    6  502    0  0.38464459748E+03 -0.25371538563E+03  0.81048995505E+03  0.93231804150E+03  0.00000000000E+00 0. -1.
          1    1    5    5  503    0 -0.36386715469E+03  0.19042010313E+03  0.57248549897E+03  0.70455572418E+03  0.00000000000E+00 0. -1.
         -2    1    5    5    0  503 -0.17143152481E+01 -0.46509658507E+01  0.18748845327E+02  0.19393028676E+02  0.00000000000E+00 0.  1.
         -1    1    6    6    0  502  0.20178901007E+02  0.21304999938E+01  0.19698193580E+02  0.28279779108E+02  0.00000000000E+00 0.  1.
<mgrwt>
<rscale>  0 0.11700279E+04</rscale>
<asrwt>0</asrwt>
<pdfrwt beam="1">  1        4 0.20782761E-01 0.11700279E+04</pdfrwt>
<pdfrwt beam="2">  1       -4 0.38976466E+00 0.11700279E+04</pdfrwt>
<totfact> 0.35083345E-01</totfact>
</mgrwt>
</event>
<event>
12    1  0.1532786E-007  0.2989824E+04  0.7818608E-02  0.8246643E-01
          1   -1    0    0  501    0  0.00000000000E+00  0.00000000000E+00  0.10561136772E+04  0.10561136772E+04  0.00000000000E+00 0. -1.
         -1   -1    0    0    0  501 -0.00000000000E+00 -0.00000000000E+00 -0.21160243264E+04  0.21160243264E+04  0.00000000000E+00 0.  1.
         23    2    1    2    0    0  0.11555195629E+04 -0.52463364057E+03 -0.99677481906E+03  0.16161861907E+04  0.89620567038E+02 0.  0.
        254    2    1    2    0    0 -0.11555195629E+04  0.52463364057E+03 -0.63135830132E+02  0.15559518130E+04  0.89807237696E+03 0.  0.
        -24    2    4    4    0    0 -0.56794499840E+03  0.15208323686E+03  0.40063668856E+03  0.71591879103E+03  0.79618634717E+02 0.  0.
         24    2    4    4    0    0 -0.58757456450E+03  0.37255040371E+03 -0.46377251869E+03  0.84003302196E+03  0.80826089519E+02 0.  0.
         11    1    3    3    0    0  0.33556751419E+01 -0.89108860939E+01 -0.43948492388E+01  0.10487094281E+02  0.00000000000E+00 0. -1.
        -11    1    3    3    0    0  0.11521638878E+04 -0.51572275447E+03 -0.99237996982E+03  0.16056990964E+04  0.00000000000E+00 0.  1.
          2    1    6    6  502    0 -0.58433771389E+03  0.36944211107E+03 -0.46719306276E+03  0.83439043330E+03  0.00000000000E+00 0. -1.
          1    1    5    5  503    0 -0.46623536077E+03  0.10700367167E+03  0.35489423242E+03  0.59563001401E+03  0.00000000000E+00 0. -1.
         -2    1    5    5    0  503 -0.10170963763E+03  0.45079565193E+02  0.45742456141E+02  0.12028877702E+03  0.00000000000E+00 0.  1.
         -1    1    6    6    0  502 -0.32368506114E+01  0.31082926432E+01  0.34205440696E+01  0.56425886584E+01  0.00000000000E+00 0.  1.
<mgrwt>
<rscale>  0 0.29898242E+04</rscale>
<asrwt>0</asrwt>
<pdfrwt beam="1">  1        1 0.16247903E+00 0.29898242E+04</pdfrwt>
<pdfrwt beam="2">  1       -1 0.32554220E+00 0.29898242E+04</pdfrwt>
<totfact> 0.26252649E-01</totfact>
</mgrwt>
</event>
<event>
12    1  0.1532786E-007  0.1384864E+04  0.7818608E-02  0.8964849E-01
          2   -1    0    0  501    0  0.00000000000E+00  0.00000000000E+00  0.17451983779E+04  0.17451983779E+04  0.00000000000E+00 0. -1.
         -2   -1    0    0    0  501 -0.00000000000E+00 -0.00000000000E+00 -0.27473195175E+03  0.27473195175E+03  0.00000000000E+00 0.  1.
         23    2    1    2    0    0  0.74261355069E+02  0.12805151595E+03  0.96908506630E+03  0.98458360254E+03  0.91471662714E+02 0.  0.
        254    2    1    2    0    0 -0.74261355069E+02 -0.12805151595E+03  0.50138135986E+03  0.10353467271E+04  0.89367087775E+03 0.  0.
        -24    2    4    4    0    0  0.11141471863E+03 -0.10362900586E+03 -0.22369275419E+03  0.28231084883E+03  0.80676865993E+02 0.  0.
         24    2    4    4    0    0 -0.18567607370E+03 -0.24422510085E+02  0.72507411405E+03  0.75303587828E+03  0.79110680546E+02 0.  0.
         13    1    3    3    0    0  0.16842156842E+01  0.11855154225E+01 -0.18141480555E+01  0.27446607177E+01  0.00000000000E+00 0.  1.
        -13    1    3    3    0    0  0.72577139385E+02  0.12686600052E+03  0.97089921435E+03  0.98183894182E+03  0.00000000000E+00 0. -1.
          4    1    6    6  502    0 -0.23603488675E+02 -0.24147347561E+02  0.63741177442E+02  0.72132910475E+02  0.00000000000E+00 0. -1.
          1    1    5    5  503    0 -0.38150871006E+01  0.62288892799E+01  0.52075255464E+00  0.73229184393E+01  0.00000000000E+00 0. -1.
         -2    1    5    5    0  503  0.11522980573E+03 -0.10985789514E+03 -0.22421350675E+03  0.27498793039E+03  0.00000000000E+00 0.  1.
         -1    1    6    6    0  502 -0.16207258502E+03 -0.27516252466E+00  0.66133293660E+03  0.68090296781E+03  0.00000000000E+00 0.  1.
<mgrwt>
<rscale>  0 0.13848635E+04</rscale>
<asrwt>0</asrwt>
<pdfrwt beam="1">  1        2 0.26849205E+00 0.13848635E+04</pdfrwt>
<pdfrwt beam="2">  1       -2 0.42266455E-01 0.13848635E+04</pdfrwt>
<totfact> 0.47843883E+01</totfact>
</mgrwt>
</event>
<event>
12    1  0.1532786E-007  0.2911746E+04  0.7818608E-02  0.8269391E-01
         -2   -1    0    0    0  501 -0.00000000000E+00  0.00000000000E+00  0.23534928698E+04  0.23534928698E+04  0.00000000000E+00 0.  1.
          2   -1    0    0  501    0  0.00000000000E+00 -0.00000000000E+00 -0.90060434583E+03  0.90060434583E+03  0.00000000000E+00 0. -1.
         23    2    1    2    0    0 -0.11363088201E+04 -0.28302412546E+03 -0.10020164155E+02  0.11747067479E+04  0.92385874107E+02 0.  0.
        254    2    1    2    0    0  0.11363088201E+04  0.28302412546E+03  0.14629086882E+04  0.20793904677E+04  0.90136701576E+03 0.  0.
        -24    2    4    4    0    0  0.82076564814E+03  0.52020451360E+03  0.13411973192E+04  0.16581564077E+04  0.80021485829E+02 0.  0.
         24    2    4    4    0    0  0.31554317196E+03 -0.23718038814E+03  0.12171136893E+03  0.42123406001E+03  0.82476942776E+02 0.  0.
         11    1    3    3    0    0 -0.97225339206E+03 -0.21931371781E+03  0.15945012269E+02  0.99680961503E+03  0.00000000000E+00 0.  1.
        -11    1    3    3    0    0 -0.16405542804E+03 -0.63710407645E+02 -0.25965176424E+02  0.17789713292E+03  0.00000000000E+00 0. -1.
          4    1    6    6  502    0 -0.29360252388E+00  0.49192199286E+01  0.36721581605E+01  0.61457035971E+01  0.00000000000E+00 0. -1.
          3    1    5    5  503    0  0.56883159274E+03  0.33211797045E+03  0.85807920264E+03  0.10817447228E+04  0.00000000000E+00 0. -1.
         -4    1    5    5    0  503  0.25193405540E+03  0.18808654315E+03  0.48311811659E+03  0.57641168497E+03  0.00000000000E+00 0.  1.
         -3    1    6    6    0  502  0.31583677449E+03 -0.24209960807E+03  0.11803921077E+03  0.41508835641E+03  0.00000000000E+00 0.  1.
<mgrwt>
<rscale>  0 0.29117458E+04</rscale>
<asrwt>0</asrwt>
<pdfrwt beam="1">  1        2 0.13855452E+00 0.29117458E+04</pdfrwt>
<pdfrwt beam="2">  1       -2 0.36207582E+00 0.29117458E+04</pdfrwt>
<totfact> 0.32940648E-01</totfact>
</mgrwt>
</event>
<event>
12    1  0.1532786E-007  0.1288271E+04  0.7818608E-02  0.9038918E-01
         -2   -1    0    0    0  501 -0.00000000000E+00  0.00000000000E+00  0.21035774903E+03  0.21035774903E+03  0.00000000000E+00 0.  1.
          2   -1    0    0  501    0  0.00000000000E+00 -0.00000000000E+00 -0.19724043752E+04  0.19724043752E+04  0.00000000000E+00 0. -1.
         23    2    1    2    0    0 -0.74889723678E+02  0.13198735163E+03 -0.93553062822E+03  0.95255552039E+03  0.95474244582E+02 0.  0.
        254    2    1    2    0    0  0.74889723678E+02 -0.13198735163E+03 -0.82651599793E+03  0.12302066038E+04  0.89847118015E+03 0.  0.
        -24    2    4    4    0    0  0.29392598629E+03  0.29003349471E+03 -0.47053367240E+03  0.63080799203E+03  0.77491112223E+02 0.  0.
         24    2    4    4    0    0 -0.21903626261E+03 -0.42202084634E+03 -0.35598232554E+03  0.59939861180E+03  0.80478572632E+02 0.  0.
         13    1    3    3    0    0 -0.93867626871E+02  0.11671051735E+03 -0.86656747531E+03  0.87941552493E+03  0.00000000000E+00 0. -1.
        -13    1    3    3    0    0  0.18977903193E+02  0.15276834275E+02 -0.68963152917E+02  0.73139995456E+02  0.00000000000E+00 0.  1.
          4    1    6    6  502    0 -0.19063110964E+03 -0.32058173026E+03 -0.30769582136E+03  0.48351792544E+03  0.00000000000E+00 0. -1.
          1    1    5    5  503    0  0.24892448501E+03  0.27336331126E+03 -0.43617575350E+03  0.57178683714E+03  0.00000000000E+00 0. -1.
         -2    1    5    5    0  503  0.45001501276E+02  0.16670183451E+02 -0.34357918896E+02  0.59021154887E+02  0.00000000000E+00 0.  1.
         -1    1    6    6    0  502 -0.28405152968E+02 -0.10143911608E+03 -0.48286504175E+02  0.11588068636E+03  0.00000000000E+00 0.  1.
<mgrwt>
<rscale>  0 0.12882710E+04</rscale>
<asrwt>0</asrwt>
<pdfrwt beam="1">  1        2 0.30344685E+00 0.12882710E+04</pdfrwt>
<pdfrwt beam="2">  1       -2 0.32362728E-01 0.12882710E+04</pdfrwt>
<totfact> 0.60427495E+01</totfact>
</mgrwt>
</event>
<event>
12    1  0.1532786E-007  0.1305644E+04  0.7818608E-02  0.9025101E-01
         -1   -1    0    0    0  501 -0.00000000000E+00  0.00000000000E+00  0.48065454279E+03  0.48065454279E+03  0.00000000000E+00 0.  1.
          1   -1    0    0  501    0  0.00000000000E+00 -0.00000000000E+00 -0.88665861051E+03  0.88665861051E+03  0.00000000000E+00 0. -1.
         23    2    1    2    0    0  0.22177614174E+03  0.19525997260E+02  0.15926756177E+03  0.28850723802E+03  0.91128198386E+02 0.  0.
        254    2    1    2    0    0 -0.22177614174E+03 -0.19525997260E+02 -0.56527162949E+03  0.10788059153E+04  0.89147308771E+03 0.  0.
        -24    2    4    4    0    0  0.22273970017E+03 -0.24023799990E+03 -0.20214072615E+02  0.33742226654E+03  0.78217047988E+02 0.  0.
         24    2    4    4    0    0 -0.44451584192E+03  0.22071200264E+03 -0.54505755688E+03  0.74138364874E+03  0.79081302987E+02 0.  0.
         13    1    3    3    0    0  0.16192507752E+03  0.13074353883E+02  0.16040459193E+03  0.22829871347E+03  0.00000000000E+00 0.  1.
        -13    1    3    3    0    0  0.59851064224E+02  0.64516433771E+01 -0.11370301577E+01  0.60208524551E+02  0.00000000000E+00 0. -1.
          2    1    6    6  502    0 -0.33767226764E+03  0.19837417882E+03 -0.39945823068E+03  0.55941197093E+03  0.00000000000E+00 0. -1.
          3    1    5    5  503    0  0.18412672230E+02 -0.63350210309E+02  0.39315648514E+01  0.66088825432E+02  0.00000000000E+00 0. -1.
         -2    1    5    5    0  503  0.20432702794E+03 -0.17688778959E+03 -0.24145637466E+02  0.27133344111E+03  0.00000000000E+00 0.  1.
         -1    1    6    6    0  502 -0.10684357427E+03  0.22337823821E+02 -0.14559932619E+03  0.18197167781E+03  0.00000000000E+00 0.  1.
<mgrwt>
<rscale>  0 0.13056439E+04</rscale>
<asrwt>0</asrwt>
<pdfrwt beam="1">  1        1 0.13640902E+00 0.13056439E+04</pdfrwt>
<pdfrwt beam="2">  1       -1 0.73946853E-01 0.13056439E+04</pdfrwt>
<totfact> 0.33764750E+01</totfact>
</mgrwt>
</event>
<event>
12    1  0.1532786E-007  0.1510570E+04  0.7818608E-02  0.8877454E-01
         -2   -1    0    0    0  501 -0.00000000000E+00  0.00000000000E+00  0.15328031802E+03  0.15328031802E+03  0.00000000000E+00 0.  1.
          2   -1    0    0  501    0  0.00000000000E+00 -0.00000000000E+00 -0.37216501289E+04  0.37216501289E+04  0.00000000000E+00 0. -1.
         23    2    1    2    0    0 -0.38710299400E+03 -0.97814266246E+02 -0.47157787593E+03  0.62435412637E+03  0.89532247873E+02 0.  0.
        254    2    1    2    0    0  0.38710299400E+03  0.97814266246E+02 -0.30967919349E+04  0.32505763205E+04  0.90371996141E+03 0.  0.
        -24    2    4    4    0    0 -0.19255418739E+03  0.85164031742E+01 -0.19393989924E+04  0.19506123444E+04  0.80438933527E+02 0.  0.
         24    2    4    4    0    0  0.57965718138E+03  0.89297863072E+02 -0.11573929425E+04  0.12999639761E+04  0.79820796950E+02 0.  0.
         11    1    3    3    0    0 -0.11570511988E+03 -0.68575364089E+02 -0.18321281547E+03  0.22728218381E+03  0.00000000000E+00 0. -1.
        -11    1    3    3    0    0 -0.27139787412E+03 -0.29238902158E+02 -0.28836506046E+03  0.39707194256E+03  0.00000000000E+00 0.  1.
          4    1    6    6  502    0  0.16848534920E+03  0.60863326642E+02 -0.32407129180E+03  0.37028888667E+03  0.00000000000E+00 0. -1.
          1    1    5    5  503    0 -0.50022600203E+02  0.20546007678E+02 -0.87153053496E+03  0.87320666072E+03  0.00000000000E+00 0. -1.
         -2    1    5    5    0  503 -0.14253158718E+03 -0.12029604504E+02 -0.10678684575E+04  0.10774056836E+04  0.00000000000E+00 0.  1.
         -3    1    6    6    0  502  0.41117183218E+03  0.28434536430E+02 -0.83332165069E+03  0.92967508946E+03  0.00000000000E+00 0.  1.
<mgrwt>
<rscale>  0 0.15105704E+04</rscale>
<asrwt>0</asrwt>
<pdfrwt beam="1">  1        2 0.57256156E+00 0.15105704E+04</pdfrwt>
<pdfrwt beam="2">  1       -2 0.23581587E-01 0.15105704E+04</pdfrwt>
<totfact> 0.88137933E+00</totfact>
</mgrwt>
</event>
<event>
12    1  0.1532786E-007  0.1697610E+04  0.7818608E-02  0.8762729E-01
          1   -1    0    0  501    0  0.00000000000E+00  0.00000000000E+00  0.93678901143E+03  0.93678901143E+03  0.00000000000E+00 0. -1.
         -1   -1    0    0    0  501 -0.00000000000E+00 -0.00000000000E+00 -0.76908472288E+03  0.76908472288E+03  0.00000000000E+00 0.  1.
         23    2    1    2    0    0  0.10565309400E+03 -0.46415605497E+02 -0.54017030627E+03  0.56005418426E+03  0.92518889057E+02 0.  0.
        254    2    1    2    0    0 -0.10565309400E+03  0.46415605497E+02  0.70787459481E+03  0.11458195501E+04  0.89358772071E+03 0.  0.
        -24    2    4    4    0    0  0.28409019796E+03  0.30704368370E+03  0.33702702000E+03  0.54288963195E+03  0.78478506597E+02 0.  0.
         24    2    4    4    0    0 -0.38974329195E+03 -0.26062807820E+03  0.37084757481E+03  0.60292991810E+03  0.78547651981E+02 0.  0.
         13    1    3    3    0    0  0.76165818593E+02 -0.23895409617E+02 -0.49593512045E+03  0.50231849082E+03  0.00000000000E+00 0.  1.
        -13    1    3    3    0    0  0.29487275403E+02 -0.22520195880E+02 -0.44235185818E+02  0.57735693445E+02  0.00000000000E+00 0. -1.
          2    1    6    6  502    0 -0.49061118528E+01  0.50413620788E+01  0.10160806985E+02  0.12358287248E+02  0.00000000000E+00 0. -1.
          1    1    5    5  503    0  0.78730825169E+02  0.13782761691E+03  0.11015199216E+03  0.19320573540E+03  0.00000000000E+00 0. -1.
         -2    1    5    5    0  503  0.20535937279E+03  0.16921606679E+03  0.22687502784E+03  0.34968389655E+03  0.00000000000E+00 0.  1.
         -1    1    6    6    0  502 -0.38483718010E+03 -0.26566944028E+03  0.36068676782E+03  0.59057163085E+03  0.00000000000E+00 0.  1.
<mgrwt>
<rscale>  0 0.16976102E+04</rscale>
<asrwt>0</asrwt>
<pdfrwt beam="1">  1        1 0.14412139E+00 0.16976102E+04</pdfrwt>
<pdfrwt beam="2">  1       -1 0.11832073E+00 0.16976102E+04</pdfrwt>
<totfact> 0.10361570E+01</totfact>
</mgrwt>
</event>
<event>
12    1  0.1532786E-007  0.1854838E+04  0.7818608E-02  0.8677669E-01
          2   -1    0    0  501    0  0.00000000000E+00  0.00000000000E+00  0.11974715238E+04  0.11974715238E+04  0.00000000000E+00 0.  1.
         -2   -1    0    0    0  501 -0.00000000000E+00 -0.00000000000E+00 -0.71826853237E+03  0.71826853237E+03  0.00000000000E+00 0. -1.
         23    2    1    2    0    0  0.21859216109E+03 -0.81071118812E+02  0.86336737881E+03  0.89895485041E+03  0.91441418922E+02 0.  0.
        254    2    1    2    0    0 -0.21859216109E+03  0.81071118812E+02 -0.38416438741E+03  0.10167852057E+04  0.91209364588E+03 0.  0.
        -24    2    4    4    0    0 -0.54783196579E+03 -0.53332144418E+01 -0.91658924976E+02  0.56139586485E+03  0.81336662235E+02 0.  0.
         24    2    4    4    0    0  0.32923980470E+03  0.86404333254E+02 -0.29250546243E+03  0.45538934089E+03  0.77171552013E+02 0.  0.
         13    1    3    3    0    0  0.49725483446E+02 -0.37612148208E+02  0.11795062204E+03  0.13341531635E+03  0.00000000000E+00 0. -1.
        -13    1    3    3    0    0  0.16886667764E+03 -0.43458970604E+02  0.74541675677E+03  0.76553953406E+03  0.00000000000E+00 0.  1.
          2    1    6    6  502    0  0.29459368206E+03  0.71227143844E+02 -0.28655390461E+03  0.41709936919E+03  0.00000000000E+00 0. -1.
          1    1    5    5  503    0 -0.44462393389E+03 -0.69129737693E+01 -0.10612764922E+03  0.45716661047E+03  0.00000000000E+00 0. -1.
         -2    1    5    5    0  503 -0.10320803189E+03  0.15797593274E+01  0.14468724245E+02  0.10422925438E+03  0.00000000000E+00 0.  1.
         -3    1    6    6    0  502  0.34646122640E+02  0.15177189410E+02 -0.59515578195E+01  0.38289971700E+02  0.00000000000E+00 0.  1.
<mgrwt>
<rscale>  0 0.18548381E+04</rscale>
<asrwt>0</asrwt>
<pdfrwt beam="1">  1        2 0.18422639E+00 0.18548381E+04</pdfrwt>
<pdfrwt beam="2">  1       -2 0.11050285E+00 0.18548381E+04</pdfrwt>
<totfact> 0.11610909E+01</totfact>
</mgrwt>
</event>
<event>
12    1  0.1532786E-007  0.1827863E+04  0.7818608E-02  0.8691621E-01
          2   -1    0    0  501    0  0.00000000000E+00  0.00000000000E+00  0.11255564954E+04  0.11255564954E+04  0.00000000000E+00 0. -1.
         -2   -1    0    0    0  501 -0.00000000000E+00 -0.00000000000E+00 -0.74209550346E+03  0.74209550346E+03  0.00000000000E+00 0.  1.
         23    2    1    2    0    0  0.38853492744E+03  0.53806109219E+03 -0.29226508595E+02  0.67035547541E+03  0.89739321545E+02 0.  0.
        254    2    1    2    0    0 -0.38853492744E+03 -0.53806109219E+03  0.41268750056E+03  0.11972965235E+04  0.90704953737E+03 0.  0.
        -24    2    4    4    0    0  0.25327714213E+03 -0.33030051386E+03  0.49084877171E+02  0.42656167596E+03  0.79358667121E+02 0.  0.
         24    2    4    4    0    0 -0.64181206957E+03 -0.20776057833E+03  0.36360262339E+03  0.77073484752E+03  0.82086216235E+02 0.  0.
         13    1    3    3    0    0  0.50003444169E+02  0.63496829670E+02 -0.33278333423E+02  0.87405030075E+02  0.00000000000E+00 0. -1.
        -13    1    3    3    0    0  0.33853148327E+03  0.47456426252E+03  0.40518248279E+01  0.58295044533E+03  0.00000000000E+00 0.  1.
          4    1    6    6  502    0 -0.26567299864E+03 -0.98555043407E+02  0.10910962160E+03  0.30364477323E+03  0.00000000000E+00 0. -1.
          1    1    5    5  503    0  0.92773160598E+02 -0.67274791285E+02  0.33218016046E+00  0.11459872257E+03  0.00000000000E+00 0. -1.
         -2    1    5    5    0  503  0.16050398153E+03 -0.26302572258E+03  0.48752697011E+02  0.31196295339E+03  0.00000000000E+00 0.  1.
         -3    1    6    6    0  502 -0.37613907093E+03 -0.10920553492E+03  0.25449300179E+03  0.46709007429E+03  0.00000000000E+00 0.  1.
<mgrwt>
<rscale>  0 0.18278626E+04</rscale>
<asrwt>0</asrwt>
<pdfrwt beam="1">  1        2 0.17316254E+00 0.18278626E+04</pdfrwt>
<pdfrwt beam="2">  1       -2 0.11416854E+00 0.18278626E+04</pdfrwt>
<totfact> 0.11880966E+01</totfact>
</mgrwt>
</event>
<event>
12    1  0.1532786E-007  0.1384136E+04  0.7818608E-02  0.8965382E-01
         -2   -1    0    0    0  501 -0.00000000000E+00  0.00000000000E+00  0.32999083442E+03  0.32999083442E+03  0.00000000000E+00 0. -1.
          2   -1    0    0  501    0  0.00000000000E+00 -0.00000000000E+00 -0.14514288338E+04  0.14514288338E+04  0.00000000000E+00 0.  1.
         23    2    1    2    0    0  0.52362035693E+02  0.74461543635E+02 -0.77280498974E+03  0.78395229644E+03  0.95222616356E+02 0.  0.
        254    2    1    2    0    0 -0.52362035693E+02 -0.74461543635E+02 -0.34863300961E+03  0.99746737175E+03  0.93011283082E+03 0.  0.
        -24    2    4    4    0    0 -0.16117443054E+03 -0.11984668210E+02  0.29006974204E+03  0.34156186640E+03  0.80020147448E+02 0.  0.
         24    2    4    4    0    0  0.10881239485E+03 -0.62476875425E+02 -0.63870275165E+03  0.65590550535E+03  0.80791891563E+02 0.  0.
         13    1    3    3    0    0  0.28331103531E+02  0.59678230039E+02 -0.72808551790E+03  0.73107637353E+03  0.00000000000E+00 0.  1.
        -13    1    3    3    0    0  0.24030932161E+02  0.14783313596E+02 -0.44719471846E+02  0.52875922910E+02  0.00000000000E+00 0. -1.
          2    1    6    6  502    0  0.70211896318E+02  0.17070403438E+01 -0.23329621109E+03  0.24363855705E+03  0.00000000000E+00 0. -1.
          3    1    5    5  503    0 -0.13805647392E+03 -0.78050896629E+01  0.16961363790E+03  0.21883623004E+03  0.00000000000E+00 0. -1.
         -4    1    5    5    0  503 -0.23117956620E+02 -0.41795785475E+01  0.12045610414E+03  0.12272563636E+03  0.00000000000E+00 0.  1.
         -1    1    6    6    0  502  0.38600498528E+02 -0.64183915769E+02 -0.40540654056E+03  0.41226694830E+03  0.00000000000E+00 0.  1.
<mgrwt>
<rscale>  0 0.13841361E+04</rscale>
<asrwt>0</asrwt>
<pdfrwt beam="1">  1        2 0.22329674E+00 0.13841361E+04</pdfrwt>
<pdfrwt beam="2">  1       -2 0.50767821E-01 0.13841361E+04</pdfrwt>
<totfact> 0.48329284E+01</totfact>
</mgrwt>
</event>
<event>
12    1  0.1532786E-007  0.1865490E+04  0.7818608E-02  0.8672227E-01
         -2   -1    0    0    0  501 -0.00000000000E+00  0.00000000000E+00  0.55484614991E+03  0.55484614991E+03  0.00000000000E+00 0.  1.
          2   -1    0    0  501    0  0.00000000000E+00 -0.00000000000E+00 -0.15680267126E+04  0.15680267126E+04  0.00000000000E+00 0. -1.
         23    2    1    2    0    0 -0.69819981417E+03  0.24079749197E+02 -0.49700732464E+03  0.86248936713E+03  0.93855276095E+02 0.  0.
        254    2    1    2    0    0  0.69819981417E+03 -0.24079749197E+02 -0.51617323805E+03  0.12603834954E+04  0.91327374261E+03 0.  0.
        -24    2    4    4    0    0  0.57314623696E+03  0.28026458744E+03 -0.63285776438E+03  0.90222348453E+03  0.80333169888E+02 0.  0.
         24    2    4    4    0    0  0.12505357721E+03 -0.30434433663E+03  0.11668452633E+03  0.35816001086E+03  0.79996514181E+02 0.  0.
         11    1    3    3    0    0 -0.29478328859E+03  0.38200126844E+02 -0.16596461865E+03  0.34044190630E+03  0.00000000000E+00 0. -1.
        -11    1    3    3    0    0 -0.40341652558E+03 -0.14120377647E+02 -0.33104270599E+03  0.52204746083E+03  0.00000000000E+00 0.  1.
          2    1    6    6  502    0  0.62009183471E+02 -0.91300056243E+02  0.75452006485E+01  0.11062445099E+03  0.00000000000E+00 0. -1.
          3    1    5    5  503    0  0.20704864257E+03  0.92048981476E+02 -0.27875590103E+03  0.35923113415E+03  0.00000000000E+00 0. -1.
         -4    1    5    5    0  503  0.36609759438E+03  0.18821560596E+03 -0.35410186335E+03  0.54299235038E+03  0.00000000000E+00 0.  1.
         -1    1    6    6    0  502  0.63044393740E+02 -0.21304428039E+03  0.10913932568E+03  0.24753555987E+03  0.00000000000E+00 0.  1.
<mgrwt>
<rscale>  0 0.18654904E+04</rscale>
<asrwt>0</asrwt>
<pdfrwt beam="1">  1        2 0.24123488E+00 0.18654904E+04</pdfrwt>
<pdfrwt beam="2">  1       -2 0.85360945E-01 0.18654904E+04</pdfrwt>
<totfact> 0.13024668E+01</totfact>
</mgrwt>
</event>
<event>
12    1  0.1532786E-007  0.1553844E+04  0.7818608E-02  0.8849416E-01
          2   -1    0    0  501    0  0.00000000000E+00  0.00000000000E+00  0.14168743163E+04  0.14168743163E+04  0.00000000000E+00 0. -1.
         -2   -1    0    0    0  501 -0.00000000000E+00 -0.00000000000E+00 -0.42601378724E+03  0.42601378724E+03  0.00000000000E+00 0.  1.
         23    2    1    2    0    0 -0.11283415787E+03 -0.35131461554E+03 -0.92180207756E+02  0.39109710657E+03  0.91138629507E+02 0.  0.
        254    2    1    2    0    0  0.11283415787E+03  0.35131461554E+03  0.10830407368E+04  0.14517909970E+04  0.89362539971E+03 0.  0.
        -24    2    4    4    0    0  0.29424830440E+03  0.53605108033E+03  0.45105350814E+03  0.76415810702E+03  0.80966165538E+02 0.  0.
         24    2    4    4    0    0 -0.18141414654E+03 -0.18473646479E+03  0.63198722867E+03  0.68763288994E+03  0.79952987078E+02 0.  0.
         13    1    3    3    0    0 -0.23527971930E+02 -0.52791602521E+02  0.18095486814E+02  0.60563730094E+02  0.00000000000E+00 0.  1.
        -13    1    3    3    0    0 -0.89306185937E+02 -0.29852301302E+03 -0.11027569457E+03  0.33053337647E+03  0.00000000000E+00 0. -1.
          4    1    6    6  502    0 -0.10070624966E+03 -0.12346580848E+03  0.47286423693E+03  0.49898511115E+03  0.00000000000E+00 0. -1.
          3    1    5    5  503    0  0.50886284069E+02  0.16800300561E+03  0.12333758176E+03  0.21453806859E+03  0.00000000000E+00 0. -1.
         -4    1    5    5    0  503  0.24336202033E+03  0.36804807471E+03  0.32771592638E+03  0.54962003843E+03  0.00000000000E+00 0.  1.
         -3    1    6    6    0  502 -0.80707896874E+02 -0.61270656303E+02  0.15912299174E+03  0.18864777879E+03  0.00000000000E+00 0.  1.
<mgrwt>
<rscale>  0 0.15538443E+04</rscale>
<asrwt>0</asrwt>
<pdfrwt beam="1">  1        2 0.21798066E+00 0.15538443E+04</pdfrwt>
<pdfrwt beam="2">  1       -2 0.65540583E-01 0.15538443E+04</pdfrwt>
<totfact> 0.29204109E+01</totfact>
</mgrwt>
</event>
<event>
12    1  0.1532786E-007  0.1809198E+04  0.7818608E-02  0.8701423E-01
          2   -1    0    0  501    0  0.00000000000E+00  0.00000000000E+00  0.11147979002E+04  0.11147979002E+04  0.00000000000E+00 0. -1.
         -2   -1    0    0    0  501 -0.00000000000E+00 -0.00000000000E+00 -0.73403361738E+03  0.73403361738E+03  0.00000000000E+00 0.  1.
         23    2    1    2    0    0 -0.56627189870E+02  0.60623622526E+03  0.44937630116E+03  0.76253928968E+03  0.93798234585E+02 0.  0.
        254    2    1    2    0    0  0.56627189870E+02 -0.60623622526E+03 -0.68612018355E+02  0.10862922279E+04  0.89699174793E+03 0.  0.
        -24    2    4    4    0    0 -0.11356838846E+03 -0.68042036464E+03  0.22329931140E+03  0.72949880573E+03  0.80226389767E+02 0.  0.
         24    2    4    4    0    0  0.17019557832E+03  0.74184139375E+02 -0.29191132976E+03  0.35679342216E+03  0.87289748776E+02 0.  0.
         13    1    3    3    0    0  0.14957426701E+02  0.34086994512E+02  0.44309778529E+02  0.57870582179E+02  0.00000000000E+00 0.  1.
        -13    1    3    3    0    0 -0.71584616571E+02  0.57214923075E+03  0.40506652263E+03  0.70466870750E+03  0.00000000000E+00 0. -1.
          4    1    6    6  502    0  0.58077708021E+02  0.72572153851E+02 -0.12744464532E+03  0.15773989763E+03  0.00000000000E+00 0. -1.
          3    1    5    5  503    0  0.12352758503E+02 -0.83505186612E+02  0.28776679329E+02  0.89184102322E+02  0.00000000000E+00 0. -1.
         -4    1    5    5    0  503 -0.12592114696E+03 -0.59691517803E+03  0.19452263208E+03  0.64031470341E+03  0.00000000000E+00 0.  1.
         -3    1    6    6    0  502  0.11211787030E+03  0.16119855234E+01 -0.16446668444E+03  0.19905352453E+03  0.00000000000E+00 0.  1.
<mgrwt>
<rscale>  0 0.18091978E+04</rscale>
<asrwt>0</asrwt>
<pdfrwt beam="1">  1        2 0.17150737E+00 0.18091978E+04</pdfrwt>
<pdfrwt beam="2">  1       -2 0.11292825E+00 0.18091978E+04</pdfrwt>
<totfact> 0.12407004E+01</totfact>
</mgrwt>
</event>
<event>
12    1  0.1532786E-007  0.1352394E+04  0.7818608E-02  0.8989018E-01
          1   -1    0    0  501    0  0.00000000000E+00  0.00000000000E+00  0.31538772180E+04  0.31538772180E+04  0.00000000000E+00 0. -1.
         -1   -1    0    0    0  501 -0.00000000000E+00 -0.00000000000E+00 -0.14497792295E+03  0.14497792295E+03  0.00000000000E+00 0.  1.
         23    2    1    2    0    0  0.20062690899E+03  0.25911136254E+03  0.41780602141E+03  0.53852129785E+03  0.89741082598E+02 0.  0.
        254    2    1    2    0    0 -0.20062690899E+03 -0.25911136254E+03  0.25910932736E+04  0.27603338431E+04  0.89347004307E+03 0.  0.
        -24    2    4    4    0    0  0.15140379893E+03  0.63796785354E+02  0.19412455000E+04  0.19497393121E+04  0.77821293183E+02 0.  0.
         24    2    4    4    0    0 -0.35203070792E+03 -0.32290814789E+03  0.64984777362E+03  0.81059453100E+03  0.81031311913E+02 0.  0.
         13    1    3    3    0    0 -0.57417606629E+01  0.32741211880E+02  0.46731813353E+02  0.57348209651E+02  0.00000000000E+00 0. -1.
        -13    1    3    3    0    0  0.20636866966E+03  0.22637015066E+03  0.37107420805E+03  0.48117308820E+03  0.00000000000E+00 0.  1.
          2    1    6    6  502    0 -0.25115350768E+03 -0.27472786373E+03  0.51494064668E+03  0.63538756136E+03  0.00000000000E+00 0. -1.
          3    1    5    5  503    0  0.14048083071E+03  0.62006892710E+02  0.14027013705E+04  0.14110814482E+04  0.00000000000E+00 0. -1.
         -4    1    5    5    0  503  0.10922968219E+02  0.17898926437E+01  0.53854412942E+03  0.53865786385E+03  0.00000000000E+00 0.  1.
         -1    1    6    6    0  502 -0.10087720024E+03 -0.48180284164E+02  0.13490712694E+03  0.17520696964E+03  0.00000000000E+00 0.  1.
<mgrwt>
<rscale>  0 0.13523943E+04</rscale>
<asrwt>0</asrwt>
<pdfrwt beam="1">  1        1 0.48521183E+00 0.13523943E+04</pdfrwt>
<pdfrwt beam="2">  1       -1 0.22304298E-01 0.13523943E+04</pdfrwt>
<totfact> 0.77489336E+00</totfact>
</mgrwt>
</event>
<event>
12    1  0.1532786E-007  0.1667482E+04  0.7818608E-02  0.8780131E-01
         -1   -1    0    0    0  501 -0.00000000000E+00  0.00000000000E+00  0.43921878734E+03  0.43921878734E+03  0.00000000000E+00 0.  1.
          1   -1    0    0  501    0  0.00000000000E+00 -0.00000000000E+00 -0.15826377216E+04  0.15826377216E+04  0.00000000000E+00 0. -1.
         23    2    1    2    0    0  0.20428858716E+03  0.49692757735E+03 -0.67967842076E+03  0.87096196206E+03  0.89113072781E+02 0.  0.
        254    2    1    2    0    0 -0.20428858716E+03 -0.49692757735E+03 -0.46374051346E+03  0.11508945468E+04  0.90599787536E+03 0.  0.
        -24    2    4    4    0    0 -0.28029940084E+03 -0.70562498858E+03 -0.50228595955E+03  0.91380788431E+03  0.79241943761E+02 0.  0.
         24    2    4    4    0    0  0.76010813681E+02  0.20869741123E+03  0.38545446085E+02  0.23708666253E+03  0.73430789744E+02 0.  0.
         11    1    3    3    0    0  0.15004643895E+03  0.27525122959E+03 -0.43719105487E+03  0.53797136698E+03  0.00000000000E+00 0. -1.
        -11    1    3    3    0    0  0.54242148214E+02  0.22167634776E+03 -0.24248736590E+03  0.33299059509E+03  0.00000000000E+00 0.  1.
          2    1    6    6  502    0  0.27021381172E+02  0.16797449963E+03  0.25055445186E+02  0.17196907541E+03  0.00000000000E+00 0. -1.
          3    1    5    5  503    0 -0.16689671619E+03 -0.31934434376E+03 -0.22118343690E+03  0.42279715766E+03  0.00000000000E+00 0. -1.
         -4    1    5    5    0  503 -0.11340268466E+03 -0.38628064482E+03 -0.28110252265E+03  0.49101072666E+03  0.00000000000E+00 0.  1.
         -1    1    6    6    0  502  0.48989432509E+02  0.40722911610E+02  0.13490000899E+02  0.65117587116E+02  0.00000000000E+00 0.  1.
<mgrwt>
<rscale>  0 0.16674822E+04</rscale>
<asrwt>0</asrwt>
<pdfrwt beam="1">  1        1 0.24348272E+00 0.16674822E+04</pdfrwt>
<pdfrwt beam="2">  1       -1 0.67572123E-01 0.16674822E+04</pdfrwt>
<totfact> 0.12138181E+01</totfact>
</mgrwt>
</event>
<event>
12    1  0.1532786E-007  0.2495241E+04  0.7818608E-02  0.8404683E-01
         -3   -1    0    0    0  501 -0.00000000000E+00  0.00000000000E+00  0.83779535826E+03  0.83779535826E+03  0.00000000000E+00 0.  1.
          3   -1    0    0  501    0  0.00000000000E+00 -0.00000000000E+00 -0.18579197130E+04  0.18579197130E+04  0.00000000000E+00 0. -1.
         23    2    1    2    0    0  0.90625063180E+03  0.88268458603E+02 -0.10736460674E+04  0.14109801888E+04  0.95224400710E+02 0.  0.
        254    2    1    2    0    0 -0.90625063180E+03 -0.88268458603E+02  0.53521712747E+02  0.12847348825E+04  0.90476384545E+03 0.  0.
        -24    2    4    4    0    0 -0.78013716511E+03 -0.23850213444E+03 -0.29978551549E+03  0.87262129045E+03  0.78097994372E+02 0.  0.
         24    2    4    4    0    0 -0.12611346669E+03  0.15023367583E+03  0.35330722824E+03  0.41211359201E+03  0.80850796896E+02 0.  0.
         13    1    3    3    0    0  0.87938479579E+03  0.89215999759E+02 -0.10115853181E+04  0.13433473004E+04  0.00000000000E+00 0. -1.
        -13    1    3    3    0    0  0.26865836015E+02 -0.94754115562E+00 -0.62060749342E+02  0.67632888360E+02  0.00000000000E+00 0.  1.
          4    1    6    6  502    0 -0.78167325873E+01  0.20077163651E+02  0.53029135203E+01  0.22188165774E+02  0.00000000000E+00 0. -1.
          3    1    5    5  503    0 -0.26029552954E+03 -0.11799678767E+03 -0.11079617528E+03  0.30651720515E+03  0.00000000000E+00 0. -1.
         -2    1    5    5    0  503 -0.51984163557E+03 -0.12050534677E+03 -0.18898934021E+03  0.56610408529E+03  0.00000000000E+00 0.  1.
         -3    1    6    6    0  502 -0.11829673411E+03  0.13015651218E+03  0.34800431472E+03  0.38992542624E+03  0.00000000000E+00 0.  1.
<mgrwt>
<rscale>  0 0.24952407E+04</rscale>
<asrwt>0</asrwt>
<pdfrwt beam="1">  1        3 0.28583380E+00 0.24952407E+04</pdfrwt>
<pdfrwt beam="2">  1       -3 0.12889160E+00 0.24952407E+04</pdfrwt>
<totfact> 0.51064422E-02</totfact>
</mgrwt>
</event>
<event>
12    1  0.1532786E-007  0.2518736E+04  0.7818608E-02  0.8396341E-01
         -2   -1    0    0    0  501 -0.00000000000E+00  0.00000000000E+00  0.80994142825E+03  0.80994142825E+03  0.00000000000E+00 0. -1.
          2   -1    0    0  501    0  0.00000000000E+00 -0.00000000000E+00 -0.19581762418E+04  0.19581762418E+04  0.00000000000E+00 0.  1.
         23    2    1    2    0    0  0.41925318661E+03  0.44461524389E+03  0.49576735995E+03  0.79198309474E+03  0.89420342089E+02 0.  0.
        254    2    1    2    0    0 -0.41925318661E+03 -0.44461524389E+03 -0.16440021735E+04  0.19761345753E+04  0.91044426720E+03 0.  0.
        -24    2    4    4    0    0 -0.36490507333E+03 -0.32701977745E+03 -0.21794757380E+03  0.54202784714E+03  0.78710830049E+02 0.  0.
         24    2    4    4    0    0 -0.54348113272E+02 -0.11759546644E+03 -0.14260545997E+04  0.14341067281E+04  0.79044135155E+02 0.  0.
         13    1    3    3    0    0  0.25468709266E+03  0.27444994961E+03  0.35832600661E+03  0.51825265751E+03  0.00000000000E+00 0. -1.
        -13    1    3    3    0    0  0.16456609394E+03  0.17016529428E+03  0.13744135334E+03  0.27373043722E+03  0.00000000000E+00 0.  1.
          2    1    6    6  502    0 -0.66914556643E+02 -0.11677651993E+03 -0.11650094047E+04  0.11727579574E+04  0.00000000000E+00 0. -1.
          3    1    5    5  503    0 -0.20657253536E+03 -0.13485384736E+03 -0.95217703463E+02  0.26443181269E+03  0.00000000000E+00 0. -1.
         -4    1    5    5    0  503 -0.15833253797E+03 -0.19216593009E+03 -0.12272987034E+03  0.27759603445E+03  0.00000000000E+00 0.  1.
         -1    1    6    6    0  502  0.12566443372E+02 -0.81894650749E+00 -0.26104519496E+03  0.26134877077E+03  0.00000000000E+00 0.  1.
<mgrwt>
<rscale>  0 0.25187362E+04</rscale>
<asrwt>0</asrwt>
<pdfrwt beam="1">  1        2 0.30125788E+00 0.25187362E+04</pdfrwt>
<pdfrwt beam="2">  1       -2 0.12460637E+00 0.25187362E+04</pdfrwt>
<totfact> 0.30337620E+00</totfact>
</mgrwt>
</event>
<event>
12    1  0.1806438E-007  0.1568838E+04  0.7818608E-02  0.8839924E-01
          2   -1    0    0  501    0  0.00000000000E+00  0.00000000000E+00  0.88460888937E+03  0.88460888937E+03  0.00000000000E+00 0.  1.
         -2   -1    0    0    0  501 -0.00000000000E+00 -0.00000000000E+00 -0.69557659834E+03  0.69557659834E+03  0.00000000000E+00 0. -1.
         23    2    1    2    0    0  0.30393434912E+03  0.99217355892E+02  0.46572346013E+03  0.57183590673E+03  0.88756918702E+02 0.  0.
        254    2    1    2    0    0 -0.30393434912E+03 -0.99217355892E+02 -0.27669116910E+03  0.10083495810E+04  0.91541832084E+03 0.  0.
        -24    2    4    4    0    0 -0.45460577765E+03 -0.40797468963E+02  0.19472076239E+03  0.50354443348E+03  0.85498389713E+02 0.  0.
         24    2    4    4    0    0  0.15067142852E+03 -0.58419886929E+02 -0.47141193149E+03  0.50480514750E+03  0.80524935448E+02 0.  0.
         11    1    3    3    0    0  0.82742739679E+02  0.23158601889E+01  0.17726717730E+03  0.19564093725E+03  0.00000000000E+00 0. -1.
        -11    1    3    3    0    0  0.22119160944E+03  0.96901495703E+02  0.28845628283E+03  0.37619496948E+03  0.00000000000E+00 0.  1.
          2    1    6    6  502    0  0.14852386172E+03 -0.34661042221E+02 -0.43766743350E+03  0.46347978132E+03  0.00000000000E+00 0. -1.
          1    1    5    5  503    0 -0.44628551927E+03 -0.34655242474E+02  0.20179739643E+03  0.49101317676E+03  0.00000000000E+00 0. -1.
         -2    1    5    5    0  503 -0.83202583744E+01 -0.61422264890E+01 -0.70766340468E+01  0.12531256724E+02  0.00000000000E+00 0.  1.
         -1    1    6    6    0  502  0.21475668032E+01 -0.23758844709E+02 -0.33744497987E+02  0.41325366174E+02  0.00000000000E+00 0.  1.
<mgrwt>
<rscale>  0 0.15688381E+04</rscale>
<asrwt>0</asrwt>
<pdfrwt beam="1">  1        2 0.13609368E+00 0.15688381E+04</pdfrwt>
<pdfrwt beam="2">  1       -2 0.10701178E+00 0.15688381E+04</pdfrwt>
<totfact> 0.20278697E+01</totfact>
</mgrwt>
</event>
<event>
12    1  0.1603744E-007  0.2530016E+04  0.7818608E-02  0.8392370E-01
         -1   -1    0    0    0  501 -0.00000000000E+00  0.00000000000E+00  0.18016381063E+04  0.18016381063E+04  0.00000000000E+00 0.  1.
          1   -1    0    0  501    0  0.00000000000E+00 -0.00000000000E+00 -0.88821674062E+03  0.88821674062E+03  0.00000000000E+00 0. -1.
         23    2    1    2    0    0  0.76577820622E+03 -0.67940572455E+03  0.16767234405E+02  0.10279049616E+04  0.91099232950E+02 0.  0.
        254    2    1    2    0    0 -0.76577820622E+03  0.67940572455E+03  0.89665413125E+03  0.16619498853E+04  0.95398133658E+03 0.  0.
        -24    2    4    4    0    0 -0.23128062794E+03 -0.23278129567E+03  0.24449875784E+03  0.41719354051E+03  0.81196965362E+02 0.  0.
         24    2    4    4    0    0 -0.53449757828E+03  0.91218702022E+03  0.65215537341E+03  0.12447563448E+04  0.79617245799E+02 0.  0.
         13    1    3    3    0    0  0.24963581839E+02 -0.44354119200E+01  0.37262716670E+01  0.25626907689E+02  0.00000000000E+00 0.  1.
        -13    1    3    3    0    0  0.74081462438E+03 -0.67497031263E+03  0.13040962738E+02  0.10022780539E+04  0.00000000000E+00 0. -1.
          4    1    6    6  502    0 -0.46257550163E+03  0.73489902688E+03  0.54973005654E+03  0.10277430659E+04  0.00000000000E+00 0. -1.
          1    1    5    5  503    0 -0.22679734791E+03 -0.23200906999E+03  0.21935128123E+03  0.39163788140E+03  0.00000000000E+00 0. -1.
         -2    1    5    5    0  503 -0.44832800315E+01 -0.77222568418E+00  0.25147476615E+02  0.25555659108E+02  0.00000000000E+00 0.  1.
         -3    1    6    6    0  502 -0.71922076653E+02  0.17728799333E+03  0.10242531686E+03  0.21701327891E+03  0.00000000000E+00 0.  1.
<mgrwt>
<rscale>  0 0.25300159E+04</rscale>
<asrwt>0</asrwt>
<pdfrwt beam="1">  1        1 0.13664873E+00 0.25300159E+04</pdfrwt>
<pdfrwt beam="2">  1       -1 0.27717509E+00 0.25300159E+04</pdfrwt>
<totfact> 0.76542176E-01</totfact>
</mgrwt>
</event>
<event>
12    1  0.1532786E-007  0.1531952E+04  0.7818608E-02  0.8863479E-01
          2   -1    0    0  501    0  0.00000000000E+00  0.00000000000E+00  0.96038972277E+03  0.96038972277E+03  0.00000000000E+00 0. -1.
         -2   -1    0    0    0  501 -0.00000000000E+00 -0.00000000000E+00 -0.61091767851E+03  0.61091767851E+03  0.00000000000E+00 0.  1.
         23    2    1    2    0    0  0.12728955587E+02 -0.10090126887E+03  0.61602097207E+03  0.63065032330E+03  0.88853249068E+02 0.  0.
        254    2    1    2    0    0 -0.12728955587E+02  0.10090126887E+03 -0.26654892782E+03  0.94065707798E+03  0.89635055367E+03 0.  0.
        -24    2    4    4    0    0 -0.28307391754E+03 -0.10039689762E+03 -0.45106080834E+03  0.54818050476E+03  0.82677887838E+02 0.  0.
         24    2    4    4    0    0  0.27034496195E+03  0.20129816649E+03  0.18451188051E+03  0.39247657323E+03  0.79911677481E+02 0.  0.
         11    1    3    3    0    0 -0.27421402126E+02 -0.88259074071E+02  0.39635205547E+03  0.40698470404E+03  0.00000000000E+00 0. -1.
        -11    1    3    3    0    0  0.40150357713E+02 -0.12642194796E+02  0.21966891661E+03  0.22366561925E+03  0.00000000000E+00 0.  1.
          2    1    6    6  502    0  0.19305966511E+03  0.95798778862E+02  0.11939254137E+03  0.24638185660E+03  0.00000000000E+00 0. -1.
          3    1    5    5  503    0 -0.38780322346E+02  0.12159145207E+02 -0.40651859610E+02  0.57483318478E+02  0.00000000000E+00 0. -1.
         -4    1    5    5    0  503 -0.24429359519E+03 -0.11255604283E+03 -0.41040894873E+03  0.49069718628E+03  0.00000000000E+00 0.  1.
         -1    1    6    6    0  502  0.77285296834E+02  0.10549938763E+03  0.65119339142E+02  0.14609471663E+03  0.00000000000E+00 0.  1.
<mgrwt>
<rscale>  0 0.15319518E+04</rscale>
<asrwt>0</asrwt>
<pdfrwt beam="1">  1        2 0.14775227E+00 0.15319518E+04</pdfrwt>
<pdfrwt beam="2">  1       -2 0.93987335E-01 0.15319518E+04</pdfrwt>
<totfact> 0.24623707E+01</totfact>
</mgrwt>
</event>
<event>
12    1  0.1532786E-007  0.1534902E+04  0.7818608E-02  0.8861570E-01
         -2   -1    0    0    0  501 -0.00000000000E+00  0.00000000000E+00  0.14639723710E+03  0.14639723710E+03  0.00000000000E+00 0.  1.
          2   -1    0    0  501    0  0.00000000000E+00 -0.00000000000E+00 -0.40231691148E+04  0.40231691148E+04  0.00000000000E+00 0. -1.
         23    2    1    2    0    0  0.25902244180E+03  0.24665246010E+03 -0.32775020315E+03  0.49358742779E+03  0.90985118460E+02 0.  0.
        254    2    1    2    0    0 -0.25902244180E+03 -0.24665246010E+03 -0.35490216746E+04  0.36759789241E+04  0.88844591427E+03 0.  0.
        -24    2    4    4    0    0 -0.36486885136E+03  0.62277043872E+02 -0.30548324480E+04  0.30781612273E+04  0.77894461328E+02 0.  0.
         24    2    4    4    0    0  0.10584640956E+03 -0.30892950397E+03 -0.49418922656E+03  0.59781769679E+03  0.80759557423E+02 0.  0.
         11    1    3    3    0    0  0.17580598149E+03  0.21595303270E+03 -0.22625683632E+03  0.35879745183E+03  0.00000000000E+00 0.  1.
        -11    1    3    3    0    0  0.83216460310E+02  0.30699427400E+02 -0.10149336683E+03  0.13478997596E+03  0.00000000000E+00 0. -1.
          2    1    6    6  502    0  0.34611443795E+02 -0.29715300115E+02 -0.44520285534E+02  0.63741720455E+02  0.00000000000E+00 0. -1.
          3    1    5    5  503    0 -0.64681805664E+02 -0.16908060645E+02 -0.62924731967E+03  0.63278891252E+03  0.00000000000E+00 0. -1.
         -4    1    5    5    0  503 -0.30018704570E+03  0.79185104517E+02 -0.24255851283E+04  0.24453723148E+04  0.00000000000E+00 0.  1.
         -3    1    6    6    0  502  0.71234965763E+02 -0.27921420385E+03 -0.44966894103E+03  0.53407597634E+03  0.00000000000E+00 0.  1.
<mgrwt>
<rscale>  0 0.15349017E+04</rscale>
<asrwt>0</asrwt>
<pdfrwt beam="1">  1        2 0.61894902E+00 0.15349017E+04</pdfrwt>
<pdfrwt beam="2">  1       -2 0.22522655E-01 0.15349017E+04</pdfrwt>
<totfact> 0.55924524E+00</totfact>
</mgrwt>
</event>
<event>
12    1  0.1532786E-007  0.1316460E+04  0.7818608E-02  0.9016613E-01
         -2   -1    0    0    0  501 -0.00000000000E+00  0.00000000000E+00  0.43560790812E+03  0.43560790812E+03  0.00000000000E+00 0. -1.
          2   -1    0    0  501    0  0.00000000000E+00 -0.00000000000E+00 -0.99462490109E+03  0.99462490109E+03  0.00000000000E+00 0.  1.
         23    2    1    2    0    0 -0.10094651205E+03 -0.14169127955E+03  0.16957011794E+03  0.26004985600E+03  0.92764679223E+02 0.  0.
        254    2    1    2    0    0  0.10094651205E+03  0.14169127955E+03 -0.72858711091E+03  0.11701829532E+04  0.89901187358E+03 0.  0.
        -24    2    4    4    0    0  0.39194802206E+03 -0.12617254738E+03 -0.62589125772E+03  0.75350690441E+03  0.80560690113E+02 0.  0.
         24    2    4    4    0    0 -0.29100151001E+03  0.26786382693E+03 -0.10269585318E+03  0.41667604881E+03  0.81483635101E+02 0.  0.
         13    1    3    3    0    0  0.19017496027E+01 -0.48963893338E+02  0.84056501767E+02  0.97296325684E+02  0.00000000000E+00 0. -1.
        -13    1    3    3    0    0 -0.10284826165E+03 -0.92727386210E+02  0.85513616169E+02  0.16275353031E+03  0.00000000000E+00 0.  1.
          4    1    6    6  502    0 -0.19370526751E+02  0.50571464810E+02 -0.27725686357E+02  0.60839165375E+02  0.00000000000E+00 0. -1.
          3    1    5    5  503    0  0.85834781008E+02 -0.58073169372E+02 -0.12286856822E+03  0.16073825832E+03  0.00000000000E+00 0. -1.
         -4    1    5    5    0  503  0.30611324105E+03 -0.68099378012E+02 -0.50302268950E+03  0.59276864609E+03  0.00000000000E+00 0.  1.
         -3    1    6    6    0  502 -0.27163098326E+03  0.21729236212E+03 -0.74970166828E+02  0.35583688344E+03  0.00000000000E+00 0.  1.
<mgrwt>
<rscale>  0 0.13164596E+04</rscale>
<asrwt>0</asrwt>
<pdfrwt beam="1">  1        2 0.15301921E+00 0.13164596E+04</pdfrwt>
<pdfrwt beam="2">  1       -2 0.67016602E-01 0.13164596E+04</pdfrwt>
<totfact> 0.50816257E+01</totfact>
</mgrwt>
</event>
<event>
12    1  0.1532786E-007  0.2482826E+04  0.7818608E-02  0.8409129E-01
         -1   -1    0    0    0  501 -0.00000000000E+00  0.00000000000E+00  0.14781181728E+04  0.14781181728E+04  0.00000000000E+00 0.  1.
          1   -1    0    0  501    0  0.00000000000E+00 -0.00000000000E+00 -0.10426140454E+04  0.10426140454E+04  0.00000000000E+00 0. -1.
         23    2    1    2    0    0  0.42690806762E+02  0.92760606833E+03 -0.36397618188E+03  0.10017114877E+04  0.93122073333E+02 0.  0.
        254    2    1    2    0    0 -0.42690806762E+02 -0.92760606833E+03  0.79948030930E+03  0.15190207305E+04  0.89776371706E+03 0.  0.
        -24    2    4    4    0    0 -0.75459925068E+02 -0.35752848724E+03 -0.15299624958E+03  0.40578880131E+03  0.87953848137E+02 0.  0.
         24    2    4    4    0    0  0.32769118306E+02 -0.57007758109E+03  0.95247655888E+03  0.11132319292E+04  0.77533665719E+02 0.  0.
         11    1    3    3    0    0  0.14831666226E+02  0.46839101807E+02 -0.38121169661E+02  0.62186038284E+02  0.00000000000E+00 0.  1.
        -11    1    3    3    0    0  0.27859140536E+02  0.88076696653E+03 -0.32585501222E+03  0.93952544937E+03  0.00000000000E+00 0. -1.
          2    1    6    6  502    0 -0.24464585640E+02 -0.23345496864E+03  0.37943146086E+03  0.44617033947E+03  0.00000000000E+00 0. -1.
          1    1    5    5  503    0 -0.12438696182E+02 -0.94945845680E+02 -0.69146243013E+00  0.95759662149E+02  0.00000000000E+00 0. -1.
         -2    1    5    5    0  503 -0.63021228886E+02 -0.26258264156E+03 -0.15230478715E+03  0.31002913916E+03  0.00000000000E+00 0.  1.
         -1    1    6    6    0  502  0.57233703946E+02 -0.33662261245E+03  0.57304509802E+03  0.66706158970E+03  0.00000000000E+00 0.  1.
<mgrwt>
<rscale>  0 0.24828264E+04</rscale>
<asrwt>0</asrwt>
<pdfrwt beam="1">  1        1 0.16040216E+00 0.24828264E+04</pdfrwt>
<pdfrwt beam="2">  1       -1 0.22740280E+00 0.24828264E+04</pdfrwt>
<totfact> 0.12252218E+00</totfact>
</mgrwt>
</event>
<event>
12    1  0.1532786E-007  0.1190314E+04  0.7818608E-02  0.9121377E-01
          2   -1    0    0  501    0  0.00000000000E+00  0.00000000000E+00  0.28853342827E+04  0.28853342827E+04  0.00000000000E+00 0. -1.
         -2   -1    0    0    0  501 -0.00000000000E+00 -0.00000000000E+00 -0.12276279536E+03  0.12276279536E+03  0.00000000000E+00 0.  1.
         23    2    1    2    0    0 -0.11379801300E+03  0.10885370086E+03  0.12848908517E+03  0.22165305797E+03  0.88439341600E+02 0.  0.
        254    2    1    2    0    0  0.11379801300E+03 -0.10885370086E+03  0.26340824022E+04  0.27864440201E+04  0.89503131778E+03 0.  0.
        -24    2    4    4    0    0 -0.56676748430E+02  0.36848551151E+03  0.88060850414E+03  0.95947516685E+03  0.78277916690E+02 0.  0.
         24    2    4    4    0    0  0.17047476143E+03 -0.47733921237E+03  0.17534738980E+04  0.18269688532E+04  0.78931056793E+02 0.  0.
         13    1    3    3    0    0 -0.20386629571E+02  0.37145632011E+01  0.63361943757E+02  0.66664447509E+02  0.00000000000E+00 0. -1.
        -13    1    3    3    0    0 -0.93411383431E+02  0.10513913766E+03  0.65127141418E+02  0.15498861046E+03  0.00000000000E+00 0.  1.
          4    1    6    6  502    0  0.39384793264E+02 -0.39283168522E+02  0.17926768619E+03  0.18769984704E+03  0.00000000000E+00 0. -1.
          1    1    5    5  503    0 -0.61065045014E+02  0.19323298793E+03  0.41184646307E+03  0.45900483275E+03  0.00000000000E+00 0. -1.
         -2    1    5    5    0  503  0.43882965838E+01  0.17525252358E+03  0.46876204107E+03  0.50047033410E+03  0.00000000000E+00 0.  1.
         -3    1    6    6    0  502  0.13108996817E+03 -0.43805604385E+03  0.15742062118E+04  0.16392690062E+04  0.00000000000E+00 0.  1.
<mgrwt>
<rscale>  0 0.11903137E+04</rscale>
<asrwt>0</asrwt>
<pdfrwt beam="1">  1        2 0.44389753E+00 0.11903137E+04</pdfrwt>
<pdfrwt beam="2">  1       -2 0.18886586E-01 0.11903137E+04</pdfrwt>
<totfact> 0.48474992E+01</totfact>
</mgrwt>
</event>
<event>
12    1  0.1532786E-007  0.1217251E+04  0.7818608E-02  0.9097889E-01
          1   -1    0    0  501    0  0.00000000000E+00  0.00000000000E+00  0.15131541644E+04  0.15131541644E+04  0.00000000000E+00 0. -1.
         -1   -1    0    0    0  501 -0.00000000000E+00 -0.00000000000E+00 -0.24480317311E+03  0.24480317311E+03  0.00000000000E+00 0.  1.
         23    2    1    2    0    0  0.12657467342E+03  0.20044356954E+03  0.48325149245E+03  0.54541903906E+03  0.88040619503E+02 0.  0.
        254    2    1    2    0    0 -0.12657467342E+03 -0.20044356954E+03  0.78509949884E+03  0.12125382985E+04  0.89312324437E+03 0.  0.
        -24    2    4    4    0    0 -0.20489329950E+02  0.34171179512E+02  0.91068016950E+03  0.91498131777E+03  0.79151491460E+02 0.  0.
         24    2    4    4    0    0 -0.10608534347E+03 -0.23461474906E+03 -0.12558067066E+03  0.29755698069E+03  0.80445455702E+02 0.  0.
         13    1    3    3    0    0  0.82207267501E+02  0.75863988775E+02  0.15184032720E+03  0.18859709592E+03  0.00000000000E+00 0.  1.
        -13    1    3    3    0    0  0.44367405915E+02  0.12457958077E+03  0.33141116525E+03  0.35682194314E+03  0.00000000000E+00 0. -1.
          4    1    6    6  502    0  0.72906309024E+01 -0.49175496591E+02 -0.77283313916E+01  0.50310136852E+02  0.00000000000E+00 0. -1.
          3    1    5    5  503    0 -0.45459086348E+02  0.28573820420E+02  0.39074834520E+03  0.39442015798E+03  0.00000000000E+00 0. -1.
         -4    1    5    5    0  503  0.24969756399E+02  0.55973590919E+01  0.51993182430E+03  0.52056115979E+03  0.00000000000E+00 0.  1.
         -3    1    6    6    0  502 -0.11337597437E+03 -0.18543925246E+03 -0.11785233927E+03  0.24724684384E+03  0.00000000000E+00 0.  1.
<mgrwt>
<rscale>  0 0.12172509E+04</rscale>
<asrwt>0</asrwt>
<pdfrwt beam="1">  1        1 0.23279294E+00 0.12172509E+04</pdfrwt>
<pdfrwt beam="2">  1       -1 0.37662027E-01 0.12172509E+04</pdfrwt>
<totfact> 0.43037656E+01</totfact>
</mgrwt>
</event>
<event>
12    1  0.1532786E-007  0.2898595E+04  0.7818608E-02  0.8273296E-01
          2   -1    0    0  501    0  0.00000000000E+00  0.00000000000E+00  0.19824791466E+04  0.19824791466E+04  0.00000000000E+00 0. -1.
         -2   -1    0    0    0  501 -0.00000000000E+00 -0.00000000000E+00 -0.10595132725E+04  0.10595132725E+04  0.00000000000E+00 0.  1.
         23    2    1    2    0    0 -0.18606580366E+03  0.40730488949E+02 -0.93569641468E+03  0.95917834863E+03  0.90641425503E+02 0.  0.
        254    2    1    2    0    0  0.18606580366E+03 -0.40730488949E+02  0.18586622888E+04  0.20828140705E+04  0.92043983629E+03 0.  0.
        -24    2    4    4    0    0 -0.24154534009E+03 -0.28627602900E+03  0.11767864522E+04  0.12374490632E+04  0.78458356492E+02 0.  0.
         24    2    4    4    0    0  0.42761114375E+03  0.24554554005E+03  0.68187583659E+03  0.84536500729E+03  0.80891510846E+02 0.  0.
         11    1    3    3    0    0 -0.82391166620E+02 -0.26078722351E+02 -0.33649724521E+03  0.34741732848E+03  0.00000000000E+00 0. -1.
        -11    1    3    3    0    0 -0.10367463704E+03  0.66809211299E+02 -0.59919916947E+03  0.61176102015E+03  0.00000000000E+00 0.  1.
          2    1    6    6  502    0  0.32779516892E+03  0.21277487258E+03  0.57726401115E+03  0.69710584400E+03  0.00000000000E+00 0. -1.
          3    1    5    5  503    0 -0.11956043426E+03 -0.19683260413E+03  0.66305049221E+03  0.70190720663E+03  0.00000000000E+00 0. -1.
         -4    1    5    5    0  503 -0.12198490582E+03 -0.89443424870E+02  0.51373596004E+03  0.53554185657E+03  0.00000000000E+00 0.  1.
         -1    1    6    6    0  502  0.99815974827E+02  0.32770667472E+02  0.10461182543E+03  0.14825916328E+03  0.00000000000E+00 0.  1.
<mgrwt>
<rscale>  0 0.28985948E+04</rscale>
<asrwt>0</asrwt>
<pdfrwt beam="1">  1        2 0.30499679E+00 0.28985948E+04</pdfrwt>
<pdfrwt beam="2">  1       -2 0.16300204E+00 0.28985948E+04</pdfrwt>
<totfact> 0.14121173E+00</totfact>
</mgrwt>
</event>
<event>
12    1  0.1532786E-007  0.2454580E+04  0.7818608E-02  0.8419348E-01
         -1   -1    0    0    0  501 -0.00000000000E+00  0.00000000000E+00  0.24646979143E+04  0.24646979143E+04  0.00000000000E+00 0.  1.
          1   -1    0    0  501    0  0.00000000000E+00 -0.00000000000E+00 -0.61112612617E+03  0.61112612617E+03  0.00000000000E+00 0. -1.
         23    2    1    2    0    0 -0.13465019419E+03  0.11176956670E+03 -0.50735744492E+03  0.54417813863E+03  0.89973100468E+02 0.  0.
        254    2    1    2    0    0  0.13465019419E+03 -0.11176956670E+03  0.23609292331E+04  0.25316459019E+04  0.89700669894E+03 0.  0.
        -24    2    4    4    0    0 -0.12485717767E+03  0.34883157371E+03  0.99756810121E+03  0.10671721944E+04  0.80259543625E+02 0.  0.
         24    2    4    4    0    0  0.25950737185E+03 -0.46060114041E+03  0.13633611319E+04  0.14644737074E+04  0.80200856067E+02 0.  0.
         13    1    3    3    0    0 -0.79262993510E+02  0.17991018907E+02 -0.15017546773E+03  0.17075997778E+03  0.00000000000E+00 0.  1.
        -13    1    3    3    0    0 -0.55387200680E+02  0.93778547792E+02 -0.35718197719E+03  0.37341816085E+03  0.00000000000E+00 0. -1.
          2    1    6    6  502    0  0.19648073074E+02 -0.97531595912E+02  0.26412925839E+03  0.28224585757E+03  0.00000000000E+00 0. -1.
          3    1    5    5  503    0 -0.15892946200E+01  0.82424467632E+02  0.27999916846E+03  0.29188328671E+03  0.00000000000E+00 0. -1.
         -4    1    5    5    0  503 -0.12326788305E+03  0.26640710608E+03  0.71756893275E+03  0.77528890771E+03  0.00000000000E+00 0.  1.
         -1    1    6    6    0  502  0.23985929878E+03 -0.36306954450E+03  0.10992318735E+04  0.11822278499E+04  0.00000000000E+00 0.  1.
<mgrwt>
<rscale>  0 0.24545804E+04</rscale>
<asrwt>0</asrwt>
<pdfrwt beam="1">  1        1 0.94019405E-01 0.24545804E+04</pdfrwt>
<pdfrwt beam="2">  1       -1 0.37918429E+00 0.24545804E+04</pdfrwt>
<totfact> 0.29481226E-01</totfact>
</mgrwt>
</event>
<event>
12    1  0.1532786E-007  0.1700821E+04  0.7818608E-02  0.8760896E-01
          2   -1    0    0  501    0  0.00000000000E+00  0.00000000000E+00  0.19392238232E+04  0.19392238232E+04  0.00000000000E+00 0. -1.
         -2   -1    0    0    0  501 -0.00000000000E+00 -0.00000000000E+00 -0.37293151781E+03  0.37293151781E+03  0.00000000000E+00 0.  1.
         23    2    1    2    0    0  0.49930366231E+03  0.27297619545E+03  0.26947153405E+03  0.63606519656E+03  0.90243427058E+02 0.  0.
        254    2    1    2    0    0 -0.49930366231E+03 -0.27297619545E+03  0.12968207714E+04  0.16760901445E+04  0.89650092521E+03 0.  0.
        -24    2    4    4    0    0 -0.19405174695E+03  0.30893639182E+03  0.65590809697E+03  0.75476233676E+03  0.79705574639E+02 0.  0.
         24    2    4    4    0    0 -0.30525191536E+03 -0.58191258727E+03  0.64091267439E+03  0.92132780772E+03  0.79214152924E+02 0.  0.
         13    1    3    3    0    0  0.34206293078E+03  0.19736740144E+03  0.23059205656E+03  0.45731131225E+03  0.00000000000E+00 0.  1.
        -13    1    3    3    0    0  0.15724073153E+03  0.75608794013E+02  0.38879477490E+02  0.17875388431E+03  0.00000000000E+00 0. -1.
          4    1    6    6  502    0 -0.94760841458E+02 -0.25078092471E+03  0.23083690703E+03  0.35377445770E+03  0.00000000000E+00 0. -1.
          3    1    5    5  503    0 -0.88110821845E+02  0.77952367547E+02  0.24178641721E+03  0.26888800658E+03  0.00000000000E+00 0. -1.
         -4    1    5    5    0  503 -0.10594092511E+03  0.23098402427E+03  0.41412167976E+03  0.48587433018E+03  0.00000000000E+00 0.  1.
         -3    1    6    6    0  502 -0.21049107390E+03 -0.33113166257E+03  0.41007576736E+03  0.56755335002E+03  0.00000000000E+00 0.  1.
<mgrwt>
<rscale>  0 0.17008206E+04</rscale>
<asrwt>0</asrwt>
<pdfrwt beam="1">  1        2 0.29834212E+00 0.17008206E+04</pdfrwt>
<pdfrwt beam="2">  1       -2 0.57374081E-01 0.17008206E+04</pdfrwt>
<totfact> 0.19557777E+01</totfact>
</mgrwt>
</event>
<event>
12    1  0.1532786E-007  0.1145552E+04  0.7818608E-02  0.9161897E-01
          2   -1    0    0  501    0  0.00000000000E+00  0.00000000000E+00  0.21558483221E+04  0.21558483221E+04  0.00000000000E+00 0. -1.
         -2   -1    0    0    0  501 -0.00000000000E+00 -0.00000000000E+00 -0.15217780904E+03  0.15217780904E+03  0.00000000000E+00 0.  1.
         23    2    1    2    0    0  0.20648492999E+03 -0.69462297016E+02  0.39138133833E+03  0.45714673719E+03  0.91338657256E+02 0.  0.
        254    2    1    2    0    0 -0.20648492999E+03  0.69462297016E+02  0.16122891747E+04  0.18508793939E+04  0.88250615349E+03 0.  0.
        -24    2    4    4    0    0 -0.16638900041E+03  0.24799081580E+03  0.16219040938E+04  0.16510218440E+04  0.78201635740E+02 0.  0.
         24    2    4    4    0    0 -0.40095929579E+02 -0.17852851878E+03 -0.96149190340E+01  0.19985754994E+03  0.79815274298E+02 0.  0.
         11    1    3    3    0    0  0.57598817801E+02  0.42395295791E+01  0.45809994218E+02  0.73716707695E+02  0.00000000000E+00 0. -1.
        -11    1    3    3    0    0  0.14888611219E+03 -0.73701826595E+02  0.34557134411E+03  0.38343002949E+03  0.00000000000E+00 0.  1.
          2    1    6    6  502    0  0.21060525239E+02 -0.86039791377E+02 -0.21328697302E+00  0.88580115798E+02  0.00000000000E+00 0. -1.
          3    1    5    5  503    0 -0.26745173401E+02  0.11566598502E+02  0.86992711733E+02  0.91743241690E+02  0.00000000000E+00 0. -1.
         -4    1    5    5    0  503 -0.13964382701E+03  0.23642421730E+03  0.15349113820E+04  0.15592786023E+04  0.00000000000E+00 0.  1.
         -1    1    6    6    0  502 -0.61156454818E+02 -0.92488727408E+02 -0.94016320609E+01  0.11127743414E+03  0.00000000000E+00 0.  1.
<mgrwt>
<rscale>  0 0.11455519E+04</rscale>
<asrwt>0</asrwt>
<pdfrwt beam="1">  1        2 0.33166895E+00 0.11455519E+04</pdfrwt>
<pdfrwt beam="2">  1       -2 0.23411972E-01 0.11455519E+04</pdfrwt>
<totfact> 0.87723402E+01</totfact>
</mgrwt>
</event>
<event>
12    1  0.1532786E-007  0.1479901E+04  0.7818608E-02  0.8897930E-01
         -2   -1    0    0    0  501 -0.00000000000E+00  0.00000000000E+00  0.61196740212E+03  0.61196740212E+03  0.00000000000E+00 0.  1.
          2   -1    0    0  501    0  0.00000000000E+00 -0.00000000000E+00 -0.89469914662E+03  0.89469914662E+03  0.00000000000E+00 0. -1.
         23    2    1    2    0    0  0.38932605286E+03 -0.12831119591E+03 -0.29169419274E+03  0.51452980656E+03  0.10778163729E+03 0.  0.
        254    2    1    2    0    0 -0.38932605286E+03  0.12831119591E+03  0.89624482335E+01  0.99213674217E+03  0.90344698309E+03 0.  0.
        -24    2    4    4    0    0  0.25556421279E+03 -0.11918744760E+03 -0.38982389820E+02  0.29513522476E+03  0.77887480722E+02 0.  0.
         24    2    4    4    0    0 -0.64489026565E+03  0.24749864351E+03  0.47944838053E+02  0.69700151741E+03  0.79833417283E+02 0.  0.
         11    1    3    3    0    0  0.33809945219E+02 -0.47187188694E+02 -0.53731724676E+02  0.79100198541E+02  0.00000000000E+00 0.  1.
        -11    1    3    3    0    0  0.35551610764E+03 -0.81124007218E+02 -0.23796246806E+03  0.43542960802E+03  0.00000000000E+00 0. -1.
          4    1    6    6  502    0 -0.54056720194E+03  0.19028491642E+03  0.13917512589E+02  0.57324946261E+03  0.00000000000E+00 0. -1.
          3    1    5    5  503    0  0.23234490883E+03 -0.91546652803E+02 -0.11912043174E+02  0.25001368577E+03  0.00000000000E+00 0. -1.
         -4    1    5    5    0  503  0.23219303958E+02 -0.27640794795E+02 -0.27070346645E+02  0.45121538988E+02  0.00000000000E+00 0.  1.
         -3    1    6    6    0  502 -0.10432306371E+03  0.57213727095E+02  0.34027325464E+02  0.12375205480E+03  0.00000000000E+00 0.  1.
<mgrwt>
<rscale>  0 0.14799010E+04</rscale>
<asrwt>0</asrwt>
<pdfrwt beam="1">  1        2 0.13764602E+00 0.14799010E+04</pdfrwt>
<pdfrwt beam="2">  1       -2 0.94148831E-01 0.14799010E+04</pdfrwt>
<totfact> 0.27237264E+01</totfact>
</mgrwt>
</event>
<event>
12    1  0.1532786E-007  0.2028463E+04  0.7818608E-02  0.8593428E-01
          1   -1    0    0  501    0  0.00000000000E+00  0.00000000000E+00  0.11336530868E+04  0.11336530868E+04  0.00000000000E+00 0. -1.
         -1   -1    0    0    0  501 -0.00000000000E+00 -0.00000000000E+00 -0.90739014533E+03  0.90739014533E+03  0.00000000000E+00 0.  1.
         23    2    1    2    0    0  0.51619657537E+03 -0.58682024836E+03  0.30487640448E+03  0.84382210888E+03  0.90935257766E+02 0.  0.
        254    2    1    2    0    0 -0.51619657537E+03  0.58682024836E+03 -0.78613462989E+02  0.11972211233E+04  0.90351614991E+03 0.  0.
        -24    2    4    4    0    0 -0.72775495750E+03  0.27927145112E+03 -0.17589342104E+03  0.80330619426E+03  0.82112877170E+02 0.  0.
         24    2    4    4    0    0  0.21155838213E+03  0.30754879724E+03  0.97279958053E+02  0.39391492901E+03  0.79764461570E+02 0.  0.
         13    1    3    3    0    0  0.36305789250E+03 -0.44611361903E+03  0.25928395522E+03  0.63091724007E+03  0.00000000000E+00 0. -1.
        -13    1    3    3    0    0  0.15313868287E+03 -0.14070662934E+03  0.45592449268E+02  0.21290486881E+03  0.00000000000E+00 0.  1.
          2    1    6    6  502    0  0.21103949802E+03  0.27047356451E+03  0.98138974971E+02  0.35682611624E+03  0.00000000000E+00 0. -1.
          1    1    5    5  503    0 -0.23531842273E+03  0.94363742608E+02 -0.18279553315E+02  0.25419169551E+03  0.00000000000E+00 0. -1.
         -2    1    5    5    0  503 -0.49243653477E+03  0.18490770852E+03 -0.15761386773E+03  0.54911449875E+03  0.00000000000E+00 0.  1.
         -1    1    6    6    0  502  0.51888410363E+00  0.37075232731E+02 -0.85901691801E+00  0.37088812772E+02  0.00000000000E+00 0.  1.
<mgrwt>
<rscale>  0 0.20284631E+04</rscale>
<asrwt>0</asrwt>
<pdfrwt beam="1">  1        1 0.17440817E+00 0.20284631E+04</pdfrwt>
<pdfrwt beam="2">  1       -1 0.13959848E+00 0.20284631E+04</pdfrwt>
<totfact> 0.46756373E+00</totfact>
</mgrwt>
</event>
<event>
12    1  0.1532786E-007  0.2634751E+04  0.7818608E-02  0.8356492E-01
         -1   -1    0    0    0  501 -0.00000000000E+00  0.00000000000E+00  0.73519973349E+03  0.73519973349E+03  0.00000000000E+00 0.  1.
          1   -1    0    0  501    0  0.00000000000E+00 -0.00000000000E+00 -0.23605538293E+04  0.23605538293E+04  0.00000000000E+00 0. -1.
         23    2    1    2    0    0  0.95595986059E+03  0.92268880460E+02  0.55809993406E+02  0.96629841598E+03  0.90802378889E+02 0.  0.
        254    2    1    2    0    0 -0.95595986059E+03 -0.92268880460E+02 -0.16811640892E+04  0.21294551468E+04  0.88650647261E+03 0.  0.
        -24    2    4    4    0    0 -0.65200566300E+03 -0.35786445111E+03 -0.15081384419E+04  0.16833576609E+04  0.77673061140E+02 0.  0.
         24    2    4    4    0    0 -0.30395419759E+03  0.26559557065E+03 -0.17302564728E+03  0.44609748592E+03  0.78332183375E+02 0.  0.
         13    1    3    3    0    0  0.22855508441E+03  0.55742466868E+02 -0.62537742356E+01  0.23533754251E+03  0.00000000000E+00 0. -1.
        -13    1    3    3    0    0  0.72740477618E+03  0.36526413592E+02  0.62063767642E+02  0.73096087347E+03  0.00000000000E+00 0.  1.
          2    1    6    6  502    0 -0.77319411139E+02  0.27871953855E+02 -0.43928233812E+02  0.93192418557E+02  0.00000000000E+00 0. -1.
          3    1    5    5  503    0 -0.11885090918E+03 -0.34368984307E+02 -0.27231163008E+03  0.29909929717E+03  0.00000000000E+00 0. -1.
         -4    1    5    5    0  503 -0.53315475382E+03 -0.32349546680E+03 -0.12358268118E+04  0.13842583637E+04  0.00000000000E+00 0.  1.
         -1    1    6    6    0  502 -0.22663478645E+03  0.23772361679E+03 -0.12909741347E+03  0.35290506737E+03  0.00000000000E+00 0.  1.
<mgrwt>
<rscale>  0 0.26347513E+04</rscale>
<asrwt>0</asrwt>
<pdfrwt beam="1">  1        1 0.36316213E+00 0.26347513E+04</pdfrwt>
<pdfrwt beam="2">  1       -1 0.11310765E+00 0.26347513E+04</pdfrwt>
<totfact> 0.10603139E+00</totfact>
</mgrwt>
</event>
<event>
12    1  0.1532786E-007  0.3096627E+04  0.7818608E-02  0.8216664E-01
         -2   -1    0    0    0  501 -0.00000000000E+00  0.00000000000E+00  0.13555694318E+04  0.13555694318E+04  0.00000000000E+00 0.  1.
          2   -1    0    0  501    0  0.00000000000E+00 -0.00000000000E+00 -0.17684636857E+04  0.17684636857E+04  0.00000000000E+00 0. -1.
         23    2    1    2    0    0  0.14169746074E+03  0.45473263802E+03 -0.15354309329E+04  0.16102870201E+04  0.92823460545E+02 0.  0.
        254    2    1    2    0    0 -0.14169746074E+03 -0.45473263802E+03  0.11225366790E+04  0.15137460974E+04  0.89692737111E+03 0.  0.
        -24    2    4    4    0    0  0.16585851895E+03 -0.96792526663E+02 -0.77653582868E+02  0.22180554857E+03  0.79308139037E+02 0.  0.
         24    2    4    4    0    0 -0.30755597969E+03 -0.35794011136E+03  0.12001902619E+04  0.12919405488E+04  0.77083804369E+02 0.  0.
         11    1    3    3    0    0  0.39585120974E+02  0.33967700408E+02 -0.17645917157E+03  0.18400713492E+03  0.00000000000E+00 0.  1.
        -11    1    3    3    0    0  0.10211233977E+03  0.42076493761E+03 -0.13589717614E+04  0.14262798852E+04  0.00000000000E+00 0. -1.
          2    1    6    6  502    0 -0.25207730187E+03 -0.28050824250E+03  0.86859112904E+03  0.94693103744E+03  0.00000000000E+00 0. -1.
          1    1    5    5  503    0  0.14864311349E+03 -0.88711634184E+02 -0.37128050230E+02  0.17703960388E+03  0.00000000000E+00 0. -1.
         -2    1    5    5    0  503  0.17215405459E+02 -0.80808924788E+01 -0.40525532638E+02  0.44765944690E+02  0.00000000000E+00 0.  1.
         -1    1    6    6    0  502 -0.55478677814E+02 -0.77431868862E+02  0.33159913288E+03  0.34500951136E+03  0.00000000000E+00 0.  1.
<mgrwt>
<rscale>  0 0.30966274E+04</rscale>
<asrwt>0</asrwt>
<pdfrwt beam="1">  1        2 0.27207133E+00 0.30966274E+04</pdfrwt>
<pdfrwt beam="2">  1       -2 0.20854914E+00 0.30966274E+04</pdfrwt>
<totfact> 0.89275961E-01</totfact>
</mgrwt>
</event>
<event>
12    1  0.1532786E-007  0.1404195E+04  0.7818608E-02  0.8950788E-01
          1   -1    0    0  501    0  0.00000000000E+00  0.00000000000E+00  0.15623641265E+04  0.15623641265E+04  0.00000000000E+00 0. -1.
         -1   -1    0    0    0  501 -0.00000000000E+00 -0.00000000000E+00 -0.31550947768E+03  0.31550947768E+03  0.00000000000E+00 0.  1.
         23    2    1    2    0    0 -0.17166875335E+03  0.16586158523E+03  0.81769785611E+03  0.85684760230E+03  0.92616431303E+02 0.  0.
        254    2    1    2    0    0  0.17166875335E+03 -0.16586158523E+03  0.42915679272E+03  0.10210260019E+04  0.89517502058E+03 0.  0.
        -24    2    4    4    0    0  0.22585256309E+02 -0.34232859911E+03 -0.15739413223E+03  0.38551534648E+03  0.78423248754E+02 0.  0.
         24    2    4    4    0    0  0.14908349704E+03  0.17646701387E+03  0.58655092495E+03  0.63551065541E+03  0.80407148359E+02 0.  0.
         13    1    3    3    0    0 -0.18222087830E+03  0.15937182082E+03  0.79431976695E+03  0.83039009985E+03  0.00000000000E+00 0. -1.
        -13    1    3    3    0    0  0.10552124952E+02  0.64897644106E+01  0.23378089155E+02  0.26457502445E+02  0.00000000000E+00 0.  1.
          4    1    6    6  502    0 -0.91023753514E+01  0.17105267331E+02  0.35016698569E+02  0.40020152251E+02  0.00000000000E+00 0. -1.
          1    1    5    5  503    0  0.30346392913E+02 -0.66658932032E+02 -0.53980053299E+02  0.90984410404E+02  0.00000000000E+00 0. -1.
         -2    1    5    5    0  503 -0.77611366040E+01 -0.27566966707E+03 -0.10341407893E+03  0.29453093608E+03  0.00000000000E+00 0.  1.
         -3    1    6    6    0  502  0.15818587239E+03  0.15936174654E+03  0.55153422638E+03  0.59549050316E+03  0.00000000000E+00 0.  1.
<mgrwt>
<rscale>  0 0.14041947E+04</rscale>
<asrwt>0</asrwt>
<pdfrwt beam="1">  1        1 0.24036371E+00 0.14041947E+04</pdfrwt>
<pdfrwt beam="2">  1       -1 0.48539920E-01 0.14041947E+04</pdfrwt>
<totfact> 0.24516865E+01</totfact>
</mgrwt>
</event>
<event>
12    1  0.1532786E-007  0.1145327E+04  0.7818608E-02  0.9162106E-01
          1   -1    0    0  501    0  0.00000000000E+00  0.00000000000E+00  0.69257693571E+03  0.69257693571E+03  0.00000000000E+00 0. -1.
         -1   -1    0    0    0  501 -0.00000000000E+00 -0.00000000000E+00 -0.47351171178E+03  0.47351171178E+03  0.00000000000E+00 0.  1.
         23    2    1    2    0    0  0.13840644804E+03  0.15010589432E+03  0.84753450795E+02  0.24203331867E+03  0.98533525035E+02 0.  0.
        254    2    1    2    0    0 -0.13840644804E+03 -0.15010589432E+03  0.13431177313E+03  0.92405532882E+03  0.89115120712E+03 0.  0.
        -24    2    4    4    0    0 -0.17753435906E+03  0.22800953964E+03  0.36500613056E+03  0.47269355087E+03  0.81871355661E+02 0.  0.
         24    2    4    4    0    0  0.39127911020E+02 -0.37811543396E+03 -0.23069435743E+03  0.45136177795E+03  0.77493826981E+02 0.  0.
         13    1    3    3    0    0  0.11989667895E+03  0.13144361113E+03  0.28819153434E+02  0.18023090782E+03  0.00000000000E+00 0. -1.
        -13    1    3    3    0    0  0.18509769090E+02  0.18662283198E+02  0.55934297360E+02  0.61802410852E+02  0.00000000000E+00 0.  1.
          2    1    6    6  502    0  0.58048950154E+01 -0.32574011851E+03 -0.19717996627E+03  0.38081525799E+03  0.00000000000E+00 0. -1.
          1    1    5    5  503    0 -0.13310626017E+03  0.21128257120E+03  0.32938614025E+03  0.41334347797E+03  0.00000000000E+00 0. -1.
         -4    1    5    5    0  503 -0.44428098892E+02  0.16726968442E+02  0.35619990306E+02  0.59350072905E+02  0.00000000000E+00 0.  1.
         -1    1    6    6    0  502  0.33323016005E+02 -0.52375315448E+02 -0.33514391159E+02  0.70546519961E+02  0.00000000000E+00 0.  1.
<mgrwt>
<rscale>  0 0.11453267E+04</rscale>
<asrwt>0</asrwt>
<pdfrwt beam="1">  1        1 0.10655030E+00 0.11453267E+04</pdfrwt>
<pdfrwt beam="2">  1       -1 0.72847956E-01 0.11453267E+04</pdfrwt>
<totfact> 0.52286251E+01</totfact>
</mgrwt>
</event>
<event>
12    1  0.1532786E-007  0.1846309E+04  0.7818608E-02  0.8682053E-01
         -2   -1    0    0    0  501 -0.00000000000E+00  0.00000000000E+00  0.60975857853E+03  0.60975857853E+03  0.00000000000E+00 0.  1.
          2   -1    0    0  501    0  0.00000000000E+00 -0.00000000000E+00 -0.13976262349E+04  0.13976262349E+04  0.00000000000E+00 0. -1.
         23    2    1    2    0    0 -0.32636714887E+02  0.56348883295E+03 -0.72708900337E+03  0.92503068585E+03  0.91861476821E+02 0.  0.
        254    2    1    2    0    0  0.32636714887E+02 -0.56348883295E+03 -0.60778652998E+02  0.10823541276E+04  0.92152677271E+03 0.  0.
        -24    2    4    4    0    0 -0.30984820244E+03 -0.43959431949E+03 -0.31621548607E+03  0.62901061564E+03  0.80081500180E+02 0.  0.
         24    2    4    4    0    0  0.34248491733E+03 -0.12389451346E+03  0.25543683307E+03  0.45334351194E+03  0.87330378830E+02 0.  0.
         11    1    3    3    0    0 -0.44252958654E+02  0.51522679870E+03 -0.62260441861E+03  0.80935359424E+03  0.00000000000E+00 0. -1.
        -11    1    3    3    0    0  0.11616243768E+02  0.48262034254E+02 -0.10448458476E+03  0.11567709161E+03  0.00000000000E+00 0.  1.
          4    1    6    6  502    0  0.46157454673E+02 -0.21864116279E+02  0.34286012253E+01  0.51188919787E+02  0.00000000000E+00 0. -1.
          1    1    5    5  503    0 -0.92102914420E+02 -0.18687774270E+03 -0.14684554969E+03  0.25489184574E+03  0.00000000000E+00 0. -1.
         -2    1    5    5    0  503 -0.21774528802E+03 -0.25271657679E+03 -0.16936993638E+03  0.37411876990E+03  0.00000000000E+00 0.  1.
         -1    1    6    6    0  502  0.29632746266E+03 -0.10203039718E+03  0.25200823185E+03  0.40215459216E+03  0.00000000000E+00 0.  1.
<mgrwt>
<rscale>  0 0.18463094E+04</rscale>
<asrwt>0</asrwt>
<pdfrwt beam="1">  1        2 0.21501942E+00 0.18463094E+04</pdfrwt>
<pdfrwt beam="2">  1       -2 0.93809013E-01 0.18463094E+04</pdfrwt>
<totfact> 0.13107146E+01</totfact>
</mgrwt>
</event>
<event>
12    1  0.1532786E-007  0.1640011E+04  0.7818608E-02  0.8796338E-01
          1   -1    0    0  501    0  0.00000000000E+00  0.00000000000E+00  0.12782999009E+04  0.12782999009E+04  0.00000000000E+00 0.  1.
         -1   -1    0    0    0  501 -0.00000000000E+00 -0.00000000000E+00 -0.52601791507E+03  0.52601791507E+03  0.00000000000E+00 0. -1.
         23    2    1    2    0    0 -0.40421688800E+03  0.20808269954E+03  0.63565632917E+03  0.78685454975E+03  0.91604646510E+02 0.  0.
        254    2    1    2    0    0  0.40421688800E+03 -0.20808269954E+03  0.11662565666E+03  0.10174632662E+04  0.90274041225E+03 0.  0.
        -24    2    4    4    0    0  0.48956599435E+03  0.22723071854E+03 -0.21677177395E+02  0.54601780169E+03  0.79730028653E+02 0.  0.
         24    2    4    4    0    0 -0.85349106354E+02 -0.43531341809E+03  0.13830283405E+03  0.47144546452E+03  0.79692598059E+02 0.  0.
         13    1    3    3    0    0 -0.11890060893E+03  0.76302154185E+02  0.13298010965E+03  0.19401825455E+03  0.00000000000E+00 0. -1.
        -13    1    3    3    0    0 -0.28531627907E+03  0.13178054536E+03  0.50267621952E+03  0.59283629520E+03  0.00000000000E+00 0.  1.
          2    1    6    6  502    0 -0.75205614695E+02 -0.35998123928E+03  0.81819775886E+02  0.37674507673E+03  0.00000000000E+00 0. -1.
          1    1    5    5  503    0  0.37009977588E+03  0.13366568453E+03 -0.69411525666E+01  0.39355881254E+03  0.00000000000E+00 0. -1.
         -2    1    5    5    0  503  0.11946621847E+03  0.93565034016E+02 -0.14736024829E+02  0.15245898916E+03  0.00000000000E+00 0.  1.
         -1    1    6    6    0  502 -0.10143491658E+02 -0.75332178805E+02  0.56483058169E+02  0.94700387785E+02  0.00000000000E+00 0.  1.
<mgrwt>
<rscale>  0 0.16400105E+04</rscale>
<asrwt>0</asrwt>
<pdfrwt beam="1">  1        1 0.19666152E+00 0.16400105E+04</pdfrwt>
<pdfrwt beam="2">  1       -1 0.80925833E-01 0.16400105E+04</pdfrwt>
<totfact> 0.13648162E+01</totfact>
</mgrwt>
</event>
<event>
12    1  0.1532786E-007  0.2171479E+04  0.7818608E-02  0.8530394E-01
          1   -1    0    0  501    0  0.00000000000E+00  0.00000000000E+00  0.17156220804E+04  0.17156220804E+04  0.00000000000E+00 0. -1.
         -1   -1    0    0    0  501 -0.00000000000E+00 -0.00000000000E+00 -0.68711525268E+03  0.68711525268E+03  0.00000000000E+00 0.  1.
         23    2    1    2    0    0  0.25828979383E+03  0.84077463826E+03  0.60444734219E+03  0.10709697029E+04  0.89464546971E+02 0.  0.
        254    2    1    2    0    0 -0.25828979383E+03 -0.84077463826E+03  0.42405948551E+03  0.13317676301E+04  0.90562849090E+03 0.  0.
        -24    2    4    4    0    0 -0.53140777566E+03 -0.67005066823E+03  0.93429262357E+02  0.86401329102E+03  0.80173673791E+02 0.  0.
         24    2    4    4    0    0  0.27311798183E+03 -0.17072397002E+03  0.33063022315E+03  0.46775433913E+03  0.75747418217E+02 0.  0.
         11    1    3    3    0    0  0.17517673772E+03  0.44712577295E+03  0.29724944265E+03  0.56477037585E+03  0.00000000000E+00 0. -1.
        -11    1    3    3    0    0  0.83113056105E+02  0.39364886530E+03  0.30719789954E+03  0.50619932707E+03  0.00000000000E+00 0.  1.
          4    1    6    6  502    0  0.69712873095E+02 -0.16308895766E+02  0.44796099098E+02  0.84454456665E+02  0.00000000000E+00 0. -1.
          1    1    5    5  503    0 -0.58132676741E+02 -0.10734601636E+03 -0.50184586859E+01  0.12217921370E+03  0.00000000000E+00 0. -1.
         -2    1    5    5    0  503 -0.47327509892E+03 -0.56270465187E+03  0.98447721043E+02  0.74183407732E+03  0.00000000000E+00 0.  1.
         -3    1    6    6    0  502  0.20340510874E+03 -0.15441507426E+03  0.28583412406E+03  0.38329988246E+03  0.00000000000E+00 0.  1.
<mgrwt>
<rscale>  0 0.21714789E+04</rscale>
<asrwt>0</asrwt>
<pdfrwt beam="1">  1        1 0.26394186E+00 0.21714789E+04</pdfrwt>
<pdfrwt beam="2">  1       -1 0.10571004E+00 0.21714789E+04</pdfrwt>
<totfact> 0.35617569E+00</totfact>
</mgrwt>
</event>
<event>
12    1  0.1532786E-007  0.1856723E+04  0.7818608E-02  0.8676703E-01
         -1   -1    0    0    0  501 -0.00000000000E+00  0.00000000000E+00  0.76582476757E+03  0.76582476757E+03  0.00000000000E+00 0.  1.
          1   -1    0    0  501    0  0.00000000000E+00 -0.00000000000E+00 -0.11253945260E+04  0.11253945260E+04  0.00000000000E+00 0. -1.
         23    2    1    2    0    0  0.27895934138E+03 -0.60973208625E+03 -0.33875927097E+03  0.75700953683E+03  0.93349151230E+02 0.  0.
        254    2    1    2    0    0 -0.27895934138E+03  0.60973208625E+03 -0.20810487496E+02  0.11342097568E+04  0.91455298636E+03 0.  0.
        -24    2    4    4    0    0  0.90002784952E+02  0.85973205938E+02 -0.37183854945E+03  0.40035291675E+03  0.80787732082E+02 0.  0.
         24    2    4    4    0    0 -0.36896212633E+03  0.52375888031E+03  0.35102806196E+03  0.73385684004E+03  0.69776400145E+02 0.  0.
         11    1    3    3    0    0  0.19348203125E+03 -0.34041989977E+03 -0.23089282010E+03  0.45456847553E+03  0.00000000000E+00 0. -1.
        -11    1    3    3    0    0  0.85477310130E+02 -0.26931218648E+03 -0.10786645087E+03  0.30244106129E+03  0.00000000000E+00 0.  1.
          4    1    6    6  502    0 -0.32241885774E+03  0.48958949441E+03  0.32759915325E+03  0.67154523159E+03  0.00000000000E+00 0. -1.
          1    1    5    5  503    0  0.99593693745E+02  0.64646423959E+02 -0.34444681213E+03  0.36433730299E+03  0.00000000000E+00 0. -1.
         -2    1    5    5    0  503 -0.95909087936E+01  0.21326781978E+02 -0.27391737323E+02  0.36015613761E+02  0.00000000000E+00 0.  1.
         -3    1    6    6    0  502 -0.46543268587E+02  0.34169385898E+02  0.23428908705E+02  0.62311608441E+02  0.00000000000E+00 0.  1.
<mgrwt>
<rscale>  0 0.18567229E+04</rscale>
<asrwt>0</asrwt>
<pdfrwt beam="1">  1        1 0.17313762E+00 0.18567229E+04</pdfrwt>
<pdfrwt beam="2">  1       -1 0.11781919E+00 0.18567229E+04</pdfrwt>
<totfact> 0.73782625E+00</totfact>
</mgrwt>
</event>
<event>
12    1  0.1726905E-007  0.1638630E+04  0.7818608E-02  0.8797161E-01
         -1   -1    0    0    0  501 -0.00000000000E+00  0.00000000000E+00  0.36523999261E+03  0.36523999261E+03  0.00000000000E+00 0.  1.
          1   -1    0    0  501    0  0.00000000000E+00 -0.00000000000E+00 -0.18379078696E+04  0.18379078696E+04  0.00000000000E+00 0. -1.
         23    2    1    2    0    0 -0.44195290750E+03  0.26387831627E+03 -0.85199319405E+03  0.99933895036E+03  0.88497439266E+02 0.  0.
        254    2    1    2    0    0  0.44195290750E+03 -0.26387831627E+03 -0.62067468295E+03  0.12038089119E+04  0.89384825107E+03 0.  0.
        -24    2    4    4    0    0 -0.65544970235E+02  0.26183156085E+03 -0.84733115370E+02  0.29413661440E+03  0.80527869152E+02 0.  0.
         24    2    4    4    0    0  0.50749787774E+03 -0.52570987711E+03 -0.53594156758E+03  0.90967229746E+03  0.79657730888E+02 0.  0.
         13    1    3    3    0    0  0.31137703479E+01  0.56336610606E+00 -0.62866421759E+00  0.32261689118E+01  0.00000000000E+00 0.  1.
        -13    1    3    3    0    0 -0.44506667785E+03  0.26331495016E+03 -0.85136452983E+03  0.99611278145E+03  0.00000000000E+00 0. -1.
          2    1    6    6  502    0  0.49761821879E+03 -0.52279583844E+03 -0.53656028912E+03  0.89935328109E+03  0.00000000000E+00 0. -1.
          3    1    5    5  503    0 -0.62961756779E+02  0.25472845155E+03 -0.96982207778E+02  0.27974330282E+03  0.00000000000E+00 0. -1.
         -4    1    5    5    0  503 -0.25832134556E+01  0.71031092981E+01  0.12249092408E+02  0.14393311581E+02  0.00000000000E+00 0.  1.
         -1    1    6    6    0  502  0.98796589471E+01 -0.29140386795E+01  0.61872153333E+00  0.10319016362E+02  0.00000000000E+00 0.  1.
<mgrwt>
<rscale>  0 0.16386305E+04</rscale>
<asrwt>0</asrwt>
<pdfrwt beam="1">  1        1 0.28275506E+00 0.16386305E+04</pdfrwt>
<pdfrwt beam="2">  1       -1 0.56190768E-01 0.16386305E+04</pdfrwt>
<totfact> 0.11769418E+01</totfact>
</mgrwt>
</event>
<event>
12    1  0.1532786E-007  0.2418881E+04  0.7818608E-02  0.8432469E-01
          1   -1    0    0  501    0  0.00000000000E+00  0.00000000000E+00  0.16177940303E+04  0.16177940303E+04  0.00000000000E+00 0. -1.
         -1   -1    0    0    0  501 -0.00000000000E+00 -0.00000000000E+00 -0.90416080070E+03  0.90416080070E+03  0.00000000000E+00 0.  1.
         23    2    1    2    0    0 -0.81597525338E+03 -0.31935253870E+03  0.95234849401E+03  0.12980991274E+04  0.10144965460E+03 0.  0.
        254    2    1    2    0    0  0.81597525338E+03  0.31935253870E+03 -0.23871526440E+03  0.12238557036E+04  0.82038780323E+03 0.  0.
        -24    2    4    4    0    0  0.71684558222E+02  0.39480653557E+02  0.25827637778E+03  0.28278102116E+03  0.81000127899E+02 0.  0.
         24    2    4    4    0    0  0.74429069516E+03  0.27987188514E+03 -0.49699164218E+03  0.94107468244E+03  0.79523295595E+02 0.  0.
         13    1    3    3    0    0 -0.28861144459E+02  0.69355797267E+01  0.39020950863E+02  0.49027569101E+02  0.00000000000E+00 0.  1.
        -13    1    3    3    0    0 -0.78711410892E+03 -0.32628811842E+03  0.91332754315E+03  0.12490715583E+04  0.00000000000E+00 0. -1.
          4    1    6    6  502    0  0.43396007536E+03  0.19505045484E+03 -0.32590882975E+03  0.57669974185E+03  0.00000000000E+00 0. -1.
          3    1    5    5  503    0  0.21234706228E+02 -0.14974923891E+02  0.14525727366E+03  0.14756299212E+03  0.00000000000E+00 0. -1.
         -4    1    5    5    0  503  0.50449851993E+02  0.54455577448E+02  0.11301910412E+03  0.13521802904E+03  0.00000000000E+00 0.  1.
         -3    1    6    6    0  502  0.31033061980E+03  0.84821430304E+02 -0.17108281244E+03  0.36437494060E+03  0.00000000000E+00 0.  1.
<mgrwt>
<rscale>  0 0.24188807E+04</rscale>
<asrwt>0</asrwt>
<pdfrwt beam="1">  1        1 0.24889139E+00 0.24188807E+04</pdfrwt>
<pdfrwt beam="2">  1       -1 0.13910166E+00 0.24188807E+04</pdfrwt>
<totfact> 0.20690485E+00</totfact>
</mgrwt>
</event>
<event>
12    1  0.1532786E-007  0.1427551E+04  0.7818608E-02  0.8934114E-01
         -2   -1    0    0    0  501 -0.00000000000E+00  0.00000000000E+00  0.18751407960E+03  0.18751407960E+03  0.00000000000E+00 0.  1.
          2   -1    0    0  501    0  0.00000000000E+00 -0.00000000000E+00 -0.27169992941E+04  0.27169992941E+04  0.00000000000E+00 0. -1.
         23    2    1    2    0    0  0.23422867373E+03 -0.16313788421E+03 -0.14553192105E+03  0.33333569962E+03  0.91957097259E+02 0.  0.
        254    2    1    2    0    0 -0.23422867373E+03  0.16313788421E+03 -0.23839532934E+04  0.25711776741E+04  0.91991536862E+03 0.  0.
        -24    2    4    4    0    0  0.21234208750E+03 -0.90981809534E+02 -0.16707442374E+04  0.16885859085E+04  0.81050673874E+02 0.  0.
         24    2    4    4    0    0 -0.44657076123E+03  0.25411969374E+03 -0.71320905601E+03  0.88259176555E+03  0.79365001778E+02 0.  0.
         11    1    3    3    0    0  0.10826297193E+03 -0.22814274571E+02 -0.64727373109E+02  0.12818344295E+03  0.00000000000E+00 0. -1.
        -11    1    3    3    0    0  0.12596570180E+03 -0.14032360964E+03 -0.80804547942E+02  0.20515225668E+03  0.00000000000E+00 0.  1.
          4    1    6    6  502    0 -0.36425247745E+03  0.16919442574E+03 -0.55184555491E+03  0.68252482556E+03  0.00000000000E+00 0. -1.
          3    1    5    5  503    0  0.58433455327E+01  0.83265357240E+01 -0.18468872225E+03  0.18496864602E+03  0.00000000000E+00 0. -1.
         -2    1    5    5    0  503  0.20649874196E+03 -0.99308345258E+02 -0.14860555152E+04  0.15036172625E+04  0.00000000000E+00 0.  1.
         -3    1    6    6    0  502 -0.82318283777E+02  0.84925268003E+02 -0.16136350110E+03  0.20006693999E+03  0.00000000000E+00 0.  1.
<mgrwt>
<rscale>  0 0.14275512E+04</rscale>
<asrwt>0</asrwt>
<pdfrwt beam="1">  1        2 0.41799991E+00 0.14275512E+04</pdfrwt>
<pdfrwt beam="2">  1       -2 0.28848318E-01 0.14275512E+04</pdfrwt>
<totfact> 0.27944664E+01</totfact>
</mgrwt>
</event>
<event>
12    1  0.1532786E-007  0.2256897E+04  0.7818608E-02  0.8495113E-01
          1   -1    0    0  501    0  0.00000000000E+00  0.00000000000E+00  0.17520423590E+04  0.17520423590E+04  0.00000000000E+00 0. -1.
         -1   -1    0    0    0  501 -0.00000000000E+00 -0.00000000000E+00 -0.72680645410E+03  0.72680645410E+03  0.00000000000E+00 0.  1.
         23    2    1    2    0    0  0.57008699348E+02 -0.79550735302E+03  0.10085388266E+04  0.12896188869E+04  0.99420160592E+02 0.  0.
        254    2    1    2    0    0 -0.57008699348E+02  0.79550735302E+03  0.16697078336E+02  0.11892299262E+04  0.88199041060E+03 0.  0.
        -24    2    4    4    0    0 -0.23515450283E+02  0.88186003004E+03 -0.22924952640E+03  0.91465398480E+03  0.76200246553E+02 0.  0.
         24    2    4    4    0    0 -0.33493249065E+02 -0.86352677026E+02  0.24594660473E+03  0.27457594137E+03  0.79521271612E+02 0.  0.
         11    1    3    3    0    0  0.32717304536E+02 -0.27229731937E+03  0.42163801934E+03  0.50298595557E+03  0.00000000000E+00 0.  1.
        -11    1    3    3    0    0  0.24291394812E+02 -0.52321003365E+03  0.58690080721E+03  0.78663293135E+03  0.00000000000E+00 0. -1.
          2    1    6    6  502    0  0.16656435733E+02 -0.65458501222E+02  0.14411192152E+03  0.15915557847E+03  0.00000000000E+00 0. -1.
          1    1    5    5  503    0 -0.20086171337E+02  0.37373248563E+03 -0.59881060849E+02  0.37903188064E+03  0.00000000000E+00 0. -1.
         -2    1    5    5    0  503 -0.34292789462E+01  0.50812754441E+03 -0.16936846555E+03  0.53562210416E+03  0.00000000000E+00 0.  1.
         -1    1    6    6    0  502 -0.50149684798E+02 -0.20894175804E+02  0.10183468321E+03  0.11542036290E+03  0.00000000000E+00 0.  1.
<mgrwt>
<rscale>  0 0.22568967E+04</rscale>
<asrwt>0</asrwt>
<pdfrwt beam="1">  1        1 0.26954498E+00 0.22568967E+04</pdfrwt>
<pdfrwt beam="2">  1       -1 0.11181638E+00 0.22568967E+04</pdfrwt>
<totfact> 0.29246978E+00</totfact>
</mgrwt>
</event>
<event>
12    1  0.1532786E-007  0.2476045E+04  0.7818608E-02  0.8411569E-01
          2   -1    0    0  501    0  0.00000000000E+00  0.00000000000E+00  0.14294381034E+04  0.14294381034E+04  0.00000000000E+00 0. -1.
         -2   -1    0    0    0  501 -0.00000000000E+00 -0.00000000000E+00 -0.10722396800E+04  0.10722396800E+04  0.00000000000E+00 0.  1.
         23    2    1    2    0    0 -0.83136122783E+02 -0.87839290201E+03  0.76704964697E+03  0.11728304793E+04  0.93169023552E+02 0.  0.
        254    2    1    2    0    0  0.83136122783E+02  0.87839290201E+03 -0.40985122356E+03  0.13288473042E+04  0.90519137605E+03 0.  0.
        -24    2    4    4    0    0  0.24796801947E+03  0.74145635338E+03  0.77351507938E+02  0.78977832819E+03  0.80752023197E+02 0.  0.
         24    2    4    4    0    0 -0.16483189669E+03  0.13693654863E+03 -0.48720273150E+03  0.53906897604E+03  0.85485009393E+02 0.  0.
         11    1    3    3    0    0 -0.20283715975E+02 -0.65014995840E+03  0.55899262153E+03  0.85765910971E+03  0.00000000000E+00 0. -1.
        -11    1    3    3    0    0 -0.62852406808E+02 -0.22824294361E+03  0.20805702544E+03  0.31517136955E+03  0.00000000000E+00 0.  1.
          4    1    6    6  502    0 -0.53917954005E+02  0.18008777465E+02 -0.21123736545E+03  0.21875256888E+03  0.00000000000E+00 0. -1.
          3    1    5    5  503    0 -0.59479320995E+00  0.49984394915E+01 -0.62466190656E+01  0.80223703520E+01  0.00000000000E+00 0. -1.
         -4    1    5    5    0  503  0.24856281268E+03  0.73645791389E+03  0.83598127004E+02  0.78175595784E+03  0.00000000000E+00 0.  1.
         -3    1    6    6    0  502 -0.11091394268E+03  0.11892777117E+03 -0.27596536605E+03  0.32031640716E+03  0.00000000000E+00 0.  1.
<mgrwt>
<rscale>  0 0.24760454E+04</rscale>
<asrwt>0</asrwt>
<pdfrwt beam="1">  1        2 0.21991355E+00 0.24760454E+04</pdfrwt>
<pdfrwt beam="2">  1       -2 0.16495995E+00 0.24760454E+04</pdfrwt>
<totfact> 0.28824007E+00</totfact>
</mgrwt>
</event>
<event>
12    1  0.1532786E-007  0.1957839E+04  0.7818608E-02  0.8626590E-01
         -2   -1    0    0    0  501 -0.00000000000E+00  0.00000000000E+00  0.27631036623E+03  0.27631036623E+03  0.00000000000E+00 0.  1.
          2   -1    0    0  501    0  0.00000000000E+00 -0.00000000000E+00 -0.34681412005E+04  0.34681412005E+04  0.00000000000E+00 0. -1.
         23    2    1    2    0    0  0.55575799500E+03 -0.11327860146E+03 -0.27033692276E+03  0.63490661207E+03  0.91243430954E+02 0.  0.
        254    2    1    2    0    0 -0.55575799500E+03  0.11327860146E+03 -0.29214939115E+04  0.31095449546E+04  0.90135684359E+03 0.  0.
        -24    2    4    4    0    0 -0.74016866993E+03  0.25647624282E+03 -0.24957428559E+04  0.26171823253E+04  0.85329935649E+02 0.  0.
         24    2    4    4    0    0  0.18441067493E+03 -0.14319764136E+03 -0.42575105557E+03  0.49236262934E+03  0.81511569306E+02 0.  0.
         11    1    3    3    0    0  0.15359786435E+03 -0.71877564266E+02 -0.93331683848E+02  0.19357037838E+03  0.00000000000E+00 0. -1.
        -11    1    3    3    0    0  0.40216013065E+03 -0.41401037198E+02 -0.17700523891E+03  0.44133623369E+03  0.00000000000E+00 0.  1.
          2    1    6    6  502    0 -0.47538964598E+01  0.20402732711E+01 -0.28933747773E+02  0.29392584214E+02  0.00000000000E+00 0. -1.
          1    1    5    5  503    0 -0.16422407455E+03  0.31927814897E+02 -0.45053775827E+03  0.48059671623E+03  0.00000000000E+00 0. -1.
         -2    1    5    5    0  503 -0.57594459538E+03  0.22454842792E+03 -0.20452050976E+04  0.21365856091E+04  0.00000000000E+00 0.  1.
         -1    1    6    6    0  502  0.18916457139E+03 -0.14523791463E+03 -0.39681730780E+03  0.46297004512E+03  0.00000000000E+00 0.  1.
<mgrwt>
<rscale>  0 0.19578390E+04</rscale>
<asrwt>0</asrwt>
<pdfrwt beam="1">  1        2 0.53356017E+00 0.19578390E+04</pdfrwt>
<pdfrwt beam="2">  1       -2 0.42509288E-01 0.19578390E+04</pdfrwt>
<totfact> 0.42091277E+00</totfact>
</mgrwt>
</event>
<event>
12    1  0.1532786E-007  0.1458980E+04  0.7818608E-02  0.8912199E-01
         -2   -1    0    0    0  501 -0.00000000000E+00  0.00000000000E+00  0.11995165374E+04  0.11995165374E+04  0.00000000000E+00 0. -1.
          2   -1    0    0  501    0  0.00000000000E+00 -0.00000000000E+00 -0.44364166933E+03  0.44364166933E+03  0.00000000000E+00 0.  1.
         23    2    1    2    0    0 -0.66108221218E+01 -0.41650624993E+03  0.60178077310E+03  0.73786504590E+03  0.93720690820E+02 0.  0.
        254    2    1    2    0    0  0.66108221218E+01  0.41650624993E+03  0.15409409501E+03  0.90529316086E+03  0.78885331830E+03 0.  0.
        -24    2    4    4    0    0  0.32426420789E+03  0.29276390863E+03 -0.11994690813E+03  0.46095699428E+03  0.85065310755E+02 0.  0.
         24    2    4    4    0    0 -0.31765338577E+03  0.12374234131E+03  0.27404100314E+03  0.44433616658E+03  0.78232454917E+02 0.  0.
         13    1    3    3    0    0 -0.28095728417E+02 -0.15137692334E+03  0.28748372043E+03  0.32611536668E+03  0.00000000000E+00 0. -1.
        -13    1    3    3    0    0  0.21484906295E+02 -0.26512932660E+03  0.31429705267E+03  0.41174967922E+03  0.00000000000E+00 0.  1.
          4    1    6    6  502    0 -0.65632375762E+02  0.27721250866E+02  0.10207906712E+03  0.12448378385E+03  0.00000000000E+00 0. -1.
          1    1    5    5  503    0  0.54508929368E+02  0.37438206832E+02  0.11171875566E+02  0.67064547381E+02  0.00000000000E+00 0. -1.
         -2    1    5    5    0  503  0.26975527852E+03  0.25532570180E+03 -0.13111878370E+03  0.39389244690E+03  0.00000000000E+00 0.  1.
         -3    1    6    6    0  502 -0.25202101001E+03  0.96021090439E+02  0.17196193602E+03  0.31985238273E+03  0.00000000000E+00 0.  1.
<mgrwt>
<rscale>  0 0.14589798E+04</rscale>
<asrwt>0</asrwt>
<pdfrwt beam="1">  1        2 0.68252565E-01 0.14589798E+04</pdfrwt>
<pdfrwt beam="2">  1       -2 0.18454100E+00 0.14589798E+04</pdfrwt>
<totfact> 0.11548597E+01</totfact>
</mgrwt>
</event>
<event>
12    1  0.1532786E-007  0.1557329E+04  0.7818608E-02  0.8847200E-01
         -1   -1    0    0    0  501 -0.00000000000E+00  0.00000000000E+00  0.18376455347E+03  0.18376455347E+03  0.00000000000E+00 0.  1.
          1   -1    0    0  501    0  0.00000000000E+00 -0.00000000000E+00 -0.32994293179E+04  0.32994293179E+04  0.00000000000E+00 0. -1.
         23    2    1    2    0    0 -0.14016119240E+03 -0.34098959643E+03 -0.24101054860E+03  0.44932551270E+03  0.88815916923E+02 0.  0.
        254    2    1    2    0    0  0.14016119240E+03  0.34098959643E+03 -0.28746542158E+04  0.30338683587E+04  0.89710718002E+03 0.  0.
        -24    2    4    4    0    0 -0.15492962513E+03  0.52206631336E+03 -0.22401033337E+04  0.23067051289E+04  0.79178165162E+02 0.  0.
         24    2    4    4    0    0  0.29509081753E+03 -0.18107671693E+03 -0.63455088216E+03  0.72716322978E+03  0.79020077780E+02 0.  0.
         11    1    3    3    0    0 -0.12943103606E+03 -0.20312320190E+03 -0.14863867115E+03  0.28302806011E+03  0.00000000000E+00 0.  1.
        -11    1    3    3    0    0 -0.10730156335E+02 -0.13786639453E+03 -0.92371877449E+02  0.16629745259E+03  0.00000000000E+00 0. -1.
          2    1    6    6  502    0  0.55233842147E+02 -0.64456201305E+02 -0.11250880769E+03  0.14093832344E+03  0.00000000000E+00 0. -1.
          1    1    5    5  503    0 -0.54536119803E+01  0.50890449095E+02 -0.31606395819E+03  0.32018120707E+03  0.00000000000E+00 0. -1.
         -2    1    5    5    0  503 -0.14947601315E+03  0.47117586427E+03 -0.19240393755E+04  0.19865239218E+04  0.00000000000E+00 0.  1.
         -1    1    6    6    0  502  0.23985697538E+03 -0.11662051563E+03 -0.52204207446E+03  0.58622490634E+03  0.00000000000E+00 0.  1.
<mgrwt>
<rscale>  0 0.15573287E+04</rscale>
<asrwt>0</asrwt>
<pdfrwt beam="1">  1        1 0.50760448E+00 0.15573287E+04</pdfrwt>
<pdfrwt beam="2">  1       -1 0.28271472E-01 0.15573287E+04</pdfrwt>
<totfact> 0.39291893E+00</totfact>
</mgrwt>
</event>
<event>
12    1  0.1532786E-007  0.1903559E+04  0.7818608E-02  0.8653087E-01
         -2   -1    0    0    0  501 -0.00000000000E+00  0.00000000000E+00  0.22926348826E+03  0.22926348826E+03  0.00000000000E+00 0.  1.
          2   -1    0    0  501    0  0.00000000000E+00 -0.00000000000E+00 -0.39512806841E+04  0.39512806841E+04  0.00000000000E+00 0. -1.
         23    2    1    2    0    0 -0.22214435633E+03  0.69961357352E+03 -0.14999192303E+04  0.16724956374E+04  0.93148765516E+02 0.  0.
        254    2    1    2    0    0  0.22214435633E+03 -0.69961357352E+03 -0.22220979656E+04  0.25080485350E+04  0.90209800895E+03 0.  0.
        -24    2    4    4    0    0  0.12384649814E+03 -0.77169945983E+03 -0.97374360947E+03  0.12511901127E+04  0.80262504817E+02 0.  0.
         24    2    4    4    0    0  0.98297858197E+02  0.72085886317E+02 -0.12483543561E+04  0.12568584223E+04  0.80284813550E+02 0.  0.
         13    1    3    3    0    0 -0.18375252428E+03  0.50170695277E+03 -0.11631641155E+04  0.12800100063E+04  0.00000000000E+00 0.  1.
        -13    1    3    3    0    0 -0.38391832055E+02  0.19790662075E+03 -0.33675511476E+03  0.39248563110E+03  0.00000000000E+00 0. -1.
          2    1    6    6  502    0  0.13963242537E+01  0.38312075834E+02 -0.21224100627E+03  0.21567570475E+03  0.00000000000E+00 0. -1.
          3    1    5    5  503    0  0.46275113040E+02 -0.11067945103E+03 -0.15806561436E+03  0.19843403289E+03  0.00000000000E+00 0. -1.
         -4    1    5    5    0  503  0.77571385097E+02 -0.66102000880E+03 -0.81567799511E+03  0.10527560798E+04  0.00000000000E+00 0.  1.
         -1    1    6    6    0  502  0.96901533943E+02  0.33773810483E+02 -0.10361133498E+04  0.10411827175E+04  0.00000000000E+00 0.  1.
<mgrwt>
<rscale>  0 0.19035592E+04</rscale>
<asrwt>0</asrwt>
<pdfrwt beam="1">  1        2 0.60788932E+00 0.19035592E+04</pdfrwt>
<pdfrwt beam="2">  1       -2 0.35271307E-01 0.19035592E+04</pdfrwt>
<totfact> 0.26774098E+00</totfact>
</mgrwt>
</event>
<event>
12    1  0.1532786E-007  0.1273413E+04  0.7818608E-02  0.9050919E-01
         -1   -1    0    0    0  501 -0.00000000000E+00  0.00000000000E+00  0.77469828894E+03  0.77469828894E+03  0.00000000000E+00 0.  1.
          1   -1    0    0  501    0  0.00000000000E+00 -0.00000000000E+00 -0.52329386436E+03  0.52329386436E+03  0.00000000000E+00 0. -1.
         23    2    1    2    0    0 -0.98104311041E+02  0.25646121297E+03 -0.50568871338E+02  0.29351958427E+03  0.90552338462E+02 0.  0.
        254    2    1    2    0    0  0.98104311041E+02 -0.25646121297E+03  0.30197329592E+03  0.10044725690E+04  0.91781286811E+03 0.  0.
        -24    2    4    4    0    0  0.18220814309E+02  0.19569704598E+03 -0.21871720610E+03  0.30523075159E+03  0.81849029270E+02 0.  0.
         24    2    4    4    0    0  0.79883496732E+02 -0.45215825895E+03  0.52069050202E+03  0.69924181743E+03  0.83618515630E+02 0.  0.
         13    1    3    3    0    0 -0.72617377527E+02  0.21865097090E+03 -0.74348249378E+02  0.24209335550E+03  0.00000000000E+00 0. -1.
        -13    1    3    3    0    0 -0.25486933514E+02  0.37810242071E+02  0.23779378040E+02  0.51426228769E+02  0.00000000000E+00 0.  1.
          4    1    6    6  502    0  0.38271316956E+02 -0.13409219357E+03  0.10706662023E+03  0.17580862108E+03  0.00000000000E+00 0. -1.
          1    1    5    5  503    0  0.12755468631E+02  0.10894978314E+02  0.24641485169E+01  0.16955074767E+02  0.00000000000E+00 0. -1.
         -2    1    5    5    0  503  0.54653456782E+01  0.18480206767E+03 -0.22118135462E+03  0.28827567683E+03  0.00000000000E+00 0.  1.
         -3    1    6    6    0  502  0.41612179776E+02 -0.31806606538E+03  0.41362388179E+03  0.52343319635E+03  0.00000000000E+00 0.  1.
<mgrwt>
<rscale>  0 0.12734125E+04</rscale>
<asrwt>0</asrwt>
<pdfrwt beam="1">  1        1 0.80506748E-01 0.12734125E+04</pdfrwt>
<pdfrwt beam="2">  1       -1 0.11918435E+00 0.12734125E+04</pdfrwt>
<totfact> 0.25793125E+01</totfact>
</mgrwt>
</event>
<event>
12    1  0.1532786E-007  0.2032612E+04  0.7818608E-02  0.8591524E-01
         -2   -1    0    0    0  501 -0.00000000000E+00  0.00000000000E+00  0.48787727487E+03  0.48787727487E+03  0.00000000000E+00 0.  1.
          2   -1    0    0  501    0  0.00000000000E+00 -0.00000000000E+00 -0.21170850113E+04  0.21170850113E+04  0.00000000000E+00 0. -1.
         23    2    1    2    0    0  0.30906391229E+03  0.11933455285E+02 -0.16217330975E+04  0.16535224865E+04  0.91953599579E+02 0.  0.
        254    2    1    2    0    0 -0.30906391229E+03 -0.11933455285E+02 -0.74746389821E+01  0.95143979975E+03  0.89973268980E+03 0.  0.
        -24    2    4    4    0    0 -0.16770346515E+03 -0.22891162279E+03 -0.38581448753E+03  0.48643950373E+03  0.85121023993E+02 0.  0.
         24    2    4    4    0    0 -0.14136044714E+03  0.21697816751E+03  0.37833984854E+03  0.46500029603E+03  0.77601115431E+02 0.  0.
         13    1    3    3    0    0  0.28829011468E+03  0.20760237222E+02 -0.15785782508E+04  0.16048213208E+04  0.00000000000E+00 0. -1.
        -13    1    3    3    0    0  0.20773797609E+02 -0.88267819373E+01 -0.43154846652E+02  0.48701165654E+02  0.00000000000E+00 0.  1.
          4    1    6    6  502    0 -0.33720942390E+01  0.79556058634E+00  0.41461477495E+02  0.41605985774E+02  0.00000000000E+00 0. -1.
          1    1    5    5  503    0 -0.45912187553E+02 -0.10072562857E+03 -0.93939667725E+02  0.14518347836E+03  0.00000000000E+00 0. -1.
         -2    1    5    5    0  503 -0.12179127760E+03 -0.12818599423E+03 -0.29187481980E+03  0.34125602537E+03  0.00000000000E+00 0.  1.
         -3    1    6    6    0  502 -0.13798835290E+03  0.21618260692E+03  0.33687837105E+03  0.42339431025E+03  0.00000000000E+00 0.  1.
<mgrwt>
<rscale>  0 0.20326118E+04</rscale>
<asrwt>0</asrwt>
<pdfrwt beam="1">  1        2 0.32570538E+00 0.20326118E+04</pdfrwt>
<pdfrwt beam="2">  1       -2 0.75058043E-01 0.20326118E+04</pdfrwt>
<totfact> 0.84897057E+00</totfact>
</mgrwt>
</event>
<event>
12    1  0.1532786E-007  0.1273031E+04  0.7818608E-02  0.9051229E-01
         -2   -1    0    0    0  501 -0.00000000000E+00  0.00000000000E+00  0.87149944287E+03  0.87149944287E+03  0.00000000000E+00 0.  1.
          2   -1    0    0  501    0  0.00000000000E+00 -0.00000000000E+00 -0.46489071651E+03  0.46489071651E+03  0.00000000000E+00 0. -1.
         23    2    1    2    0    0  0.13571040177E+03 -0.26991398589E+03  0.11151575575E+02  0.31773777519E+03  0.97785802738E+02 0.  0.
        254    2    1    2    0    0 -0.13571040177E+03  0.26991398589E+03  0.39545715079E+03  0.10186523842E+04  0.88881688147E+03 0.  0.
        -24    2    4    4    0    0 -0.73510537872E+02  0.28394596820E+03 -0.23242525647E+03  0.38257122523E+03  0.79436329842E+02 0.  0.
         24    2    4    4    0    0 -0.62199863897E+02 -0.14031982313E+02  0.62788240725E+03  0.63608115896E+03  0.79354923289E+02 0.  0.
         11    1    3    3    0    0  0.24089335421E+02 -0.40339431060E+02 -0.34662747815E+02  0.58387257731E+02  0.00000000000E+00 0.  1.
        -11    1    3    3    0    0  0.11162106635E+03 -0.22957455483E+03  0.45814323391E+02  0.25935051745E+03  0.00000000000E+00 0. -1.
          4    1    6    6  502    0 -0.65808132998E+02 -0.30348958434E+02  0.59289708222E+03  0.59730956777E+03  0.00000000000E+00 0. -1.
          3    1    5    5  503    0 -0.64262861109E+02  0.14634356195E+03 -0.86300088130E+02  0.18164211696E+03  0.00000000000E+00 0. -1.
         -4    1    5    5    0  503 -0.92476767634E+01  0.13760240625E+03 -0.14612516833E+03  0.20092910828E+03  0.00000000000E+00 0.  1.
         -3    1    6    6    0  502  0.36082691008E+01  0.16316976121E+02  0.34985325032E+02  0.38771591188E+02  0.00000000000E+00 0.  1.
<mgrwt>
<rscale>  0 0.12730310E+04</rscale>
<asrwt>0</asrwt>
<pdfrwt beam="1">  1        2 0.71521649E-01 0.12730310E+04</pdfrwt>
<pdfrwt beam="2">  1       -2 0.13407684E+00 0.12730310E+04</pdfrwt>
<totfact> 0.26395998E+01</totfact>
</mgrwt>
</event>
<event>
12    1  0.1532786E-007  0.1340172E+04  0.7818608E-02  0.8998301E-01
          2   -1    0    0  501    0  0.00000000000E+00  0.00000000000E+00  0.23862987521E+04  0.23862987521E+04  0.00000000000E+00 0. -1.
         -2   -1    0    0    0  501 -0.00000000000E+00 -0.00000000000E+00 -0.18816383638E+03  0.18816383638E+03  0.00000000000E+00 0.  1.
         23    2    1    2    0    0  0.33922841191E+03  0.12721493584E+03  0.62791392246E+03  0.73010609298E+03  0.86714806299E+02 0.  0.
        254    2    1    2    0    0 -0.33922841191E+03 -0.12721493584E+03  0.15702209932E+04  0.18443564955E+04  0.89710498799E+03 0.  0.
        -24    2    4    4    0    0  0.25610166358E+03  0.19244888390E+02  0.18188113309E+03  0.32456459240E+03  0.79391436839E+02 0.  0.
         24    2    4    4    0    0 -0.59533007549E+03 -0.14645982423E+03  0.13883398601E+04  0.15197919031E+04  0.80071733617E+02 0.  0.
         11    1    3    3    0    0  0.84551319546E+02  0.59478306590E+02  0.23807262696E+03  0.25954801155E+03  0.00000000000E+00 0. -1.
        -11    1    3    3    0    0  0.25467709236E+03  0.67736629255E+02  0.38984129550E+03  0.47055808142E+03  0.00000000000E+00 0.  1.
          2    1    6    6  502    0 -0.37261254239E+03 -0.54020018924E+02  0.81225569274E+03  0.89527514183E+03  0.00000000000E+00 0. -1.
          1    1    5    5  503    0  0.42425553358E+02 -0.22681337656E+02  0.52800136062E+02  0.71429860869E+02  0.00000000000E+00 0. -1.
         -4    1    5    5    0  503  0.21367611023E+03  0.41926226045E+02  0.12908099703E+03  0.25313473153E+03  0.00000000000E+00 0.  1.
         -1    1    6    6    0  502 -0.22271753310E+03 -0.92439805311E+02  0.57608416739E+03  0.62451676124E+03  0.00000000000E+00 0.  1.
<mgrwt>
<rscale>  0 0.13401718E+04</rscale>
<asrwt>0</asrwt>
<pdfrwt beam="1">  1        2 0.36712286E+00 0.13401718E+04</pdfrwt>
<pdfrwt beam="2">  1       -2 0.28948284E-01 0.13401718E+04</pdfrwt>
<totfact> 0.43505376E+01</totfact>
</mgrwt>
</event>
<event>
12    1  0.1532786E-007  0.3397245E+04  0.7818608E-02  0.8138583E-01
         -2   -1    0    0    0  501 -0.00000000000E+00  0.00000000000E+00  0.10116976578E+04  0.10116976578E+04  0.00000000000E+00 0.  1.
          2   -1    0    0  501    0  0.00000000000E+00 -0.00000000000E+00 -0.28519570399E+04  0.28519570399E+04  0.00000000000E+00 0. -1.
         23    2    1    2    0    0 -0.25888898608E+03  0.55542957614E+03 -0.25117207438E+04  0.25866542331E+04  0.80706291988E+02 0.  0.
        254    2    1    2    0    0  0.25888898608E+03 -0.55542957614E+03  0.67146136169E+03  0.12770004646E+04  0.89685244342E+03 0.  0.
        -24    2    4    4    0    0  0.47625247084E+03 -0.11851676190E+03  0.76042054455E+02  0.50297969359E+03  0.79646338791E+02 0.  0.
         24    2    4    4    0    0 -0.21736348476E+03 -0.43691281425E+03  0.59541930723E+03  0.77402077104E+03  0.80276464932E+02 0.  0.
         11    1    3    3    0    0 -0.10685272043E+03  0.30041539548E+03 -0.14127730724E+04  0.14483075184E+04  0.00000000000E+00 0. -1.
        -11    1    3    3    0    0 -0.15203626565E+03  0.25501418067E+03 -0.10989476714E+04  0.11383467147E+04  0.00000000000E+00 0.  1.
          2    1    6    6  502    0 -0.93421061447E+02 -0.15972972549E+03  0.28493242201E+03  0.33974632454E+03  0.00000000000E+00 0. -1.
          1    1    5    5  503    0  0.38630599179E+02  0.86472972979E+01  0.18304139486E+02  0.43613535351E+02  0.00000000000E+00 0. -1.
         -2    1    5    5    0  503  0.43762187166E+03 -0.12716405920E+03  0.57737914969E+02  0.45936615824E+03  0.00000000000E+00 0.  1.
         -1    1    6    6    0  502 -0.12394242331E+03 -0.27718308876E+03  0.31048688522E+03  0.43427444650E+03  0.00000000000E+00 0.  1.
<mgrwt>
<rscale>  0 0.33972449E+04</rscale>
<asrwt>0</asrwt>
<pdfrwt beam="1">  1        2 0.43876261E+00 0.33972449E+04</pdfrwt>
<pdfrwt beam="2">  1       -2 0.15564580E+00 0.33972449E+04</pdfrwt>
<totfact> 0.48340510E-01</totfact>
</mgrwt>
</event>
<event>
12    1  0.1532786E-007  0.1392777E+04  0.7818608E-02  0.8959064E-01
          2   -1    0    0  501    0  0.00000000000E+00  0.00000000000E+00  0.56510377020E+03  0.56510377020E+03  0.00000000000E+00 0.  1.
         -2   -1    0    0    0  501 -0.00000000000E+00 -0.00000000000E+00 -0.85817336019E+03  0.85817336019E+03  0.00000000000E+00 0. -1.
         23    2    1    2    0    0 -0.23409089843E+03 -0.17504999043E+03  0.18958502719E+03  0.36046291683E+03  0.92466123527E+02 0.  0.
        254    2    1    2    0    0  0.23409089843E+03  0.17504999043E+03 -0.48265461717E+03  0.10628142136E+04  0.90065394309E+03 0.  0.
        -24    2    4    4    0    0  0.14166671085E+03 -0.25514204811E+03  0.10841619905E+03  0.32134864496E+03  0.79648965638E+02 0.  0.
         24    2    4    4    0    0  0.92424187578E+02  0.43019203854E+03 -0.59107081622E+03  0.74146556860E+03  0.82456407640E+02 0.  0.
         13    1    3    3    0    0 -0.12281175852E+03 -0.46171311585E+02  0.50434245284E+02  0.14056361955E+03  0.00000000000E+00 0.  1.
        -13    1    3    3    0    0 -0.11127913991E+03 -0.12887867885E+03  0.13915078190E+03  0.21989929728E+03  0.00000000000E+00 0. -1.
          2    1    6    6  502    0  0.20965202125E+02  0.28195689716E+03 -0.35890338319E+03  0.45689262417E+03  0.00000000000E+00 0. -1.
          3    1    5    5  503    0  0.12652573693E+03 -0.17374845248E+03  0.51915687206E+02  0.22111654262E+03  0.00000000000E+00 0. -1.
         -4    1    5    5    0  503  0.15140973921E+02 -0.81393595632E+02  0.56500511840E+02  0.10023210234E+03  0.00000000000E+00 0.  1.
         -1    1    6    6    0  502  0.71458985453E+02  0.14823514138E+03 -0.23216743302E+03  0.28457294442E+03  0.00000000000E+00 0.  1.
<mgrwt>
<rscale>  0 0.13927771E+04</rscale>
<asrwt>0</asrwt>
<pdfrwt beam="1">  1        2 0.86939042E-01 0.13927771E+04</pdfrwt>
<pdfrwt beam="2">  1       -2 0.13202667E+00 0.13927771E+04</pdfrwt>
<totfact> 0.21664735E+01</totfact>
</mgrwt>
</event>
<event>
12    1  0.1532786E-007  0.1818832E+04  0.7818608E-02  0.8696349E-01
         -2   -1    0    0    0  501 -0.00000000000E+00  0.00000000000E+00  0.25866890452E+03  0.25866890452E+03  0.00000000000E+00 0.  1.
          2   -1    0    0  501    0  0.00000000000E+00 -0.00000000000E+00 -0.31972805040E+04  0.31972805040E+04  0.00000000000E+00 0. -1.
         23    2    1    2    0    0 -0.37385380546E+03 -0.28830772307E+03 -0.16180924055E+03  0.50740491792E+03  0.91594264904E+02 0.  0.
        254    2    1    2    0    0  0.37385380546E+03  0.28830772307E+03 -0.27768023589E+04  0.29485444906E+04  0.87200645725E+03 0.  0.
        -24    2    4    4    0    0  0.53963657674E+03  0.32463962327E+03 -0.11733762159E+04  0.13341595380E+04  0.81064226126E+02 0.  0.
         24    2    4    4    0    0 -0.16578277128E+03 -0.36331900206E+02 -0.16034261430E+04  0.16143849526E+04  0.80370672131E+02 0.  0.
         11    1    3    3    0    0 -0.34166425557E+03 -0.27985340171E+03 -0.16982283998E+03  0.47317247062E+03  0.00000000000E+00 0.  1.
        -11    1    3    3    0    0 -0.32189549893E+02 -0.84543213617E+01  0.80135994270E+01  0.34232447295E+02  0.00000000000E+00 0. -1.
          4    1    6    6  502    0 -0.10880623815E+03 -0.57568509665E+02 -0.12162037573E+04  0.12224174860E+04  0.00000000000E+00 0. -1.
          1    1    5    5  503    0  0.22415618110E+03  0.16664087109E+03 -0.45677593885E+03  0.53540585704E+03  0.00000000000E+00 0. -1.
         -2    1    5    5    0  503  0.31548039564E+03  0.15799875218E+03 -0.71660027705E+03  0.79875368093E+03  0.00000000000E+00 0.  1.
         -3    1    6    6    0  502 -0.56976533130E+02  0.21236609459E+02 -0.38722238571E+03  0.39196746664E+03  0.00000000000E+00 0.  1.
<mgrwt>
<rscale>  0 0.18188315E+04</rscale>
<asrwt>0</asrwt>
<pdfrwt beam="1">  1        2 0.49188929E+00 0.18188315E+04</pdfrwt>
<pdfrwt beam="2">  1       -2 0.39795218E-01 0.18188315E+04</pdfrwt>
<totfact> 0.73704996E+00</totfact>
</mgrwt>
</event>
<event>
12    1  0.1532786E-007  0.1530347E+04  0.7818608E-02  0.8864519E-01
         -2   -1    0    0    0  501 -0.00000000000E+00  0.00000000000E+00  0.32758131410E+03  0.32758131410E+03  0.00000000000E+00 0.  1.
          2   -1    0    0  501    0  0.00000000000E+00 -0.00000000000E+00 -0.17873143889E+04  0.17873143889E+04  0.00000000000E+00 0. -1.
         23    2    1    2    0    0  0.16507900424E+03  0.62194849491E+02 -0.11199692088E+04  0.11371191859E+04  0.87119098529E+02 0.  0.
        254    2    1    2    0    0 -0.16507900424E+03 -0.62194849491E+02 -0.33976386603E+03  0.97777651714E+03  0.89971559721E+03 0.  0.
        -24    2    4    4    0    0 -0.79812391999E+02 -0.29310980154E+03  0.20488003373E+03  0.37491478066E+03  0.79384449779E+02 0.  0.
         24    2    4    4    0    0 -0.85266612242E+02  0.23091495205E+03 -0.54464389976E+03  0.60286173647E+03  0.78823762384E+02 0.  0.
         13    1    3    3    0    0  0.41809353464E+01 -0.76924431391E+01 -0.96577105282E+01  0.13035538902E+02  0.00000000000E+00 0.  1.
        -13    1    3    3    0    0  0.16089806890E+03  0.69887292630E+02 -0.11103114982E+04  0.11240836470E+04  0.00000000000E+00 0. -1.
          2    1    6    6  502    0  0.12221813465E+02  0.31822731615E+02 -0.46851651575E+02  0.57940799331E+02  0.00000000000E+00 0. -1.
          1    1    5    5  503    0 -0.35237656219E+02 -0.51018979516E+02  0.72562365069E+02  0.95445929777E+02  0.00000000000E+00 0. -1.
         -2    1    5    5    0  503 -0.44574735780E+02 -0.24209082202E+03  0.13231766866E+03  0.27946885089E+03  0.00000000000E+00 0.  1.
         -1    1    6    6    0  502 -0.97488425707E+02  0.19909222043E+03 -0.49779224818E+03  0.54492093714E+03  0.00000000000E+00 0.  1.
<mgrwt>
<rscale>  0 0.15303474E+04</rscale>
<asrwt>0</asrwt>
<pdfrwt beam="1">  1        2 0.27497145E+00 0.15303474E+04</pdfrwt>
<pdfrwt beam="2">  1       -2 0.50397123E-01 0.15303474E+04</pdfrwt>
<totfact> 0.31477373E+01</totfact>
</mgrwt>
</event>
<event>
12    1  0.1532786E-007  0.1011182E+04  0.7818608E-02  0.9296365E-01
         -2   -1    0    0    0  501 -0.00000000000E+00  0.00000000000E+00  0.96214186083E+02  0.96214186083E+02  0.00000000000E+00 0.  1.
          2   -1    0    0  501    0  0.00000000000E+00 -0.00000000000E+00 -0.26568031390E+04  0.26568031390E+04  0.00000000000E+00 0. -1.
         23    2    1    2    0    0 -0.41274252498E+02 -0.26957278997E+02 -0.24819853833E+03  0.26871319964E+03  0.90410234037E+02 0.  0.
        254    2    1    2    0    0  0.41274252498E+02  0.26957278997E+02 -0.23123904145E+04  0.24843041254E+04  0.90674544356E+03 0.  0.
        -24    2    4    4    0    0  0.17470730139E+02 -0.29889392520E+03 -0.26014703403E+03  0.40467748456E+03  0.80278155533E+02 0.  0.
         24    2    4    4    0    0  0.23803522359E+02  0.32585120420E+03 -0.20522433805E+04  0.20796266409E+04  0.79990358979E+02 0.  0.
         11    1    3    3    0    0  0.23530938405E+02  0.76826510673E+01 -0.10358142309E+03  0.10649807228E+03  0.00000000000E+00 0. -1.
        -11    1    3    3    0    0 -0.64805190903E+02 -0.34639930064E+02 -0.14461711524E+03  0.16221512735E+03  0.00000000000E+00 0.  1.
          4    1    6    6  502    0  0.54984303643E+01  0.31137713350E+03 -0.19531707075E+04  0.19778427047E+04  0.00000000000E+00 0. -1.
          3    1    5    5  503    0 -0.22255970094E+02 -0.17954173768E+03 -0.12409989739E+03  0.21938857834E+03  0.00000000000E+00 0. -1.
         -4    1    5    5    0  503  0.39726700233E+02 -0.11935218752E+03 -0.13604713665E+03  0.18528890622E+03  0.00000000000E+00 0.  1.
         -3    1    6    6    0  502  0.18305091995E+02  0.14474070696E+02 -0.99072673061E+02  0.10178393617E+03  0.00000000000E+00 0.  1.
<mgrwt>
<rscale>  0 0.10111818E+04</rscale>
<asrwt>0</asrwt>
<pdfrwt beam="1">  1        2 0.40873892E+00 0.10111818E+04</pdfrwt>
<pdfrwt beam="2">  1       -2 0.14802183E-01 0.10111818E+04</pdfrwt>
<totfact> 0.10250406E+02</totfact>
</mgrwt>
</event>
<event>
12    1  0.1532786E-007  0.1524827E+04  0.7818608E-02  0.8868109E-01
         -1   -1    0    0    0  501 -0.00000000000E+00  0.00000000000E+00  0.38248816872E+03  0.38248816872E+03  0.00000000000E+00 0.  1.
          1   -1    0    0  501    0  0.00000000000E+00 -0.00000000000E+00 -0.15197188297E+04  0.15197188297E+04  0.00000000000E+00 0. -1.
         23    2    1    2    0    0 -0.29529666638E+03 -0.37939133395E+03 -0.49132813373E+03  0.69343750883E+03  0.91182993006E+02 0.  0.
        254    2    1    2    0    0  0.29529666638E+03  0.37939133395E+03 -0.64590252721E+03  0.12087694895E+04  0.90155182809E+03 0.  0.
        -24    2    4    4    0    0  0.59646020196E+03  0.25577869423E+03 -0.27701396944E+03  0.71020191322E+03  0.80389709154E+02 0.  0.
         24    2    4    4    0    0 -0.30116353558E+03  0.12361263972E+03 -0.36888855777E+03  0.49856757632E+03  0.80692628167E+02 0.  0.
         11    1    3    3    0    0 -0.21117358029E+03 -0.25342408286E+03 -0.39186485570E+03  0.51222662164E+03  0.00000000000E+00 0. -1.
        -11    1    3    3    0    0 -0.84123086092E+02 -0.12596725110E+03 -0.99463278029E+02  0.18121088720E+03  0.00000000000E+00 0.  1.
          4    1    6    6  502    0 -0.29556599991E+03  0.13299195836E+03 -0.35232135960E+03  0.47872378437E+03  0.00000000000E+00 0. -1.
          1    1    5    5  503    0  0.52990418913E+03  0.25307735276E+03 -0.25256001083E+03  0.63924420624E+03  0.00000000000E+00 0. -1.
         -2    1    5    5    0  503  0.66556012825E+02  0.27013414786E+01 -0.24453958608E+02  0.70957706985E+02  0.00000000000E+00 0.  1.
         -3    1    6    6    0  502 -0.55975356651E+01 -0.93793186362E+01 -0.16567198168E+02  0.19843791945E+02  0.00000000000E+00 0.  1.
<mgrwt>
<rscale>  0 0.15248272E+04</rscale>
<asrwt>0</asrwt>
<pdfrwt beam="1">  1        1 0.23380290E+00 0.15248272E+04</pdfrwt>
<pdfrwt beam="2">  1       -1 0.58844333E-01 0.15248272E+04</pdfrwt>
<totfact> 0.17911343E+01</totfact>
</mgrwt>
</event>
<event>
12    1  0.1532786E-007  0.1543929E+04  0.7818608E-02  0.8855755E-01
         -1   -1    0    0    0  501 -0.00000000000E+00  0.00000000000E+00  0.98786585716E+03  0.98786585716E+03  0.00000000000E+00 0.  1.
          1   -1    0    0  501    0  0.00000000000E+00 -0.00000000000E+00 -0.60324933283E+03  0.60324933283E+03  0.00000000000E+00 0. -1.
         23    2    1    2    0    0 -0.19555983063E+02 -0.47493655769E+03 -0.50774974450E+02  0.48670374960E+03  0.91407174454E+02 0.  0.
        254    2    1    2    0    0  0.19555983063E+02  0.47493655769E+03  0.43539149877E+03  0.11044114404E+04  0.89677851343E+03 0.  0.
        -24    2    4    4    0    0  0.33966222158E+03  0.57301187503E+03  0.29091065304E+03  0.73119016238E+03  0.79353713296E+02 0.  0.
         24    2    4    4    0    0 -0.32010623852E+03 -0.98075317339E+02  0.14448084573E+03  0.37322127801E+03  0.79577859770E+02 0.  0.
         13    1    3    3    0    0 -0.55059461956E+02 -0.34270665791E+03 -0.33840142495E+02  0.34874711895E+03  0.00000000000E+00 0. -1.
        -13    1    3    3    0    0  0.35503478893E+02 -0.13222989978E+03 -0.16934831956E+02  0.13795663066E+03  0.00000000000E+00 0.  1.
          2    1    6    6  502    0 -0.27206256347E+03 -0.99945635866E+02  0.14717535370E+03  0.32506576767E+03  0.00000000000E+00 0. -1.
          1    1    5    5  503    0  0.18345789631E+03  0.34275752979E+03  0.20772417231E+03  0.44078209549E+03  0.00000000000E+00 0. -1.
         -2    1    5    5    0  503  0.15620432527E+03  0.23025434524E+03  0.83186480724E+02  0.29040806689E+03  0.00000000000E+00 0.  1.
         -1    1    6    6    0  502 -0.48043675041E+02  0.18703185271E+01 -0.26945079656E+01  0.48155510339E+02  0.00000000000E+00 0.  1.
<mgrwt>
<rscale>  0 0.15439293E+04</rscale>
<asrwt>0</asrwt>
<pdfrwt beam="1">  1        1 0.92807590E-01 0.15439293E+04</pdfrwt>
<pdfrwt beam="2">  1       -1 0.15197936E+00 0.15439293E+04</pdfrwt>
<totfact> 0.11030362E+01</totfact>
</mgrwt>
</event>
<event>
12    1  0.1532786E-007  0.3374702E+04  0.7818608E-02  0.8144143E-01
          1   -1    0    0  501    0  0.00000000000E+00  0.00000000000E+00  0.24642859389E+04  0.24642859389E+04  0.00000000000E+00 0. -1.
         -1   -1    0    0    0  501 -0.00000000000E+00 -0.00000000000E+00 -0.11553663487E+04  0.11553663487E+04  0.00000000000E+00 0.  1.
         23    2    1    2    0    0 -0.87710464613E+03 -0.12883540550E+04  0.44350346169E+03  0.16229224348E+04  0.89516353123E+02 0.  0.
        254    2    1    2    0    0  0.87710464613E+03  0.12883540550E+04  0.86541612850E+03  0.19967298529E+04  0.89934214774E+03 0.  0.
        -24    2    4    4    0    0 -0.59495473812E+02  0.55185898371E+02  0.34097624960E+03  0.35969398984E+03  0.80806984517E+02 0.  0.
         24    2    4    4    0    0  0.93660011994E+03  0.12331681566E+04  0.52443987890E+03  0.16370358631E+04  0.83221050173E+02 0.  0.
         11    1    3    3    0    0 -0.89447569803E+02 -0.10165985349E+03  0.19226944970E+02  0.13676720721E+03  0.00000000000E+00 0. -1.
        -11    1    3    3    0    0 -0.78765707633E+03 -0.11866942015E+04  0.42427651672E+03  0.14861552276E+04  0.00000000000E+00 0.  1.
          4    1    6    6  502    0  0.10040119675E+03  0.11395680297E+03  0.75341489913E+02  0.16953729193E+03  0.00000000000E+00 0. -1.
          3    1    5    5  503    0 -0.51685551110E+02 -0.34461151477E+01  0.20435372486E+03  0.21081678484E+03  0.00000000000E+00 0. -1.
         -2    1    5    5    0  503 -0.78099227014E+01  0.58632013519E+02  0.13662252474E+03  0.14887720500E+03  0.00000000000E+00 0.  1.
         -3    1    6    6    0  502  0.83619892319E+03  0.11192113537E+04  0.44909838898E+03  0.14674985711E+04  0.00000000000E+00 0.  1.
<mgrwt>
<rscale>  0 0.33747018E+04</rscale>
<asrwt>0</asrwt>
<pdfrwt beam="1">  1        1 0.37912091E+00 0.33747018E+04</pdfrwt>
<pdfrwt beam="2">  1       -1 0.17774867E+00 0.33747018E+04</pdfrwt>
<totfact> 0.25540052E-01</totfact>
</mgrwt>
</event>
<event>
12    1  0.1532786E-007  0.1776275E+04  0.7818608E-02  0.8719019E-01
         -1   -1    0    0    0  501 -0.00000000000E+00  0.00000000000E+00  0.34830686561E+03  0.34830686561E+03  0.00000000000E+00 0.  1.
          1   -1    0    0  501    0  0.00000000000E+00 -0.00000000000E+00 -0.22646351061E+04  0.22646351061E+04  0.00000000000E+00 0. -1.
         23    2    1    2    0    0  0.62724590494E+03 -0.19213184421E+03 -0.50665990150E+03  0.83503783733E+03  0.10115267251E+03 0.  0.
        254    2    1    2    0    0 -0.62724590494E+03  0.19213184421E+03 -0.14096683390E+04  0.17779041344E+04  0.86222167351E+03 0.  0.
        -24    2    4    4    0    0 -0.24398151424E+03 -0.45406312805E+02 -0.12742229058E+04  0.13002098695E+04  0.72890181503E+02 0.  0.
         24    2    4    4    0    0 -0.38326439070E+03  0.23753815701E+03 -0.13544543324E+03  0.47769426492E+03  0.80810742709E+02 0.  0.
         13    1    3    3    0    0  0.50939905465E+03 -0.15184284939E+03 -0.45687461499E+03  0.70091230665E+03  0.00000000000E+00 0.  1.
        -13    1    3    3    0    0  0.11784685029E+03 -0.40288994817E+02 -0.49785286509E+02  0.13412553068E+03  0.00000000000E+00 0. -1.
          2    1    6    6  502    0 -0.31115797158E+03  0.22711249861E+03 -0.11488623011E+03  0.40199280612E+03  0.00000000000E+00 0. -1.
          1    1    5    5  503    0 -0.49290209917E+02  0.88158255544E+01 -0.38901451863E+03  0.39222383823E+03  0.00000000000E+00 0. -1.
         -2    1    5    5    0  503 -0.19469130433E+03 -0.54222138359E+02 -0.88520838713E+03  0.90798603123E+03  0.00000000000E+00 0.  1.
         -1    1    6    6    0  502 -0.72106419121E+02  0.10425658405E+02 -0.20559203123E+02  0.75701458802E+02  0.00000000000E+00 0.  1.
<mgrwt>
<rscale>  0 0.17762747E+04</rscale>
<asrwt>0</asrwt>
<pdfrwt beam="1">  1        1 0.34840540E+00 0.17762747E+04</pdfrwt>
<pdfrwt beam="2">  1       -1 0.53585673E-01 0.17762747E+04</pdfrwt>
<totfact> 0.65424680E+00</totfact>
</mgrwt>
</event>
<event>
12    1  0.1532786E-007  0.1310539E+04  0.7818608E-02  0.9021249E-01
          2   -1    0    0  501    0  0.00000000000E+00  0.00000000000E+00  0.19700308921E+04  0.19700308921E+04  0.00000000000E+00 0. -1.
         -2   -1    0    0    0  501 -0.00000000000E+00 -0.00000000000E+00 -0.21795507733E+03  0.21795507733E+03  0.00000000000E+00 0.  1.
         23    2    1    2    0    0 -0.10313522647E+03 -0.93799764851E+02 -0.48105872579E+02  0.17147587208E+03  0.87490164624E+02 0.  0.
        254    2    1    2    0    0  0.10313522647E+03  0.93799764851E+02  0.18001816873E+04  0.20165100973E+04  0.89789954583E+03 0.  0.
        -24    2    4    4    0    0 -0.36417926348E+03  0.22087625810E+02  0.11480371753E+04  0.12076320947E+04  0.85273215072E+02 0.  0.
         24    2    4    4    0    0  0.46731448995E+03  0.71712139041E+02  0.65214451202E+03  0.80887800258E+03  0.73930339552E+02 0.  0.
         11    1    3    3    0    0 -0.19125680951E+02 -0.36736324067E+01 -0.44092542399E+02  0.48202069895E+02  0.00000000000E+00 0.  1.
        -11    1    3    3    0    0 -0.84009545515E+02 -0.90126132444E+02 -0.40133301796E+01  0.12327380219E+03  0.00000000000E+00 0. -1.
          4    1    6    6  502    0  0.91205760296E+02  0.30224274311E+02  0.92905659743E+02  0.13365425201E+03  0.00000000000E+00 0. -1.
          3    1    5    5  503    0 -0.11092401961E+03  0.46298424451E+02  0.35733834202E+03  0.37701243071E+03  0.00000000000E+00 0. -1.
         -4    1    5    5    0  503 -0.25325524387E+03 -0.24210798641E+02  0.79069883327E+03  0.83061966402E+03  0.00000000000E+00 0.  1.
         -3    1    6    6    0  502  0.37610872965E+03  0.41487864731E+02  0.55923885228E+03  0.67522375057E+03  0.00000000000E+00 0.  1.
<mgrwt>
<rscale>  0 0.13105392E+04</rscale>
<asrwt>0</asrwt>
<pdfrwt beam="1">  1        2 0.30308166E+00 0.13105392E+04</pdfrwt>
<pdfrwt beam="2">  1       -2 0.33531552E-01 0.13105392E+04</pdfrwt>
<totfact> 0.56576487E+01</totfact>
</mgrwt>
</event>
<event>
12    1  0.1532786E-007  0.1690600E+04  0.7818608E-02  0.8766743E-01
         -2   -1    0    0    0  501 -0.00000000000E+00  0.00000000000E+00  0.11858734714E+04  0.11858734714E+04  0.00000000000E+00 0.  1.
          2   -1    0    0  501    0  0.00000000000E+00 -0.00000000000E+00 -0.60253688639E+03  0.60253688639E+03  0.00000000000E+00 0. -1.
         23    2    1    2    0    0 -0.13112682000E+03 -0.25485455357E+03 -0.37526759937E+03  0.48113133280E+03  0.92284895099E+02 0.  0.
        254    2    1    2    0    0  0.13112682000E+03  0.25485455357E+03  0.95860418436E+03  0.13072790250E+04  0.84137469683E+03 0.  0.
        -24    2    4    4    0    0  0.45592735121E+03  0.10497939614E+02  0.40020491977E+03  0.61187150295E+03  0.79011404168E+02 0.  0.
         24    2    4    4    0    0 -0.32480053121E+03  0.24435661396E+03  0.55839926459E+03  0.69540752203E+03  0.81094655421E+02 0.  0.
         13    1    3    3    0    0 -0.77969807052E+02 -0.20274308031E+03 -0.32644198572E+03  0.39210766056E+03  0.00000000000E+00 0. -1.
        -13    1    3    3    0    0 -0.53157012950E+02 -0.52111473263E+02 -0.48825613648E+02  0.89023672242E+02  0.00000000000E+00 0.  1.
          2    1    6    6  502    0 -0.31271377946E+03  0.23295931061E+03  0.55524774688E+03  0.67849834832E+03  0.00000000000E+00 0. -1.
          1    1    5    5  503    0  0.41416782108E+03 -0.13713185844E+01  0.33104508434E+03  0.53021477950E+03  0.00000000000E+00 0. -1.
         -2    1    5    5    0  503  0.41759530131E+02  0.11869258199E+02  0.69159835437E+02  0.81656723450E+02  0.00000000000E+00 0.  1.
         -1    1    6    6    0  502 -0.12086751746E+02  0.11397303350E+02  0.31515177120E+01  0.16909173703E+02  0.00000000000E+00 0.  1.
<mgrwt>
<rscale>  0 0.16906005E+04</rscale>
<asrwt>0</asrwt>
<pdfrwt beam="1">  1        2 0.92697983E-01 0.16906005E+04</pdfrwt>
<pdfrwt beam="2">  1       -2 0.18244207E+00 0.16906005E+04</pdfrwt>
<totfact> 0.81888114E+00</totfact>
</mgrwt>
</event>
<event>
12    1  0.1532786E-007  0.1222715E+04  0.7818608E-02  0.9093203E-01
         -2   -1    0    0    0  501 -0.00000000000E+00  0.00000000000E+00  0.32361221213E+03  0.32361221213E+03  0.00000000000E+00 0. -1.
          2   -1    0    0  501    0  0.00000000000E+00 -0.00000000000E+00 -0.11549567346E+04  0.11549567346E+04  0.00000000000E+00 0.  1.
         23    2    1    2    0    0 -0.45070321335E+02  0.19612316927E+03 -0.39586871121E+03  0.45456462033E+03  0.97063516055E+02 0.  0.
        254    2    1    2    0    0  0.45070321335E+02 -0.19612316927E+03 -0.43547581126E+03  0.10240043264E+04  0.90468229060E+03 0.  0.
        -24    2    4    4    0    0  0.68159621902E+02 -0.50870071492E+03 -0.51535613267E+02  0.52190788317E+03  0.79434045995E+02 0.  0.
         24    2    4    4    0    0 -0.23089300567E+02  0.31257754565E+03 -0.38394019800E+03  0.50209644324E+03  0.80330099200E+02 0.  0.
         11    1    3    3    0    0 -0.53473452712E+01  0.48533901068E+02 -0.28183754152E+02  0.56377811703E+02  0.00000000000E+00 0. -1.
        -11    1    3    3    0    0 -0.39722976063E+02  0.14758926820E+03 -0.36768495706E+03  0.39818680863E+03  0.00000000000E+00 0.  1.
          4    1    6    6  502    0 -0.20597557313E+02  0.37882731346E+02 -0.89861027774E+02  0.99671284802E+02  0.00000000000E+00 0. -1.
          3    1    5    5  503    0  0.12291359578E+02 -0.99315090560E+01  0.56279658992E+01  0.16774575779E+02  0.00000000000E+00 0. -1.
         -4    1    5    5    0  503  0.55868262324E+02 -0.49876920586E+03 -0.57163579166E+02  0.50513330739E+03  0.00000000000E+00 0.  1.
         -3    1    6    6    0  502 -0.24917432541E+01  0.27469481430E+03 -0.29407917022E+03  0.40242515844E+03  0.00000000000E+00 0.  1.
<mgrwt>
<rscale>  0 0.12227152E+04</rscale>
<asrwt>0</asrwt>
<pdfrwt beam="1">  1        2 0.17768565E+00 0.12227152E+04</pdfrwt>
<pdfrwt beam="2">  1       -2 0.49786495E-01 0.12227152E+04</pdfrwt>
<totfact> 0.75816034E+01</totfact>
</mgrwt>
</event>
<event>
12    1  0.1532786E-007  0.1283778E+04  0.7818608E-02  0.9042529E-01
          2   -1    0    0  501    0  0.00000000000E+00  0.00000000000E+00  0.13182278834E+04  0.13182278834E+04  0.00000000000E+00 0. -1.
         -2   -1    0    0    0  501 -0.00000000000E+00 -0.00000000000E+00 -0.31255715924E+03  0.31255715924E+03  0.00000000000E+00 0.  1.
         23    2    1    2    0    0 -0.39157162414E+02 -0.23470928506E+03 -0.93500041279E+01  0.25346923359E+03  0.86818764904E+02 0.  0.
        254    2    1    2    0    0  0.39157162414E+02  0.23470928506E+03  0.10150207283E+04  0.13773158091E+04  0.90006112414E+03 0.  0.
        -24    2    4    4    0    0  0.28411300639E+03  0.39009876475E+03  0.24059558864E+03  0.54645261196E+03  0.88470182491E+02 0.  0.
         24    2    4    4    0    0 -0.24495584398E+03 -0.15538947969E+03  0.77442513969E+03  0.83086319713E+03  0.80312511275E+02 0.  0.
         13    1    3    3    0    0 -0.27686396018E+02 -0.24971853006E+02  0.18427418985E+02  0.41589659020E+02  0.00000000000E+00 0. -1.
        -13    1    3    3    0    0 -0.11470766396E+02 -0.20973743206E+03 -0.27777423113E+02  0.21187957457E+03  0.00000000000E+00 0.  1.
          2    1    6    6  502    0 -0.15953424677E+03 -0.13408032636E+03  0.47365016423E+03  0.51746805494E+03  0.00000000000E+00 0. -1.
          3    1    5    5  503    0  0.55972932339E+02  0.13345117907E+03  0.97192479698E+02  0.17432316100E+03  0.00000000000E+00 0. -1.
         -4    1    5    5    0  503  0.22814007405E+03  0.25664758568E+03  0.14340310894E+03  0.37212945097E+03  0.00000000000E+00 0.  1.
         -3    1    6    6    0  502 -0.85421597210E+02 -0.21309153322E+02  0.30077497546E+03  0.31339514219E+03  0.00000000000E+00 0.  1.
<mgrwt>
<rscale>  0 0.12837781E+04</rscale>
<asrwt>0</asrwt>
<pdfrwt beam="1">  1        2 0.20280429E+00 0.12837781E+04</pdfrwt>
<pdfrwt beam="2">  1       -2 0.48085718E-01 0.12837781E+04</pdfrwt>
<totfact> 0.64836470E+01</totfact>
</mgrwt>
</event>
<event>
12    1  0.1532786E-007  0.3432504E+04  0.7818608E-02  0.8129975E-01
         -1   -1    0    0    0  501 -0.00000000000E+00  0.00000000000E+00  0.25602377026E+04  0.25602377026E+04  0.00000000000E+00 0.  1.
          1   -1    0    0  501    0  0.00000000000E+00 -0.00000000000E+00 -0.11504872267E+04  0.11504872267E+04  0.00000000000E+00 0. -1.
         23    2    1    2    0    0 -0.10685560041E+04  0.70445131245E+03  0.16902131809E+04  0.21219935621E+04  0.89288831287E+02 0.  0.
        254    2    1    2    0    0  0.10685560041E+04 -0.70445131245E+03 -0.28046270496E+03  0.15887313671E+04  0.89852347909E+03 0.  0.
        -24    2    4    4    0    0  0.55821265375E+03  0.82089166251E+02  0.90343688608E+02  0.57692971431E+03  0.79661252566E+02 0.  0.
         24    2    4    4    0    0  0.51034335034E+03 -0.78654047870E+03 -0.37080639357E+03  0.10118016528E+04  0.84551423523E+02 0.  0.
         11    1    3    3    0    0 -0.41296407175E+03  0.24859688821E+03  0.57336884609E+03  0.74906045887E+03  0.00000000000E+00 0. -1.
        -11    1    3    3    0    0 -0.65559193234E+03  0.45585442424E+03  0.11168443348E+04  0.13729331032E+04  0.00000000000E+00 0.  1.
          2    1    6    6  502    0  0.13102750677E+03 -0.14574855633E+03 -0.94116132665E+02  0.21741365098E+03  0.00000000000E+00 0. -1.
          1    1    5    5  503    0  0.12889437983E+03  0.21780162522E+02  0.55444391247E+02  0.14199372222E+03  0.00000000000E+00 0. -1.
         -2    1    5    5    0  503  0.42931827392E+03  0.60309003729E+02  0.34899297361E+02  0.43493599209E+03  0.00000000000E+00 0.  1.
         -1    1    6    6    0  502  0.37931584357E+03 -0.64079192237E+03 -0.27669026091E+03  0.79438800182E+03  0.00000000000E+00 0.  1.
<mgrwt>
<rscale>  0 0.34325039E+04</rscale>
<asrwt>0</asrwt>
<pdfrwt beam="1">  1        1 0.17699804E+00 0.34325039E+04</pdfrwt>
<pdfrwt beam="2">  1       -1 0.39388272E+00 0.34325039E+04</pdfrwt>
<totfact> 0.75042519E-02</totfact>
</mgrwt>
</event>
<event>
12    1  0.1532786E-007  0.3057692E+04  0.7818608E-02  0.8227446E-01
          1   -1    0    0  501    0  0.00000000000E+00  0.00000000000E+00  0.18802957648E+04  0.18802957648E+04  0.00000000000E+00 0. -1.
         -1   -1    0    0    0  501 -0.00000000000E+00 -0.00000000000E+00 -0.12430864188E+04  0.12430864188E+04  0.00000000000E+00 0.  1.
         23    2    1    2    0    0 -0.12058791322E+04 -0.40297725156E+02  0.10070714060E+04  0.15742635750E+04  0.91348774804E+02 0.  0.
        254    2    1    2    0    0  0.12058791322E+04  0.40297725156E+02 -0.36986205999E+03  0.15491186085E+04  0.89844428421E+03 0.  0.
        -24    2    4    4    0    0  0.60480563512E+03 -0.42053032427E+03 -0.22514381325E+03  0.77417102120E+03  0.77559161444E+02 0.  0.
         24    2    4    4    0    0  0.60107349707E+03  0.46082804943E+03 -0.14471824674E+03  0.77494758735E+03  0.77126857660E+02 0.  0.
         11    1    3    3    0    0 -0.23897927765E+03  0.23370663454E+02  0.22456725003E+03  0.32876698868E+03  0.00000000000E+00 0.  1.
        -11    1    3    3    0    0 -0.96689985453E+03 -0.63668388610E+02  0.78250415601E+03  0.12454965863E+04  0.00000000000E+00 0. -1.
          2    1    6    6  502    0  0.27242659371E+03  0.17690595312E+03 -0.32958664364E+02  0.32649385717E+03  0.00000000000E+00 0. -1.
          3    1    5    5  503    0  0.18122873735E+03 -0.17000880808E+03 -0.69413337925E+02  0.25800205726E+03  0.00000000000E+00 0. -1.
         -4    1    5    5    0  503  0.42357689776E+03 -0.25052151619E+03 -0.15573047533E+03  0.51616896394E+03  0.00000000000E+00 0.  1.
         -1    1    6    6    0  502  0.32864690336E+03  0.28392209630E+03 -0.11175958238E+03  0.44845373018E+03  0.00000000000E+00 0.  1.
<mgrwt>
<rscale>  0 0.30576920E+04</rscale>
<asrwt>0</asrwt>
<pdfrwt beam="1">  1        1 0.28927627E+00 0.30576920E+04</pdfrwt>
<pdfrwt beam="2">  1       -1 0.19124406E+00 0.30576920E+04</pdfrwt>
<totfact> 0.52700039E-01</totfact>
</mgrwt>
</event>
<event>
12    1  0.1803845E-007  0.2587512E+04  0.7818608E-02  0.8372455E-01
          1   -1    0    0  501    0  0.00000000000E+00  0.00000000000E+00  0.28369269554E+04  0.28369269554E+04  0.00000000000E+00 0. -1.
         -1   -1    0    0    0  501 -0.00000000000E+00 -0.00000000000E+00 -0.59000627913E+03  0.59000627913E+03  0.00000000000E+00 0.  1.
         23    2    1    2    0    0 -0.13786926134E+03  0.58729504923E+03 -0.28257691110E+03  0.67248448333E+03  0.91990551491E+02 0.  0.
        254    2    1    2    0    0  0.13786926134E+03 -0.58729504923E+03  0.25294975874E+04  0.27544487512E+04  0.90813350918E+03 0.  0.
        -24    2    4    4    0    0 -0.66607271546E+01 -0.27636588581E+03  0.23335966413E+04  0.23512655711E+04  0.79712190831E+02 0.  0.
         24    2    4    4    0    0  0.14452998849E+03 -0.31092916342E+03  0.19590094609E+03  0.40318318014E+03  0.81324251210E+02 0.  0.
         13    1    3    3    0    0 -0.60862062319E+02  0.41567500834E+03 -0.16953070830E+03  0.45302380097E+03  0.00000000000E+00 0.  1.
        -13    1    3    3    0    0 -0.77007199021E+02  0.17162004089E+03 -0.11304620279E+03  0.21946068236E+03  0.00000000000E+00 0. -1.
          4    1    6    6  502    0  0.12333547028E+03 -0.30686312846E+03  0.18168591052E+03  0.37734120888E+03  0.00000000000E+00 0. -1.
          1    1    5    5  503    0  0.14725796693E+02 -0.24218078253E+03  0.21250561791E+04  0.21388623483E+04  0.00000000000E+00 0. -1.
         -2    1    5    5    0  503 -0.21386523848E+02 -0.34185103278E+02  0.20854046219E+03  0.21240322280E+03  0.00000000000E+00 0.  1.
         -3    1    6    6    0  502  0.21194518210E+02 -0.40660349553E+01  0.14215035573E+02  0.25841971263E+02  0.00000000000E+00 0.  1.
<mgrwt>
<rscale>  0 0.25875121E+04</rscale>
<asrwt>0</asrwt>
<pdfrwt beam="1">  1        1 0.43645029E+00 0.25875121E+04</pdfrwt>
<pdfrwt beam="2">  1       -1 0.90770198E-01 0.25875121E+04</pdfrwt>
<totfact> 0.81936233E-01</totfact>
</mgrwt>
</event>
<event>
12    1  0.1532786E-007  0.1368719E+04  0.7818608E-02  0.8976778E-01
         -2   -1    0    0    0  501 -0.00000000000E+00  0.00000000000E+00  0.10377456583E+04  0.10377456583E+04  0.00000000000E+00 0.  1.
          2   -1    0    0  501    0  0.00000000000E+00 -0.00000000000E+00 -0.45131252543E+03  0.45131252543E+03  0.00000000000E+00 0. -1.
         23    2    1    2    0    0  0.12260740513E+03 -0.29210466414E+03  0.41129448201E+03  0.52703207128E+03  0.90785145376E+02 0.  0.
        254    2    1    2    0    0 -0.12260740513E+03  0.29210466414E+03  0.17513865085E+03  0.96202611243E+03  0.89132653016E+03 0.  0.
        -24    2    4    4    0    0 -0.28010347613E+03  0.44940151571E+03  0.37361820188E+03  0.65306739033E+03  0.80540523206E+02 0.  0.
         24    2    4    4    0    0  0.15749607100E+03 -0.15729685157E+03 -0.19847955102E+03  0.30895872210E+03  0.80709651785E+02 0.  0.
         11    1    3    3    0    0  0.58048326122E+02 -0.22730379439E+03  0.25964569768E+03  0.34993215261E+03  0.00000000000E+00 0.  1.
        -11    1    3    3    0    0  0.64559079007E+02 -0.64800869751E+02  0.15164878433E+03  0.17709991867E+03  0.00000000000E+00 0. -1.
          2    1    6    6  502    0  0.88198284458E+02 -0.76038125107E+02 -0.15448005235E+03  0.19345495710E+03  0.00000000000E+00 0. -1.
          1    1    5    5  503    0 -0.57385776899E+02  0.82130999672E+02  0.11140071162E+03  0.14982905942E+03  0.00000000000E+00 0. -1.
         -2    1    5    5    0  503 -0.22271769923E+03  0.36727051604E+03  0.26221749026E+03  0.50323833091E+03  0.00000000000E+00 0.  1.
         -1    1    6    6    0  502  0.69297786541E+02 -0.81258726463E+02 -0.43999498675E+02  0.11550376500E+03  0.00000000000E+00 0.  1.
<mgrwt>
<rscale>  0 0.13687185E+04</rscale>
<asrwt>0</asrwt>
<pdfrwt beam="1">  1        2 0.69432697E-01 0.13687185E+04</pdfrwt>
<pdfrwt beam="2">  1       -2 0.15965318E+00 0.13687185E+04</pdfrwt>
<totfact> 0.17114757E+01</totfact>
</mgrwt>
</event>
