<event>
12    1  0.1518126E-007  0.1544322E+04  0.7818608E-02  0.8855503E-01
          2   -1    0    0  501    0  0.00000000000E+00  0.00000000000E+00  0.51534157354E+03  0.51534157354E+03  0.00000000000E+00 0.  1.
         -2   -1    0    0    0  501 -0.00000000000E+00 -0.00000000000E+00 -0.11569657158E+04  0.11569657158E+04  0.00000000000E+00 0. -1.
         23    2    1    2    0    0 -0.25380001219E+03  0.52980801356E+02  0.25502374241E+03  0.37476794451E+03  0.90512383334E+02 0.  0.
        254    2    1    2    0    0  0.25380001219E+03 -0.52980801356E+02 -0.89664788464E+03  0.12975393448E+04  0.90133762309E+03 0.  0.
        -24    2    4    4    0    0 -0.13088730215E+03 -0.30470139886E+03 -0.72178916904E+03  0.79911809525E+03  0.87382476914E+02 0.  0.
         24    2    4    4    0    0  0.38468731434E+03  0.25172059750E+03 -0.17485871560E+03  0.49842124957E+03  0.80626190381E+02 0.  0.
         13    1    3    3    0    0 -0.15850469047E+03  0.62786615083E+02  0.11706359895E+03  0.20680856397E+03  0.00000000000E+00 0.  1.
        -13    1    3    3    0    0 -0.95295321723E+02 -0.98058137263E+01  0.13796014347E+03  0.16795938054E+03  0.00000000000E+00 0. -1.
          2    1    6    6  502    0  0.37540077610E+03  0.23811824554E+03 -0.18213476659E+03  0.48041556465E+03  0.00000000000E+00 0. -1.
          1    1    5    5  503    0 -0.10361744459E+03 -0.23154502269E+03 -0.45266688046E+03  0.51889977551E+03  0.00000000000E+00 0. -1.
         -2    1    5    5    0  503 -0.27269857557E+02 -0.73156376170E+02 -0.26912228858E+03  0.28021831974E+03  0.00000000000E+00 0.  1.
         -3    1    6    6    0  502  0.92865382357E+01  0.13602351963E+02  0.72760509850E+01  0.18005684915E+02  0.00000000000E+00 0.  1.
<mgrwt>
<rscale>  0 0.15443219E+04</rscale>
<asrwt>0</asrwt>
<pdfrwt beam="1">  1        2 0.79283319E-01 0.15443219E+04</pdfrwt>
<pdfrwt beam="2">  1       -2 0.17799472E+00 0.15443219E+04</pdfrwt>
<totfact> 0.10706271E+01</totfact>
</mgrwt>
</event>
<event>
12    1  0.1518126E-007  0.2021518E+04  0.7818608E-02  0.8596626E-01
          2   -1    0    0  501    0  0.00000000000E+00  0.00000000000E+00  0.87387394602E+03  0.87387394602E+03  0.00000000000E+00 0.  1.
         -2   -1    0    0    0  501 -0.00000000000E+00 -0.00000000000E+00 -0.11690859097E+04  0.11690859097E+04  0.00000000000E+00 0. -1.
         23    2    1    2    0    0  0.22984813735E+03 -0.64078308864E+03 -0.54876788004E+03  0.87892761715E+03  0.89075457333E+02 0.  0.
        254    2    1    2    0    0 -0.22984813735E+03  0.64078308864E+03  0.25355591635E+03  0.11640322386E+04  0.90953137209E+03 0.  0.
        -24    2    4    4    0    0  0.22517280213E+03  0.30617405071E+03  0.41806097911E+03  0.57057502728E+03  0.79596101385E+02 0.  0.
         24    2    4    4    0    0 -0.45502093948E+03  0.33460903793E+03 -0.16450506276E+03  0.59345721130E+03  0.78245014824E+02 0.  0.
         11    1    3    3    0    0  0.19727203762E+03 -0.61207021436E+03 -0.51690453976E+03  0.82506757745E+03  0.00000000000E+00 0. -1.
        -11    1    3    3    0    0  0.32576099731E+02 -0.28712874281E+02 -0.31863340284E+02  0.53860039706E+02  0.00000000000E+00 0.  1.
          2    1    6    6  502    0 -0.27061400814E+03  0.15577089323E+03 -0.72107771721E+02  0.32046223385E+03  0.00000000000E+00 0. -1.
          1    1    5    5  503    0  0.20913736440E+03  0.29923046853E+03  0.37155218809E+03  0.52089186878E+03  0.00000000000E+00 0. -1.
         -2    1    5    5    0  503  0.16035437727E+02  0.69435821798E+01  0.46508791021E+02  0.49683158503E+02  0.00000000000E+00 0.  1.
         -1    1    6    6    0  502 -0.18440693134E+03  0.17883814470E+03 -0.92397291036E+02  0.27299497746E+03  0.00000000000E+00 0.  1.
<mgrwt>
<rscale>  0 0.20215180E+04</rscale>
<asrwt>0</asrwt>
<pdfrwt beam="1">  1        2 0.13444215E+00 0.20215180E+04</pdfrwt>
<pdfrwt beam="2">  1       -2 0.17985937E+00 0.20215180E+04</pdfrwt>
<totfact> 0.51473565E+00</totfact>
</mgrwt>
</event>
<event>
12    1  0.1518126E-007  0.1924486E+04  0.7818608E-02  0.8642763E-01
          1   -1    0    0  501    0  0.00000000000E+00  0.00000000000E+00  0.88556742879E+03  0.88556742879E+03  0.00000000000E+00 0. -1.
         -1   -1    0    0    0  501 -0.00000000000E+00 -0.00000000000E+00 -0.10455574525E+04  0.10455574525E+04  0.00000000000E+00 0.  1.
         23    2    1    2    0    0 -0.26044231807E+03  0.25939786435E+03  0.59054884221E+03  0.70153226618E+03  0.91006221712E+02 0.  0.
        254    2    1    2    0    0  0.26044231807E+03 -0.25939786435E+03 -0.75053886591E+03  0.12295926151E+04  0.90192680237E+03 0.  0.
        -24    2    4    4    0    0  0.44254843656E+03 -0.54846457198E+02 -0.30019395069E+02  0.45464186683E+03  0.83311526343E+02 0.  0.
         24    2    4    4    0    0 -0.18210611849E+03 -0.20455140715E+03 -0.72051947085E+03  0.77495074829E+03  0.79977733444E+02 0.  0.
         13    1    3    3    0    0 -0.10364807078E+02  0.10454915703E+02  0.77287253110E+02  0.78676896110E+02  0.00000000000E+00 0.  1.
        -13    1    3    3    0    0 -0.25007751099E+03  0.24894294864E+03  0.51326158910E+03  0.62285537007E+03  0.00000000000E+00 0. -1.
          2    1    6    6  502    0 -0.19000138733E+03 -0.19616164879E+03 -0.67896333341E+03  0.73182725268E+03  0.00000000000E+00 0. -1.
          3    1    5    5  503    0  0.33848447843E+03 -0.24199594742E+02 -0.53790296454E+02  0.34358515468E+03  0.00000000000E+00 0. -1.
         -4    1    5    5    0  503  0.10406395813E+03 -0.30646862456E+02  0.23770901385E+02  0.11105671215E+03  0.00000000000E+00 0.  1.
         -1    1    6    6    0  502  0.78952688376E+01 -0.83897583567E+01 -0.41556137432E+02  0.43123495609E+02  0.00000000000E+00 0.  1.
<mgrwt>
<rscale>  0 0.19244860E+04</rscale>
<asrwt>0</asrwt>
<pdfrwt beam="1">  1        1 0.13624114E+00 0.19244860E+04</pdfrwt>
<pdfrwt beam="2">  1       -1 0.16085499E+00 0.19244860E+04</pdfrwt>
<totfact> 0.50276345E+00</totfact>
</mgrwt>
</event>
<event>
12    1  0.1518126E-007  0.2215017E+04  0.7818608E-02  0.8512203E-01
         -2   -1    0    0    0  501 -0.00000000000E+00  0.00000000000E+00  0.72938115377E+03  0.72938115377E+03  0.00000000000E+00 0. -1.
          2   -1    0    0  501    0  0.00000000000E+00 -0.00000000000E+00 -0.16816661319E+04  0.16816661319E+04  0.00000000000E+00 0.  1.
         23    2    1    2    0    0 -0.62269474184E+03  0.46527900259E+03  0.14662002440E+03  0.79589888567E+03  0.87888070168E+02 0.  0.
        254    2    1    2    0    0  0.62269474184E+03 -0.46527900259E+03 -0.10989050025E+04  0.16151484000E+04  0.89268071428E+03 0.  0.
        -24    2    4    4    0    0  0.60494746083E+03  0.94322777115E+02 -0.54828615782E+03  0.82577103175E+03  0.80136567000E+02 0.  0.
         24    2    4    4    0    0  0.17747281019E+02 -0.55960177971E+03 -0.55061884467E+03  0.78937736822E+03  0.80413926145E+02 0.  0.
         11    1    3    3    0    0 -0.46250821647E+03  0.36083861779E+03  0.73642063977E+02  0.59122035822E+03  0.00000000000E+00 0. -1.
        -11    1    3    3    0    0 -0.16018652538E+03  0.10444038480E+03  0.72977960424E+02  0.20467852745E+03  0.00000000000E+00 0.  1.
          4    1    6    6  502    0  0.38942670763E+02 -0.38051270515E+03 -0.33666051433E+03  0.50955544575E+03  0.00000000000E+00 0. -1.
          3    1    5    5  503    0  0.51579672318E+02  0.30689094573E+02 -0.44346660879E+02  0.74625126153E+02  0.00000000000E+00 0. -1.
         -4    1    5    5    0  503  0.55336778851E+03  0.63633682542E+02 -0.50393949694E+03  0.75114590559E+03  0.00000000000E+00 0.  1.
         -3    1    6    6    0  502 -0.21195389744E+02 -0.17908907456E+03 -0.21395833034E+03  0.27982192247E+03  0.00000000000E+00 0.  1.
<mgrwt>
<rscale>  0 0.22150175E+04</rscale>
<asrwt>0</asrwt>
<pdfrwt beam="1">  1        2 0.25871786E+00 0.22150175E+04</pdfrwt>
<pdfrwt beam="2">  1       -2 0.11221249E+00 0.22150175E+04</pdfrwt>
<totfact> 0.57383993E+00</totfact>
</mgrwt>
</event>
<event>
12    1  0.1518126E-007  0.1753484E+04  0.7818608E-02  0.8731435E-01
          2   -1    0    0  501    0  0.00000000000E+00  0.00000000000E+00  0.92006114326E+03  0.92006114326E+03  0.00000000000E+00 0. -1.
         -2   -1    0    0    0  501 -0.00000000000E+00 -0.00000000000E+00 -0.83546272047E+03  0.83546272047E+03  0.00000000000E+00 0.  1.
         23    2    1    2    0    0 -0.24897379139E+03 -0.20232583523E+03 -0.49078046808E+03  0.59311515680E+03  0.89422754211E+02 0.  0.
        254    2    1    2    0    0  0.24897379139E+03  0.20232583523E+03  0.57537889087E+03  0.11624087069E+04  0.95771052072E+03 0.  0.
        -24    2    4    4    0    0  0.36851749497E+03  0.74651951159E+02  0.78738072174E+03  0.87615128513E+03  0.79338613309E+02 0.  0.
         24    2    4    4    0    0 -0.11954370358E+03  0.12767388407E+03 -0.21200183086E+03  0.28625742181E+03  0.80045096730E+02 0.  0.
         13    1    3    3    0    0 -0.42884548526E+02 -0.76951032810E+01 -0.32920254502E+02  0.54608078828E+02  0.00000000000E+00 0. -1.
        -13    1    3    3    0    0 -0.20608924287E+03 -0.19463073195E+03 -0.45786021358E+03  0.53850707797E+03  0.00000000000E+00 0.  1.
          2    1    6    6  502    0 -0.12407167351E+03  0.10436783563E+03 -0.20527642069E+03  0.26158141022E+03  0.00000000000E+00 0. -1.
          1    1    5    5  503    0  0.26204574862E+03  0.61968205667E+02  0.63588979296E+03  0.69055330111E+03  0.00000000000E+00 0. -1.
         -2    1    5    5    0  503  0.10647174635E+03  0.12683745492E+02  0.15149092877E+03  0.18559798402E+03  0.00000000000E+00 0.  1.
         -3    1    6    6    0  502  0.45279699329E+01  0.23306048441E+02 -0.67254101705E+01  0.24676011582E+02  0.00000000000E+00 0.  1.
<mgrwt>
<rscale>  0 0.17534843E+04</rscale>
<asrwt>0</asrwt>
<pdfrwt beam="1">  1        2 0.14154787E+00 0.17534843E+04</pdfrwt>
<pdfrwt beam="2">  1       -2 0.12853273E+00 0.17534843E+04</pdfrwt>
<totfact> 0.12037060E+01</totfact>
</mgrwt>
</event>
<event>
12    1  0.1518126E-007  0.1988219E+04  0.7818608E-02  0.8612149E-01
         -1   -1    0    0    0  501 -0.00000000000E+00  0.00000000000E+00  0.41413840997E+03  0.41413840997E+03  0.00000000000E+00 0.  1.
          1   -1    0    0  501    0  0.00000000000E+00 -0.00000000000E+00 -0.23862883567E+04  0.23862883567E+04  0.00000000000E+00 0. -1.
         23    2    1    2    0    0 -0.31556433632E+03  0.31553529517E+03  0.13490096031E+03  0.47508748446E+03  0.91468442330E+02 0.  0.
        254    2    1    2    0    0  0.31556433632E+03 -0.31553529517E+03 -0.21070509070E+04  0.23253392822E+04  0.87658192982E+03 0.  0.
        -24    2    4    4    0    0  0.18672568293E+03 -0.54917826905E+03 -0.81720447612E+03  0.10053178491E+04  0.79859690149E+02 0.  0.
         24    2    4    4    0    0  0.12883865339E+03  0.23364297388E+03 -0.12898464309E+04  0.13200214331E+04  0.86973160341E+02 0.  0.
         11    1    3    3    0    0 -0.12605962048E+03  0.94212054765E+02  0.88576995335E+01  0.15762423044E+03  0.00000000000E+00 0. -1.
        -11    1    3    3    0    0 -0.18950471584E+03  0.22132324040E+03  0.12604326078E+03  0.31746325402E+03  0.00000000000E+00 0.  1.
          2    1    6    6  502    0  0.98901702294E+02  0.20597114510E+03 -0.92056143244E+03  0.94849302065E+03  0.00000000000E+00 0. -1.
          1    1    5    5  503    0  0.19128345244E+03 -0.48813184206E+03 -0.72826687241E+03  0.89734870138E+03  0.00000000000E+00 0. -1.
         -2    1    5    5    0  503 -0.45577695169E+01 -0.61046426989E+02 -0.88937603708E+02  0.10796914774E+03  0.00000000000E+00 0.  1.
         -1    1    6    6    0  502  0.29936951099E+02  0.27671828777E+02 -0.36928499846E+03  0.37152841242E+03  0.00000000000E+00 0.  1.
<mgrwt>
<rscale>  0 0.19882190E+04</rscale>
<asrwt>0</asrwt>
<pdfrwt beam="1">  1        1 0.36712129E+00 0.19882190E+04</pdfrwt>
<pdfrwt beam="2">  1       -1 0.63713601E-01 0.19882190E+04</pdfrwt>
<totfact> 0.37678987E+00</totfact>
</mgrwt>
</event>
<event>
12    1  0.1518126E-007  0.1409569E+04  0.7818608E-02  0.8946921E-01
          2   -1    0    0  501    0  0.00000000000E+00  0.00000000000E+00  0.61023427153E+03  0.61023427153E+03  0.00000000000E+00 0.  1.
         -2   -1    0    0    0  501 -0.00000000000E+00 -0.00000000000E+00 -0.81398434094E+03  0.81398434094E+03  0.00000000000E+00 0. -1.
         23    2    1    2    0    0  0.11200230610E+03 -0.23576598679E+02  0.32440485192E+03  0.35621858453E+03  0.92481346434E+02 0.  0.
        254    2    1    2    0    0 -0.11200230610E+03  0.23576598679E+02 -0.52815492134E+03  0.10680000279E+04  0.92118188550E+03 0.  0.
        -24    2    4    4    0    0 -0.50104585032E+03 -0.22024505521E+02 -0.40462066359E+03  0.64935749401E+03  0.80095259893E+02 0.  0.
         24    2    4    4    0    0  0.38904354422E+03  0.45601104201E+02 -0.12353425775E+03  0.41864253393E+03  0.81034056868E+02 0.  0.
         13    1    3    3    0    0  0.74472602086E+02  0.94859318918E+01  0.27811299248E+03  0.28806767946E+03  0.00000000000E+00 0.  1.
        -13    1    3    3    0    0  0.37529704011E+02 -0.33062530571E+02  0.46291859442E+02  0.68150905068E+02  0.00000000000E+00 0. -1.
          2    1    6    6  502    0  0.59851788911E+02  0.13565816841E+02 -0.51561928948E+02  0.80155477288E+02  0.00000000000E+00 0. -1.
          1    1    5    5  503    0 -0.35895873672E+02 -0.13618745114E+02 -0.56474419491E+02  0.68288681507E+02  0.00000000000E+00 0. -1.
         -2    1    5    5    0  503 -0.46514997665E+03 -0.84057604075E+01 -0.34814624410E+03  0.58106881250E+03  0.00000000000E+00 0.  1.
         -1    1    6    6    0  502  0.32919175531E+03  0.32035287360E+02 -0.71972328800E+02  0.33848705664E+03  0.00000000000E+00 0.  1.
<mgrwt>
<rscale>  0 0.14095689E+04</rscale>
<asrwt>0</asrwt>
<pdfrwt beam="1">  1        2 0.93882196E-01 0.14095689E+04</pdfrwt>
<pdfrwt beam="2">  1       -2 0.12522836E+00 0.14095689E+04</pdfrwt>
<totfact> 0.22548811E+01</totfact>
</mgrwt>
</event>
<event>
12    1  0.1518126E-007  0.2084252E+04  0.7818608E-02  0.8568212E-01
         -2   -1    0    0    0  501 -0.00000000000E+00  0.00000000000E+00  0.68129589903E+03  0.68129589903E+03  0.00000000000E+00 0.  1.
          2   -1    0    0  501    0  0.00000000000E+00 -0.00000000000E+00 -0.15940602879E+04  0.15940602879E+04  0.00000000000E+00 0. -1.
         23    2    1    2    0    0 -0.71739098987E+03 -0.12140816312E+03  0.11789478228E+03  0.74259801503E+03  0.90348535234E+02 0.  0.
        254    2    1    2    0    0  0.71739098987E+03  0.12140816312E+03 -0.10306591711E+04  0.15327581719E+04  0.87045936838E+03 0.  0.
        -24    2    4    4    0    0  0.14532590739E+03  0.35129691654E+03 -0.76300482828E+03  0.85606717133E+03  0.78393181658E+02 0.  0.
         24    2    4    4    0    0  0.57206508248E+03 -0.22988875342E+03 -0.26765434287E+03  0.67669100056E+03  0.78514746619E+02 0.  0.
         13    1    3    3    0    0 -0.26640343846E+03 -0.88528510203E+02  0.54918250277E+02  0.28604912752E+03  0.00000000000E+00 0.  1.
        -13    1    3    3    0    0 -0.45098755141E+03 -0.32879652918E+02  0.62976532003E+02  0.45654888751E+03  0.00000000000E+00 0. -1.
          2    1    6    6  502    0  0.49121630185E+03 -0.19968622667E+03 -0.25848162269E+03  0.58989896897E+03  0.00000000000E+00 0. -1.
          1    1    5    5  503    0  0.13325598371E+03  0.34843113897E+03 -0.71475618152E+03  0.80624922624E+03  0.00000000000E+00 0. -1.
         -2    1    5    5    0  503  0.12069923681E+02  0.28657775636E+01 -0.48248646756E+02  0.49817945085E+02  0.00000000000E+00 0.  1.
         -1    1    6    6    0  502  0.80848780635E+02 -0.30202526743E+02 -0.91727201821E+01  0.86792031589E+02  0.00000000000E+00 0.  1.
<mgrwt>
<rscale>  0 0.20842521E+04</rscale>
<asrwt>0</asrwt>
<pdfrwt beam="1">  1        2 0.24524004E+00 0.20842521E+04</pdfrwt>
<pdfrwt beam="2">  1       -2 0.10481475E+00 0.20842521E+04</pdfrwt>
<totfact> 0.76554932E+00</totfact>
</mgrwt>
</event>
<event>
12    1  0.1746290E-007  0.1753750E+04  0.7818608E-02  0.8731289E-01
          2   -1    0    0  501    0  0.00000000000E+00  0.00000000000E+00  0.13525406740E+04  0.13525406740E+04  0.00000000000E+00 0.  1.
         -2   -1    0    0    0  501 -0.00000000000E+00 -0.00000000000E+00 -0.56849273591E+03  0.56849273591E+03  0.00000000000E+00 0. -1.
         23    2    1    2    0    0  0.60392110637E+03 -0.21023347095E+03  0.23536863363E+03  0.68689907181E+03  0.86678291025E+02 0.  0.
        254    2    1    2    0    0 -0.60392110637E+03  0.21023347095E+03  0.54867930448E+03  0.12341343381E+04  0.90173154007E+03 0.  0.
        -24    2    4    4    0    0  0.17813534818E+03 -0.23022872352E+02  0.33271514576E+03  0.38618822166E+03  0.78611191349E+02 0.  0.
         24    2    4    4    0    0 -0.78205645455E+03  0.23325634330E+03  0.21596415872E+03  0.84794611647E+03  0.79694910741E+02 0.  0.
         13    1    3    3    0    0  0.27300605446E+03 -0.92637111839E+02  0.15216696871E+03  0.32598884432E+03  0.00000000000E+00 0.  1.
        -13    1    3    3    0    0  0.33091505191E+03 -0.11759635911E+03  0.83201664920E+02  0.36091022748E+03  0.00000000000E+00 0. -1.
          2    1    6    6  502    0 -0.77173615720E+03  0.21949479328E+03  0.21531825687E+03  0.83073257571E+03  0.00000000000E+00 0. -1.
          3    1    5    5  503    0  0.18521230833E+03 -0.23902044347E+02  0.32858887128E+03  0.37794914103E+03  0.00000000000E+00 0. -1.
         -4    1    5    5    0  503 -0.70769601518E+01  0.87917199444E+00  0.41262744832E+01  0.82390806221E+01  0.00000000000E+00 0.  1.
         -1    1    6    6    0  502 -0.10320297343E+02  0.13761550018E+02  0.64590185342E+00  0.17213540756E+02  0.00000000000E+00 0.  1.
<mgrwt>
<rscale>  0 0.17537498E+04</rscale>
<asrwt>0</asrwt>
<pdfrwt beam="1">  1        2 0.20808318E+00 0.17537498E+04</pdfrwt>
<pdfrwt beam="2">  1       -2 0.87460422E-01 0.17537498E+04</pdfrwt>
<totfact> 0.16483299E+01</totfact>
</mgrwt>
</event>
<event>
12    1  0.1518126E-007  0.1328958E+04  0.7818608E-02  0.9006911E-01
          1   -1    0    0  501    0  0.00000000000E+00  0.00000000000E+00  0.50662968559E+03  0.50662968559E+03  0.00000000000E+00 0. -1.
         -1   -1    0    0    0  501 -0.00000000000E+00 -0.00000000000E+00 -0.87150921862E+03  0.87150921862E+03  0.00000000000E+00 0.  1.
         23    2    1    2    0    0  0.66622358419E+02  0.21199697487E+03 -0.20265792614E+03  0.31448786179E+03  0.91929996149E+02 0.  0.
        254    2    1    2    0    0 -0.66622358419E+02 -0.21199697487E+03 -0.16222160688E+03  0.10636510424E+04  0.10274514267E+04 0.  0.
        -24    2    4    4    0    0 -0.48414156445E+02 -0.54844870599E+03 -0.36210537555E+03  0.66372183786E+03  0.79160984061E+02 0.  0.
         24    2    4    4    0    0 -0.18208201974E+02  0.33645173112E+03  0.19988376867E+03  0.39992920455E+03  0.80365052615E+02 0.  0.
         13    1    3    3    0    0  0.26687106480E+02  0.44643328572E+02 -0.47198952436E+01  0.52225528713E+02  0.00000000000E+00 0. -1.
        -13    1    3    3    0    0  0.39935251939E+02  0.16735364629E+03 -0.19793803090E+03  0.26226233308E+03  0.00000000000E+00 0.  1.
          4    1    6    6  502    0 -0.42377392996E+02  0.29614643945E+03  0.16758787474E+03  0.34290560333E+03  0.00000000000E+00 0. -1.
          3    1    5    5  503    0 -0.46046158270E+01 -0.42228157408E+03 -0.26449705570E+03  0.49829872845E+03  0.00000000000E+00 0. -1.
         -4    1    5    5    0  503 -0.43809540618E+02 -0.12616713191E+03 -0.97608319848E+02  0.16542310941E+03  0.00000000000E+00 0.  1.
         -3    1    6    6    0  502  0.24169191022E+02  0.40305291670E+02  0.32295893930E+02  0.57023601219E+02  0.00000000000E+00 0.  1.
<mgrwt>
<rscale>  0 0.13289582E+04</rscale>
<asrwt>0</asrwt>
<pdfrwt beam="1">  1        1 0.77943029E-01 0.13289582E+04</pdfrwt>
<pdfrwt beam="2">  1       -1 0.13407834E+00 0.13289582E+04</pdfrwt>
<totfact> 0.20007375E+01</totfact>
</mgrwt>
</event>
<event>
12    1  0.1518126E-007  0.1924907E+04  0.7818608E-02  0.8642557E-01
         -1   -1    0    0    0  501 -0.00000000000E+00  0.00000000000E+00  0.39612747556E+03  0.39612747556E+03  0.00000000000E+00 0. -1.
          1   -1    0    0  501    0  0.00000000000E+00 -0.00000000000E+00 -0.23384313150E+04  0.23384313150E+04  0.00000000000E+00 0.  1.
         23    2    1    2    0    0  0.16448935880E+03  0.72983750760E+03 -0.89470230862E+03  0.11697811813E+04  0.90422643722E+02 0.  0.
        254    2    1    2    0    0 -0.16448935880E+03 -0.72983750760E+03 -0.10476015309E+04  0.15647776093E+04  0.88957319111E+03 0.  0.
        -24    2    4    4    0    0 -0.23268270034E+03 -0.82167671170E+03 -0.48565732991E+03  0.98566710312E+03  0.79892042684E+02 0.  0.
         24    2    4    4    0    0  0.68193341539E+02  0.91839204100E+02 -0.56194420096E+03  0.57911050615E+03  0.80640697556E+02 0.  0.
         13    1    3    3    0    0  0.61058016960E+02  0.34403726582E+03 -0.35242272115E+03  0.49627764012E+03  0.00000000000E+00 0. -1.
        -13    1    3    3    0    0  0.10343134184E+03  0.38580024178E+03 -0.54227958747E+03  0.67350354121E+03  0.00000000000E+00 0.  1.
          4    1    6    6  502    0  0.16355540678E+02 -0.56466154147E+01 -0.21979145746E+02  0.27972679962E+02  0.00000000000E+00 0. -1.
          3    1    5    5  503    0 -0.12549892317E+03 -0.31425631979E+03 -0.21144519330E+03  0.39901890183E+03  0.00000000000E+00 0. -1.
         -4    1    5    5    0  503 -0.10718377717E+03 -0.50742039191E+03 -0.27421213661E+03  0.58664820129E+03  0.00000000000E+00 0.  1.
         -3    1    6    6    0  502  0.51837800860E+02  0.97485819515E+02 -0.53996505522E+03  0.55113782619E+03  0.00000000000E+00 0.  1.
<mgrwt>
<rscale>  0 0.19249072E+04</rscale>
<asrwt>0</asrwt>
<pdfrwt beam="1">  1        1 0.35975867E+00 0.19249072E+04</pdfrwt>
<pdfrwt beam="2">  1       -1 0.60942688E-01 0.19249072E+04</pdfrwt>
<totfact> 0.44669981E+00</totfact>
</mgrwt>
</event>
<event>
12    1  0.1518126E-007  0.2403656E+04  0.7818608E-02  0.8438136E-01
         -1   -1    0    0    0  501 -0.00000000000E+00  0.00000000000E+00  0.92708110308E+03  0.92708110308E+03  0.00000000000E+00 0.  1.
          1   -1    0    0  501    0  0.00000000000E+00 -0.00000000000E+00 -0.15579984503E+04  0.15579984503E+04  0.00000000000E+00 0. -1.
         23    2    1    2    0    0 -0.15669104690E+03 -0.14447509089E+03  0.78830939994E+03  0.82157800174E+03  0.90186289694E+02 0.  0.
        254    2    1    2    0    0  0.15669104690E+03  0.14447509089E+03 -0.14192267471E+04  0.16635015516E+04  0.84119422035E+03 0.  0.
        -24    2    4    4    0    0  0.40301446665E+03  0.28141176907E+03 -0.52996322730E+03  0.72711285937E+03  0.78859646705E+02 0.  0.
         24    2    4    4    0    0 -0.24632341975E+03 -0.13693667818E+03 -0.88926351982E+03  0.93638869222E+03  0.81285264887E+02 0.  0.
         13    1    3    3    0    0  0.78372609945E+00 -0.36660598724E+02  0.79914572346E+02  0.87925835786E+02  0.00000000000E+00 0. -1.
        -13    1    3    3    0    0 -0.15747477300E+03 -0.10781449216E+03  0.70839482759E+03  0.73365216595E+03  0.00000000000E+00 0.  1.
          2    1    6    6  502    0 -0.17194209689E+03 -0.66267847170E+02 -0.65946983228E+03  0.68473058346E+03  0.00000000000E+00 0. -1.
          3    1    5    5  503    0  0.15869044136E+02 -0.44828194434E+01 -0.19826810908E+02  0.25788072102E+02  0.00000000000E+00 0. -1.
         -4    1    5    5    0  503  0.38714542251E+03  0.28589458851E+03 -0.51013641639E+03  0.70132478727E+03  0.00000000000E+00 0.  1.
         -1    1    6    6    0  502 -0.74381322862E+02 -0.70668831013E+02 -0.22979368755E+03  0.25165810876E+03  0.00000000000E+00 0.  1.
<mgrwt>
<rscale>  0 0.24036563E+04</rscale>
<asrwt>0</asrwt>
<pdfrwt beam="1">  1        1 0.23969207E+00 0.24036563E+04</pdfrwt>
<pdfrwt beam="2">  1       -1 0.14262786E+00 0.24036563E+04</pdfrwt>
<totfact> 0.21327475E+00</totfact>
</mgrwt>
</event>
<event>
12    1  0.1518126E-007  0.2153589E+04  0.7818608E-02  0.8537997E-01
         -1   -1    0    0    0  501 -0.00000000000E+00  0.00000000000E+00  0.15849660267E+04  0.15849660267E+04  0.00000000000E+00 0.  1.
          1   -1    0    0  501    0  0.00000000000E+00 -0.00000000000E+00 -0.73155307139E+03  0.73155307139E+03  0.00000000000E+00 0. -1.
         23    2    1    2    0    0 -0.37053372082E+03  0.60332148258E+03  0.92480886333E+03  0.11681403024E+04  0.89377193905E+02 0.  0.
        254    2    1    2    0    0  0.37053372082E+03 -0.60332148258E+03 -0.71395908015E+02  0.11483787957E+04  0.90132371161E+03 0.  0.
        -24    2    4    4    0    0 -0.24453753305E+03 -0.69570565273E+02 -0.18268008867E+03  0.32284296743E+03  0.78847309432E+02 0.  0.
         24    2    4    4    0    0  0.61507125386E+03 -0.53375091731E+03  0.11128418065E+03  0.82553582826E+03  0.76958078333E+02 0.  0.
         13    1    3    3    0    0 -0.91703125516E+02  0.16269278635E+03  0.18362152183E+03  0.26190698586E+03  0.00000000000E+00 0. -1.
        -13    1    3    3    0    0 -0.27883059530E+03  0.44062869623E+03  0.74118734150E+03  0.90623331655E+03  0.00000000000E+00 0.  1.
          2    1    6    6  502    0  0.45542288376E+03 -0.37151091314E+03  0.50246682614E+02  0.58987718277E+03  0.00000000000E+00 0. -1.
          1    1    5    5  503    0 -0.16689079486E+03 -0.37251001799E+02 -0.76342420683E+02  0.18726542591E+03  0.00000000000E+00 0. -1.
         -2    1    5    5    0  503 -0.77646738186E+02 -0.32319563474E+02 -0.10633766799E+03  0.13557754153E+03  0.00000000000E+00 0.  1.
         -1    1    6    6    0  502  0.15964837010E+03 -0.16224000416E+03  0.61037498040E+02  0.23565864549E+03  0.00000000000E+00 0.  1.
<mgrwt>
<rscale>  0 0.21535893E+04</rscale>
<asrwt>0</asrwt>
<pdfrwt beam="1">  1        1 0.11254663E+00 0.21535893E+04</pdfrwt>
<pdfrwt beam="2">  1       -1 0.24384093E+00 0.21535893E+04</pdfrwt>
<totfact> 0.17828625E+00</totfact>
</mgrwt>
</event>
<event>
12    1  0.1518126E-007  0.1900247E+04  0.7818608E-02  0.8654733E-01
         -2   -1    0    0    0  501 -0.00000000000E+00  0.00000000000E+00  0.12155560133E+04  0.12155560133E+04  0.00000000000E+00 0.  1.
          2   -1    0    0  501    0  0.00000000000E+00 -0.00000000000E+00 -0.74265188539E+03  0.74265188539E+03  0.00000000000E+00 0. -1.
         23    2    1    2    0    0  0.36005691265E+03 -0.54711580812E+03  0.53297511842E+03  0.84953834718E+03  0.93146329156E+02 0.  0.
        254    2    1    2    0    0 -0.36005691265E+03  0.54711580812E+03 -0.60070990546E+02  0.11086695515E+04  0.89250376057E+03 0.  0.
        -24    2    4    4    0    0 -0.50183716002E+03  0.32935126681E+03  0.28575022223E+03  0.66871220083E+03  0.72180509221E+02 0.  0.
         24    2    4    4    0    0  0.14178024737E+03  0.21776454132E+03 -0.34582121277E+03  0.43995735066E+03  0.80293992264E+02 0.  0.
         11    1    3    3    0    0  0.14548559528E+03 -0.29684951344E+03  0.24012097591E+03  0.40858753669E+03  0.00000000000E+00 0. -1.
        -11    1    3    3    0    0  0.21457131737E+03 -0.25026629468E+03  0.29285414251E+03  0.44095081049E+03  0.00000000000E+00 0.  1.
          2    1    6    6  502    0  0.14276097462E+03  0.16712703477E+03 -0.26161779389E+03  0.34169578825E+03  0.00000000000E+00 0. -1.
          3    1    5    5  503    0 -0.33668735441E+03  0.17974803369E+03  0.17499221789E+03  0.41986903501E+03  0.00000000000E+00 0. -1.
         -4    1    5    5    0  503 -0.16514980561E+03  0.14960323312E+03  0.11075800433E+03  0.24884316582E+03  0.00000000000E+00 0.  1.
         -1    1    6    6    0  502 -0.98072725600E+00  0.50637506546E+02 -0.84203418883E+02  0.98261562407E+02  0.00000000000E+00 0.  1.
<mgrwt>
<rscale>  0 0.19002473E+04</rscale>
<asrwt>0</asrwt>
<pdfrwt beam="1">  1        2 0.11425414E+00 0.19002473E+04</pdfrwt>
<pdfrwt beam="2">  1       -2 0.18700862E+00 0.19002473E+04</pdfrwt>
<totfact> 0.57721768E+00</totfact>
</mgrwt>
</event>
<event>
12    1  0.1518126E-007  0.2349476E+04  0.7818608E-02  0.8458665E-01
          2   -1    0    0  501    0  0.00000000000E+00  0.00000000000E+00  0.25359523353E+04  0.25359523353E+04  0.00000000000E+00 0. -1.
         -2   -1    0    0    0  501 -0.00000000000E+00 -0.00000000000E+00 -0.54417785823E+03  0.54417785823E+03  0.00000000000E+00 0.  1.
         23    2    1    2    0    0  0.25641710551E+03  0.77299364679E+03  0.16136464617E+04  0.18098698565E+04  0.92223011990E+02 0.  0.
        254    2    1    2    0    0 -0.25641710551E+03 -0.77299364679E+03  0.37812801535E+03  0.12702603371E+04  0.89850521310E+03 0.  0.
        -24    2    4    4    0    0 -0.21328128183E+02  0.17929766485E+03  0.17601553258E+03  0.26604010349E+03  0.84813485271E+02 0.  0.
         24    2    4    4    0    0 -0.23508897733E+03 -0.95229131164E+03  0.20211248277E+03  0.10042202336E+04  0.74048986217E+02 0.  0.
         13    1    3    3    0    0  0.22381746293E+03  0.64513639867E+03  0.14184491486E+04  0.15742595773E+04  0.00000000000E+00 0. -1.
        -13    1    3    3    0    0  0.32599642576E+02  0.12785724811E+03  0.19519731315E+03  0.23561027917E+03  0.00000000000E+00 0.  1.
          4    1    6    6  502    0 -0.76857186425E+02 -0.24378535950E+03  0.24056142180E+02  0.25674311401E+03  0.00000000000E+00 0. -1.
          1    1    5    5  503    0 -0.40889988756E+02  0.56073658093E+02  0.34909441010E+02  0.77684717827E+02  0.00000000000E+00 0. -1.
         -2    1    5    5    0  503  0.19561860573E+02  0.12322400675E+03  0.14110609157E+03  0.18835538566E+03  0.00000000000E+00 0.  1.
         -3    1    6    6    0  502 -0.15823179090E+03 -0.70850595213E+03  0.17805634059E+03  0.74747711957E+03  0.00000000000E+00 0.  1.
<mgrwt>
<rscale>  0 0.23494758E+04</rscale>
<asrwt>0</asrwt>
<pdfrwt beam="1">  1        2 0.39014651E+00 0.23494758E+04</pdfrwt>
<pdfrwt beam="2">  1       -2 0.83719672E-01 0.23494758E+04</pdfrwt>
<totfact> 0.37360786E+00</totfact>
</mgrwt>
</event>
<event>
12    1  0.1518126E-007  0.1716401E+04  0.7818608E-02  0.8752065E-01
          1   -1    0    0  501    0  0.00000000000E+00  0.00000000000E+00  0.94099507141E+03  0.94099507141E+03  0.00000000000E+00 0. -1.
         -1   -1    0    0    0  501 -0.00000000000E+00 -0.00000000000E+00 -0.78269053496E+03  0.78269053496E+03  0.00000000000E+00 0.  1.
         23    2    1    2    0    0 -0.50449234903E+03 -0.15276651462E+03 -0.26343588975E+03  0.59728034927E+03  0.97443365034E+02 0.  0.
        254    2    1    2    0    0  0.50449234903E+03  0.15276651462E+03  0.42174042620E+03  0.11264052571E+04  0.90170598196E+03 0.  0.
        -24    2    4    4    0    0  0.16901255353E+03  0.45580396271E+03 -0.14529881680E+02  0.49288110337E+03  0.79988554932E+02 0.  0.
         24    2    4    4    0    0  0.33547979550E+03 -0.30303744809E+03  0.43627030788E+03  0.63352415373E+03  0.81502660625E+02 0.  0.
         11    1    3    3    0    0 -0.44718871156E+03 -0.10307418953E+03 -0.21117324634E+03  0.50516944906E+03  0.00000000000E+00 0.  1.
        -11    1    3    3    0    0 -0.57303637476E+02 -0.49692325094E+02 -0.52262643408E+02  0.92110900209E+02  0.00000000000E+00 0. -1.
          4    1    6    6  502    0  0.33020875779E+03 -0.28998339685E+03  0.43655658192E+03  0.61944317204E+03  0.00000000000E+00 0. -1.
          3    1    5    5  503    0  0.16074375756E+03  0.45687296528E+03 -0.14523492981E+02  0.48454349015E+03  0.00000000000E+00 0. -1.
         -4    1    5    5    0  503  0.82687959724E+01 -0.10690025700E+01 -0.63886988984E-02  0.83376132163E+01  0.00000000000E+00 0.  1.
         -3    1    6    6    0  502  0.52710377133E+01 -0.13054051247E+02 -0.28627404728E+00  0.14080981690E+02  0.00000000000E+00 0.  1.
<mgrwt>
<rscale>  0 0.17164008E+04</rscale>
<asrwt>0</asrwt>
<pdfrwt beam="1">  1        1 0.14476847E+00 0.17164008E+04</pdfrwt>
<pdfrwt beam="2">  1       -1 0.12041393E+00 0.17164008E+04</pdfrwt>
<totfact> 0.98333192E+00</totfact>
</mgrwt>
</event>
<event>
12    1  0.1518126E-007  0.1795153E+04  0.7818608E-02  0.8708881E-01
          2   -1    0    0  501    0  0.00000000000E+00  0.00000000000E+00  0.13399008379E+04  0.13399008379E+04  0.00000000000E+00 0.  1.
         -2   -1    0    0    0  501 -0.00000000000E+00 -0.00000000000E+00 -0.60127110927E+03  0.60127110927E+03  0.00000000000E+00 0. -1.
         23    2    1    2    0    0 -0.30574211353E+03  0.43024713347E+02  0.91848115544E+03  0.97333576142E+03  0.91899432146E+02 0.  0.
        254    2    1    2    0    0  0.30574211353E+03 -0.43024713347E+02 -0.17985142683E+03  0.96783618573E+03  0.89946149486E+03 0.  0.
        -24    2    4    4    0    0  0.42517694819E+03  0.17805582382E+03  0.19746892858E+03  0.50793456414E+03  0.80772705933E+02 0.  0.
         24    2    4    4    0    0 -0.11943483467E+03 -0.22108053716E+03 -0.37732035541E+03  0.45990162159E+03  0.77443962242E+02 0.  0.
         13    1    3    3    0    0 -0.58962297280E+02 -0.10010119814E+02  0.97050412150E+02  0.11399797146E+03  0.00000000000E+00 0. -1.
        -13    1    3    3    0    0 -0.24677981625E+03  0.53034833161E+02  0.82143074329E+03  0.85933778996E+03  0.00000000000E+00 0.  1.
          4    1    6    6  502    0 -0.33800605631E+02 -0.11462027808E+02 -0.64684455515E+02  0.73877857357E+02  0.00000000000E+00 0. -1.
          3    1    5    5  503    0  0.35775307474E+03  0.17910743869E+03  0.17678934170E+03  0.43740279882E+03  0.00000000000E+00 0. -1.
         -4    1    5    5    0  503  0.67423873452E+02 -0.10516148720E+01  0.20679586884E+02  0.70531765317E+02  0.00000000000E+00 0.  1.
         -3    1    6    6    0  502 -0.85634229034E+02 -0.20961850936E+03 -0.31263589990E+03  0.38602376423E+03  0.00000000000E+00 0.  1.
<mgrwt>
<rscale>  0 0.17951531E+04</rscale>
<asrwt>0</asrwt>
<pdfrwt beam="1">  1        2 0.20613859E+00 0.17951531E+04</pdfrwt>
<pdfrwt beam="2">  1       -2 0.92503248E-01 0.17951531E+04</pdfrwt>
<totfact> 0.14679823E+01</totfact>
</mgrwt>
</event>
<event>
12    1  0.1518126E-007  0.2238024E+04  0.7818608E-02  0.8502766E-01
         -3   -1    0    0    0  501 -0.00000000000E+00  0.00000000000E+00  0.96659185585E+03  0.96659185585E+03  0.00000000000E+00 0.  1.
          3   -1    0    0  501    0  0.00000000000E+00 -0.00000000000E+00 -0.12954675666E+04  0.12954675666E+04  0.00000000000E+00 0. -1.
         23    2    1    2    0    0 -0.35159571083E+03 -0.62036284892E+03 -0.74805620552E+03  0.10373518551E+04  0.89672607020E+02 0.  0.
        254    2    1    2    0    0  0.35159571083E+03  0.62036284892E+03  0.41918049479E+03  0.12247075673E+04  0.90317591315E+03 0.  0.
        -24    2    4    4    0    0  0.43097343894E+02  0.77344288938E+03  0.38736664498E+03  0.86979841645E+03  0.80156618113E+02 0.  0.
         24    2    4    4    0    0  0.30849836694E+03 -0.15308004046E+03  0.31813849801E+02  0.35490915088E+03  0.79646990852E+02 0.  0.
         11    1    3    3    0    0 -0.22620169532E+03 -0.47260734186E+03 -0.52202800393E+03  0.73962026976E+03  0.00000000000E+00 0. -1.
        -11    1    3    3    0    0 -0.12539401551E+03 -0.14775550706E+03 -0.22602820159E+03  0.29773158533E+03  0.00000000000E+00 0.  1.
          4    1    6    6  502    0  0.75415031748E+02 -0.52557496429E+01 -0.81017241244E+01  0.76030834874E+02  0.00000000000E+00 0. -1.
          3    1    5    5  503    0  0.17365642063E+02  0.35818695711E+03  0.22401905228E+03  0.42282856757E+03  0.00000000000E+00 0. -1.
         -4    1    5    5    0  503  0.25731701830E+02  0.41525593228E+03  0.16334759270E+03  0.44696984888E+03  0.00000000000E+00 0.  1.
         -3    1    6    6    0  502  0.23308333519E+03 -0.14782429082E+03  0.39915573926E+02  0.27887831601E+03  0.00000000000E+00 0.  1.
<mgrwt>
<rscale>  0 0.22380245E+04</rscale>
<asrwt>0</asrwt>
<pdfrwt beam="1">  1        3 0.19930270E+00 0.22380245E+04</pdfrwt>
<pdfrwt beam="2">  1       -3 0.14870644E+00 0.22380245E+04</pdfrwt>
<totfact> 0.11668420E-01</totfact>
</mgrwt>
</event>
<event>
12    1  0.1518126E-007  0.1592626E+04  0.7818608E-02  0.8825091E-01
         -1   -1    0    0    0  501 -0.00000000000E+00  0.00000000000E+00  0.72781215894E+03  0.72781215894E+03  0.00000000000E+00 0.  1.
          1   -1    0    0  501    0  0.00000000000E+00 -0.00000000000E+00 -0.87126112078E+03  0.87126112078E+03  0.00000000000E+00 0. -1.
         23    2    1    2    0    0 -0.25382888786E+03  0.27005506625E+03  0.34107066804E+03  0.51185084368E+03  0.91122129391E+02 0.  0.
        254    2    1    2    0    0  0.25382888786E+03 -0.27005506625E+03 -0.48451962988E+03  0.10872224360E+04  0.89996361624E+03 0.  0.
        -24    2    4    4    0    0  0.10864742144E+02 -0.29364328449E+03  0.19431887304E+03  0.36119525246E+03  0.79735593230E+02 0.  0.
         24    2    4    4    0    0  0.24296414571E+03  0.23588218242E+02 -0.67883850292E+03  0.72602718358E+03  0.81888815532E+02 0.  0.
         13    1    3    3    0    0 -0.23413514400E+03  0.20730748099E+03  0.25487579292E+03  0.40343193620E+03  0.00000000000E+00 0.  1.
        -13    1    3    3    0    0 -0.19693743859E+02  0.62747585265E+02  0.86194875117E+02  0.10841890748E+03  0.00000000000E+00 0. -1.
          4    1    6    6  502    0  0.96392933497E+02  0.44754907124E+02 -0.22947387736E+03  0.25288902651E+03  0.00000000000E+00 0. -1.
          1    1    5    5  503    0 -0.23151243307E+01 -0.22998475696E+02  0.47935062547E+02  0.53217101634E+02  0.00000000000E+00 0. -1.
         -2    1    5    5    0  503  0.13179866474E+02 -0.27064480880E+03  0.14638381049E+03  0.30797815082E+03  0.00000000000E+00 0.  1.
         -3    1    6    6    0  502  0.14657121222E+03 -0.21166688882E+02 -0.44936462557E+03  0.47313815707E+03  0.00000000000E+00 0.  1.
<mgrwt>
<rscale>  0 0.15926261E+04</rscale>
<asrwt>0</asrwt>
<pdfrwt beam="1">  1        1 0.13404017E+00 0.15926261E+04</pdfrwt>
<pdfrwt beam="2">  1       -1 0.11197110E+00 0.15926261E+04</pdfrwt>
<totfact> 0.13506201E+01</totfact>
</mgrwt>
</event>
<event>
12    1  0.1518126E-007  0.1510944E+04  0.7818608E-02  0.8877208E-01
         -1   -1    0    0    0  501 -0.00000000000E+00  0.00000000000E+00  0.52033937951E+03  0.52033937951E+03  0.00000000000E+00 0.  1.
          1   -1    0    0  501    0  0.00000000000E+00 -0.00000000000E+00 -0.10968575058E+04  0.10968575058E+04  0.00000000000E+00 0. -1.
         23    2    1    2    0    0 -0.11934071795E+03  0.37191649536E+03 -0.49256811639E+03  0.63548202616E+03  0.93005213868E+02 0.  0.
        254    2    1    2    0    0  0.11934071795E+03 -0.37191649536E+03 -0.83950009940E+02  0.98171485919E+03  0.89674543440E+03 0.  0.
        -24    2    4    4    0    0  0.47204102865E+03 -0.69089298377E+02  0.61504595325E+02  0.48827052739E+03  0.83840496123E+02 0.  0.
         24    2    4    4    0    0 -0.35270031070E+03 -0.30282719699E+03 -0.14545460527E+03  0.49344433181E+03  0.78920504297E+02 0.  0.
         13    1    3    3    0    0  0.14954381805E+02  0.52160512313E+02 -0.56847107385E+02  0.78587188510E+02  0.00000000000E+00 0.  1.
        -13    1    3    3    0    0 -0.13429509975E+03  0.31975598305E+03 -0.43572100901E+03  0.55689483765E+03  0.00000000000E+00 0. -1.
          2    1    6    6  502    0 -0.31143520521E+03 -0.22890047623E+03 -0.12653738085E+03  0.40669278800E+03  0.00000000000E+00 0. -1.
          3    1    5    5  503    0  0.31949091526E+03 -0.70326782798E+02  0.10127201431E+02  0.32729629011E+03  0.00000000000E+00 0. -1.
         -4    1    5    5    0  503  0.15255011339E+03  0.12374844212E+01  0.51377393894E+02  0.16097423727E+03  0.00000000000E+00 0.  1.
         -1    1    6    6    0  502 -0.41265105493E+02 -0.73926720757E+02 -0.18917224414E+02  0.86751543806E+02  0.00000000000E+00 0.  1.
<mgrwt>
<rscale>  0 0.15109443E+04</rscale>
<asrwt>0</asrwt>
<pdfrwt beam="1">  1        1 0.16874731E+00 0.15109443E+04</pdfrwt>
<pdfrwt beam="2">  1       -1 0.80052213E-01 0.15109443E+04</pdfrwt>
<totfact> 0.19195855E+01</totfact>
</mgrwt>
</event>
<event>
12    1  0.1568431E-007  0.1591995E+04  0.7818608E-02  0.8825481E-01
          2   -1    0    0  501    0  0.00000000000E+00  0.00000000000E+00  0.27352125903E+04  0.27352125903E+04  0.00000000000E+00 0. -1.
         -2   -1    0    0    0  501 -0.00000000000E+00 -0.00000000000E+00 -0.23165000638E+03  0.23165000638E+03  0.00000000000E+00 0.  1.
         23    2    1    2    0    0  0.20762142231E+03  0.17071248047E+03 -0.10376084139E+02  0.28425076726E+03  0.91877252757E+02 0.  0.
        254    2    1    2    0    0 -0.20762142231E+03 -0.17071248047E+03  0.25139386680E+04  0.26826118294E+04  0.89681056788E+03 0.  0.
        -24    2    4    4    0    0 -0.28135757896E+03 -0.35674183304E+03  0.60141340714E+03  0.75788336271E+03  0.79134584832E+02 0.  0.
         24    2    4    4    0    0  0.73736156649E+02  0.18602935257E+03  0.19125252609E+04  0.19247284667E+04  0.82358096938E+02 0.  0.
         11    1    3    3    0    0  0.20009976572E+03  0.17063638735E+03  0.93462929507E+01  0.26314263456E+03  0.00000000000E+00 0.  1.
        -11    1    3    3    0    0  0.75216565894E+01  0.76093117823E-01 -0.19722377090E+02  0.21108132700E+02  0.00000000000E+00 0. -1.
          4    1    6    6  502    0 -0.11584841380E+02  0.39992996300E+02  0.58361448526E+03  0.58509786849E+03  0.00000000000E+00 0. -1.
          3    1    5    5  503    0 -0.19227481841E+02 -0.52330665004E+02  0.45212244359E+02  0.71779813302E+02  0.00000000000E+00 0. -1.
         -4    1    5    5    0  503 -0.26213009712E+03 -0.30441116803E+03  0.55620116278E+03  0.68610354941E+03  0.00000000000E+00 0.  1.
         -3    1    6    6    0  502  0.85320998029E+02  0.14603635627E+03  0.13289107756E+04  0.13396305982E+04  0.00000000000E+00 0.  1.
<mgrwt>
<rscale>  0 0.15919950E+04</rscale>
<asrwt>0</asrwt>
<pdfrwt beam="1">  1        2 0.42080191E+00 0.15919950E+04</pdfrwt>
<pdfrwt beam="2">  1       -2 0.35638464E-01 0.15919950E+04</pdfrwt>
<totfact> 0.18030289E+01</totfact>
</mgrwt>
</event>
<event>
12    1  0.1518126E-007  0.1281271E+04  0.7818608E-02  0.9044551E-01
          1   -1    0    0  501    0  0.00000000000E+00  0.00000000000E+00  0.10372276779E+04  0.10372276779E+04  0.00000000000E+00 0. -1.
         -1   -1    0    0    0  501 -0.00000000000E+00 -0.00000000000E+00 -0.39568360885E+03  0.39568360885E+03  0.00000000000E+00 0.  1.
         23    2    1    2    0    0 -0.17379846658E+03  0.11542075492E+03  0.42604010090E+03  0.48185164923E+03  0.84516191583E+02 0.  0.
        254    2    1    2    0    0  0.17379846658E+03 -0.11542075492E+03  0.21550396814E+03  0.95105963750E+03  0.90252125524E+03 0.  0.
        -24    2    4    4    0    0  0.18407809414E+03  0.35429158207E+03  0.23667052011E+03  0.47276701099E+03  0.89935764399E+02 0.  0.
         24    2    4    4    0    0 -0.10279627566E+02 -0.46971233700E+03 -0.21166551975E+02  0.47829262652E+03  0.87065856603E+02 0.  0.
         11    1    3    3    0    0 -0.12556009367E+03  0.42895553764E+02  0.20417487411E+03  0.24350101617E+03  0.00000000000E+00 0. -1.
        -11    1    3    3    0    0 -0.48238372904E+02  0.72525201161E+02  0.22186522679E+03  0.23835063307E+03  0.00000000000E+00 0.  1.
          2    1    6    6  502    0  0.57053028892E+01 -0.24075688044E+03 -0.52986212080E+02  0.24658459934E+03  0.00000000000E+00 0. -1.
          3    1    5    5  503    0  0.11776690512E+03  0.27089807329E+03  0.21147106045E+03  0.36328338726E+03  0.00000000000E+00 0. -1.
         -4    1    5    5    0  503  0.66311189020E+02  0.83393508785E+02  0.25199459660E+02  0.10948362373E+03  0.00000000000E+00 0.  1.
         -1    1    6    6    0  502 -0.15984930456E+02 -0.22895545656E+03  0.31819660105E+02  0.23170802717E+03  0.00000000000E+00 0.  1.
<mgrwt>
<rscale>  0 0.12812712E+04</rscale>
<asrwt>0</asrwt>
<pdfrwt beam="1">  1        1 0.15957349E+00 0.12812712E+04</pdfrwt>
<pdfrwt beam="2">  1       -1 0.60874402E-01 0.12812712E+04</pdfrwt>
<totfact> 0.38117843E+01</totfact>
</mgrwt>
</event>
<event>
12    1  0.1518126E-007  0.1396524E+04  0.7818608E-02  0.8956338E-01
         -1   -1    0    0    0  501 -0.00000000000E+00  0.00000000000E+00  0.55382056993E+03  0.55382056993E+03  0.00000000000E+00 0.  1.
          1   -1    0    0  501    0  0.00000000000E+00 -0.00000000000E+00 -0.88037515657E+03  0.88037515657E+03  0.00000000000E+00 0. -1.
         23    2    1    2    0    0  0.32852759689E+03 -0.19876928066E+03  0.50965059752E+01  0.39481361716E+03  0.91718095635E+02 0.  0.
        254    2    1    2    0    0 -0.32852759689E+03  0.19876928066E+03 -0.33165109261E+03  0.10393821093E+04  0.90712904988E+03 0.  0.
        -24    2    4    4    0    0 -0.64034827279E+02  0.53771541683E+03 -0.19663205989E+03  0.58159455480E+03  0.79685196851E+02 0.  0.
         24    2    4    4    0    0 -0.26449276961E+03 -0.33894613617E+03 -0.13501903272E+03  0.45778755454E+03  0.80612638567E+02 0.  0.
         11    1    3    3    0    0  0.12629298989E+03 -0.52352293872E+02 -0.36962752802E+02  0.14162248078E+03  0.00000000000E+00 0. -1.
        -11    1    3    3    0    0  0.20223460700E+03 -0.14641698679E+03  0.42059258777E+02  0.25319113637E+03  0.00000000000E+00 0.  1.
          2    1    6    6  502    0 -0.76478022510E+02 -0.53991386636E+02 -0.49274723069E+02  0.10579204172E+03  0.00000000000E+00 0. -1.
          1    1    5    5  503    0 -0.25397446903E+02  0.13384007230E+03 -0.85848225980E+02  0.16102208906E+03  0.00000000000E+00 0. -1.
         -2    1    5    5    0  503 -0.38637380376E+02  0.40387534453E+03 -0.11078383391E+03  0.42057246574E+03  0.00000000000E+00 0.  1.
         -3    1    6    6    0  502 -0.18801474710E+03 -0.28495474953E+03 -0.85744309649E+02  0.35199551282E+03  0.00000000000E+00 0.  1.
<mgrwt>
<rscale>  0 0.13965241E+04</rscale>
<asrwt>0</asrwt>
<pdfrwt beam="1">  1        1 0.13544233E+00 0.13965241E+04</pdfrwt>
<pdfrwt beam="2">  1       -1 0.85203166E-01 0.13965241E+04</pdfrwt>
<totfact> 0.25100083E+01</totfact>
</mgrwt>
</event>
<event>
12    1  0.1518126E-007  0.1415183E+04  0.7818608E-02  0.8942901E-01
         -2   -1    0    0    0  501 -0.00000000000E+00  0.00000000000E+00  0.30221161818E+03  0.30221161818E+03  0.00000000000E+00 0.  1.
          2   -1    0    0  501    0  0.00000000000E+00 -0.00000000000E+00 -0.16567396882E+04  0.16567396882E+04  0.00000000000E+00 0. -1.
         23    2    1    2    0    0 -0.18258247347E+03 -0.28726512760E+02  0.10548748993E+03  0.23140736558E+03  0.90885566287E+02 0.  0.
        254    2    1    2    0    0  0.18258247347E+03  0.28726512760E+02 -0.14600155600E+04  0.17275439408E+04  0.90476574867E+03 0.  0.
        -24    2    4    4    0    0  0.25909699427E+03  0.89588498137E+02 -0.25501609191E+02  0.28692459771E+03  0.80734387088E+02 0.  0.
         24    2    4    4    0    0 -0.76514520804E+02 -0.60861985377E+02 -0.14345139508E+04  0.14406193431E+04  0.89415678917E+02 0.  0.
         13    1    3    3    0    0 -0.15374092410E+03  0.10670673740E+02  0.96299865188E+02  0.18172451418E+03  0.00000000000E+00 0.  1.
        -13    1    3    3    0    0 -0.28841549372E+02 -0.39397186500E+02  0.91876247402E+01  0.49682851395E+02  0.00000000000E+00 0. -1.
          4    1    6    6  502    0 -0.81763734646E+02 -0.56154272759E+02 -0.14265028731E+04  0.14299472220E+04  0.00000000000E+00 0. -1.
          3    1    5    5  503    0  0.14081687967E+03  0.82958594206E+01  0.52183148343E+00  0.14106199769E+03  0.00000000000E+00 0. -1.
         -4    1    5    5    0  503  0.11828011460E+03  0.81292638716E+02 -0.26023440675E+02  0.14586260002E+03  0.00000000000E+00 0.  1.
         -3    1    6    6    0  502  0.52492138427E+01 -0.47077126181E+01 -0.80110776312E+01  0.10672121105E+02  0.00000000000E+00 0.  1.
<mgrwt>
<rscale>  0 0.14151834E+04</rscale>
<asrwt>0</asrwt>
<pdfrwt beam="1">  1        2 0.25488303E+00 0.14151834E+04</pdfrwt>
<pdfrwt beam="2">  1       -2 0.46494094E-01 0.14151834E+04</pdfrwt>
<totfact> 0.44196143E+01</totfact>
</mgrwt>
</event>
<event>
12    1  0.1518126E-007  0.3043896E+04  0.7818608E-02  0.8231306E-01
         -1   -1    0    0    0  501 -0.00000000000E+00  0.00000000000E+00  0.86001224150E+03  0.86001224150E+03  0.00000000000E+00 0.  1.
          1   -1    0    0  501    0  0.00000000000E+00 -0.00000000000E+00 -0.26933640909E+04  0.26933640909E+04  0.00000000000E+00 0. -1.
         23    2    1    2    0    0  0.10989689075E+04 -0.67569173847E+03 -0.14342610203E+04  0.19312588298E+04  0.91454951766E+02 0.  0.
        254    2    1    2    0    0 -0.10989689075E+04  0.67569173847E+03 -0.39909082913E+03  0.16221175026E+04  0.89872115655E+03 0.  0.
        -24    2    4    4    0    0  0.20651485327E+01  0.13545959239E+03  0.20035577113E+03  0.25472826367E+03  0.79940523374E+02 0.  0.
         24    2    4    4    0    0 -0.11010340561E+04  0.54023214607E+03 -0.59944660027E+03  0.13673892389E+04  0.79311663230E+02 0.  0.
         11    1    3    3    0    0  0.91878356873E+03 -0.53354404120E+03 -0.11448863376E+04  0.15619210019E+04  0.00000000000E+00 0. -1.
        -11    1    3    3    0    0  0.18018533882E+03 -0.14214769726E+03 -0.28937468268E+03  0.36933782793E+03  0.00000000000E+00 0.  1.
          2    1    6    6  502    0 -0.11126356782E+03  0.32441444663E+02 -0.69986313262E+02  0.13538874732E+03  0.00000000000E+00 0. -1.
          3    1    5    5  503    0 -0.38923599984E+02  0.68604281457E+02  0.10151014756E+03  0.12855311792E+03  0.00000000000E+00 0. -1.
         -4    1    5    5    0  503  0.40988748517E+02  0.66855310935E+02  0.98845623574E+02  0.12617514575E+03  0.00000000000E+00 0.  1.
         -1    1    6    6    0  502 -0.98977048825E+03  0.50779070141E+03 -0.52946028700E+03  0.12320004916E+04  0.00000000000E+00 0.  1.
<mgrwt>
<rscale>  0 0.30438962E+04</rscale>
<asrwt>0</asrwt>
<pdfrwt beam="1">  1        1 0.41436371E+00 0.30438962E+04</pdfrwt>
<pdfrwt beam="2">  1       -1 0.13230958E+00 0.30438962E+04</pdfrwt>
<totfact> 0.40769592E-01</totfact>
</mgrwt>
</event>
<event>
12    1  0.1518126E-007  0.2607300E+04  0.7818608E-02  0.8365726E-01
         -1   -1    0    0    0  501 -0.00000000000E+00  0.00000000000E+00  0.92203653549E+03  0.92203653549E+03  0.00000000000E+00 0.  1.
          1   -1    0    0  501    0  0.00000000000E+00 -0.00000000000E+00 -0.18432061800E+04  0.18432061800E+04  0.00000000000E+00 0. -1.
         23    2    1    2    0    0  0.54774389811E+03 -0.40981055681E+03  0.56839815619E+03  0.89422996109E+03  0.92750681725E+02 0.  0.
        254    2    1    2    0    0 -0.54774389811E+03  0.40981055681E+03 -0.14895678007E+04  0.18710127544E+04  0.90216873359E+03 0.  0.
        -24    2    4    4    0    0 -0.33832103605E+03  0.60938310989E+03 -0.13864387266E+04  0.15538541531E+04  0.80258883140E+02 0.  0.
         24    2    4    4    0    0 -0.20942286206E+03 -0.19957255308E+03 -0.10312907408E+03  0.31715860132E+03  0.79163333541E+02 0.  0.
         11    1    3    3    0    0  0.31825834000E+03 -0.26682840785E+03  0.29284731792E+03  0.50817843504E+03  0.00000000000E+00 0.  1.
        -11    1    3    3    0    0  0.22948555811E+03 -0.14298214896E+03  0.27555083827E+03  0.38605152605E+03  0.00000000000E+00 0. -1.
          2    1    6    6  502    0 -0.14918731601E+03 -0.14848816661E+03 -0.11068631858E+03  0.23781726598E+03  0.00000000000E+00 0. -1.
          1    1    5    5  503    0 -0.61507392876E+00  0.36971489537E+02 -0.70268824055E+02  0.79403885224E+02  0.00000000000E+00 0. -1.
         -2    1    5    5    0  503 -0.33770596212E+03  0.57241162035E+03 -0.13161699026E+04  0.14744502679E+04  0.00000000000E+00 0.  1.
         -1    1    6    6    0  502 -0.60235546049E+02 -0.51084386470E+02  0.75572444935E+01  0.79341335338E+02  0.00000000000E+00 0.  1.
<mgrwt>
<rscale>  0 0.26073001E+04</rscale>
<asrwt>0</asrwt>
<pdfrwt beam="1">  1        1 0.28357018E+00 0.26073001E+04</pdfrwt>
<pdfrwt beam="2">  1       -1 0.14185177E+00 0.26073001E+04</pdfrwt>
<totfact> 0.13570322E+00</totfact>
</mgrwt>
</event>
<event>
12    1  0.1518126E-007  0.1847188E+04  0.7818608E-02  0.8681600E-01
          1   -1    0    0  501    0  0.00000000000E+00  0.00000000000E+00  0.17001307575E+04  0.17001307575E+04  0.00000000000E+00 0. -1.
         -1   -1    0    0    0  501 -0.00000000000E+00 -0.00000000000E+00 -0.50174152752E+03  0.50174152752E+03  0.00000000000E+00 0.  1.
         23    2    1    2    0    0  0.39744933326E+03 -0.23148910880E+03  0.10885293367E+04  0.11851814448E+04  0.90585650704E+02 0.  0.
        254    2    1    2    0    0 -0.39744933326E+03  0.23148910880E+03  0.10985989332E+03  0.10166908403E+04  0.90002104899E+03 0.  0.
        -24    2    4    4    0    0 -0.12041127848E+03 -0.33962090943E+03  0.19313197942E+02  0.36974368957E+03  0.80598748479E+02 0.  0.
         24    2    4    4    0    0 -0.27703805478E+03  0.57111001823E+03  0.90546695377E+02  0.64694715075E+03  0.86169455665E+02 0.  0.
         11    1    3    3    0    0  0.39692287736E+03 -0.23487662084E+03  0.10879922611E+04  0.11817114529E+04  0.00000000000E+00 0. -1.
        -11    1    3    3    0    0  0.52645589606E+00  0.33875120337E+01  0.53707560811E+00  0.34699919017E+01  0.00000000000E+00 0.  1.
          4    1    6    6  502    0 -0.37198481154E+02  0.16014371935E+03  0.32481956667E+02  0.16758524803E+03  0.00000000000E+00 0. -1.
          1    1    5    5  503    0 -0.11790975234E+03 -0.31520649878E+03  0.38305448970E+02  0.33871101841E+03  0.00000000000E+00 0. -1.
         -2    1    5    5    0  503 -0.25015261381E+01 -0.24414410649E+02 -0.18992251029E+02  0.31032671163E+02  0.00000000000E+00 0.  1.
         -3    1    6    6    0  502 -0.23983957363E+03  0.41096629889E+03  0.58064738710E+02  0.47936190272E+03  0.00000000000E+00 0.  1.
<mgrwt>
<rscale>  0 0.18471884E+04</rscale>
<asrwt>0</asrwt>
<pdfrwt beam="1">  1        1 0.26155858E+00 0.18471884E+04</pdfrwt>
<pdfrwt beam="2">  1       -1 0.77191005E-01 0.18471884E+04</pdfrwt>
<totfact> 0.75354953E+00</totfact>
</mgrwt>
</event>
<event>
12    1  0.1518126E-007  0.3271331E+04  0.7818608E-02  0.8170229E-01
         -1   -1    0    0    0  501 -0.00000000000E+00  0.00000000000E+00  0.12296083083E+04  0.12296083083E+04  0.00000000000E+00 0.  1.
          1   -1    0    0  501    0  0.00000000000E+00 -0.00000000000E+00 -0.21758158865E+04  0.21758158865E+04  0.00000000000E+00 0. -1.
         23    2    1    2    0    0 -0.41200715737E+03 -0.13738540710E+04 -0.92547216044E+03  0.17093700882E+04  0.90677850224E+02 0.  0.
        254    2    1    2    0    0  0.41200715737E+03  0.13738540710E+04 -0.20735417791E+02  0.16960541066E+04  0.90495561693E+03 0.  0.
        -24    2    4    4    0    0  0.43625835670E+03  0.22373214531E+03  0.17527847281E+03  0.52680919035E+03  0.80174518192E+02 0.  0.
         24    2    4    4    0    0 -0.24251199330E+02  0.11501219257E+04 -0.19601389060E+03  0.11692449162E+04  0.73100369906E+02 0.  0.
         11    1    3    3    0    0 -0.23142740207E+03 -0.77002336903E+03 -0.57211004864E+03  0.98681535205E+03  0.00000000000E+00 0.  1.
        -11    1    3    3    0    0 -0.18057975530E+03 -0.60383070200E+03 -0.35336211181E+03  0.72255473617E+03  0.00000000000E+00 0. -1.
          2    1    6    6  502    0  0.18913351003E+02  0.74626926896E+03 -0.12252735730E+03  0.75649751481E+03  0.00000000000E+00 0. -1.
          3    1    5    5  503    0  0.25259632045E+03  0.86647938534E+02  0.10688691889E+03  0.28764140833E+03  0.00000000000E+00 0. -1.
         -4    1    5    5    0  503  0.18366203625E+03  0.13708420677E+03  0.68391553924E+02  0.23916778202E+03  0.00000000000E+00 0.  1.
         -1    1    6    6    0  502 -0.43164550332E+02  0.40385265677E+03 -0.73486533298E+02  0.41274740140E+03  0.00000000000E+00 0.  1.
<mgrwt>
<rscale>  0 0.32713308E+04</rscale>
<asrwt>0</asrwt>
<pdfrwt beam="1">  1        1 0.33474090E+00 0.32713308E+04</pdfrwt>
<pdfrwt beam="2">  1       -1 0.18917051E+00 0.32713308E+04</pdfrwt>
<totfact> 0.33700714E-01</totfact>
</mgrwt>
</event>
<event>
12    1  0.1518126E-007  0.1480534E+04  0.7818608E-02  0.8897502E-01
         -1   -1    0    0    0  501 -0.00000000000E+00  0.00000000000E+00  0.25610177753E+03  0.25610177753E+03  0.00000000000E+00 0.  1.
          1   -1    0    0  501    0  0.00000000000E+00 -0.00000000000E+00 -0.21397551459E+04  0.21397551459E+04  0.00000000000E+00 0. -1.
         23    2    1    2    0    0  0.13584698029E+03 -0.37955896776E+03 -0.23048736927E+03  0.47341294342E+03  0.92065061508E+02 0.  0.
        254    2    1    2    0    0 -0.13584698029E+03  0.37955896776E+03 -0.16531659991E+04  0.19224439800E+04  0.89460249475E+03 0.  0.
        -24    2    4    4    0    0  0.30216264459E+03  0.11236700420E+03 -0.22279530786E+03  0.40077046542E+03  0.83967906563E+02 0.  0.
         24    2    4    4    0    0 -0.43800962487E+03  0.26719196356E+03 -0.14303706912E+04  0.15216735145E+04  0.79284259229E+02 0.  0.
         11    1    3    3    0    0  0.30617421395E+02 -0.77486962194E+02 -0.94072375430E+02  0.12566331056E+03  0.00000000000E+00 0. -1.
        -11    1    3    3    0    0  0.10522955889E+03 -0.30207200556E+03 -0.13641499384E+03  0.34774963286E+03  0.00000000000E+00 0.  1.
          4    1    6    6  502    0 -0.44050432430E+03  0.26411067857E+03 -0.14037997865E+04  0.14948084663E+04  0.00000000000E+00 0. -1.
          3    1    5    5  503    0  0.29111155383E+03  0.10518209870E+03 -0.23011144494E+03  0.38569481168E+03  0.00000000000E+00 0. -1.
         -4    1    5    5    0  503  0.11051090756E+02  0.71849054994E+01  0.73161370846E+01  0.15075653743E+02  0.00000000000E+00 0.  1.
         -3    1    6    6    0  502  0.24946994235E+01  0.30812849832E+01 -0.26570904673E+02  0.26865048251E+02  0.00000000000E+00 0.  1.
<mgrwt>
<rscale>  0 0.14805338E+04</rscale>
<asrwt>0</asrwt>
<pdfrwt beam="1">  1        1 0.32919310E+00 0.14805338E+04</pdfrwt>
<pdfrwt beam="2">  1       -1 0.39400274E-01 0.14805338E+04</pdfrwt>
<totfact> 0.14543776E+01</totfact>
</mgrwt>
</event>
<event>
12    1  0.1518126E-007  0.2430812E+04  0.7818608E-02  0.8428057E-01
          2   -1    0    0  501    0  0.00000000000E+00  0.00000000000E+00  0.14360149432E+04  0.14360149432E+04  0.00000000000E+00 0. -1.
         -2   -1    0    0    0  501 -0.00000000000E+00 -0.00000000000E+00 -0.10286881348E+04  0.10286881348E+04  0.00000000000E+00 0.  1.
         23    2    1    2    0    0  0.76425905832E+03 -0.35669514287E+02 -0.54554784392E+03  0.94390863504E+03  0.89313150339E+02 0.  0.
        254    2    1    2    0    0 -0.76425905832E+03  0.35669514287E+02  0.95287465225E+03  0.15207944429E+04  0.90525212636E+03 0.  0.
        -24    2    4    4    0    0 -0.72692802212E+03 -0.51551209572E+02  0.11045121819E+04  0.13255871970E+04  0.78437111224E+02 0.  0.
         24    2    4    4    0    0 -0.37331036198E+02  0.87220723859E+02 -0.15163752965E+03  0.19520724590E+03  0.78172037981E+02 0.  0.
         11    1    3    3    0    0  0.19310106894E+02 -0.12346000675E+02 -0.56892215755E+01  0.23615063054E+02  0.00000000000E+00 0. -1.
        -11    1    3    3    0    0  0.74494895143E+03 -0.23323513611E+02 -0.53985862234E+03  0.92029357198E+03  0.00000000000E+00 0.  1.
          4    1    6    6  502    0 -0.31635625126E+02  0.94161139308E+02 -0.93617820268E+02  0.13649699339E+03  0.00000000000E+00 0. -1.
          3    1    5    5  503    0 -0.32102064206E+03  0.15858105120E+02  0.47445935188E+03  0.57307714028E+03  0.00000000000E+00 0. -1.
         -4    1    5    5    0  503 -0.40590738006E+03 -0.67409314692E+02  0.63005283002E+03  0.75251005675E+03  0.00000000000E+00 0.  1.
         -3    1    6    6    0  502 -0.56954110725E+01 -0.69404154491E+01 -0.58019709378E+02  0.58710252513E+02  0.00000000000E+00 0.  1.
<mgrwt>
<rscale>  0 0.24308118E+04</rscale>
<asrwt>0</asrwt>
<pdfrwt beam="1">  1        2 0.22092538E+00 0.24308118E+04</pdfrwt>
<pdfrwt beam="2">  1       -2 0.15825971E+00 0.24308118E+04</pdfrwt>
<totfact> 0.32127845E+00</totfact>
</mgrwt>
</event>
<event>
12    1  0.1518126E-007  0.1594530E+04  0.7818608E-02  0.8823915E-01
         -1   -1    0    0    0  501 -0.00000000000E+00  0.00000000000E+00  0.40391151878E+03  0.40391151878E+03  0.00000000000E+00 0.  1.
          1   -1    0    0  501    0  0.00000000000E+00 -0.00000000000E+00 -0.15736903049E+04  0.15736903049E+04  0.00000000000E+00 0. -1.
         23    2    1    2    0    0  0.29913912865E+03 -0.43664518357E+03 -0.42760716038E+03  0.68648326395E+03  0.90929387155E+02 0.  0.
        254    2    1    2    0    0 -0.29913912865E+03  0.43664518357E+03 -0.74217162572E+03  0.12911185597E+04  0.91434412482E+03 0.  0.
        -24    2    4    4    0    0 -0.24556449924E+03  0.24964632736E+02 -0.82102000175E+03  0.86097260730E+03  0.79213831347E+02 0.  0.
         24    2    4    4    0    0 -0.53574629412E+02  0.41168055084E+03  0.78848376029E+02  0.43014595242E+03  0.80357682420E+02 0.  0.
         11    1    3    3    0    0  0.28780358330E+02 -0.52536981908E+02 -0.16157320811E+02  0.62044359207E+02  0.00000000000E+00 0.  1.
        -11    1    3    3    0    0  0.27035877032E+03 -0.38410820166E+03 -0.41144983957E+03  0.62443890474E+03  0.00000000000E+00 0. -1.
          2    1    6    6  502    0 -0.32502533171E+02  0.37818137037E+03  0.53951959408E+02  0.38339063301E+03  0.00000000000E+00 0. -1.
          1    1    5    5  503    0 -0.20764834841E+03  0.14629055922E+02 -0.56849032702E+03  0.60540325221E+03  0.00000000000E+00 0. -1.
         -2    1    5    5    0  503 -0.37916150831E+02  0.10335576813E+02 -0.25252967473E+03  0.25556935509E+03  0.00000000000E+00 0.  1.
         -1    1    6    6    0  502 -0.21072096242E+02  0.33499180464E+02  0.24896416621E+02  0.46755319402E+02  0.00000000000E+00 0.  1.
<mgrwt>
<rscale>  0 0.15945302E+04</rscale>
<asrwt>0</asrwt>
<pdfrwt beam="1">  1        1 0.24210620E+00 0.15945302E+04</pdfrwt>
<pdfrwt beam="2">  1       -1 0.62140233E-01 0.15945302E+04</pdfrwt>
<totfact> 0.14668908E+01</totfact>
</mgrwt>
</event>
<event>
12    1  0.1518126E-007  0.2012752E+04  0.7818608E-02  0.8600682E-01
          1   -1    0    0  501    0  0.00000000000E+00  0.00000000000E+00  0.15617197291E+04  0.15617197291E+04  0.00000000000E+00 0. -1.
         -1   -1    0    0    0  501 -0.00000000000E+00 -0.00000000000E+00 -0.64851103817E+03  0.64851103817E+03  0.00000000000E+00 0.  1.
         23    2    1    2    0    0  0.37891326285E+03  0.69499492384E+03  0.48386004976E+03  0.93227204148E+03  0.91746425847E+02 0.  0.
        254    2    1    2    0    0 -0.37891326285E+03 -0.69499492384E+03  0.42934864114E+03  0.12779587258E+04  0.90677728478E+03 0.  0.
        -24    2    4    4    0    0  0.96963254478E+02 -0.63104378256E+03  0.21694141379E+02  0.64328521843E+03  0.75677660244E+02 0.  0.
         24    2    4    4    0    0 -0.47587651732E+03 -0.63951141280E+02  0.40765449977E+03  0.63467350733E+03  0.77974749258E+02 0.  0.
         11    1    3    3    0    0  0.14196229229E+03  0.23610789464E+03  0.21854241132E+03  0.35165468273E+03  0.00000000000E+00 0.  1.
        -11    1    3    3    0    0  0.23695097056E+03  0.45888702919E+03  0.26531763844E+03  0.58061735875E+03  0.00000000000E+00 0. -1.
          2    1    6    6  502    0 -0.18419228003E+03 -0.61483904799E+02  0.14801266560E+03  0.24416145426E+03  0.00000000000E+00 0. -1.
          1    1    5    5  503    0  0.63658157993E+02 -0.23039542796E+03 -0.15550999130E+02  0.23953339616E+03  0.00000000000E+00 0. -1.
         -2    1    5    5    0  503  0.33305096485E+02 -0.40064835460E+03  0.37245140508E+02  0.40375182227E+03  0.00000000000E+00 0.  1.
         -1    1    6    6    0  502 -0.29168423730E+03 -0.24672364803E+01  0.25964183417E+03  0.39051205307E+03  0.00000000000E+00 0.  1.
<mgrwt>
<rscale>  0 0.20127518E+04</rscale>
<asrwt>0</asrwt>
<pdfrwt beam="1">  1        1 0.24026457E+00 0.20127518E+04</pdfrwt>
<pdfrwt beam="2">  1       -1 0.99770930E-01 0.20127518E+04</pdfrwt>
<totfact> 0.52639347E+00</totfact>
</mgrwt>
</event>
<event>
12    1  0.1518126E-007  0.2211712E+04  0.7818608E-02  0.8513569E-01
         -2   -1    0    0    0  501 -0.00000000000E+00  0.00000000000E+00  0.12604464825E+04  0.12604464825E+04  0.00000000000E+00 0.  1.
          2   -1    0    0  501    0  0.00000000000E+00 -0.00000000000E+00 -0.97022593962E+03  0.97022593962E+03  0.00000000000E+00 0. -1.
         23    2    1    2    0    0  0.28032619401E+03 -0.63643608347E+02 -0.70410868667E+03  0.76588089026E+03  0.90394753643E+02 0.  0.
        254    2    1    2    0    0 -0.28032619401E+03  0.63643608347E+02  0.99432922959E+03  0.14647915319E+04  0.10364797785E+04 0.  0.
        -24    2    4    4    0    0 -0.21741137061E+03  0.44035008478E+03  0.94951825627E+03  0.10720736569E+04  0.81124014025E+02 0.  0.
         24    2    4    4    0    0 -0.62914823408E+02 -0.37670647643E+03  0.44810973319E+02  0.39271787497E+03  0.79707349771E+02 0.  0.
         13    1    3    3    0    0  0.73262397951E+02 -0.42042057761E+02 -0.12846434264E+03  0.15374654762E+03  0.00000000000E+00 0.  1.
        -13    1    3    3    0    0  0.20706379606E+03 -0.21601550587E+02 -0.57564434403E+03  0.61213434264E+03  0.00000000000E+00 0. -1.
          4    1    6    6  502    0 -0.74634696147E+02 -0.36815707065E+03  0.43109770441E+02  0.37811164865E+03  0.00000000000E+00 0. -1.
          3    1    5    5  503    0 -0.15179019936E+03  0.24124284509E+03  0.60512568608E+03  0.66889122500E+03  0.00000000000E+00 0. -1.
         -4    1    5    5    0  503 -0.65621171250E+02  0.19910723968E+03  0.34439257019E+03  0.40318243192E+03  0.00000000000E+00 0.  1.
         -3    1    6    6    0  502  0.11719872740E+02 -0.85494057808E+01  0.17012028784E+01  0.14606226326E+02  0.00000000000E+00 0.  1.
<mgrwt>
<rscale>  0 0.22117123E+04</rscale>
<asrwt>0</asrwt>
<pdfrwt beam="1">  1        2 0.14926553E+00 0.22117123E+04</pdfrwt>
<pdfrwt beam="2">  1       -2 0.19391484E+00 0.22117123E+04</pdfrwt>
<totfact> 0.35080557E+00</totfact>
</mgrwt>
</event>
<event>
12    1  0.1518126E-007  0.2172055E+04  0.7818608E-02  0.8530150E-01
          1   -1    0    0  501    0  0.00000000000E+00  0.00000000000E+00  0.94132540444E+03  0.94132540444E+03  0.00000000000E+00 0. -1.
         -1   -1    0    0    0  501 -0.00000000000E+00 -0.00000000000E+00 -0.12529738749E+04  0.12529738749E+04  0.00000000000E+00 0.  1.
         23    2    1    2    0    0  0.21043644285E+03 -0.18390743836E+03 -0.97217105599E+03  0.10155994551E+04  0.90665587770E+02 0.  0.
        254    2    1    2    0    0 -0.21043644285E+03  0.18390743836E+03  0.66052258549E+03  0.11786998242E+04  0.93538107067E+03 0.  0.
        -24    2    4    4    0    0  0.16925400149E+02  0.42209519089E+03 -0.71873452329E+01  0.43002199020E+03  0.80102651523E+02 0.  0.
         24    2    4    4    0    0 -0.22736184299E+03 -0.23818775254E+03  0.66770993073E+03  0.74867783405E+03  0.79089408233E+02 0.  0.
         13    1    3    3    0    0  0.84945732520E+02 -0.32824011773E+02 -0.21761416038E+03  0.23590064863E+03  0.00000000000E+00 0. -1.
        -13    1    3    3    0    0  0.12549071033E+03 -0.15108342658E+03 -0.75455689560E+03  0.77969880651E+03  0.00000000000E+00 0.  1.
          2    1    6    6  502    0 -0.18562812525E+03 -0.17202359647E+03  0.56888110310E+03  0.62263603180E+03  0.00000000000E+00 0. -1.
          3    1    5    5  503    0  0.24246788831E+01  0.41263011643E+03 -0.74217578663E+01  0.41270397931E+03  0.00000000000E+00 0. -1.
         -4    1    5    5    0  503  0.14500721266E+02  0.94650744633E+01  0.23441263338E+00  0.17318010888E+02  0.00000000000E+00 0.  1.
         -1    1    6    6    0  502 -0.41733717742E+02 -0.66164156064E+02  0.98828827623E+02  0.12604180225E+03  0.00000000000E+00 0.  1.
<mgrwt>
<rscale>  0 0.21720554E+04</rscale>
<asrwt>0</asrwt>
<pdfrwt beam="1">  1        1 0.14481929E+00 0.21720554E+04</pdfrwt>
<pdfrwt beam="2">  1       -1 0.19276521E+00 0.21720554E+04</pdfrwt>
<totfact> 0.26011161E+00</totfact>
</mgrwt>
</event>
<event>
12    1  0.1518126E-007  0.1709965E+04  0.7818608E-02  0.8755701E-01
         -1   -1    0    0    0  501 -0.00000000000E+00  0.00000000000E+00  0.46321423426E+03  0.46321423426E+03  0.00000000000E+00 0.  1.
          1   -1    0    0  501    0  0.00000000000E+00 -0.00000000000E+00 -0.15780926579E+04  0.15780926579E+04  0.00000000000E+00 0. -1.
         23    2    1    2    0    0  0.50819013887E+03 -0.29611569584E+03 -0.62241478721E+03  0.86123953075E+03  0.91605891858E+02 0.  0.
        254    2    1    2    0    0 -0.50819013887E+03  0.29611569584E+03 -0.49246363642E+03  0.11800673614E+04  0.89671445939E+03 0.  0.
        -24    2    4    4    0    0 -0.60934930168E+03  0.96329334673E+01 -0.23034746933E+02  0.61562294512E+03  0.84033601156E+02 0.  0.
         24    2    4    4    0    0  0.10115916281E+03  0.28648276238E+03 -0.46942888948E+03  0.56444441628E+03  0.76996541672E+02 0.  0.
         11    1    3    3    0    0  0.21615876650E+03 -0.14130379575E+03 -0.33674564470E+03  0.42436894827E+03  0.00000000000E+00 0. -1.
        -11    1    3    3    0    0  0.29203137237E+03 -0.15481190010E+03 -0.28566914250E+03  0.43687058248E+03  0.00000000000E+00 0.  1.
          2    1    6    6  502    0  0.98125024414E+02  0.27297552623E+03 -0.46789234797E+03  0.55051558346E+03  0.00000000000E+00 0. -1.
          3    1    5    5  503    0 -0.54026164767E+03  0.29096692126E+02 -0.28135763198E+01  0.54105192139E+03  0.00000000000E+00 0. -1.
         -4    1    5    5    0  503 -0.69087654016E+02 -0.19463758659E+02 -0.20221170614E+02  0.74571023726E+02  0.00000000000E+00 0.  1.
         -1    1    6    6    0  502  0.30341383998E+01  0.13507236143E+02 -0.15365415130E+01  0.13928832825E+02  0.00000000000E+00 0.  1.
<mgrwt>
<rscale>  0 0.17099649E+04</rscale>
<asrwt>0</asrwt>
<pdfrwt beam="1">  1        1 0.24278349E+00 0.17099649E+04</pdfrwt>
<pdfrwt beam="2">  1       -1 0.71263727E-01 0.17099649E+04</pdfrwt>
<totfact> 0.10922303E+01</totfact>
</mgrwt>
</event>
<event>
12    1  0.1518126E-007  0.1716648E+04  0.7818608E-02  0.8751926E-01
          2   -1    0    0  501    0  0.00000000000E+00  0.00000000000E+00  0.31326683872E+04  0.31326683872E+04  0.00000000000E+00 0. -1.
         -2   -1    0    0    0  501 -0.00000000000E+00 -0.00000000000E+00 -0.23517342185E+03  0.23517342185E+03  0.00000000000E+00 0.  1.
         23    2    1    2    0    0 -0.17908595989E+03  0.24296430830E+03  0.20590979887E+04  0.20832546933E+04  0.94668653677E+02 0.  0.
        254    2    1    2    0    0  0.17908595989E+03 -0.24296430830E+03  0.83839697665E+03  0.12845871158E+04  0.92528435162E+03 0.  0.
        -24    2    4    4    0    0  0.13623435130E+03 -0.30015437800E+03 -0.89349465882E+02  0.35057920064E+03  0.79183330054E+02 0.  0.
         24    2    4    4    0    0  0.42851608587E+02  0.57190069698E+02  0.92774644254E+03  0.93400791511E+03  0.80934290801E+02 0.  0.
         13    1    3    3    0    0 -0.17996057406E+03  0.23041540517E+03  0.20366044985E+04  0.20574826732E+04  0.00000000000E+00 0. -1.
        -13    1    3    3    0    0  0.87461417562E+00  0.12548903135E+02  0.22493490210E+02  0.25772020132E+02  0.00000000000E+00 0.  1.
          2    1    6    6  502    0 -0.36919670102E+00 -0.14048182194E+02  0.35018620085E+03  0.35046806273E+03  0.00000000000E+00 0. -1.
          1    1    5    5  503    0  0.57109446893E+02 -0.74352426848E+02  0.37790596444E+01  0.93829918439E+02  0.00000000000E+00 0. -1.
         -2    1    5    5    0  503  0.79124904406E+02 -0.22580195116E+03 -0.93128525526E+02  0.25674928220E+03  0.00000000000E+00 0.  1.
         -1    1    6    6    0  502  0.43220805288E+02  0.71238251892E+02  0.57756024169E+03  0.58353985238E+03  0.00000000000E+00 0.  1.
<mgrwt>
<rscale>  0 0.17166483E+04</rscale>
<asrwt>0</asrwt>
<pdfrwt beam="1">  1        2 0.48194895E+00 0.17166483E+04</pdfrwt>
<pdfrwt beam="2">  1       -2 0.36180529E-01 0.17166483E+04</pdfrwt>
<totfact> 0.98516939E+00</totfact>
</mgrwt>
</event>
<event>
12    1  0.1518126E-007  0.3555074E+04  0.7818608E-02  0.8100861E-01
         -2   -1    0    0    0  501 -0.00000000000E+00  0.00000000000E+00  0.11877020114E+04  0.11877020114E+04  0.00000000000E+00 0.  1.
          2   -1    0    0  501    0  0.00000000000E+00 -0.00000000000E+00 -0.26602947621E+04  0.26602947621E+04  0.00000000000E+00 0. -1.
         23    2    1    2    0    0  0.48191655109E+02 -0.22250566351E+03 -0.24721677501E+04  0.24843988730E+04  0.93771902492E+02 0.  0.
        254    2    1    2    0    0 -0.48191655109E+02  0.22250566351E+03  0.99957499938E+03  0.13635979004E+04  0.89912059744E+03 0.  0.
        -24    2    4    4    0    0  0.17217759393E+03 -0.37114627462E+02 -0.94646533066E+02  0.21471909241E+03  0.78254092559E+02 0.  0.
         24    2    4    4    0    0 -0.22036924904E+03  0.25962029097E+03  0.10942215324E+04  0.11488788080E+04  0.81464421836E+02 0.  0.
         11    1    3    3    0    0 -0.18545138354E+01 -0.53351454736E+02 -0.10462554263E+04  0.10476164536E+04  0.00000000000E+00 0. -1.
        -11    1    3    3    0    0  0.50046168945E+02 -0.16915420878E+03 -0.14259123239E+04  0.14367824194E+04  0.00000000000E+00 0.  1.
          4    1    6    6  502    0 -0.55339945018E+02  0.30992008504E+02  0.13658716364E+03  0.15059570836E+03  0.00000000000E+00 0. -1.
          1    1    5    5  503    0  0.13857834310E+03 -0.39084337528E+01 -0.43969734350E+02  0.14543923326E+03  0.00000000000E+00 0. -1.
         -2    1    5    5    0  503  0.33599250829E+02 -0.33206193709E+02 -0.50676798715E+02  0.69279859158E+02  0.00000000000E+00 0.  1.
         -3    1    6    6    0  502 -0.16502930402E+03  0.22862828247E+03  0.95763436881E+03  0.99828309965E+03  0.00000000000E+00 0.  1.
<mgrwt>
<rscale>  0 0.35550738E+04</rscale>
<asrwt>0</asrwt>
<pdfrwt beam="1">  1        2 0.40927611E+00 0.35550738E+04</pdfrwt>
<pdfrwt beam="2">  1       -2 0.18272339E+00 0.35550738E+04</pdfrwt>
<totfact> 0.39821833E-01</totfact>
</mgrwt>
</event>
<event>
12    1  0.1518126E-007  0.1660310E+04  0.7818608E-02  0.8784330E-01
          2   -1    0    0  501    0  0.00000000000E+00  0.00000000000E+00  0.77418224696E+03  0.77418224696E+03  0.00000000000E+00 0. -1.
         -2   -1    0    0    0  501 -0.00000000000E+00 -0.00000000000E+00 -0.89017458949E+03  0.89017458949E+03  0.00000000000E+00 0.  1.
         23    2    1    2    0    0  0.22935687109E+03 -0.14320015674E+03  0.46801287014E+03  0.54797234887E+03  0.90148706566E+02 0.  0.
        254    2    1    2    0    0 -0.22935687109E+03  0.14320015674E+03 -0.58400521268E+03  0.11163844876E+04  0.91221783390E+03 0.  0.
        -24    2    4    4    0    0  0.14419934933E+03 -0.24979855281E+03  0.23813435920E+02  0.29800797455E+03  0.71055639009E+02 0.  0.
         24    2    4    4    0    0 -0.37355622042E+03  0.39299870955E+03 -0.60781864859E+03  0.81837651304E+03  0.79400075488E+02 0.  0.
         11    1    3    3    0    0  0.74745080054E+02 -0.63805839816E+02  0.96105872228E+02  0.13745672360E+03  0.00000000000E+00 0.  1.
        -11    1    3    3    0    0  0.15461179103E+03 -0.79394316929E+02  0.37190699791E+03  0.41051562526E+03  0.00000000000E+00 0. -1.
          4    1    6    6  502    0 -0.11092059449E+03  0.84073284768E+02 -0.19650727786E+03  0.24080449693E+03  0.00000000000E+00 0. -1.
          3    1    5    5  503    0  0.51713436349E+02 -0.96193739700E+02 -0.25297698815E+02  0.11210481088E+03  0.00000000000E+00 0. -1.
         -2    1    5    5    0  503  0.92485912982E+02 -0.15360481311E+03  0.49111134734E+02  0.18590316368E+03  0.00000000000E+00 0.  1.
         -3    1    6    6    0  502 -0.26263562593E+03  0.30892542478E+03 -0.41131137074E+03  0.57757201610E+03  0.00000000000E+00 0.  1.
<mgrwt>
<rscale>  0 0.16603100E+04</rscale>
<asrwt>0</asrwt>
<pdfrwt beam="1">  1        2 0.11910496E+00 0.16603100E+04</pdfrwt>
<pdfrwt beam="2">  1       -2 0.13694994E+00 0.16603100E+04</pdfrwt>
<totfact> 0.13053935E+01</totfact>
</mgrwt>
</event>
<event>
12    1  0.1518126E-007  0.2465089E+04  0.7818608E-02  0.8415529E-01
         -2   -1    0    0    0  501 -0.00000000000E+00  0.00000000000E+00  0.13530451390E+04  0.13530451390E+04  0.00000000000E+00 0.  1.
          2   -1    0    0  501    0  0.00000000000E+00 -0.00000000000E+00 -0.11227755334E+04  0.11227755334E+04  0.00000000000E+00 0. -1.
         23    2    1    2    0    0 -0.70185220952E+03 -0.78381911512E+03  0.31489457015E+03  0.11019325113E+04  0.90153978455E+02 0.  0.
        254    2    1    2    0    0  0.70185220952E+03  0.78381911512E+03 -0.84624964547E+02  0.13738881611E+04  0.87945344694E+03 0.  0.
        -24    2    4    4    0    0  0.29753256259E+02 -0.15938778964E+03  0.86791482792E+02  0.20054329771E+03  0.79969550607E+02 0.  0.
         24    2    4    4    0    0  0.67209895326E+03  0.94320690476E+03 -0.17141644734E+03  0.11733448634E+04  0.77448704687E+02 0.  0.
         13    1    3    3    0    0 -0.33661139571E+03 -0.43711224163E+03  0.18445814841E+03  0.58172085404E+03  0.00000000000E+00 0.  1.
        -13    1    3    3    0    0 -0.36524081381E+03 -0.34670687348E+03  0.13043642174E+03  0.52021165722E+03  0.00000000000E+00 0. -1.
          2    1    6    6  502    0  0.13884564192E+03  0.23327721194E+03 -0.64561431015E+02  0.27904219800E+03  0.00000000000E+00 0. -1.
          1    1    5    5  503    0 -0.14381572657E+02 -0.31863538155E+01  0.20425620973E+02  0.25183098992E+02  0.00000000000E+00 0. -1.
         -2    1    5    5    0  503  0.44134828916E+02 -0.15620143583E+03  0.66365861819E+02  0.17536019871E+03  0.00000000000E+00 0.  1.
         -1    1    6    6    0  502  0.53325331134E+03  0.70992969282E+03 -0.10685501632E+03  0.89430266538E+03  0.00000000000E+00 0.  1.
<mgrwt>
<rscale>  0 0.24650890E+04</rscale>
<asrwt>0</asrwt>
<pdfrwt beam="1">  1        2 0.17273470E+00 0.24650890E+04</pdfrwt>
<pdfrwt beam="2">  1       -2 0.20816079E+00 0.24650890E+04</pdfrwt>
<totfact> 0.22200827E+00</totfact>
</mgrwt>
</event>
<event>
12    1  0.1518126E-007  0.1287088E+04  0.7818608E-02  0.9039867E-01
          4   -1    0    0  501    0  0.00000000000E+00  0.00000000000E+00  0.10545190477E+04  0.10545190477E+04  0.00000000000E+00 0. -1.
         -4   -1    0    0    0  501 -0.00000000000E+00 -0.00000000000E+00 -0.39273749508E+03  0.39273749508E+03  0.00000000000E+00 0.  1.
         23    2    1    2    0    0  0.53768638358E+02 -0.19270817209E+02  0.51494330734E+03  0.52700896388E+03  0.96485270167E+02 0.  0.
        254    2    1    2    0    0 -0.53768638358E+02  0.19270817209E+02  0.14683824529E+03  0.92024757892E+03  0.90665964141E+03 0.  0.
        -24    2    4    4    0    0 -0.53959763326E+02 -0.23873801449E+03 -0.30193798006E+03  0.39647545551E+03  0.78222422616E+02 0.  0.
         24    2    4    4    0    0  0.19112496835E+00  0.25800883170E+03  0.44877622534E+03  0.52377212341E+03  0.79803151950E+02 0.  0.
         13    1    3    3    0    0  0.58150890515E+00  0.22434761448E+01 -0.41507095352E+01  0.47539170654E+01  0.00000000000E+00 0.  1.
        -13    1    3    3    0    0  0.53187129453E+02 -0.21514293354E+02  0.51909401688E+03  0.52225504681E+03  0.00000000000E+00 0. -1.
          2    1    6    6  502    0  0.30739821782E+02  0.16688865377E+03  0.32918532478E+03  0.37035083023E+03  0.00000000000E+00 0. -1.
          3    1    5    5  503    0 -0.69945184506E+02 -0.20043657901E+03 -0.22691185482E+03  0.31073484018E+03  0.00000000000E+00 0. -1.
         -4    1    5    5    0  503  0.15985421180E+02 -0.38301435486E+02 -0.75026125235E+02  0.85740615337E+02  0.00000000000E+00 0.  1.
         -1    1    6    6    0  502 -0.30548696814E+02  0.91120177930E+02  0.11959090056E+03  0.15342129318E+03  0.00000000000E+00 0.  1.
<mgrwt>
<rscale>  0 0.12870884E+04</rscale>
<asrwt>0</asrwt>
<pdfrwt beam="1">  1        4 0.16223370E+00 0.12870884E+04</pdfrwt>
<pdfrwt beam="2">  1       -4 0.60421154E-01 0.12870884E+04</pdfrwt>
<totfact> 0.12183287E+00</totfact>
</mgrwt>
</event>
<event>
12    1  0.1518126E-007  0.1223845E+04  0.7818608E-02  0.9092237E-01
         -2   -1    0    0    0  501 -0.00000000000E+00  0.00000000000E+00  0.46686577974E+03  0.46686577974E+03  0.00000000000E+00 0.  1.
          2   -1    0    0  501    0  0.00000000000E+00 -0.00000000000E+00 -0.80204946307E+03  0.80204946307E+03  0.00000000000E+00 0. -1.
         23    2    1    2    0    0  0.30603397071E+03  0.95376984180E+01 -0.26141392363E+03  0.41333848645E+03  0.93614667641E+02 0.  0.
        254    2    1    2    0    0 -0.30603397071E+03 -0.95376984180E+01 -0.73769759697E+02  0.85557675636E+03  0.79550100544E+03 0.  0.
        -24    2    4    4    0    0 -0.19799569817E+03 -0.34956795227E+03 -0.21633681166E+03  0.46338573336E+03  0.80775442143E+02 0.  0.
         24    2    4    4    0    0 -0.10803827254E+03  0.34003025385E+03  0.14256705197E+03  0.39219102300E+03  0.78712085158E+02 0.  0.
         11    1    3    3    0    0  0.24084774991E+03 -0.21734473435E+02 -0.23252366970E+03  0.33548067447E+03  0.00000000000E+00 0. -1.
        -11    1    3    3    0    0  0.65186220800E+02  0.31272171854E+02 -0.28890253924E+02  0.77857811980E+02  0.00000000000E+00 0.  1.
          2    1    6    6  502    0 -0.63292349560E+02  0.20192975027E+03  0.42411384519E+02  0.21582463041E+03  0.00000000000E+00 0. -1.
          1    1    5    5  503    0  0.79203445987E+01 -0.12833575152E+02 -0.81604599627E+01  0.17147175177E+02  0.00000000000E+00 0. -1.
         -2    1    5    5    0  503 -0.20591604277E+03 -0.33673437711E+03 -0.20817635170E+03  0.44623855818E+03  0.00000000000E+00 0.  1.
         -1    1    6    6    0  502 -0.44745922979E+02  0.13810050358E+03  0.10015566745E+03  0.17636639259E+03  0.00000000000E+00 0.  1.
<mgrwt>
<rscale>  0 0.12238455E+04</rscale>
<asrwt>0</asrwt>
<pdfrwt beam="1">  1        2 0.12339223E+00 0.12238455E+04</pdfrwt>
<pdfrwt beam="2">  1       -2 0.71825504E-01 0.12238455E+04</pdfrwt>
<totfact> 0.59446275E+01</totfact>
</mgrwt>
</event>
<event>
12    1  0.1518126E-007  0.1443551E+04  0.7818608E-02  0.8922884E-01
          1   -1    0    0  501    0  0.00000000000E+00  0.00000000000E+00  0.92700691041E+03  0.92700691041E+03  0.00000000000E+00 0. -1.
         -1   -1    0    0    0  501 -0.00000000000E+00 -0.00000000000E+00 -0.56198052282E+03  0.56198052282E+03  0.00000000000E+00 0.  1.
         23    2    1    2    0    0  0.28626278081E+03  0.26990756787E+03  0.33009961550E+03  0.52126052268E+03  0.89164463086E+02 0.  0.
        254    2    1    2    0    0 -0.28626278081E+03 -0.26990756787E+03  0.34926772087E+02  0.96772691054E+03  0.88344723618E+03 0.  0.
        -24    2    4    4    0    0 -0.17569084732E+03  0.24949025707E+03 -0.20869229769E+03  0.37791371032E+03  0.78445109020E+02 0.  0.
         24    2    4    4    0    0 -0.11057193349E+03 -0.51939782494E+03  0.24361906977E+03  0.58981320022E+03  0.80802889638E+02 0.  0.
         13    1    3    3    0    0  0.26038604378E+03  0.21597935134E+03  0.30796049129E+03  0.45747965660E+03  0.00000000000E+00 0. -1.
        -13    1    3    3    0    0  0.25876737030E+02  0.53928216533E+02  0.22139124208E+02  0.63780866084E+02  0.00000000000E+00 0.  1.
          2    1    6    6  502    0 -0.68957609179E+02 -0.22799392621E+03  0.70901251221E+02  0.24852237259E+03  0.00000000000E+00 0. -1.
          3    1    5    5  503    0 -0.17958740288E+02  0.10074700001E+02 -0.40713279560E+02  0.45624413041E+02  0.00000000000E+00 0. -1.
         -4    1    5    5    0  503 -0.15773210703E+03  0.23941555707E+03 -0.16797901813E+03  0.33228929728E+03  0.00000000000E+00 0.  1.
         -1    1    6    6    0  502 -0.41614324308E+02 -0.29140389873E+03  0.17271781855E+03  0.34129082764E+03  0.00000000000E+00 0.  1.
<mgrwt>
<rscale>  0 0.14435509E+04</rscale>
<asrwt>0</asrwt>
<pdfrwt beam="1">  1        1 0.14261645E+00 0.14435509E+04</pdfrwt>
<pdfrwt beam="2">  1       -1 0.86458542E-01 0.14435509E+04</pdfrwt>
<totfact> 0.22181215E+01</totfact>
</mgrwt>
</event>
<event>
12    1  0.1518126E-007  0.1943420E+04  0.7818608E-02  0.8633540E-01
          2   -1    0    0  501    0  0.00000000000E+00  0.00000000000E+00  0.18048259561E+04  0.18048259561E+04  0.00000000000E+00 0. -1.
         -2   -1    0    0    0  501 -0.00000000000E+00 -0.00000000000E+00 -0.52316424624E+03  0.52316424624E+03  0.00000000000E+00 0.  1.
         23    2    1    2    0    0 -0.17332299432E+03  0.45720873029E+03 -0.19642444795E+03  0.53472281959E+03  0.90913401801E+02 0.  0.
        254    2    1    2    0    0  0.17332299432E+03 -0.45720873029E+03  0.14780861578E+04  0.17932673828E+04  0.88993737575E+03 0.  0.
        -24    2    4    4    0    0  0.36193101721E+03 -0.60960540104E+03  0.81761857180E+03  0.10849796231E+04  0.77896389103E+02 0.  0.
         24    2    4    4    0    0 -0.18860802289E+03  0.15239667076E+03  0.66046758604E+03  0.70828775966E+03  0.81586682264E+02 0.  0.
         13    1    3    3    0    0 -0.15831813474E+03  0.29935554032E+03 -0.12801854509E+03  0.36203193118E+03  0.00000000000E+00 0. -1.
        -13    1    3    3    0    0 -0.15004859583E+02  0.15785318996E+03 -0.68405902860E+02  0.17269088841E+03  0.00000000000E+00 0.  1.
          2    1    6    6  502    0 -0.85303694878E+00  0.12692703905E+02  0.77799163130E+01  0.14911723653E+02  0.00000000000E+00 0. -1.
          3    1    5    5  503    0  0.42209486142E+02 -0.11387886005E+03  0.11131778611E+03  0.16474733683E+03  0.00000000000E+00 0. -1.
         -4    1    5    5    0  503  0.31972153107E+03 -0.49572654099E+03  0.70630078569E+03  0.92023228630E+03  0.00000000000E+00 0.  1.
         -1    1    6    6    0  502 -0.18775498594E+03  0.13970396685E+03  0.65268766973E+03  0.69337603601E+03  0.00000000000E+00 0.  1.
<mgrwt>
<rscale>  0 0.19434201E+04</rscale>
<asrwt>0</asrwt>
<pdfrwt beam="1">  1        2 0.27766553E+00 0.19434201E+04</pdfrwt>
<pdfrwt beam="2">  1       -2 0.80486808E-01 0.19434201E+04</pdfrwt>
<totfact> 0.10912618E+01</totfact>
</mgrwt>
</event>
<event>
12    1  0.1518126E-007  0.1430183E+04  0.7818608E-02  0.8932256E-01
         -2   -1    0    0    0  501 -0.00000000000E+00  0.00000000000E+00  0.35405454588E+03  0.35405454588E+03  0.00000000000E+00 0. -1.
          2   -1    0    0  501    0  0.00000000000E+00 -0.00000000000E+00 -0.14442851424E+04  0.14442851424E+04  0.00000000000E+00 0.  1.
         23    2    1    2    0    0  0.32180138117E+01 -0.15188851227E+03  0.16544490053E+03  0.24252893532E+03  0.91475644754E+02 0.  0.
        254    2    1    2    0    0 -0.32180138117E+01  0.15188851227E+03 -0.12556754970E+04  0.15558107529E+04  0.90595014727E+03 0.  0.
        -24    2    4    4    0    0  0.14715606693E+03  0.12016830018E+03 -0.13450834055E+04  0.13607641579E+04  0.79588926728E+02 0.  0.
         24    2    4    4    0    0 -0.15037408074E+03  0.31720212096E+02  0.89407908493E+02  0.19504659502E+03  0.80192668707E+02 0.  0.
         13    1    3    3    0    0  0.29123981741E+02 -0.14798708481E+03  0.14587701752E+03  0.20982966383E+03  0.00000000000E+00 0.  1.
        -13    1    3    3    0    0 -0.25905967929E+02 -0.39014274679E+01  0.19567883002E+02  0.32699271488E+02  0.00000000000E+00 0. -1.
          4    1    6    6  502    0 -0.51829086874E+02 -0.15996447553E+02  0.88650550422E+00  0.54248746276E+02  0.00000000000E+00 0. -1.
          1    1    5    5  503    0  0.98306115144E+02  0.87491279330E+02 -0.64925802909E+03  0.66246117213E+03  0.00000000000E+00 0. -1.
         -2    1    5    5    0  503  0.48849951788E+02  0.32677020849E+02 -0.69582537641E+03  0.69830298578E+03  0.00000000000E+00 0.  1.
         -3    1    6    6    0  502 -0.98544993870E+02  0.47716659649E+02  0.88521402989E+02  0.14079784875E+03  0.00000000000E+00 0.  1.
<mgrwt>
<rscale>  0 0.14301828E+04</rscale>
<asrwt>0</asrwt>
<pdfrwt beam="1">  1        2 0.22219772E+00 0.14301828E+04</pdfrwt>
<pdfrwt beam="2">  1       -2 0.54469930E-01 0.14301828E+04</pdfrwt>
<totfact> 0.42051743E+01</totfact>
</mgrwt>
</event>
<event>
12    1  0.1518126E-007  0.1517183E+04  0.7818608E-02  0.8873106E-01
          1   -1    0    0  501    0  0.00000000000E+00  0.00000000000E+00  0.91804261282E+03  0.91804261282E+03  0.00000000000E+00 0. -1.
         -1   -1    0    0    0  501 -0.00000000000E+00 -0.00000000000E+00 -0.62683508322E+03  0.62683508322E+03  0.00000000000E+00 0.  1.
         23    2    1    2    0    0 -0.38235657502E+02 -0.37248467269E+03 -0.20488799862E+03  0.43644198689E+03  0.91080838002E+02 0.  0.
        254    2    1    2    0    0  0.38235657502E+02  0.37248467269E+03  0.49609552822E+03  0.11084357091E+04  0.91777565412E+03 0.  0.
        -24    2    4    4    0    0  0.41601795505E+03 -0.35381944036E+02  0.16175499082E+03  0.45490905338E+03  0.80341451931E+02 0.  0.
         24    2    4    4    0    0 -0.37778229755E+03  0.40786661673E+03  0.33434053739E+03  0.65352665576E+03  0.78986413164E+02 0.  0.
         11    1    3    3    0    0 -0.24248039321E+02 -0.22210497724E+02 -0.30745534295E+02  0.45017346647E+02  0.00000000000E+00 0. -1.
        -11    1    3    3    0    0 -0.13987618181E+02 -0.35027417497E+03 -0.17414246432E+03  0.39142464025E+03  0.00000000000E+00 0.  1.
          2    1    6    6  502    0 -0.33839292200E+03  0.32225695179E+03  0.27886415045E+03  0.54417325094E+03  0.00000000000E+00 0. -1.
          3    1    5    5  503    0  0.33982209671E+03 -0.42481737567E+02  0.10056500914E+03  0.35692727061E+03  0.00000000000E+00 0. -1.
         -4    1    5    5    0  503  0.76195858343E+02  0.70997935312E+01  0.61189981681E+02  0.97981782771E+02  0.00000000000E+00 0.  1.
         -1    1    6    6    0  502 -0.39389375550E+02  0.85609664940E+02  0.55476386947E+02  0.10935340482E+03  0.00000000000E+00 0.  1.
<mgrwt>
<rscale>  0 0.15171833E+04</rscale>
<asrwt>0</asrwt>
<pdfrwt beam="1">  1        1 0.14123732E+00 0.15171833E+04</pdfrwt>
<pdfrwt beam="2">  1       -1 0.96436167E-01 0.15171833E+04</pdfrwt>
<totfact> 0.17593436E+01</totfact>
</mgrwt>
</event>
<event>
12    1  0.1518126E-007  0.1320304E+04  0.7818608E-02  0.9013617E-01
         -2   -1    0    0    0  501 -0.00000000000E+00  0.00000000000E+00  0.30326572331E+03  0.30326572331E+03  0.00000000000E+00 0.  1.
          2   -1    0    0  501    0  0.00000000000E+00 -0.00000000000E+00 -0.14370257820E+04  0.14370257820E+04  0.00000000000E+00 0. -1.
         23    2    1    2    0    0  0.87073141077E+02 -0.19988631940E+03 -0.65442484148E+03  0.69581798831E+03  0.91403102360E+02 0.  0.
        254    2    1    2    0    0 -0.87073141077E+02  0.19988631940E+03 -0.47933521724E+03  0.10444735170E+04  0.90201241938E+03 0.  0.
        -24    2    4    4    0    0 -0.16537294823E+03 -0.23346659904E+03 -0.51608379323E+03  0.59562698132E+03  0.81081159104E+02 0.  0.
         24    2    4    4    0    0  0.78299807151E+02  0.43335291844E+03  0.36748575993E+02  0.44884653571E+03  0.78658394734E+02 0.  0.
         13    1    3    3    0    0  0.78920383065E+02 -0.69178494493E+02 -0.26875052656E+03  0.28851505418E+03  0.00000000000E+00 0. -1.
        -13    1    3    3    0    0  0.81527580112E+01 -0.13070782491E+03 -0.38567431493E+03  0.40730293413E+03  0.00000000000E+00 0.  1.
          2    1    6    6  502    0  0.19457913170E+02  0.19037174555E+02  0.11683926133E+02  0.29623276825E+02  0.00000000000E+00 0. -1.
          3    1    5    5  503    0 -0.15823911103E+02 -0.10090358431E+02 -0.89218452300E+02  0.91170958790E+02  0.00000000000E+00 0. -1.
         -4    1    5    5    0  503 -0.14954903712E+03 -0.22337624061E+03 -0.42686534093E+03  0.50445602253E+03  0.00000000000E+00 0.  1.
         -1    1    6    6    0  502  0.58841893981E+02  0.41431574389E+03  0.25064649860E+02  0.41922325889E+03  0.00000000000E+00 0.  1.
<mgrwt>
<rscale>  0 0.13203040E+04</rscale>
<asrwt>0</asrwt>
<pdfrwt beam="1">  1        2 0.22108089E+00 0.13203040E+04</pdfrwt>
<pdfrwt beam="2">  1       -2 0.46656266E-01 0.13203040E+04</pdfrwt>
<totfact> 0.58732198E+01</totfact>
</mgrwt>
</event>
<event>
12    1  0.1518126E-007  0.1130665E+04  0.7818608E-02  0.9175809E-01
         -2   -1    0    0    0  501 -0.00000000000E+00  0.00000000000E+00  0.36961409001E+03  0.36961409001E+03  0.00000000000E+00 0.  1.
          2   -1    0    0  501    0  0.00000000000E+00 -0.00000000000E+00 -0.86468791950E+03  0.86468791950E+03  0.00000000000E+00 0. -1.
         23    2    1    2    0    0 -0.12638836882E+03  0.19738837625E+02 -0.24653969000E+03  0.29320514884E+03  0.93935079055E+02 0.  0.
        254    2    1    2    0    0  0.12638836882E+03 -0.19738837625E+02 -0.24853413949E+03  0.94109686067E+03  0.89862697555E+03 0.  0.
        -24    2    4    4    0    0  0.40176681576E+03 -0.60677412980E+02 -0.43146848492E+03  0.59797932424E+03  0.79472611943E+02 0.  0.
         24    2    4    4    0    0 -0.27537844694E+03  0.40938575355E+02  0.18293434542E+03  0.34311753643E+03  0.82191319985E+02 0.  0.
         13    1    3    3    0    0  0.11897023324E+02  0.12023233716E+02 -0.49877148188E+02  0.52667136094E+02  0.00000000000E+00 0.  1.
        -13    1    3    3    0    0 -0.13828539214E+03  0.77156039089E+01 -0.19666254181E+03  0.24053801275E+03  0.00000000000E+00 0. -1.
          2    1    6    6  502    0 -0.22443696158E+03  0.18617929839E+02  0.17841731956E+03  0.28731744979E+03  0.00000000000E+00 0. -1.
          1    1    5    5  503    0  0.27073927135E+03 -0.29881932269E+02 -0.33808502579E+03  0.43415915007E+03  0.00000000000E+00 0. -1.
         -2    1    5    5    0  503  0.13102754440E+03 -0.30795480711E+02 -0.93383459129E+02  0.16382017417E+03  0.00000000000E+00 0.  1.
         -1    1    6    6    0  502 -0.50941485358E+02  0.22320645516E+02  0.45170258672E+01  0.55800086643E+02  0.00000000000E+00 0.  1.
<mgrwt>
<rscale>  0 0.11306650E+04</rscale>
<asrwt>0</asrwt>
<pdfrwt beam="1">  1        2 0.13302891E+00 0.11306650E+04</pdfrwt>
<pdfrwt beam="2">  1       -2 0.56863707E-01 0.11306650E+04</pdfrwt>
<totfact> 0.89111742E+01</totfact>
</mgrwt>
</event>
<event>
12    1  0.1518126E-007  0.1842093E+04  0.7818608E-02  0.8684230E-01
          1   -1    0    0  501    0  0.00000000000E+00  0.00000000000E+00  0.16400483610E+04  0.16400483610E+04  0.00000000000E+00 0.  1.
         -1   -1    0    0    0  501 -0.00000000000E+00 -0.00000000000E+00 -0.51725704029E+03  0.51725704029E+03  0.00000000000E+00 0. -1.
         23    2    1    2    0    0 -0.61402454289E+03 -0.32221613797E+03  0.35074470296E+03  0.78233218073E+03  0.90401413190E+02 0.  0.
        254    2    1    2    0    0  0.61402454289E+03  0.32221613797E+03  0.77204661772E+03  0.13749732205E+04  0.90202328042E+03 0.  0.
        -24    2    4    4    0    0  0.75341934912E+03  0.46790792428E+03  0.47987180545E+03  0.10112490503E+04  0.75954925903E+02 0.  0.
         24    2    4    4    0    0 -0.13939480623E+03 -0.14569178632E+03  0.29217481228E+03  0.36372417027E+03  0.79196859221E+02 0.  0.
         13    1    3    3    0    0 -0.18338648389E+03 -0.62514343442E+02  0.12875148760E+03  0.23262758041E+03  0.00000000000E+00 0.  1.
        -13    1    3    3    0    0 -0.43063805900E+03 -0.25970179453E+03  0.22199321536E+03  0.54970460031E+03  0.00000000000E+00 0. -1.
          4    1    6    6  502    0 -0.35579973582E+02 -0.48585759579E+02  0.15454306478E+03  0.16586159720E+03  0.00000000000E+00 0. -1.
          3    1    5    5  503    0  0.11436661551E+03  0.95656991200E+02  0.10281240835E+03  0.18110873535E+03  0.00000000000E+00 0. -1.
         -4    1    5    5    0  503  0.63905273361E+03  0.37225093308E+03  0.37705939710E+03  0.83014031492E+03  0.00000000000E+00 0.  1.
         -3    1    6    6    0  502 -0.10381483264E+03 -0.97106026737E+02  0.13763174750E+03  0.19786257308E+03  0.00000000000E+00 0.  1.
<mgrwt>
<rscale>  0 0.18420929E+04</rscale>
<asrwt>0</asrwt>
<pdfrwt beam="1">  1        1 0.25231513E+00 0.18420929E+04</pdfrwt>
<pdfrwt beam="2">  1       -1 0.79578007E-01 0.18420929E+04</pdfrwt>
<totfact> 0.77686661E+00</totfact>
</mgrwt>
</event>
<event>
12    1  0.1518126E-007  0.2645157E+04  0.7818608E-02  0.8353022E-01
          1   -1    0    0  501    0  0.00000000000E+00  0.00000000000E+00  0.25385172641E+04  0.25385172641E+04  0.00000000000E+00 0. -1.
         -1   -1    0    0    0  501 -0.00000000000E+00 -0.00000000000E+00 -0.68906930023E+03  0.68906930023E+03  0.00000000000E+00 0.  1.
         23    2    1    2    0    0 -0.54970579876E+03 -0.99996348460E+03  0.11125197755E+04  0.15973052667E+04  0.10761239801E+03 0.  0.
        254    2    1    2    0    0  0.54970579876E+03  0.99996348460E+03  0.73692818836E+03  0.16302812977E+04  0.90147130799E+03 0.  0.
        -24    2    4    4    0    0  0.64485720995E+03  0.26853973103E+03  0.45111509036E+03  0.83550465035E+03  0.81294450279E+02 0.  0.
         24    2    4    4    0    0 -0.95151411188E+02  0.73142375356E+03  0.28581309800E+03  0.79477664735E+03  0.77112216038E+02 0.  0.
         11    1    3    3    0    0 -0.52492320071E+03 -0.98748836444E+03  0.10826466466E+04  0.15565350616E+04  0.00000000000E+00 0. -1.
        -11    1    3    3    0    0 -0.24782598049E+02 -0.12475120155E+02  0.29873128917E+02  0.40770205055E+02  0.00000000000E+00 0.  1.
          4    1    6    6  502    0 -0.12688043143E+02  0.18908724313E+03  0.10790387898E+03  0.21807846994E+03  0.00000000000E+00 0. -1.
          3    1    5    5  503    0  0.32014018829E+03  0.14661172653E+03  0.18119868184E+03  0.39600214749E+03  0.00000000000E+00 0. -1.
         -4    1    5    5    0  503  0.32471702166E+03  0.12192800451E+03  0.26991640852E+03  0.43950250286E+03  0.00000000000E+00 0.  1.
         -3    1    6    6    0  502 -0.82463368045E+02  0.54233651043E+03  0.17790921902E+03  0.57669817741E+03  0.00000000000E+00 0.  1.
<mgrwt>
<rscale>  0 0.26451573E+04</rscale>
<asrwt>0</asrwt>
<pdfrwt beam="1">  1        1 0.39054111E+00 0.26451573E+04</pdfrwt>
<pdfrwt beam="2">  1       -1 0.10601066E+00 0.26451573E+04</pdfrwt>
<totfact> 0.92987853E-01</totfact>
</mgrwt>
</event>
<event>
12    1  0.1518126E-007  0.2005254E+04  0.7818608E-02  0.8604168E-01
         -2   -1    0    0    0  501 -0.00000000000E+00  0.00000000000E+00  0.59886853668E+03  0.59886853668E+03  0.00000000000E+00 0.  1.
          2   -1    0    0  501    0  0.00000000000E+00 -0.00000000000E+00 -0.16786010302E+04  0.16786010302E+04  0.00000000000E+00 0. -1.
         23    2    1    2    0    0  0.68808130295E+03  0.37817785030E+03 -0.42269896335E+03  0.89694857189E+03  0.96788227989E+02 0.  0.
        254    2    1    2    0    0 -0.68808130295E+03 -0.37817785030E+03 -0.65703353014E+03  0.13805209950E+04  0.92610517323E+03 0.  0.
        -24    2    4    4    0    0 -0.39598702410E+03  0.22174339458E+03 -0.30761577927E+02  0.46176286152E+03  0.79390234324E+02 0.  0.
         24    2    4    4    0    0 -0.29209427884E+03 -0.59992124488E+03 -0.62627195221E+03  0.91875813344E+03  0.81703009990E+02 0.  0.
         13    1    3    3    0    0  0.54314826554E+03  0.26609007784E+03 -0.29022005555E+03  0.67085143551E+03  0.00000000000E+00 0.  1.
        -13    1    3    3    0    0  0.14493303741E+03  0.11208777246E+03 -0.13247890780E+03  0.22609713638E+03  0.00000000000E+00 0. -1.
          4    1    6    6  502    0 -0.20359654743E+03 -0.33630876748E+03 -0.34161715062E+03  0.52082378863E+03  0.00000000000E+00 0. -1.
          1    1    5    5  503    0 -0.31835925464E+03  0.18610439350E+03  0.58945953400E+01  0.36881188504E+03  0.00000000000E+00 0. -1.
         -2    1    5    5    0  503 -0.77627769467E+02  0.35639001085E+02 -0.36656173267E+02  0.92950976484E+02  0.00000000000E+00 0.  1.
         -3    1    6    6    0  502 -0.88497731416E+02 -0.26361247740E+03 -0.28465480159E+03  0.39793434481E+03  0.00000000000E+00 0.  1.
<mgrwt>
<rscale>  0 0.20052544E+04</rscale>
<asrwt>0</asrwt>
<pdfrwt beam="1">  1        2 0.25824631E+00 0.20052544E+04</pdfrwt>
<pdfrwt beam="2">  1       -2 0.92133622E-01 0.20052544E+04</pdfrwt>
<totfact> 0.93701364E+00</totfact>
</mgrwt>
</event>
<event>
12    1  0.1518126E-007  0.2399354E+04  0.7818608E-02  0.8439745E-01
         -2   -1    0    0    0  501 -0.00000000000E+00  0.00000000000E+00  0.13704190535E+04  0.13704190535E+04  0.00000000000E+00 0.  1.
          2   -1    0    0  501    0  0.00000000000E+00 -0.00000000000E+00 -0.10502080308E+04  0.10502080308E+04  0.00000000000E+00 0. -1.
         23    2    1    2    0    0  0.43788674637E+03  0.29580320959E+02  0.10793081025E+04  0.11687798799E+04  0.92307255406E+02 0.  0.
        254    2    1    2    0    0 -0.43788674637E+03 -0.29580320959E+02 -0.75909707978E+03  0.12518472044E+04  0.89346138613E+03 0.  0.
        -24    2    4    4    0    0 -0.47899768245E+03 -0.14204857588E+03 -0.27798627648E+02  0.50668864544E+03  0.79649494799E+02 0.  0.
         24    2    4    4    0    0  0.41110936078E+02  0.11246825493E+03 -0.73129845214E+03  0.74515855892E+03  0.78260043463E+02 0.  0.
         13    1    3    3    0    0  0.41558213931E+03  0.10646688899E+02  0.96400093432E+03  0.10498188738E+04  0.00000000000E+00 0.  1.
        -13    1    3    3    0    0  0.22304607064E+02  0.18933632060E+02  0.11530716820E+03  0.11896100603E+03  0.00000000000E+00 0. -1.
          4    1    6    6  502    0 -0.11434908616E+02  0.21890311095E+02 -0.49008770836E+02  0.54879891343E+02  0.00000000000E+00 0. -1.
          1    1    5    5  503    0 -0.13324767151E+03 -0.77174878768E+02 -0.14303282731E+02  0.15464633126E+03  0.00000000000E+00 0. -1.
         -2    1    5    5    0  503 -0.34575001093E+03 -0.64873697116E+02 -0.13495344917E+02  0.35204231418E+03  0.00000000000E+00 0.  1.
         -3    1    6    6    0  502  0.52545844695E+02  0.90577943831E+02 -0.68228968130E+03  0.69027866758E+03  0.00000000000E+00 0.  1.
<mgrwt>
<rscale>  0 0.23993542E+04</rscale>
<asrwt>0</asrwt>
<pdfrwt beam="1">  1        2 0.16157047E+00 0.23993542E+04</pdfrwt>
<pdfrwt beam="2">  1       -2 0.21083370E+00 0.23993542E+04</pdfrwt>
<totfact> 0.23797637E+00</totfact>
</mgrwt>
</event>
<event>
12    1  0.1518126E-007  0.3191233E+04  0.7818608E-02  0.8191136E-01
          3   -1    0    0  501    0  0.00000000000E+00  0.00000000000E+00  0.11835060743E+04  0.11835060743E+04  0.00000000000E+00 0. -1.
         -3   -1    0    0    0  501 -0.00000000000E+00 -0.00000000000E+00 -0.21512278985E+04  0.21512278985E+04  0.00000000000E+00 0.  1.
         23    2    1    2    0    0  0.37378556178E+03 -0.39992797149E+03 -0.18649291662E+04  0.19456875723E+04  0.89896083345E+02 0.  0.
        254    2    1    2    0    0 -0.37378556178E+03  0.39992797149E+03  0.89720734195E+03  0.13890464005E+04  0.90819098189E+03 0.  0.
        -24    2    4    4    0    0 -0.19241890455E+03  0.25223548712E+03  0.10485118705E+04  0.10986327649E+04  0.83480738340E+02 0.  0.
         24    2    4    4    0    0 -0.18136665723E+03  0.14769248436E+03 -0.15130452853E+03  0.29041363560E+03  0.82098021263E+02 0.  0.
         13    1    3    3    0    0  0.14625666838E+03 -0.18554976609E+03 -0.66571457180E+03  0.70639622015E+03  0.00000000000E+00 0. -1.
        -13    1    3    3    0    0  0.22752889341E+03 -0.21437820539E+03 -0.11992145944E+04  0.12392913522E+04  0.00000000000E+00 0.  1.
          4    1    6    6  502    0 -0.98356029570E+02  0.32956059657E+02 -0.43725258737E+02  0.11256957259E+03  0.00000000000E+00 0. -1.
          3    1    5    5  503    0 -0.25462130988E+02  0.92811901922E+02  0.34810015816E+03  0.36115936837E+03  0.00000000000E+00 0. -1.
         -4    1    5    5    0  503 -0.16695677357E+03  0.15942358520E+03  0.70041171232E+03  0.73747339648E+03  0.00000000000E+00 0.  1.
         -3    1    6    6    0  502 -0.83010627661E+02  0.11473642471E+03 -0.10757926979E+03  0.17784406301E+03  0.00000000000E+00 0.  1.
<mgrwt>
<rscale>  0 0.31912325E+04</rscale>
<asrwt>0</asrwt>
<pdfrwt beam="1">  1        3 0.18207786E+00 0.31912325E+04</pdfrwt>
<pdfrwt beam="2">  1       -3 0.33095814E+00 0.31912325E+04</pdfrwt>
<totfact> 0.10716309E-02</totfact>
</mgrwt>
</event>
<event>
12    1  0.1518126E-007  0.3279534E+04  0.7818608E-02  0.8168123E-01
          1   -1    0    0  501    0  0.00000000000E+00  0.00000000000E+00  0.13693032145E+04  0.13693032145E+04  0.00000000000E+00 0. -1.
         -1   -1    0    0    0  501 -0.00000000000E+00 -0.00000000000E+00 -0.19636526754E+04  0.19636526754E+04  0.00000000000E+00 0.  1.
         23    2    1    2    0    0 -0.37207195584E+03 -0.82554284664E+03 -0.14966866524E+04  0.17515573287E+04  0.89014652573E+02 0.  0.
        254    2    1    2    0    0  0.37207195584E+03  0.82554284664E+03  0.90233719153E+03  0.15813985612E+04  0.93094063736E+03 0.  0.
        -24    2    4    4    0    0  0.53938851226E+03  0.17258326490E+03  0.62737656554E+03  0.84904741111E+03  0.80964194880E+02 0.  0.
         24    2    4    4    0    0 -0.16731655641E+03  0.65295958174E+03  0.27496062599E+03  0.73235115012E+03  0.79898784703E+02 0.  0.
         11    1    3    3    0    0 -0.10688306994E+03 -0.25582089261E+03 -0.53850475598E+03  0.60568613320E+03  0.00000000000E+00 0.  1.
        -11    1    3    3    0    0 -0.26518888590E+03 -0.56972195403E+03 -0.95818189643E+03  0.11458711955E+04  0.00000000000E+00 0. -1.
          4    1    6    6  502    0 -0.16612296623E+03  0.63006933572E+03  0.27944567630E+03  0.70899512955E+03  0.00000000000E+00 0. -1.
          1    1    5    5  503    0  0.48749568105E+03  0.17993645767E+03  0.56738183462E+03  0.76938372357E+03  0.00000000000E+00 0. -1.
         -2    1    5    5    0  503  0.51892831206E+02 -0.73531927706E+01  0.59994730918E+02  0.79663687539E+02  0.00000000000E+00 0.  1.
         -3    1    6    6    0  502 -0.11935901852E+01  0.22890246022E+02 -0.44850503118E+01  0.23356020568E+02  0.00000000000E+00 0.  1.
<mgrwt>
<rscale>  0 0.32795341E+04</rscale>
<asrwt>0</asrwt>
<pdfrwt beam="1">  1        1 0.21066203E+00 0.32795341E+04</pdfrwt>
<pdfrwt beam="2">  1       -1 0.30210041E+00 0.32795341E+04</pdfrwt>
<totfact> 0.21475208E-01</totfact>
</mgrwt>
</event>
<event>
12    1  0.1518126E-007  0.1923232E+04  0.7818608E-02  0.8643378E-01
         -2   -1    0    0    0  501 -0.00000000000E+00  0.00000000000E+00  0.58453467297E+03  0.58453467297E+03  0.00000000000E+00 0.  1.
          2   -1    0    0  501    0  0.00000000000E+00 -0.00000000000E+00 -0.15819517784E+04  0.15819517784E+04  0.00000000000E+00 0. -1.
         23    2    1    2    0    0 -0.62434131442E+03  0.40782663457E+03 -0.47280180052E+03  0.88734507950E+03  0.87835680502E+02 0.  0.
        254    2    1    2    0    0  0.62434131442E+03 -0.40782663457E+03 -0.52461530495E+03  0.12791413719E+04  0.89713811111E+03 0.  0.
        -24    2    4    4    0    0  0.15281301371E+03 -0.55854432344E+03 -0.46278074490E+02  0.58626443380E+03  0.78998403505E+02 0.  0.
         24    2    4    4    0    0  0.47152830072E+03  0.15071768887E+03 -0.47833723046E+03  0.69287693812E+03  0.78849129468E+02 0.  0.
         13    1    3    3    0    0 -0.63633739621E+02  0.74569866504E+02 -0.73962809990E+02  0.12280234147E+03  0.00000000000E+00 0. -1.
        -13    1    3    3    0    0 -0.56070757480E+03  0.33325676807E+03 -0.39883899053E+03  0.76454273803E+03  0.00000000000E+00 0.  1.
          2    1    6    6  502    0  0.36341621940E+03  0.14328375321E+03 -0.34608436853E+03  0.52189651522E+03  0.00000000000E+00 0. -1.
          3    1    5    5  503    0  0.10194011509E+03 -0.30823538879E+03 -0.61321548488E+02  0.33039548162E+03  0.00000000000E+00 0. -1.
         -2    1    5    5    0  503  0.50872898614E+02 -0.25030893465E+03  0.15043473997E+02  0.25586895218E+03  0.00000000000E+00 0.  1.
         -1    1    6    6    0  502  0.10811208132E+03  0.74339356572E+01 -0.13225286194E+03  0.17098042290E+03  0.00000000000E+00 0.  1.
<mgrwt>
<rscale>  0 0.19232323E+04</rscale>
<asrwt>0</asrwt>
<pdfrwt beam="1">  1        2 0.24337719E+00 0.19232323E+04</pdfrwt>
<pdfrwt beam="2">  1       -2 0.89928414E-01 0.19232323E+04</pdfrwt>
<totfact> 0.11297906E+01</totfact>
</mgrwt>
</event>
<event>
12    1  0.1518126E-007  0.1126986E+04  0.7818608E-02  0.9179281E-01
         -2   -1    0    0    0  501 -0.00000000000E+00  0.00000000000E+00  0.21747871914E+03  0.21747871914E+03  0.00000000000E+00 0.  1.
          2   -1    0    0  501    0  0.00000000000E+00 -0.00000000000E+00 -0.14600251506E+04  0.14600251506E+04  0.00000000000E+00 0. -1.
         23    2    1    2    0    0  0.11867143471E+03 -0.12337577036E+02 -0.22589157181E+02  0.15348695003E+03  0.93876773405E+02 0.  0.
        254    2    1    2    0    0 -0.11867143471E+03  0.12337577036E+02 -0.12199572743E+04  0.15240169197E+04  0.90559190326E+03 0.  0.
        -24    2    4    4    0    0  0.26601966882E+03  0.15753400091E+03 -0.11061255914E+03  0.33798915068E+03  0.80113058217E+02 0.  0.
         24    2    4    4    0    0 -0.38469110353E+03 -0.14519642387E+03 -0.11093447151E+04  0.11860277690E+04  0.83348216874E+02 0.  0.
         11    1    3    3    0    0  0.10473645710E+03  0.11347658410E+02  0.15537395979E+02  0.10648899226E+03  0.00000000000E+00 0.  1.
        -11    1    3    3    0    0  0.13934977602E+02 -0.23685235446E+02 -0.38126553160E+02  0.46997957773E+02  0.00000000000E+00 0. -1.
          2    1    6    6  502    0 -0.37432950184E+03 -0.12422698315E+03 -0.10683922603E+04  0.11388665160E+04  0.00000000000E+00 0. -1.
          1    1    5    5  503    0  0.16518169146E+03  0.13227256785E+03 -0.49233432073E+02  0.21726701138E+03  0.00000000000E+00 0. -1.
         -2    1    5    5    0  503  0.10083797736E+03  0.25261433058E+02 -0.61379127069E+02  0.12072213930E+03  0.00000000000E+00 0.  1.
         -1    1    6    6    0  502 -0.10361601686E+02 -0.20969440726E+02 -0.40952454805E+02  0.47161253041E+02  0.00000000000E+00 0.  1.
<mgrwt>
<rscale>  0 0.11269861E+04</rscale>
<asrwt>0</asrwt>
<pdfrwt beam="1">  1        2 0.22461925E+00 0.11269861E+04</pdfrwt>
<pdfrwt beam="2">  1       -2 0.33458265E-01 0.11269861E+04</pdfrwt>
<totfact> 0.11058860E+02</totfact>
</mgrwt>
</event>
<event>
12    1  0.1518126E-007  0.2010875E+04  0.7818608E-02  0.8601553E-01
         -1   -1    0    0    0  501 -0.00000000000E+00  0.00000000000E+00  0.15215456825E+04  0.15215456825E+04  0.00000000000E+00 0.  1.
          1   -1    0    0  501    0  0.00000000000E+00 -0.00000000000E+00 -0.66439346675E+03  0.66439346675E+03  0.00000000000E+00 0. -1.
         23    2    1    2    0    0 -0.67333071812E+03  0.12612649829E+03 -0.10421975456E+03  0.69893227947E+03  0.91446293078E+02 0.  0.
        254    2    1    2    0    0  0.67333071812E+03 -0.12612649829E+03  0.96137197027E+03  0.14870068697E+04  0.90425174364E+03 0.  0.
        -24    2    4    4    0    0  0.83961959375E+02 -0.41362251849E+03  0.18536929694E+03  0.46789459110E+03  0.80189610970E+02 0.  0.
         24    2    4    4    0    0  0.58936875874E+03  0.28749602021E+03  0.77600267332E+03  0.10191122786E+04  0.80001200184E+02 0.  0.
         11    1    3    3    0    0 -0.43132847739E+03  0.99348117215E+02 -0.26767263966E+02  0.44343070510E+03  0.00000000000E+00 0. -1.
        -11    1    3    3    0    0 -0.24200224073E+03  0.26778381071E+02 -0.77452490591E+02  0.25550157437E+03  0.00000000000E+00 0.  1.
          4    1    6    6  502    0  0.11861756329E+03  0.85469000675E+02  0.13957924197E+03  0.20213223688E+03  0.00000000000E+00 0. -1.
          1    1    5    5  503    0  0.57769766689E+02 -0.11154831346E+03  0.67280790135E+02  0.14250290138E+03  0.00000000000E+00 0. -1.
         -2    1    5    5    0  503  0.26192192686E+02 -0.30207420503E+03  0.11808850681E+03  0.32539168972E+03  0.00000000000E+00 0.  1.
         -3    1    6    6    0  502  0.47075119546E+03  0.20202701953E+03  0.63642343135E+03  0.81698004175E+03  0.00000000000E+00 0.  1.
<mgrwt>
<rscale>  0 0.20108754E+04</rscale>
<asrwt>0</asrwt>
<pdfrwt beam="1">  1        1 0.10221438E+00 0.20108754E+04</pdfrwt>
<pdfrwt beam="2">  1       -1 0.23408395E+00 0.20108754E+04</pdfrwt>
<totfact> 0.24228011E+00</totfact>
</mgrwt>
</event>
<event>
12    1  0.1518126E-007  0.1323528E+04  0.7818608E-02  0.9011112E-01
          3   -1    0    0  501    0  0.00000000000E+00  0.00000000000E+00  0.64639849312E+03  0.64639849312E+03  0.00000000000E+00 0. -1.
         -3   -1    0    0    0  501 -0.00000000000E+00 -0.00000000000E+00 -0.67749490894E+03  0.67749490894E+03  0.00000000000E+00 0.  1.
         23    2    1    2    0    0 -0.17815671709E+03 -0.20773056446E+03  0.20498610891E+03  0.35388515242E+03  0.91233727320E+02 0.  0.
        254    2    1    2    0    0  0.17815671709E+03  0.20773056446E+03 -0.23608252473E+03  0.97000824964E+03  0.90016067601E+03 0.  0.
        -24    2    4    4    0    0 -0.10746486795E+03  0.25955921859E+03  0.25917431988E+03  0.39080294225E+03  0.81461191905E+02 0.  0.
         24    2    4    4    0    0  0.28562158505E+03 -0.51828654129E+02 -0.49525684461E+03  0.57920530739E+03  0.77029518618E+02 0.  0.
         13    1    3    3    0    0 -0.18215696746E+03 -0.16638577507E+03  0.18023214930E+03  0.30553070972E+03  0.00000000000E+00 0. -1.
        -13    1    3    3    0    0  0.40002503642E+01 -0.41344789391E+02  0.24753959611E+02  0.48354442704E+02  0.00000000000E+00 0.  1.
          4    1    6    6  502    0  0.69270963190E+02 -0.46885466206E+02 -0.14945699455E+03  0.17127202487E+03  0.00000000000E+00 0. -1.
          3    1    5    5  503    0 -0.11223834360E+03  0.21211877853E+03  0.24003805430E+03  0.33942611787E+03  0.00000000000E+00 0. -1.
         -4    1    5    5    0  503  0.47734756498E+01  0.47440440067E+02  0.19136265581E+02  0.51376824385E+02  0.00000000000E+00 0.  1.
         -3    1    6    6    0  502  0.21635062186E+03 -0.49431879233E+01 -0.34579985007E+03  0.40793328252E+03  0.00000000000E+00 0.  1.
<mgrwt>
<rscale>  0 0.13235281E+04</rscale>
<asrwt>0</asrwt>
<pdfrwt beam="1">  1        3 0.99445922E-01 0.13235281E+04</pdfrwt>
<pdfrwt beam="2">  1       -3 0.10422999E+00 0.13235281E+04</pdfrwt>
<totfact> 0.18017019E+00</totfact>
</mgrwt>
</event>
<event>
12    1  0.1518126E-007  0.1460463E+04  0.7818608E-02  0.8911179E-01
          1   -1    0    0  501    0  0.00000000000E+00  0.00000000000E+00  0.93303558352E+03  0.93303558352E+03  0.00000000000E+00 0. -1.
         -1   -1    0    0    0  501 -0.00000000000E+00 -0.00000000000E+00 -0.57150858146E+03  0.57150858146E+03  0.00000000000E+00 0.  1.
         23    2    1    2    0    0  0.22532503002E+03 -0.56832174405E+02  0.50210411498E+03  0.56076278579E+03  0.91351488435E+02 0.  0.
        254    2    1    2    0    0 -0.22532503002E+03  0.56832174405E+02 -0.14057711292E+03  0.94378137920E+03  0.90385845233E+03 0.  0.
        -24    2    4    4    0    0 -0.41887714802E+03 -0.18686016549E+03  0.17246318188E+03  0.49535885543E+03  0.72540057734E+02 0.  0.
         24    2    4    4    0    0  0.19355211800E+03  0.24369233989E+03 -0.31304029480E+03  0.44842252377E+03  0.78994650126E+02 0.  0.
         11    1    3    3    0    0  0.22847271585E+03 -0.39320759364E+02  0.46958782807E+03  0.52369708064E+03  0.00000000000E+00 0. -1.
        -11    1    3    3    0    0 -0.31476858350E+01 -0.17511415042E+02  0.32516286916E+02  0.37065705142E+02  0.00000000000E+00 0.  1.
          2    1    6    6  502    0  0.16905489022E+03  0.24300960837E+03 -0.28173684760E+03  0.40866719586E+03  0.00000000000E+00 0. -1.
          1    1    5    5  503    0 -0.19186645217E+03 -0.48133844593E+02  0.85078511607E+02  0.21533219824E+03  0.00000000000E+00 0. -1.
         -2    1    5    5    0  503 -0.22701069585E+03 -0.13872632090E+03  0.87384670271E+02  0.28002665719E+03  0.00000000000E+00 0.  1.
         -1    1    6    6    0  502  0.24497227775E+02  0.68273151977E+00 -0.31303447198E+02  0.39755327913E+02  0.00000000000E+00 0.  1.
<mgrwt>
<rscale>  0 0.14604627E+04</rscale>
<asrwt>0</asrwt>
<pdfrwt beam="1">  1        1 0.14354394E+00 0.14604627E+04</pdfrwt>
<pdfrwt beam="2">  1       -1 0.87924397E-01 0.14604627E+04</pdfrwt>
<totfact> 0.21112705E+01</totfact>
</mgrwt>
</event>
<event>
12    1  0.1518126E-007  0.1839602E+04  0.7818608E-02  0.8685519E-01
          2   -1    0    0  501    0  0.00000000000E+00  0.00000000000E+00  0.13899751405E+04  0.13899751405E+04  0.00000000000E+00 0. -1.
         -2   -1    0    0    0  501 -0.00000000000E+00 -0.00000000000E+00 -0.60866803621E+03  0.60866803621E+03  0.00000000000E+00 0.  1.
         23    2    1    2    0    0 -0.30194089545E+02 -0.89438272457E+02 -0.44816768129E+03  0.46645912804E+03  0.88424883111E+02 0.  0.
        254    2    1    2    0    0  0.30194089545E+02  0.89438272457E+02  0.12294747856E+04  0.15321840487E+04  0.90943324273E+03 0.  0.
        -24    2    4    4    0    0 -0.36853199630E+03 -0.18289056210E+03  0.65322870221E+03  0.77616945070E+03  0.80414481246E+02 0.  0.
         24    2    4    4    0    0  0.39872608585E+03  0.27232883456E+03  0.57624608341E+03  0.75601459800E+03  0.79705947584E+02 0.  0.
         13    1    3    3    0    0 -0.46652083337E+02 -0.10355496003E+02 -0.19199076176E+03  0.19784869415E+03  0.00000000000E+00 0.  1.
        -13    1    3    3    0    0  0.16457993793E+02 -0.79082776455E+02 -0.25617691954E+03  0.26861043389E+03  0.00000000000E+00 0. -1.
          2    1    6    6  502    0  0.13364849604E+02 -0.51028031056E+01  0.21137829192E+02  0.25523824702E+02  0.00000000000E+00 0. -1.
          3    1    5    5  503    0 -0.11504251762E+03 -0.65118768548E+02  0.14548024602E+03  0.19656992868E+03  0.00000000000E+00 0. -1.
         -4    1    5    5    0  503 -0.25348947868E+03 -0.11777179355E+03  0.50774845619E+03  0.57959952202E+03  0.00000000000E+00 0.  1.
         -1    1    6    6    0  502  0.38536123624E+03  0.27743163766E+03  0.55510825422E+03  0.73049077330E+03  0.00000000000E+00 0.  1.
<mgrwt>
<rscale>  0 0.18396015E+04</rscale>
<asrwt>0</asrwt>
<pdfrwt beam="1">  1        2 0.21384233E+00 0.18396015E+04</pdfrwt>
<pdfrwt beam="2">  1       -2 0.93641237E-01 0.18396015E+04</pdfrwt>
<totfact> 0.13302791E+01</totfact>
</mgrwt>
</event>
<event>
12    1  0.1518126E-007  0.1798937E+04  0.7818608E-02  0.8706865E-01
          2   -1    0    0  501    0  0.00000000000E+00  0.00000000000E+00  0.16570840417E+04  0.16570840417E+04  0.00000000000E+00 0. -1.
         -2   -1    0    0    0  501 -0.00000000000E+00 -0.00000000000E+00 -0.48823344394E+03  0.48823344394E+03  0.00000000000E+00 0.  1.
         23    2    1    2    0    0  0.57936435128E+03  0.32320285053E+02  0.84530251647E+03  0.10300064727E+04  0.98332787369E+02 0.  0.
        254    2    1    2    0    0 -0.57936435128E+03 -0.32320285053E+02  0.32354808134E+03  0.11153110130E+04  0.89583907171E+03 0.  0.
        -24    2    4    4    0    0 -0.74495527230E+03 -0.19887892068E+03  0.37622345029E+03  0.86207061173E+03  0.84323616149E+02 0.  0.
         24    2    4    4    0    0  0.16559092103E+03  0.16655863563E+03 -0.52675368955E+02  0.25324040126E+03  0.78701169670E+02 0.  0.
         13    1    3    3    0    0  0.54957925342E+03  0.53131145857E+02  0.79661228505E+03  0.96925301503E+03  0.00000000000E+00 0. -1.
        -13    1    3    3    0    0  0.29785097854E+02 -0.20810860804E+02  0.48690231413E+02  0.60753457651E+02  0.00000000000E+00 0.  1.
          2    1    6    6  502    0  0.67446698869E+01  0.32604014477E+01  0.13994042078E+02  0.15873059036E+02  0.00000000000E+00 0. -1.
          1    1    5    5  503    0 -0.48147756160E+03 -0.90362901641E+02  0.21877381233E+03  0.53651475029E+03  0.00000000000E+00 0. -1.
         -2    1    5    5    0  503 -0.26347771071E+03 -0.10851601904E+03  0.15744963797E+03  0.32555586145E+03  0.00000000000E+00 0.  1.
         -1    1    6    6    0  502  0.15884625114E+03  0.16329823418E+03 -0.66669411032E+02  0.23736734222E+03  0.00000000000E+00 0.  1.
<mgrwt>
<rscale>  0 0.17989373E+04</rscale>
<asrwt>0</asrwt>
<pdfrwt beam="1">  1        2 0.25493600E+00 0.17989373E+04</pdfrwt>
<pdfrwt beam="2">  1       -2 0.75112839E-01 0.17989373E+04</pdfrwt>
<totfact> 0.15568818E+01</totfact>
</mgrwt>
</event>
<event>
12    1  0.1518126E-007  0.1337412E+04  0.7818608E-02  0.9000412E-01
         -1   -1    0    0    0  501 -0.00000000000E+00  0.00000000000E+00  0.26912553968E+03  0.26912553968E+03  0.00000000000E+00 0.  1.
          1   -1    0    0  501    0  0.00000000000E+00 -0.00000000000E+00 -0.16615574823E+04  0.16615574823E+04  0.00000000000E+00 0. -1.
         23    2    1    2    0    0 -0.27817448823E+03  0.13429745596E+03 -0.24984518913E+03  0.40669382485E+03  0.86950538012E+02 0.  0.
        254    2    1    2    0    0  0.27817448823E+03 -0.13429745596E+03 -0.11425867535E+04  0.15239891971E+04  0.96001131824E+03 0.  0.
        -24    2    4    4    0    0 -0.28000299832E+03  0.79250990601E+02 -0.73827350691E+03  0.79788705475E+03  0.83027601141E+02 0.  0.
         24    2    4    4    0    0  0.55817748656E+03 -0.21354844656E+03 -0.40431324659E+03  0.72610214239E+03  0.81179272537E+02 0.  0.
         11    1    3    3    0    0 -0.59614004930E+02  0.10006695268E+02 -0.91144870312E+02  0.10936796111E+03  0.00000000000E+00 0. -1.
        -11    1    3    3    0    0 -0.21856048330E+03  0.12429076069E+03 -0.15870031882E+03  0.29732586374E+03  0.00000000000E+00 0.  1.
          4    1    6    6  502    0  0.42596587872E+03 -0.14933494974E+03 -0.34266666735E+03  0.56671712693E+03  0.00000000000E+00 0. -1.
          3    1    5    5  503    0 -0.12033477550E+03  0.28087438770E+02 -0.21014864053E+03  0.24378640965E+03  0.00000000000E+00 0. -1.
         -4    1    5    5    0  503 -0.15966822282E+03  0.51163551831E+02 -0.52812486638E+03  0.55410064510E+03  0.00000000000E+00 0.  1.
         -3    1    6    6    0  502  0.13221160783E+03 -0.64213496820E+02 -0.61646579244E+02  0.15938501546E+03  0.00000000000E+00 0.  1.
<mgrwt>
<rscale>  0 0.13374118E+04</rscale>
<asrwt>0</asrwt>
<pdfrwt beam="1">  1        1 0.25562423E+00 0.13374118E+04</pdfrwt>
<pdfrwt beam="2">  1       -1 0.41403929E-01 0.13374118E+04</pdfrwt>
<totfact> 0.28361637E+01</totfact>
</mgrwt>
</event>
<event>
12    1  0.1518126E-007  0.1259368E+04  0.7818608E-02  0.9062422E-01
         -2   -1    0    0    0  501 -0.00000000000E+00  0.00000000000E+00  0.63536556299E+03  0.63536556299E+03  0.00000000000E+00 0.  1.
          2   -1    0    0  501    0  0.00000000000E+00 -0.00000000000E+00 -0.62405328295E+03  0.62405328295E+03  0.00000000000E+00 0. -1.
         23    2    1    2    0    0  0.13581467098E+03  0.23289742201E+02  0.26441883794E+03  0.31231377945E+03  0.92922214953E+02 0.  0.
        254    2    1    2    0    0 -0.13581467098E+03 -0.23289742201E+02 -0.25310655791E+03  0.94710506649E+03  0.90219567743E+03 0.  0.
        -24    2    4    4    0    0  0.29985199170E+03 -0.50911748840E+02  0.14855877629E+03  0.34857745856E+03  0.83266508909E+02 0.  0.
         24    2    4    4    0    0 -0.43566666268E+03  0.27622006639E+02 -0.40166533419E+03  0.59852760793E+03  0.79572863079E+02 0.  0.
         13    1    3    3    0    0  0.97451264508E+01 -0.15313070317E+02  0.99635215762E+02  0.10127504052E+03  0.00000000000E+00 0. -1.
        -13    1    3    3    0    0  0.12606954452E+03  0.38602812519E+02  0.16478362218E+03  0.21103873893E+03  0.00000000000E+00 0.  1.
          2    1    6    6  502    0 -0.62390091370E+02 -0.56746705543E+01 -0.25789414168E+02  0.67748204922E+02  0.00000000000E+00 0. -1.
          1    1    5    5  503    0  0.63940974741E+02  0.22604438082E+02  0.39468222795E+02  0.78467505901E+02  0.00000000000E+00 0. -1.
         -2    1    5    5    0  503  0.23591101696E+03 -0.73516186923E+02  0.10909055349E+03  0.27010995266E+03  0.00000000000E+00 0.  1.
         -1    1    6    6    0  502 -0.37327657131E+03  0.33296677193E+02 -0.37587592003E+03  0.53077940301E+03  0.00000000000E+00 0.  1.
<mgrwt>
<rscale>  0 0.12593680E+04</rscale>
<asrwt>0</asrwt>
<pdfrwt beam="1">  1        2 0.96008198E-01 0.12593680E+04</pdfrwt>
<pdfrwt beam="2">  1       -2 0.97748548E-01 0.12593680E+04</pdfrwt>
<totfact> 0.40515519E+01</totfact>
</mgrwt>
</event>
<event>
12    1  0.1518126E-007  0.1640516E+04  0.7818608E-02  0.8796037E-01
         -2   -1    0    0    0  501 -0.00000000000E+00  0.00000000000E+00  0.19860483886E+03  0.19860483886E+03  0.00000000000E+00 0.  1.
          2   -1    0    0  501    0  0.00000000000E+00 -0.00000000000E+00 -0.33877467187E+04  0.33877467187E+04  0.00000000000E+00 0. -1.
         23    2    1    2    0    0  0.31989589257E+03 -0.32293283970E+03 -0.18695510950E+04  0.19260914511E+04  0.89375499963E+02 0.  0.
        254    2    1    2    0    0 -0.31989589257E+03  0.32293283970E+03 -0.13195907848E+04  0.16602601064E+04  0.89918006024E+03 0.  0.
        -24    2    4    4    0    0 -0.98885112488E+02  0.35503171272E+03 -0.63840280986E+02  0.38234112345E+03  0.79267715363E+02 0.  0.
         24    2    4    4    0    0 -0.22101078009E+03 -0.32098873019E+02 -0.12557505038E+04  0.12779189830E+04  0.79318955881E+02 0.  0.
         13    1    3    3    0    0  0.36838045461E+02 -0.38207102755E+02 -0.36735279733E+03  0.37116694626E+03  0.00000000000E+00 0.  1.
        -13    1    3    3    0    0  0.28305784711E+03 -0.28472573694E+03 -0.15021982977E+04  0.15549245048E+04  0.00000000000E+00 0. -1.
          2    1    6    6  502    0 -0.13508253076E+03 -0.39311907546E+02 -0.58657706272E+03  0.60321253858E+03  0.00000000000E+00 0. -1.
          3    1    5    5  503    0  0.21115534580E+01  0.97480852212E+02 -0.37416674040E+02  0.10443650081E+03  0.00000000000E+00 0. -1.
         -4    1    5    5    0  503 -0.10099666595E+03  0.25755086050E+03 -0.26423606945E+02  0.27790462264E+03  0.00000000000E+00 0.  1.
         -1    1    6    6    0  502 -0.85928249329E+02  0.72130345264E+01 -0.66917344105E+03  0.67470644439E+03  0.00000000000E+00 0.  1.
<mgrwt>
<rscale>  0 0.16405156E+04</rscale>
<asrwt>0</asrwt>
<pdfrwt beam="1">  1        2 0.52119178E+00 0.16405156E+04</pdfrwt>
<pdfrwt beam="2">  1       -2 0.30554592E-01 0.16405156E+04</pdfrwt>
<totfact> 0.92958443E+00</totfact>
</mgrwt>
</event>
<event>
12    1  0.1518126E-007  0.1749269E+04  0.7818608E-02  0.8733753E-01
          1   -1    0    0  501    0  0.00000000000E+00  0.00000000000E+00  0.19874469782E+04  0.19874469782E+04  0.00000000000E+00 0. -1.
         -1   -1    0    0    0  501 -0.00000000000E+00 -0.00000000000E+00 -0.38490866511E+03  0.38490866511E+03  0.00000000000E+00 0.  1.
         23    2    1    2    0    0  0.53860829190E+00  0.26478416568E+03  0.13782851480E+04  0.14064012715E+04  0.90463488127E+02 0.  0.
        254    2    1    2    0    0 -0.53860829190E+00 -0.26478416568E+03  0.22425316509E+03  0.96595437184E+03  0.90148068306E+03 0.  0.
        -24    2    4    4    0    0  0.10304450029E+03 -0.20818587172E+01 -0.32144491949E+03  0.34645355338E+03  0.77979004917E+02 0.  0.
         24    2    4    4    0    0 -0.10358310858E+03 -0.26270230696E+03  0.54569808458E+03  0.61950081846E+03  0.79075293841E+02 0.  0.
         11    1    3    3    0    0 -0.85543418940E+01  0.25731143110E+03  0.13630422719E+04  0.13871433178E+04  0.00000000000E+00 0. -1.
        -11    1    3    3    0    0  0.90929501859E+01  0.74727345791E+01  0.15242876177E+02  0.19257953664E+02  0.00000000000E+00 0.  1.
          4    1    6    6  502    0 -0.43009719862E+02 -0.15700256385E+03  0.23595302526E+03  0.28665915508E+03  0.00000000000E+00 0. -1.
          1    1    5    5  503    0  0.90008724917E+02  0.15172361830E+02 -0.16538083932E+03  0.18889836722E+03  0.00000000000E+00 0. -1.
         -2    1    5    5    0  503  0.13035775375E+02 -0.17254220547E+02 -0.15606408017E+03  0.15755518616E+03  0.00000000000E+00 0.  1.
         -3    1    6    6    0  502 -0.60573388723E+02 -0.10569974311E+03  0.30974505931E+03  0.33284166338E+03  0.00000000000E+00 0.  1.
<mgrwt>
<rscale>  0 0.17492691E+04</rscale>
<asrwt>0</asrwt>
<pdfrwt beam="1">  1        1 0.30576107E+00 0.17492691E+04</pdfrwt>
<pdfrwt beam="2">  1       -1 0.59216719E-01 0.17492691E+04</pdfrwt>
<totfact> 0.83269325E+00</totfact>
</mgrwt>
</event>
<event>
12    1  0.1518126E-007  0.1336200E+04  0.7818608E-02  0.9001341E-01
         -2   -1    0    0    0  501 -0.00000000000E+00  0.00000000000E+00  0.75120449945E+03  0.75120449945E+03  0.00000000000E+00 0.  1.
          2   -1    0    0  501    0  0.00000000000E+00 -0.00000000000E+00 -0.59418910871E+03  0.59418910871E+03  0.00000000000E+00 0. -1.
         23    2    1    2    0    0  0.10716653371E+03  0.10112144233E+03 -0.28835789914E+03  0.33585693383E+03  0.89103254485E+02 0.  0.
        254    2    1    2    0    0 -0.10716653371E+03 -0.10112144233E+03  0.44537328987E+03  0.10095366743E+04  0.89392209809E+03 0.  0.
        -24    2    4    4    0    0  0.22628869376E+03 -0.13996651621E+03 -0.15423886395E+03  0.31749913508E+03  0.78859844262E+02 0.  0.
         24    2    4    4    0    0 -0.33345522747E+03  0.38845073886E+02  0.59961215382E+03  0.69203753926E+03  0.81730607741E+02 0.  0.
         11    1    3    3    0    0  0.61230128840E+02  0.43468334780E+02 -0.60682840627E+02  0.96545491624E+02  0.00000000000E+00 0.  1.
        -11    1    3    3    0    0  0.45936404868E+02  0.57653107548E+02 -0.22767505851E+03  0.23931144220E+03  0.00000000000E+00 0. -1.
          4    1    6    6  502    0 -0.27748635799E+03  0.15994611106E+01  0.50045626859E+03  0.57223921040E+03  0.00000000000E+00 0. -1.
          3    1    5    5  503    0  0.15122792180E+03 -0.48913318635E+02 -0.78389399423E+02  0.17722103434E+03  0.00000000000E+00 0. -1.
         -4    1    5    5    0  503  0.75060771964E+02 -0.91053197579E+02 -0.75849464528E+02  0.14027810074E+03  0.00000000000E+00 0.  1.
         -3    1    6    6    0  502 -0.55968869474E+02  0.37245612776E+02  0.99155885235E+02  0.11979832886E+03  0.00000000000E+00 0.  1.
<mgrwt>
<rscale>  0 0.13361999E+04</rscale>
<asrwt>0</asrwt>
<pdfrwt beam="1">  1        2 0.91413708E-01 0.13361999E+04</pdfrwt>
<pdfrwt beam="2">  1       -2 0.11556992E+00 0.13361999E+04</pdfrwt>
<totfact> 0.28581003E+01</totfact>
</mgrwt>
</event>
<event>
12    1  0.1518126E-007  0.2073944E+04  0.7818608E-02  0.8572809E-01
          1   -1    0    0  501    0  0.00000000000E+00  0.00000000000E+00  0.18883756287E+04  0.18883756287E+04  0.00000000000E+00 0. -1.
         -1   -1    0    0    0  501 -0.00000000000E+00 -0.00000000000E+00 -0.56943712591E+03  0.56943712591E+03  0.00000000000E+00 0.  1.
         23    2    1    2    0    0  0.24554489955E+03  0.54998259151E+03 -0.15813395049E+03  0.62930749913E+03  0.90820886932E+02 0.  0.
        254    2    1    2    0    0 -0.24554489955E+03 -0.54998259151E+03  0.14770724533E+04  0.18285052555E+04  0.89382061313E+03 0.  0.
        -24    2    4    4    0    0  0.55278540360E+02 -0.96611493889E+01  0.10904759325E+04  0.10948596992E+04  0.80193184260E+02 0.  0.
         24    2    4    4    0    0 -0.30082343991E+03 -0.54032144212E+03  0.38659652079E+03  0.73364555627E+03  0.79604833563E+02 0.  0.
         13    1    3    3    0    0  0.62710381095E+02  0.71801462037E+02 -0.42985781042E+02  0.10457446734E+03  0.00000000000E+00 0. -1.
        -13    1    3    3    0    0  0.18283451846E+03  0.47818112948E+03 -0.11514816945E+03  0.52473303179E+03  0.00000000000E+00 0.  1.
          2    1    6    6  502    0 -0.52588273392E+02 -0.10715736605E+03  0.11286702277E+03  0.16427779042E+03  0.00000000000E+00 0. -1.
          3    1    5    5  503    0  0.22560168800E+02 -0.40468964473E+02  0.35480212694E+03  0.35781454356E+03  0.00000000000E+00 0. -1.
         -4    1    5    5    0  503  0.32718371560E+02  0.30807815084E+02  0.73567380558E+03  0.73704515569E+03  0.00000000000E+00 0.  1.
         -1    1    6    6    0  502 -0.24823516652E+03 -0.43316407608E+03  0.27372949802E+03  0.56936776585E+03  0.00000000000E+00 0.  1.
<mgrwt>
<rscale>  0 0.20739443E+04</rscale>
<asrwt>0</asrwt>
<pdfrwt beam="1">  1        1 0.29051932E+00 0.20739443E+04</pdfrwt>
<pdfrwt beam="2">  1       -1 0.87605713E-01 0.20739443E+04</pdfrwt>
<totfact> 0.41914388E+00</totfact>
</mgrwt>
</event>
<event>
12    1  0.1518126E-007  0.1278741E+04  0.7818608E-02  0.9046596E-01
         -1   -1    0    0    0  501 -0.00000000000E+00  0.00000000000E+00  0.25228933126E+03  0.25228933126E+03  0.00000000000E+00 0. -1.
          1   -1    0    0  501    0  0.00000000000E+00 -0.00000000000E+00 -0.16203395402E+04  0.16203395402E+04  0.00000000000E+00 0.  1.
         23    2    1    2    0    0  0.36563365753E+02  0.10345289006E+03 -0.86604285456E+03  0.87777398139E+03  0.91747241303E+02 0.  0.
        254    2    1    2    0    0 -0.36563365753E+02 -0.10345289006E+03 -0.50200735440E+03  0.99485489009E+03  0.85187175578E+03 0.  0.
        -24    2    4    4    0    0 -0.31968623612E+03  0.12897361466E+03  0.17976661404E+02  0.35390800171E+03  0.78065552428E+02 0.  0.
         24    2    4    4    0    0  0.28312287037E+03 -0.23242650473E+03 -0.51998401581E+03  0.64094688838E+03  0.79049966496E+02 0.  0.
         13    1    3    3    0    0  0.34892851253E+02  0.87695504558E+02 -0.85000350951E+03  0.85522744271E+03  0.00000000000E+00 0.  1.
        -13    1    3    3    0    0  0.16705145006E+01  0.15757385505E+02 -0.16039345058E+02  0.22546538682E+02  0.00000000000E+00 0. -1.
          2    1    6    6  502    0  0.15030774088E+03 -0.13201003473E+03 -0.21639592674E+03  0.29469690081E+03  0.00000000000E+00 0. -1.
          3    1    5    5  503    0 -0.12540939423E+03  0.73959146119E+02 -0.24316493113E+02  0.14761017341E+03  0.00000000000E+00 0. -1.
         -4    1    5    5    0  503 -0.19427684189E+03  0.55014468543E+02  0.42293154517E+02  0.20629782831E+03  0.00000000000E+00 0.  1.
         -1    1    6    6    0  502  0.13281512949E+03 -0.10041646999E+03 -0.30358808907E+03  0.34624998757E+03  0.00000000000E+00 0.  1.
<mgrwt>
<rscale>  0 0.12787406E+04</rscale>
<asrwt>0</asrwt>
<pdfrwt beam="1">  1        1 0.24928300E+00 0.12787406E+04</pdfrwt>
<pdfrwt beam="2">  1       -1 0.38813744E-01 0.12787406E+04</pdfrwt>
<totfact> 0.34221708E+01</totfact>
</mgrwt>
</event>
<event>
12    1  0.1518126E-007  0.1444254E+04  0.7818608E-02  0.8922394E-01
          2   -1    0    0  501    0  0.00000000000E+00  0.00000000000E+00  0.49374203848E+03  0.49374203848E+03  0.00000000000E+00 0. -1.
         -2   -1    0    0    0  501 -0.00000000000E+00 -0.00000000000E+00 -0.10561539527E+04  0.10561539527E+04  0.00000000000E+00 0.  1.
         23    2    1    2    0    0  0.25205376639E+03 -0.32247651356E+03 -0.24651118004E+02  0.41837018776E+03  0.83088708269E+02 0.  0.
        254    2    1    2    0    0 -0.25205376639E+03  0.32247651356E+03 -0.53776079621E+03  0.11315258034E+04  0.90754711551E+03 0.  0.
        -24    2    4    4    0    0  0.23936296929E+02 -0.29768691825E+03 -0.20823555890E+03  0.37278156922E+03  0.80084972071E+02 0.  0.
         24    2    4    4    0    0 -0.27599006332E+03  0.62016343180E+03 -0.32952523731E+03  0.75874423418E+03  0.79578475001E+02 0.  0.
         13    1    3    3    0    0  0.97947096208E+02 -0.72410696558E+02  0.11810595228E+02  0.12237823659E+03  0.00000000000E+00 0. -1.
        -13    1    3    3    0    0  0.15410667019E+03 -0.25006581700E+03 -0.36461713232E+02  0.29599195117E+03  0.00000000000E+00 0.  1.
          4    1    6    6  502    0 -0.26398407445E+03  0.61682355718E+03 -0.32473151202E+03  0.74539214321E+03  0.00000000000E+00 0. -1.
          3    1    5    5  503    0  0.14964102909E+02 -0.26380444030E+03 -0.21025344944E+03  0.33767324457E+03  0.00000000000E+00 0. -1.
         -4    1    5    5    0  503  0.89721940204E+01 -0.33882477944E+02  0.20178905374E+01  0.35108324646E+02  0.00000000000E+00 0.  1.
         -3    1    6    6    0  502 -0.12005988871E+02  0.33398746224E+01 -0.47937252882E+01  0.13352090975E+02  0.00000000000E+00 0.  1.
<mgrwt>
<rscale>  0 0.14442543E+04</rscale>
<asrwt>0</asrwt>
<pdfrwt beam="1">  1        2 0.75960314E-01 0.14442543E+04</pdfrwt>
<pdfrwt beam="2">  1       -2 0.16248522E+00 0.14442543E+04</pdfrwt>
<totfact> 0.14626054E+01</totfact>
</mgrwt>
</event>
<event>
12    1  0.1518126E-007  0.2279308E+04  0.7818608E-02  0.8486124E-01
          2   -1    0    0  501    0  0.00000000000E+00  0.00000000000E+00  0.90819335653E+03  0.90819335653E+03  0.00000000000E+00 0.  1.
         -2   -1    0    0    0  501 -0.00000000000E+00 -0.00000000000E+00 -0.14301047469E+04  0.14301047469E+04  0.00000000000E+00 0. -1.
         23    2    1    2    0    0 -0.81429402756E+02  0.39564417960E+03 -0.11194382483E+04  0.11935666392E+04  0.91072860164E+02 0.  0.
        254    2    1    2    0    0  0.81429402756E+02 -0.39564417960E+03  0.59752685797E+03  0.11447314642E+04  0.88893572024E+03 0.  0.
        -24    2    4    4    0    0  0.80296391467E+02 -0.18153206504E+01  0.71620458848E+03  0.72517290075E+03  0.80473085889E+02 0.  0.
         24    2    4    4    0    0  0.11330112897E+01 -0.39382885895E+03 -0.11867773051E+03  0.41955856348E+03  0.82719590273E+02 0.  0.
         13    1    3    3    0    0  0.10913613684E+02  0.16520011842E+03 -0.42732820122E+03  0.45827892996E+03  0.00000000000E+00 0.  1.
        -13    1    3    3    0    0 -0.92343016440E+02  0.23044406118E+03 -0.69211004710E+03  0.73528770921E+03  0.00000000000E+00 0. -1.
          4    1    6    6  502    0 -0.16496392080E+02 -0.24491186549E+03 -0.11102180689E+03  0.26940637412E+03  0.00000000000E+00 0. -1.
          1    1    5    5  503    0  0.23106551335E+02  0.37559110285E+02  0.25940833279E+03  0.26312978281E+03  0.00000000000E+00 0. -1.
         -2    1    5    5    0  503  0.57189840132E+02 -0.39374430935E+02  0.45679625569E+03  0.46204311794E+03  0.00000000000E+00 0.  1.
         -3    1    6    6    0  502  0.17629403370E+02 -0.14891699346E+03 -0.76559236181E+01  0.15015218936E+03  0.00000000000E+00 0.  1.
<mgrwt>
<rscale>  0 0.22793083E+04</rscale>
<asrwt>0</asrwt>
<pdfrwt beam="1">  1        2 0.13972206E+00 0.22793083E+04</pdfrwt>
<pdfrwt beam="2">  1       -2 0.22001611E+00 0.22793083E+04</pdfrwt>
<totfact> 0.25970754E+00</totfact>
</mgrwt>
</event>
<event>
12    1  0.1518126E-007  0.2187135E+04  0.7818608E-02  0.8523802E-01
          2   -1    0    0  501    0  0.00000000000E+00  0.00000000000E+00  0.86441159861E+03  0.86441159861E+03  0.00000000000E+00 0.  1.
         -2   -1    0    0    0  501 -0.00000000000E+00 -0.00000000000E+00 -0.13834729925E+04  0.13834729925E+04  0.00000000000E+00 0. -1.
         23    2    1    2    0    0 -0.24479842880E+03  0.17614543933E+03 -0.10955396905E+04  0.11398692101E+04  0.90228133196E+02 0.  0.
        254    2    1    2    0    0  0.24479842880E+03 -0.17614543933E+03  0.57647829664E+03  0.11080153810E+04  0.89689317734E+03 0.  0.
        -24    2    4    4    0    0 -0.87242505217E+02 -0.11421432589E+03 -0.19913441991E+03  0.25838536743E+03  0.80326296773E+02 0.  0.
         24    2    4    4    0    0  0.33204093402E+03 -0.61931113436E+02  0.77561271656E+03  0.84963001360E+03  0.78799931765E+02 0.  0.
         13    1    3    3    0    0 -0.18135704833E+03  0.13951659514E+03 -0.66806403353E+03  0.70616202971E+03  0.00000000000E+00 0. -1.
        -13    1    3    3    0    0 -0.63441380474E+02  0.36628844189E+02 -0.42747565698E+03  0.43370718036E+03  0.00000000000E+00 0.  1.
          2    1    6    6  502    0  0.32572785920E+03 -0.70755882883E+02  0.76494662853E+03  0.83441499131E+03  0.00000000000E+00 0. -1.
          3    1    5    5  503    0 -0.94669515043E+02 -0.11295903888E+03 -0.15605114302E+03  0.21464859836E+03  0.00000000000E+00 0. -1.
         -4    1    5    5    0  503  0.74270098255E+01 -0.12552870154E+01 -0.43083276898E+02  0.43736769070E+02  0.00000000000E+00 0.  1.
         -1    1    6    6    0  502  0.63130748137E+01  0.88247694475E+01  0.10666088028E+02  0.15215022288E+02  0.00000000000E+00 0.  1.
<mgrwt>
<rscale>  0 0.21871352E+04</rscale>
<asrwt>0</asrwt>
<pdfrwt beam="1">  1        2 0.13298640E+00 0.21871352E+04</pdfrwt>
<pdfrwt beam="2">  1       -2 0.21284200E+00 0.21871352E+04</pdfrwt>
<totfact> 0.31145048E+00</totfact>
</mgrwt>
</event>
<event>
12    1  0.1518126E-007  0.2566138E+04  0.7818608E-02  0.8379795E-01
         -1   -1    0    0    0  501 -0.00000000000E+00  0.00000000000E+00  0.11001447181E+04  0.11001447181E+04  0.00000000000E+00 0.  1.
          1   -1    0    0  501    0  0.00000000000E+00 -0.00000000000E+00 -0.14964089089E+04  0.14964089089E+04  0.00000000000E+00 0. -1.
         23    2    1    2    0    0 -0.60460143691E+03 -0.27138263498E+03 -0.10908328127E+04  0.12818391690E+04  0.11833848863E+03 0.  0.
        254    2    1    2    0    0  0.60460143691E+03  0.27138263498E+03  0.69456862186E+03  0.13147144579E+04  0.89825224927E+03 0.  0.
        -24    2    4    4    0    0 -0.96563876587E+02 -0.16729637740E+03  0.36562255976E+03  0.42108474396E+03  0.79497454275E+02 0.  0.
         24    2    4    4    0    0  0.70116531349E+03  0.43867901238E+03  0.32894606210E+03  0.89362971396E+03  0.79350369599E+02 0.  0.
         13    1    3    3    0    0 -0.15288111121E+02  0.11757421225E+02 -0.27578174968E+02  0.33652920083E+02  0.00000000000E+00 0.  1.
        -13    1    3    3    0    0 -0.58931332578E+03 -0.28314005621E+03 -0.10632546377E+04  0.12481862489E+04  0.00000000000E+00 0. -1.
          4    1    6    6  502    0  0.30166906968E+03  0.20288722273E+03  0.10434648250E+03  0.37822697043E+03  0.00000000000E+00 0. -1.
          3    1    5    5  503    0 -0.65178627379E+02 -0.11415279358E+03  0.31476878256E+03  0.34111361776E+03  0.00000000000E+00 0. -1.
         -4    1    5    5    0  503 -0.31385249208E+02 -0.53143583828E+02  0.50853777202E+02  0.79971126200E+02  0.00000000000E+00 0.  1.
         -3    1    6    6    0  502  0.39949624381E+03  0.23579178966E+03  0.22459957960E+03  0.51540274354E+03  0.00000000000E+00 0.  1.
<mgrwt>
<rscale>  0 0.25661382E+04</rscale>
<asrwt>0</asrwt>
<pdfrwt beam="1">  1        1 0.23021675E+00 0.25661382E+04</pdfrwt>
<pdfrwt beam="2">  1       -1 0.16925304E+00 0.25661382E+04</pdfrwt>
<totfact> 0.14483627E+00</totfact>
</mgrwt>
</event>
<event>
12    1  0.1518126E-007  0.1846087E+04  0.7818608E-02  0.8682167E-01
          2   -1    0    0  501    0  0.00000000000E+00  0.00000000000E+00  0.17942342839E+04  0.17942342839E+04  0.00000000000E+00 0. -1.
         -2   -1    0    0    0  501 -0.00000000000E+00 -0.00000000000E+00 -0.47485977561E+03  0.47485977561E+03  0.00000000000E+00 0.  1.
         23    2    1    2    0    0 -0.67113141356E+03  0.79054579252E+02  0.25205063460E+03  0.72711587093E+03  0.92200686482E+02 0.  0.
        254    2    1    2    0    0  0.67113141356E+03 -0.79054579252E+02  0.10673238737E+04  0.15419781886E+04  0.88422252967E+03 0.  0.
        -24    2    4    4    0    0  0.37383468881E+03  0.29133630370E+03  0.14586237069E+03  0.50237270328E+03  0.80456730046E+02 0.  0.
         24    2    4    4    0    0  0.29729672475E+03 -0.37039088295E+03  0.92146150304E+03  0.10396054853E+04  0.78188968724E+02 0.  0.
         13    1    3    3    0    0 -0.54055178707E+03  0.75215835744E+02  0.16508905200E+03  0.57018247215E+03  0.00000000000E+00 0.  1.
        -13    1    3    3    0    0 -0.13057962649E+03  0.38387435084E+01  0.86961582597E+02  0.15693339878E+03  0.00000000000E+00 0. -1.
          2    1    6    6  502    0  0.45962983939E+01 -0.87305824429E-01  0.35073153970E+02  0.35373149572E+02  0.00000000000E+00 0. -1.
          1    1    5    5  503    0  0.25558227716E+03  0.21596427979E+03  0.13791787378E+03  0.36191740833E+03  0.00000000000E+00 0. -1.
         -2    1    5    5    0  503  0.11825241166E+03  0.75372023910E+02  0.79444969086E+01  0.14045529496E+03  0.00000000000E+00 0.  1.
         -1    1    6    6    0  502  0.29270042636E+03 -0.37030357713E+03  0.88638834907E+03  0.10042323358E+04  0.00000000000E+00 0.  1.
<mgrwt>
<rscale>  0 0.18460874E+04</rscale>
<asrwt>0</asrwt>
<pdfrwt beam="1">  1        2 0.27603604E+00 0.18460874E+04</pdfrwt>
<pdfrwt beam="2">  1       -2 0.73055351E-01 0.18460874E+04</pdfrwt>
<totfact> 0.13836074E+01</totfact>
</mgrwt>
</event>
<event>
12    1  0.1518126E-007  0.1336302E+04  0.7818608E-02  0.9001262E-01
         -2   -1    0    0    0  501 -0.00000000000E+00  0.00000000000E+00  0.23822804073E+03  0.23822804073E+03  0.00000000000E+00 0.  1.
          2   -1    0    0  501    0  0.00000000000E+00 -0.00000000000E+00 -0.18739438552E+04  0.18739438552E+04  0.00000000000E+00 0. -1.
         23    2    1    2    0    0 -0.41699742450E+02 -0.16113500821E+03 -0.95508338419E+03  0.97384006115E+03  0.92069726650E+02 0.  0.
        254    2    1    2    0    0  0.41699742450E+02  0.16113500821E+03 -0.68063243031E+03  0.11383318348E+04  0.89712624615E+03 0.  0.
        -24    2    4    4    0    0  0.30627972509E+03  0.23335057926E+02 -0.75593765595E+03  0.81981283770E+03  0.79369731306E+02 0.  0.
         24    2    4    4    0    0 -0.26457998264E+03  0.13779995029E+03  0.75305225636E+02  0.31851899710E+03  0.82414082481E+02 0.  0.
         11    1    3    3    0    0 -0.51933702176E+02 -0.16784324897E+03 -0.92143696628E+03  0.93803760504E+03  0.00000000000E+00 0. -1.
        -11    1    3    3    0    0  0.10233959726E+02  0.67082407531E+01 -0.33646417910E+02  0.35802456115E+02  0.00000000000E+00 0.  1.
          4    1    6    6  502    0 -0.18687639686E+03  0.92226154475E+02  0.90440989625E+02  0.22717399472E+03  0.00000000000E+00 0. -1.
          3    1    5    5  503    0  0.26572007629E+03 -0.68925760860E+01 -0.61149954343E+03  0.66677309346E+03  0.00000000000E+00 0. -1.
         -4    1    5    5    0  503  0.40559648797E+02  0.30227634012E+02 -0.14443811252E+03  0.15303974424E+03  0.00000000000E+00 0.  1.
         -1    1    6    6    0  502 -0.77703585782E+02  0.45573795813E+02 -0.15135763990E+02  0.91345002380E+02  0.00000000000E+00 0.  1.
<mgrwt>
<rscale>  0 0.13363023E+04</rscale>
<asrwt>0</asrwt>
<pdfrwt beam="1">  1        2 0.28829905E+00 0.13363023E+04</pdfrwt>
<pdfrwt beam="2">  1       -2 0.36650468E-01 0.13363023E+04</pdfrwt>
<totfact> 0.53830799E+01</totfact>
</mgrwt>
</event>
<event>
12    1  0.1518126E-007  0.1121346E+04  0.7818608E-02  0.9184633E-01
         -1   -1    0    0    0  501 -0.00000000000E+00  0.00000000000E+00  0.10615150751E+04  0.10615150751E+04  0.00000000000E+00 0.  1.
          1   -1    0    0  501    0  0.00000000000E+00 -0.00000000000E+00 -0.29613717277E+03  0.29613717277E+03  0.00000000000E+00 0. -1.
         23    2    1    2    0    0 -0.93380942287E+02  0.12435747842E+03  0.36057394774E+02  0.18431896863E+03  0.92133401430E+02 0.  0.
        254    2    1    2    0    0  0.93380942287E+02 -0.12435747842E+03  0.72932050752E+03  0.11733332792E+04  0.90587957178E+03 0.  0.
        -24    2    4    4    0    0 -0.66302425253E+02  0.22138905272E+03 -0.95048568506E+02  0.26181900049E+03  0.78139838659E+02 0.  0.
         24    2    4    4    0    0  0.15968336754E+03 -0.34574653114E+03  0.82436907603E+03  0.91151427871E+03  0.78958629160E+02 0.  0.
         11    1    3    3    0    0 -0.93321939161E+01  0.25261104549E+02  0.46738007262E+02  0.53941214012E+02  0.00000000000E+00 0.  1.
        -11    1    3    3    0    0 -0.84048748371E+02  0.99096373871E+02 -0.10680612488E+02  0.13037775462E+03  0.00000000000E+00 0. -1.
          4    1    6    6  502    0  0.58058255794E+02 -0.18797304846E+03  0.35230866215E+03  0.40351706462E+03  0.00000000000E+00 0. -1.
          3    1    5    5  503    0  0.15954004316E+02  0.68515104037E+02 -0.26339648046E+02  0.75117420044E+02  0.00000000000E+00 0. -1.
         -4    1    5    5    0  503 -0.82256429569E+02  0.15287394868E+03 -0.68708920459E+02  0.18670158045E+03  0.00000000000E+00 0.  1.
         -3    1    6    6    0  502  0.10162511175E+03 -0.15777348268E+03  0.47206041388E+03  0.50799721409E+03  0.00000000000E+00 0.  1.
<mgrwt>
<rscale>  0 0.11213458E+04</rscale>
<asrwt>0</asrwt>
<pdfrwt beam="1">  1        1 0.45559565E-01 0.11213458E+04</pdfrwt>
<pdfrwt beam="2">  1       -1 0.16331001E+00 0.11213458E+04</pdfrwt>
<totfact> 0.24484619E+01</totfact>
</mgrwt>
</event>
<event>
12    1  0.1518126E-007  0.3148621E+04  0.7818608E-02  0.8202520E-01
          2   -1    0    0  501    0  0.00000000000E+00  0.00000000000E+00  0.12864636144E+04  0.12864636144E+04  0.00000000000E+00 0.  1.
         -2   -1    0    0    0  501 -0.00000000000E+00 -0.00000000000E+00 -0.19265633491E+04  0.19265633491E+04  0.00000000000E+00 0. -1.
         23    2    1    2    0    0  0.29227358793E+03 -0.14026350117E+04 -0.48089638322E+03  0.15140730636E+04  0.91362377788E+02 0.  0.
        254    2    1    2    0    0 -0.29227358793E+03  0.14026350117E+04 -0.15920335149E+03  0.16989538999E+04  0.89904939816E+03 0.  0.
        -24    2    4    4    0    0 -0.52773443664E+03  0.10082230086E+04 -0.35341262336E+03  0.11941429833E+04  0.77844149319E+02 0.  0.
         24    2    4    4    0    0  0.23546084871E+03  0.39441200318E+03  0.19420927187E+03  0.50481091657E+03  0.78193226531E+02 0.  0.
         13    1    3    3    0    0  0.28661943379E+03 -0.12374551130E+04 -0.43315856042E+03  0.13420403105E+04  0.00000000000E+00 0.  1.
        -13    1    3    3    0    0  0.56541541355E+01 -0.16517989870E+03 -0.47737822795E+02  0.17203275304E+03  0.00000000000E+00 0. -1.
          4    1    6    6  502    0  0.60611390745E+01 -0.24392068608E+01  0.72691554464E+01  0.97738302571E+01  0.00000000000E+00 0. -1.
          3    1    5    5  503    0 -0.44826961303E+02  0.10709406224E+03 -0.14153260437E+02  0.11695686986E+03  0.00000000000E+00 0. -1.
         -4    1    5    5    0  503 -0.48290747533E+03  0.90112894632E+03 -0.33925936292E+03  0.10771861134E+04  0.00000000000E+00 0.  1.
         -3    1    6    6    0  502  0.22939970963E+03  0.39685121004E+03  0.18694011643E+03  0.49503708631E+03  0.00000000000E+00 0.  1.
<mgrwt>
<rscale>  0 0.31486211E+04</rscale>
<asrwt>0</asrwt>
<pdfrwt beam="1">  1        2 0.19791748E+00 0.31486211E+04</pdfrwt>
<pdfrwt beam="2">  1       -2 0.29639436E+00 0.31486211E+04</pdfrwt>
<totfact> 0.47603217E-01</totfact>
</mgrwt>
</event>
<event>
12    1  0.1518126E-007  0.1102860E+04  0.7818608E-02  0.9202408E-01
         -1   -1    0    0    0  501 -0.00000000000E+00  0.00000000000E+00  0.91543385573E+02  0.91543385573E+02  0.00000000000E+00 0.  1.
          1   -1    0    0  501    0  0.00000000000E+00 -0.00000000000E+00 -0.33216514157E+04  0.33216514157E+04  0.00000000000E+00 0. -1.
         23    2    1    2    0    0  0.16902738295E+03  0.11652198523E+01 -0.47921139958E+03  0.51401104122E+03  0.77409114998E+02 0.  0.
        254    2    1    2    0    0 -0.16902738295E+03 -0.11652198523E+01 -0.27508966306E+04  0.28991837601E+04  0.89959023376E+03 0.  0.
        -24    2    4    4    0    0  0.54497831143E+02 -0.41612702957E+03 -0.15200658787E+04  0.15787633913E+04  0.75906862451E+02 0.  0.
         24    2    4    4    0    0 -0.22352521410E+03  0.41496180971E+03 -0.12308307519E+04  0.13204203688E+04  0.80054891705E+02 0.  0.
         11    1    3    3    0    0  0.11645890303E+02  0.16638987579E+02 -0.11747854399E+03  0.11922118506E+03  0.00000000000E+00 0. -1.
        -11    1    3    3    0    0  0.15738149265E+03 -0.15473767726E+02 -0.36173285559E+03  0.39478985617E+03  0.00000000000E+00 0.  1.
          2    1    6    6  502    0 -0.64052705518E+02  0.10982343420E+03 -0.43752568883E+03  0.45562337974E+03  0.00000000000E+00 0. -1.
          3    1    5    5  503    0  0.99708536761E+00 -0.28345794301E+02 -0.19606572813E+03  0.19810665810E+03  0.00000000000E+00 0. -1.
         -4    1    5    5    0  503  0.53500745775E+02 -0.38778123527E+03 -0.13240001506E+04  0.13806567332E+04  0.00000000000E+00 0.  1.
         -1    1    6    6    0  502 -0.15947250858E+03  0.30513837551E+03 -0.79330506307E+03  0.86479698906E+03  0.00000000000E+00 0.  1.
<mgrwt>
<rscale>  0 0.11028603E+04</rscale>
<asrwt>0</asrwt>
<pdfrwt beam="1">  1        1 0.51102332E+00 0.11028603E+04</pdfrwt>
<pdfrwt beam="2">  1       -1 0.14083597E-01 0.11028603E+04</pdfrwt>
<totfact> 0.12788757E+01</totfact>
</mgrwt>
</event>
<event>
12    1  0.1518126E-007  0.1622685E+04  0.7818608E-02  0.8806732E-01
          2   -1    0    0  501    0  0.00000000000E+00  0.00000000000E+00  0.20932283221E+04  0.20932283221E+04  0.00000000000E+00 0.  1.
         -2   -1    0    0    0  501 -0.00000000000E+00 -0.00000000000E+00 -0.31447897359E+03  0.31447897359E+03  0.00000000000E+00 0. -1.
         23    2    1    2    0    0  0.40974169526E+02  0.12084462575E+01  0.14502020909E+04  0.14534816320E+04  0.88557367126E+02 0.  0.
        254    2    1    2    0    0 -0.40974169526E+02 -0.12084462575E+01  0.32854725765E+03  0.95422566371E+03  0.89494300034E+03 0.  0.
        -24    2    4    4    0    0 -0.18124084577E+03  0.24127405705E+03 -0.18579509079E+03  0.36329063633E+03  0.79992849070E+02 0.  0.
         24    2    4    4    0    0  0.14026667625E+03 -0.24248250331E+03  0.51434234844E+03  0.59093502738E+03  0.78636189515E+02 0.  0.
         11    1    3    3    0    0  0.62254405593E+02  0.12317944654E+02  0.69315097258E+03  0.69605000795E+03  0.00000000000E+00 0. -1.
        -11    1    3    3    0    0 -0.21280236067E+02 -0.11109498397E+02  0.75705111832E+03  0.75743162407E+03  0.00000000000E+00 0.  1.
          2    1    6    6  502    0  0.81459091253E+02 -0.10914712454E+03  0.32202874840E+03  0.34964438096E+03  0.00000000000E+00 0. -1.
          3    1    5    5  503    0 -0.16915025386E+03  0.23883086084E+03 -0.19144974249E+03  0.34972130671E+03  0.00000000000E+00 0. -1.
         -4    1    5    5    0  503 -0.12090591917E+02  0.24431962139E+01  0.56546516957E+01  0.13569329624E+02  0.00000000000E+00 0.  1.
         -1    1    6    6    0  502  0.58807584996E+02 -0.13333537877E+03  0.19231360004E+03  0.24129064642E+03  0.00000000000E+00 0.  1.
<mgrwt>
<rscale>  0 0.16226846E+04</rscale>
<asrwt>0</asrwt>
<pdfrwt beam="1">  1        2 0.32203512E+00 0.16226846E+04</pdfrwt>
<pdfrwt beam="2">  1       -2 0.48381382E-01 0.16226846E+04</pdfrwt>
<totfact> 0.22969686E+01</totfact>
</mgrwt>
</event>
<event>
12    1  0.1518126E-007  0.1207640E+04  0.7818608E-02  0.9106195E-01
         -2   -1    0    0    0  501 -0.00000000000E+00  0.00000000000E+00  0.12848095617E+04  0.12848095617E+04  0.00000000000E+00 0.  1.
          2   -1    0    0  501    0  0.00000000000E+00 -0.00000000000E+00 -0.28377659593E+03  0.28377659593E+03  0.00000000000E+00 0. -1.
         23    2    1    2    0    0 -0.16125314036E+03  0.20581582379E+03  0.20281369864E+03  0.34293244270E+03  0.90036299909E+02 0.  0.
        254    2    1    2    0    0  0.16125314036E+03 -0.20581582379E+03  0.79821926714E+03  0.12256537149E+04  0.89258629942E+03 0.  0.
        -24    2    4    4    0    0  0.49883039039E+03 -0.17906571689E+03  0.28844587118E+03  0.60845469338E+03  0.78229175858E+02 0.  0.
         24    2    4    4    0    0 -0.33757725003E+03 -0.26750106900E+02  0.50977339596E+03  0.61719902156E+03  0.79948414819E+02 0.  0.
         13    1    3    3    0    0 -0.29392559176E+02  0.29438504603E+02  0.81517450483E+02  0.91518538130E+02  0.00000000000E+00 0.  1.
        -13    1    3    3    0    0 -0.13186058118E+03  0.17637731919E+03  0.12129624815E+03  0.25141390457E+03  0.00000000000E+00 0. -1.
          4    1    6    6  502    0 -0.28350844574E+03  0.26754665729E+01  0.44658953404E+03  0.52898620856E+03  0.00000000000E+00 0. -1.
          3    1    5    5  503    0  0.30796287528E+03 -0.14344055028E+03  0.20755452428E+03  0.39811456211E+03  0.00000000000E+00 0. -1.
         -2    1    5    5    0  503  0.19086751510E+03 -0.35625166614E+02  0.80891346896E+02  0.21034013127E+03  0.00000000000E+00 0.  1.
         -3    1    6    6    0  502 -0.54068804288E+02 -0.29425573473E+02  0.63183861919E+02  0.88212813006E+02  0.00000000000E+00 0.  1.
<mgrwt>
<rscale>  0 0.12076405E+04</rscale>
<asrwt>0</asrwt>
<pdfrwt beam="1">  1        2 0.43657938E-01 0.12076405E+04</pdfrwt>
<pdfrwt beam="2">  1       -2 0.19766301E+00 0.12076405E+04</pdfrwt>
<totfact> 0.15865816E+01</totfact>
</mgrwt>
</event>
<event>
12    1  0.1794519E-007  0.1740000E+04  0.7818608E-02  0.8738874E-01
         -2   -1    0    0    0  501 -0.00000000000E+00  0.00000000000E+00  0.78187165319E+03  0.78187165319E+03  0.00000000000E+00 0. -1.
          2   -1    0    0  501    0  0.00000000000E+00 -0.00000000000E+00 -0.96806150679E+03  0.96806150679E+03  0.00000000000E+00 0.  1.
         23    2    1    2    0    0 -0.10349638874E+03  0.40099264842E+03  0.41030799372E+03  0.59026853565E+03  0.92507772113E+02 0.  0.
        254    2    1    2    0    0  0.10349638874E+03 -0.40099264842E+03 -0.59649784732E+03  0.11596646243E+04  0.90416024713E+03 0.  0.
        -24    2    4    4    0    0  0.21614440415E+03 -0.49994619267E+03 -0.75052980887E+03  0.93063529042E+03  0.78246091099E+02 0.  0.
         24    2    4    4    0    0 -0.11264801541E+03  0.98953544243E+02  0.15403196155E+03  0.22902933391E+03  0.79039302355E+02 0.  0.
         11    1    3    3    0    0 -0.32311742833E+02  0.53245383846E+02  0.27096821108E+02  0.67921700067E+02  0.00000000000E+00 0.  1.
        -11    1    3    3    0    0 -0.71184645909E+02  0.34774726458E+03  0.38321117261E+03  0.52234683559E+03  0.00000000000E+00 0. -1.
          2    1    6    6  502    0 -0.76007099418E+02  0.40296558156E+02  0.12985112163E+03  0.15576329975E+03  0.00000000000E+00 0. -1.
          1    1    5    5  503    0  0.11916975471E+03 -0.27340915026E+03 -0.47610946429E+03  0.56181332831E+03  0.00000000000E+00 0. -1.
         -2    1    5    5    0  503  0.96974649439E+02 -0.22653704240E+03 -0.27442034458E+03  0.36882196211E+03  0.00000000000E+00 0.  1.
         -1    1    6    6    0  502 -0.36640915990E+02  0.58656986087E+02  0.24180839922E+02  0.73266034155E+02  0.00000000000E+00 0.  1.
<mgrwt>
<rscale>  0 0.17399998E+04</rscale>
<asrwt>0</asrwt>
<pdfrwt beam="1">  1        2 0.14893254E+00 0.17399998E+04</pdfrwt>
<pdfrwt beam="2">  1       -2 0.12028795E+00 0.17399998E+04</pdfrwt>
<totfact> 0.13228337E+01</totfact>
</mgrwt>
</event>
<event>
12    1  0.1518126E-007  0.2301828E+04  0.7818608E-02  0.8477201E-01
          2   -1    0    0  501    0  0.00000000000E+00  0.00000000000E+00  0.16726706630E+04  0.16726706630E+04  0.00000000000E+00 0. -1.
         -2   -1    0    0    0  501 -0.00000000000E+00 -0.00000000000E+00 -0.79190931594E+03  0.79190931594E+03  0.00000000000E+00 0.  1.
         23    2    1    2    0    0 -0.47672855421E+03 -0.58634578860E+03 -0.27672010708E+03  0.80989764016E+03  0.91042142239E+02 0.  0.
        254    2    1    2    0    0  0.47672855421E+03  0.58634578860E+03  0.11574814541E+04  0.16546823388E+04  0.90947172985E+03 0.  0.
        -24    2    4    4    0    0 -0.28687136279E+02  0.62191979303E+03  0.41716064785E+03  0.75404534267E+03  0.83391797832E+02 0.  0.
         24    2    4    4    0    0  0.50541569048E+03 -0.35574004422E+02  0.74032080629E+03  0.90063699611E+03  0.79759466883E+02 0.  0.
         11    1    3    3    0    0 -0.44453749693E+02 -0.88249229596E+02 -0.60399927408E+02  0.11581111180E+03  0.00000000000E+00 0. -1.
        -11    1    3    3    0    0 -0.43227480451E+03 -0.49809655901E+03 -0.21632017968E+03  0.69408652836E+03  0.00000000000E+00 0.  1.
          4    1    6    6  502    0  0.46454065135E+03 -0.54731849055E+02  0.67673353496E+03  0.82265537706E+03  0.00000000000E+00 0. -1.
          1    1    5    5  503    0 -0.55866717716E+02  0.39620947366E+03  0.28265157942E+03  0.48989279696E+03  0.00000000000E+00 0. -1.
         -2    1    5    5    0  503  0.27179581437E+02  0.22571031937E+03  0.13450906843E+03  0.26415254571E+03  0.00000000000E+00 0.  1.
         -3    1    6    6    0  502  0.40875039131E+02  0.19157844633E+02  0.63587271328E+02  0.77981619051E+02  0.00000000000E+00 0.  1.
<mgrwt>
<rscale>  0 0.23018284E+04</rscale>
<asrwt>0</asrwt>
<pdfrwt beam="1">  1        2 0.25733395E+00 0.23018284E+04</pdfrwt>
<pdfrwt beam="2">  1       -2 0.12183220E+00 0.23018284E+04</pdfrwt>
<totfact> 0.47082743E+00</totfact>
</mgrwt>
</event>
<event>
12    1  0.1518126E-007  0.1731081E+04  0.7818608E-02  0.8743834E-01
         -2   -1    0    0    0  501 -0.00000000000E+00  0.00000000000E+00  0.87625264920E+03  0.87625264920E+03  0.00000000000E+00 0.  1.
          2   -1    0    0  501    0  0.00000000000E+00 -0.00000000000E+00 -0.85495905373E+03  0.85495905373E+03  0.00000000000E+00 0. -1.
         23    2    1    2    0    0 -0.32422718557E+03  0.88372385116E+02 -0.52241948259E+03  0.62757736047E+03  0.89433110623E+02 0.  0.
        254    2    1    2    0    0  0.32422718557E+03 -0.88372385116E+02  0.54371307807E+03  0.11036343425E+04  0.89969545084E+03 0.  0.
        -24    2    4    4    0    0  0.35560978458E+03  0.32918598888E+03  0.12604845685E+03  0.50676063230E+03  0.78079387898E+02 0.  0.
         24    2    4    4    0    0 -0.31382599007E+02 -0.41755837399E+03  0.41766462121E+03  0.59687371015E+03  0.80465065993E+02 0.  0.
         13    1    3    3    0    0 -0.11777631703E+03  0.69416685010E+02 -0.25356945774E+03  0.28807534936E+03  0.00000000000E+00 0.  1.
        -13    1    3    3    0    0 -0.20645086854E+03  0.18955700106E+02 -0.26885002485E+03  0.33950201111E+03  0.00000000000E+00 0. -1.
          4    1    6    6  502    0  0.20674773636E+02 -0.25118565384E+03  0.24311850667E+03  0.35018321954E+03  0.00000000000E+00 0. -1.
          3    1    5    5  503    0  0.31791461100E+02  0.47956929877E+02 -0.63781603634E+01  0.57889939124E+02  0.00000000000E+00 0. -1.
         -4    1    5    5    0  503  0.32381832348E+03  0.28122905900E+03  0.13242661722E+03  0.44887069318E+03  0.00000000000E+00 0.  1.
         -3    1    6    6    0  502 -0.52057372643E+02 -0.16637272015E+03  0.17454611455E+03  0.24669049062E+03  0.00000000000E+00 0.  1.
<mgrwt>
<rscale>  0 0.17310807E+04</rscale>
<asrwt>0</asrwt>
<pdfrwt beam="1">  1        2 0.13153216E+00 0.17310807E+04</pdfrwt>
<pdfrwt beam="2">  1       -2 0.13480810E+00 0.17310807E+04</pdfrwt>
<totfact> 0.11832211E+01</totfact>
</mgrwt>
</event>
<event>
12    1  0.1518126E-007  0.2157365E+04  0.7818608E-02  0.8536386E-01
         -2   -1    0    0    0  501 -0.00000000000E+00  0.00000000000E+00  0.74130391330E+03  0.74130391330E+03  0.00000000000E+00 0.  1.
          2   -1    0    0  501    0  0.00000000000E+00 -0.00000000000E+00 -0.15696073576E+04  0.15696073576E+04  0.00000000000E+00 0. -1.
         23    2    1    2    0    0  0.22282294748E+03 -0.58227758469E+03  0.33365380376E+03  0.71270927287E+03  0.89063995627E+02 0.  0.
        254    2    1    2    0    0 -0.22282294748E+03  0.58227758469E+03 -0.11619572481E+04  0.15982019980E+04  0.90299929602E+03 0.  0.
        -24    2    4    4    0    0  0.26847217709E+03 -0.30019014084E+02 -0.47230288032E+03  0.55017947668E+03  0.81541368221E+02 0.  0.
         24    2    4    4    0    0 -0.49129512457E+03  0.61229659877E+03 -0.68965436774E+03  0.10480225213E+04  0.80312103683E+02 0.  0.
         13    1    3    3    0    0  0.17579872669E+03 -0.40761234633E+03  0.27664385633E+03  0.52305338201E+03  0.00000000000E+00 0.  1.
        -13    1    3    3    0    0  0.47024220785E+02 -0.17466523836E+03  0.57009947426E+02  0.18965589086E+03  0.00000000000E+00 0. -1.
          4    1    6    6  502    0 -0.38337913044E+03  0.48005416292E+03 -0.58175553508E+03  0.84609163783E+03  0.00000000000E+00 0. -1.
          1    1    5    5  503    0  0.20614566711E+03 -0.23894042033E+02 -0.42043444636E+03  0.46886254382E+03  0.00000000000E+00 0. -1.
         -2    1    5    5    0  503  0.62326509980E+02 -0.61249720515E+01 -0.51868433953E+02  0.81316932860E+02  0.00000000000E+00 0.  1.
         -3    1    6    6    0  502 -0.10791599413E+03  0.13224243585E+03 -0.10789883265E+03  0.20193088351E+03  0.00000000000E+00 0.  1.
<mgrwt>
<rscale>  0 0.21573651E+04</rscale>
<asrwt>0</asrwt>
<pdfrwt beam="1">  1        2 0.24147805E+00 0.21573651E+04</pdfrwt>
<pdfrwt beam="2">  1       -2 0.11404676E+00 0.21573651E+04</pdfrwt>
<totfact> 0.64025392E+00</totfact>
</mgrwt>
</event>
<event>
12    1  0.1518126E-007  0.1505632E+04  0.7818608E-02  0.8880716E-01
         -2   -1    0    0    0  501 -0.00000000000E+00  0.00000000000E+00  0.14363397314E+04  0.14363397314E+04  0.00000000000E+00 0.  1.
          2   -1    0    0  501    0  0.00000000000E+00 -0.00000000000E+00 -0.39456695918E+03  0.39456695918E+03  0.00000000000E+00 0. -1.
         23    2    1    2    0    0 -0.23447248848E+03 -0.33920944137E+03  0.48766073582E+02  0.42434613143E+03  0.87470660004E+02 0.  0.
        254    2    1    2    0    0  0.23447248848E+03  0.33920944137E+03  0.99300669864E+03  0.14065605592E+04  0.90681305133E+03 0.  0.
        -24    2    4    4    0    0  0.39425619805E+03 -0.12660578394E+03  0.19393334270E+03  0.46432032707E+03  0.80723295862E+02 0.  0.
         24    2    4    4    0    0 -0.15978370957E+03  0.46581522530E+03  0.79907335594E+03  0.94224023209E+03  0.82363637764E+02 0.  0.
         11    1    3    3    0    0 -0.30784922019E+02 -0.67470179063E+02  0.40810750349E+02  0.84649003719E+02  0.00000000000E+00 0. -1.
        -11    1    3    3    0    0 -0.20368756646E+03 -0.27173926230E+03  0.79553232323E+01  0.33969712771E+03  0.00000000000E+00 0.  1.
          2    1    6    6  502    0 -0.58603787900E+02  0.75515345029E+02  0.17038808804E+03  0.19536906571E+03  0.00000000000E+00 0. -1.
          3    1    5    5  503    0  0.18550911453E+03 -0.18494197615E+02  0.95450681850E+02  0.20944330876E+03  0.00000000000E+00 0. -1.
         -4    1    5    5    0  503  0.20874708351E+03 -0.10811158632E+03  0.98482660854E+02  0.25487701831E+03  0.00000000000E+00 0.  1.
         -1    1    6    6    0  502 -0.10117992167E+03  0.39029988027E+03  0.62868526789E+03  0.74687116637E+03  0.00000000000E+00 0.  1.
<mgrwt>
<rscale>  0 0.15056324E+04</rscale>
<asrwt>0</asrwt>
<pdfrwt beam="1">  1        2 0.60702610E-01 0.15056324E+04</pdfrwt>
<pdfrwt beam="2">  1       -2 0.22097534E+00 0.15056324E+04</pdfrwt>
<totfact> 0.75953482E+00</totfact>
</mgrwt>
</event>
<event>
12    1  0.1518126E-007  0.1708913E+04  0.7818608E-02  0.8756297E-01
          1   -1    0    0  501    0  0.00000000000E+00  0.00000000000E+00  0.96660290553E+03  0.96660290553E+03  0.00000000000E+00 0. -1.
         -1   -1    0    0    0  501 -0.00000000000E+00 -0.00000000000E+00 -0.75532143576E+03  0.75532143576E+03  0.00000000000E+00 0.  1.
         23    2    1    2    0    0 -0.23162587099E+03 -0.27834438152E+03 -0.42349251918E+03  0.56440937752E+03  0.89921592462E+02 0.  0.
        254    2    1    2    0    0  0.23162587099E+03  0.27834438152E+03  0.63477398896E+03  0.11575149638E+04  0.89765067563E+03 0.  0.
        -24    2    4    4    0    0  0.35292079967E+03 -0.53771647018E+02 -0.63467497959E+02  0.37078369510E+03  0.77510930799E+02 0.  0.
         24    2    4    4    0    0 -0.12129492868E+03  0.33211602854E+03  0.69824148692E+03  0.78673126867E+03  0.79946225053E+02 0.  0.
         11    1    3    3    0    0 -0.19682172446E+03 -0.18652428089E+03 -0.34429326470E+03  0.43825557692E+03  0.00000000000E+00 0.  1.
        -11    1    3    3    0    0 -0.34804146525E+02 -0.91820100631E+02 -0.79199254488E+02  0.12615380060E+03  0.00000000000E+00 0. -1.
          4    1    6    6  502    0 -0.13143630997E+03  0.28638938205E+03  0.59252896668E+03  0.67110726273E+03  0.00000000000E+00 0. -1.
          3    1    5    5  503    0  0.27217604770E+03 -0.18915691668E+02 -0.72703079070E+02  0.28235322212E+03  0.00000000000E+00 0. -1.
         -4    1    5    5    0  503  0.80744751970E+02 -0.34855955350E+02  0.92355811111E+01  0.88430472986E+02  0.00000000000E+00 0.  1.
         -3    1    6    6    0  502  0.10141381286E+02  0.45726646490E+02  0.10571252024E+03  0.11562400594E+03  0.00000000000E+00 0.  1.
<mgrwt>
<rscale>  0 0.17089130E+04</rscale>
<asrwt>0</asrwt>
<pdfrwt beam="1">  1        1 0.14870814E+00 0.17089130E+04</pdfrwt>
<pdfrwt beam="2">  1       -1 0.11620330E+00 0.17089130E+04</pdfrwt>
<totfact> 0.10235944E+01</totfact>
</mgrwt>
</event>
<event>
12    1  0.1518126E-007  0.2051111E+04  0.7818608E-02  0.8583090E-01
         -2   -1    0    0    0  501 -0.00000000000E+00  0.00000000000E+00  0.35437384801E+03  0.35437384801E+03  0.00000000000E+00 0.  1.
          2   -1    0    0  501    0  0.00000000000E+00 -0.00000000000E+00 -0.29679519379E+04  0.29679519379E+04  0.00000000000E+00 0. -1.
         23    2    1    2    0    0  0.46142238093E+03  0.63082295135E+03 -0.62522817742E+03  0.10048858741E+04  0.89650078085E+02 0.  0.
        254    2    1    2    0    0 -0.46142238093E+03 -0.63082295135E+03 -0.19883499125E+04  0.23174399119E+04  0.89785531186E+03 0.  0.
        -24    2    4    4    0    0  0.22452033795E+03 -0.39150149702E+03 -0.78701267797E+03  0.91109466430E+03  0.83795749946E+02 0.  0.
         24    2    4    4    0    0 -0.68594271887E+03 -0.23932145433E+03 -0.12013372345E+04  0.14063452476E+04  0.82484133134E+02 0.  0.
         11    1    3    3    0    0  0.35042366952E+03  0.41851338114E+03 -0.46040788139E+03  0.71409076146E+03  0.00000000000E+00 0. -1.
        -11    1    3    3    0    0  0.11099871140E+03  0.21230957021E+03 -0.16482029603E+03  0.29079511262E+03  0.00000000000E+00 0.  1.
          4    1    6    6  502    0 -0.36276918545E+03 -0.16493695982E+03 -0.61833188241E+03  0.73562218525E+03  0.00000000000E+00 0. -1.
          1    1    5    5  503    0  0.22710260890E+03 -0.34862376508E+03 -0.71303197004E+03  0.82554752428E+03  0.00000000000E+00 0. -1.
         -2    1    5    5    0  503 -0.25822709503E+01 -0.42877731943E+02 -0.73980707929E+02  0.85547140020E+02  0.00000000000E+00 0.  1.
         -3    1    6    6    0  502 -0.32317353342E+03 -0.74384494510E+02 -0.58300535214E+03  0.67072306234E+03  0.00000000000E+00 0.  1.
<mgrwt>
<rscale>  0 0.20511115E+04</rscale>
<asrwt>0</asrwt>
<pdfrwt beam="1">  1        2 0.45660801E+00 0.20511115E+04</pdfrwt>
<pdfrwt beam="2">  1       -2 0.54519051E-01 0.20511115E+04</pdfrwt>
<totfact> 0.53520239E+00</totfact>
</mgrwt>
</event>
<event>
12    1  0.1518126E-007  0.1963860E+04  0.7818608E-02  0.8623706E-01
          2   -1    0    0  501    0  0.00000000000E+00  0.00000000000E+00  0.37042545794E+04  0.37042545794E+04  0.00000000000E+00 0.  1.
         -2   -1    0    0    0  501 -0.00000000000E+00 -0.00000000000E+00 -0.26029170996E+03  0.26029170996E+03  0.00000000000E+00 0. -1.
         23    2    1    2    0    0 -0.49561952456E+03  0.38768068537E+03  0.45992179379E+03  0.78476572972E+03  0.91619687869E+02 0.  0.
        254    2    1    2    0    0  0.49561952456E+03 -0.38768068537E+03  0.29840410756E+04  0.31797805596E+04  0.90031563321E+03 0.  0.
        -24    2    4    4    0    0  0.34020314301E+03 -0.53577911315E+03  0.28343605781E+04  0.29056517799E+04  0.80093338166E+02 0.  0.
         24    2    4    4    0    0  0.15541638155E+03  0.14809842778E+03  0.14968049750E+03  0.27412877969E+03  0.81577819033E+02 0.  0.
         13    1    3    3    0    0 -0.48655895023E+03  0.35594979074E+03  0.43507224138E+03  0.74345660317E+03  0.00000000000E+00 0. -1.
        -13    1    3    3    0    0 -0.90605743250E+01  0.31730894629E+02  0.24849552410E+02  0.41309126546E+02  0.00000000000E+00 0.  1.
          4    1    6    6  502    0  0.15132211745E+02  0.62435430952E+02  0.30615937944E+02  0.71165318286E+02  0.00000000000E+00 0. -1.
          3    1    5    5  503    0  0.33198006487E+03 -0.49717815210E+03  0.25881237029E+04  0.26562720456E+04  0.00000000000E+00 0. -1.
         -4    1    5    5    0  503  0.82230781368E+01 -0.38600961051E+02  0.24623687518E+03  0.24937973436E+03  0.00000000000E+00 0.  1.
         -3    1    6    6    0  502  0.14028416980E+03  0.85662996824E+02  0.11906455956E+03  0.20296346140E+03  0.00000000000E+00 0.  1.
<mgrwt>
<rscale>  0 0.19638602E+04</rscale>
<asrwt>0</asrwt>
<pdfrwt beam="1">  1        2 0.56988528E+00 0.19638602E+04</pdfrwt>
<pdfrwt beam="2">  1       -2 0.40044881E-01 0.19638602E+04</pdfrwt>
<totfact> 0.32118338E+00</totfact>
</mgrwt>
</event>
<event>
12    1  0.1518126E-007  0.1637596E+04  0.7818608E-02  0.8797778E-01
         -1   -1    0    0    0  501 -0.00000000000E+00  0.00000000000E+00  0.82028238159E+03  0.82028238159E+03  0.00000000000E+00 0.  1.
          1   -1    0    0  501    0  0.00000000000E+00 -0.00000000000E+00 -0.81731661412E+03  0.81731661412E+03  0.00000000000E+00 0. -1.
         23    2    1    2    0    0 -0.42969153994E+03  0.15157977221E+03  0.33584363205E+03  0.57291918429E+03  0.88511014573E+02 0.  0.
        254    2    1    2    0    0  0.42969153994E+03 -0.15157977221E+03 -0.33287786458E+03  0.10646798114E+04  0.90284227928E+03 0.  0.
        -24    2    4    4    0    0 -0.12026158508E+01  0.30403815642E+03 -0.29512178707E+03  0.43094864117E+03  0.78607984837E+02 0.  0.
         24    2    4    4    0    0  0.43089415579E+03 -0.45561792864E+03 -0.37756077516E+02  0.63373117024E+03  0.83259860344E+02 0.  0.
         13    1    3    3    0    0 -0.30225735923E+03  0.64854958947E+02  0.20727740211E+03  0.37219564524E+03  0.00000000000E+00 0.  1.
        -13    1    3    3    0    0 -0.12743418071E+03  0.86724813267E+02  0.12856622994E+03  0.20072353905E+03  0.00000000000E+00 0. -1.
          2    1    6    6  502    0  0.37705649987E+03 -0.35530600379E+03 -0.42162789339E+02  0.51979963566E+03  0.00000000000E+00 0. -1.
          3    1    5    5  503    0 -0.34803655491E+02  0.23000804334E+03 -0.21357818221E+03  0.31580157433E+03  0.00000000000E+00 0. -1.
         -2    1    5    5    0  503  0.33601039640E+02  0.74030113085E+02 -0.81543604856E+02  0.11514706684E+03  0.00000000000E+00 0.  1.
         -1    1    6    6    0  502  0.53837655921E+02 -0.10031192485E+03  0.44067118232E+01  0.11393153458E+03  0.00000000000E+00 0.  1.
<mgrwt>
<rscale>  0 0.16375963E+04</rscale>
<asrwt>0</asrwt>
<pdfrwt beam="1">  1        1 0.12574102E+00 0.16375963E+04</pdfrwt>
<pdfrwt beam="2">  1       -1 0.12619729E+00 0.16375963E+04</pdfrwt>
<totfact> 0.11166571E+01</totfact>
</mgrwt>
</event>
<event>
12    1  0.1518126E-007  0.2795677E+04  0.7818608E-02  0.8304612E-01
          2   -1    0    0  501    0  0.00000000000E+00  0.00000000000E+00  0.18335951743E+04  0.18335951743E+04  0.00000000000E+00 0. -1.
         -2   -1    0    0    0  501 -0.00000000000E+00 -0.00000000000E+00 -0.10656397942E+04  0.10656397942E+04  0.00000000000E+00 0.  1.
         23    2    1    2    0    0 -0.35157833056E+03  0.32605003467E+02  0.15837245520E+04  0.16251186095E+04  0.90314061218E+02 0.  0.
        254    2    1    2    0    0  0.35157833056E+03 -0.32605003467E+02 -0.81576917190E+03  0.12741163590E+04  0.91281035579E+03 0.  0.
        -24    2    4    4    0    0  0.35334374988E+02  0.40018423572E+03 -0.20674084961E+03  0.45894263768E+03  0.80564416529E+02 0.  0.
         24    2    4    4    0    0  0.31624395557E+03 -0.43278923918E+03 -0.60902832229E+03  0.81517372131E+03  0.79220790025E+02 0.  0.
         11    1    3    3    0    0 -0.22392077503E+03  0.18083237803E+02  0.11881727251E+04  0.12092236938E+04  0.00000000000E+00 0. -1.
        -11    1    3    3    0    0 -0.12765755553E+03  0.14521765664E+02  0.39555182686E+03  0.41589491569E+03  0.00000000000E+00 0.  1.
          2    1    6    6  502    0  0.97718642592E+02 -0.11798403946E+03 -0.12443297136E+03  0.19736446245E+03  0.00000000000E+00 0. -1.
          3    1    5    5  503    0  0.26430692400E+02  0.17006942128E+03 -0.13176308056E+03  0.21675723507E+03  0.00000000000E+00 0. -1.
         -4    1    5    5    0  503  0.89036825877E+01  0.23011481443E+03 -0.74977769048E+02  0.24218540261E+03  0.00000000000E+00 0.  1.
         -1    1    6    6    0  502  0.21852531298E+03 -0.31480519972E+03 -0.48459535093E+03  0.61780925886E+03  0.00000000000E+00 0.  1.
<mgrwt>
<rscale>  0 0.27956767E+04</rscale>
<asrwt>0</asrwt>
<pdfrwt beam="1">  1        2 0.28209156E+00 0.27956767E+04</pdfrwt>
<pdfrwt beam="2">  1       -2 0.16394458E+00 0.27956767E+04</pdfrwt>
<totfact> 0.16957697E+00</totfact>
</mgrwt>
</event>
<event>
12    1  0.1518126E-007  0.1525654E+04  0.7818608E-02  0.8867571E-01
          1   -1    0    0  501    0  0.00000000000E+00  0.00000000000E+00  0.11560277643E+04  0.11560277643E+04  0.00000000000E+00 0. -1.
         -1   -1    0    0    0  501 -0.00000000000E+00 -0.00000000000E+00 -0.50336571882E+03  0.50336571882E+03  0.00000000000E+00 0.  1.
         23    2    1    2    0    0  0.23746558095E+03 -0.43302399132E+03  0.29467930772E+03  0.58236246132E+03  0.91708575174E+02 0.  0.
        254    2    1    2    0    0 -0.23746558095E+03  0.43302399132E+03  0.35798273780E+03  0.10770310218E+04  0.88766238078E+03 0.  0.
        -24    2    4    4    0    0  0.91088213647E+02  0.53422933599E+03  0.45391859010E+03  0.71145545912E+03  0.80179409868E+02 0.  0.
         24    2    4    4    0    0 -0.32855379459E+03 -0.10120534467E+03 -0.95935852304E+02  0.36557556272E+03  0.79067607587E+02 0.  0.
         13    1    3    3    0    0  0.50828134812E+02 -0.48970439073E+02  0.71842750037E+02  0.10071238218E+03  0.00000000000E+00 0.  1.
        -13    1    3    3    0    0  0.18663744613E+03 -0.38405355225E+03  0.22283655768E+03  0.48165007914E+03  0.00000000000E+00 0. -1.
          2    1    6    6  502    0 -0.10985983961E+03  0.38635961092E+01 -0.24076822740E+02  0.11253357333E+03  0.00000000000E+00 0. -1.
          1    1    5    5  503    0  0.22174055802E+02  0.32393756844E+02  0.18093359097E+02  0.43225153286E+02  0.00000000000E+00 0. -1.
         -2    1    5    5    0  503  0.68914157845E+02  0.50183557915E+03  0.43582523101E+03  0.66823030583E+03  0.00000000000E+00 0.  1.
         -1    1    6    6    0  502 -0.21869395499E+03 -0.10506894078E+03 -0.71859029565E+02  0.25304198939E+03  0.00000000000E+00 0.  1.
<mgrwt>
<rscale>  0 0.15256536E+04</rscale>
<asrwt>0</asrwt>
<pdfrwt beam="1">  1        1 0.17785043E+00 0.15256536E+04</pdfrwt>
<pdfrwt beam="2">  1       -1 0.77440880E-01 0.15256536E+04</pdfrwt>
<totfact> 0.18578007E+01</totfact>
</mgrwt>
</event>
<event>
12    1  0.1518126E-007  0.4847076E+04  0.7818608E-02  0.7852540E-01
         -1   -1    0    0    0  501 -0.00000000000E+00  0.00000000000E+00  0.22220489139E+04  0.22220489139E+04  0.00000000000E+00 0.  1.
          1   -1    0    0  501    0  0.00000000000E+00 -0.00000000000E+00 -0.26432978675E+04  0.26432978675E+04  0.00000000000E+00 0. -1.
         23    2    1    2    0    0 -0.24879041683E+03 -0.22460767085E+04  0.40489889227E+03  0.22975739219E+04  0.90252764804E+02 0.  0.
        254    2    1    2    0    0  0.24879041683E+03  0.22460767085E+04 -0.82614784588E+03  0.25677728596E+04  0.89676080594E+03 0.  0.
        -24    2    4    4    0    0 -0.24126280131E+03  0.32002590913E+03  0.14797351426E+02  0.40816004494E+03  0.75837582130E+02 0.  0.
         24    2    4    4    0    0  0.49005321814E+03  0.19260507994E+04 -0.84094519731E+03  0.21596128146E+04  0.83155552159E+02 0.  0.
         13    1    3    3    0    0 -0.51873617492E+02 -0.30574010226E+03  0.29915990867E+02  0.31154911143E+03  0.00000000000E+00 0. -1.
        -13    1    3    3    0    0 -0.19691679934E+03 -0.19403366063E+04  0.37498290140E+03  0.19860248105E+04  0.00000000000E+00 0.  1.
          2    1    6    6  502    0  0.42099854691E+03  0.17501138648E+04 -0.75423869593E+03  0.19516696254E+04  0.00000000000E+00 0. -1.
          1    1    5    5  503    0 -0.24327481476E+03  0.31690233621E+03  0.21934656619E+02  0.40011355307E+03  0.00000000000E+00 0. -1.
         -2    1    5    5    0  503  0.20120134506E+01  0.31235729226E+01 -0.71373051927E+01  0.80464918656E+01  0.00000000000E+00 0.  1.
         -1    1    6    6    0  502  0.69054671231E+02  0.17593693458E+03 -0.86706501378E+02  0.20794318923E+03  0.00000000000E+00 0.  1.
<mgrwt>
<rscale>  0 0.48470763E+04</rscale>
<asrwt>0</asrwt>
<pdfrwt beam="1">  1        1 0.40666121E+00 0.48470763E+04</pdfrwt>
<pdfrwt beam="2">  1       -1 0.34185368E+00 0.48470763E+04</pdfrwt>
<totfact> 0.13832092E-02</totfact>
</mgrwt>
</event>
<event>
12    1  0.1518126E-007  0.1505269E+04  0.7818608E-02  0.8880956E-01
          1   -1    0    0  501    0  0.00000000000E+00  0.00000000000E+00  0.50024605643E+03  0.50024605643E+03  0.00000000000E+00 0. -1.
         -1   -1    0    0    0  501 -0.00000000000E+00 -0.00000000000E+00 -0.11323606065E+04  0.11323606065E+04  0.00000000000E+00 0.  1.
         23    2    1    2    0    0  0.16345440516E+03 -0.25533476654E+03  0.19794950083E+03  0.37404358309E+03  0.93869119521E+02 0.  0.
        254    2    1    2    0    0 -0.16345440516E+03  0.25533476654E+03 -0.83006405087E+03  0.12585630798E+04  0.89613699384E+03 0.  0.
        -24    2    4    4    0    0 -0.10572821321E+03 -0.83077522958E+02  0.15034496472E+03  0.21665655207E+03  0.79095658825E+02 0.  0.
         24    2    4    4    0    0 -0.57726191948E+02  0.33841228949E+03 -0.98040901559E+03  0.10419065277E+04  0.80698102605E+02 0.  0.
         13    1    3    3    0    0  0.36175060638E+02 -0.59090438566E+02  0.97193094298E+02  0.11936001224E+03  0.00000000000E+00 0.  1.
        -13    1    3    3    0    0  0.12727934452E+03 -0.19624432797E+03  0.10075640653E+03  0.25468357085E+03  0.00000000000E+00 0. -1.
          2    1    6    6  502    0 -0.30403284498E+02  0.31445261922E+03 -0.89347789144E+03  0.94768536548E+03  0.00000000000E+00 0. -1.
          3    1    5    5  503    0 -0.69084279447E+02 -0.88454113633E+02  0.82269023936E+02  0.13915804032E+03  0.00000000000E+00 0. -1.
         -4    1    5    5    0  503 -0.36643933767E+02  0.53765906752E+01  0.68075940789E+02  0.77498511750E+02  0.00000000000E+00 0.  1.
         -1    1    6    6    0  502 -0.27322907451E+02  0.23959670270E+02 -0.86931124150E+02  0.94221162257E+02  0.00000000000E+00 0.  1.
<mgrwt>
<rscale>  0 0.15052693E+04</rscale>
<asrwt>0</asrwt>
<pdfrwt beam="1">  1        1 0.76960932E-01 0.15052693E+04</pdfrwt>
<pdfrwt beam="2">  1       -1 0.17420932E+00 0.15052693E+04</pdfrwt>
<totfact> 0.98153625E+00</totfact>
</mgrwt>
</event>
<event>
12    1  0.1518126E-007  0.1280080E+04  0.7818608E-02  0.9045513E-01
         -2   -1    0    0    0  501 -0.00000000000E+00  0.00000000000E+00  0.12854549046E+04  0.12854549046E+04  0.00000000000E+00 0.  1.
          2   -1    0    0  501    0  0.00000000000E+00 -0.00000000000E+00 -0.31868187869E+03  0.31868187869E+03  0.00000000000E+00 0. -1.
         23    2    1    2    0    0  0.15589711106E+03  0.20856680963E+03  0.48472549174E+03  0.55829291816E+03  0.94488924278E+02 0.  0.
        254    2    1    2    0    0 -0.15589711106E+03 -0.20856680963E+03  0.48204753420E+03  0.10458438652E+04  0.89085102106E+03 0.  0.
        -24    2    4    4    0    0 -0.28440696860E+03  0.76862079726E+02  0.62309826942E+03  0.69347700051E+03  0.76575412471E+02 0.  0.
         24    2    4    4    0    0  0.12850985753E+03 -0.28542888936E+03 -0.14105073521E+03  0.35236686465E+03  0.79263251465E+02 0.  0.
         13    1    3    3    0    0  0.81748472448E+02  0.10786285047E+03  0.34595721776E+03  0.37148836291E+03  0.00000000000E+00 0.  1.
        -13    1    3    3    0    0  0.74148638615E+02  0.10070395916E+03  0.13876827398E+03  0.18680455525E+03  0.00000000000E+00 0. -1.
          4    1    6    6  502    0  0.22236962735E+02 -0.10948067710E+03 -0.81747190920E+02  0.13843086503E+03  0.00000000000E+00 0. -1.
          3    1    5    5  503    0 -0.28402344801E+03  0.63896654404E+02  0.58963313063E+03  0.65758598693E+03  0.00000000000E+00 0. -1.
         -4    1    5    5    0  503 -0.38352058394E+00  0.12965425322E+02  0.33465138785E+02  0.35891013579E+02  0.00000000000E+00 0.  1.
         -3    1    6    6    0  502  0.10627289480E+03 -0.17594821226E+03 -0.59303544295E+02  0.21393599962E+03  0.00000000000E+00 0.  1.
<mgrwt>
<rscale>  0 0.12800800E+04</rscale>
<asrwt>0</asrwt>
<pdfrwt beam="1">  1        2 0.49027982E-01 0.12800800E+04</pdfrwt>
<pdfrwt beam="2">  1       -2 0.19776229E+00 0.12800800E+04</pdfrwt>
<totfact> 0.13848009E+01</totfact>
</mgrwt>
</event>
<event>
12    1  0.1518126E-007  0.1194903E+04  0.7818608E-02  0.9117330E-01
          2   -1    0    0  501    0  0.00000000000E+00  0.00000000000E+00  0.73041754606E+03  0.73041754606E+03  0.00000000000E+00 0. -1.
         -2   -1    0    0    0  501 -0.00000000000E+00 -0.00000000000E+00 -0.48869045167E+03  0.48869045167E+03  0.00000000000E+00 0.  1.
         23    2    1    2    0    0 -0.19302807066E+03 -0.39540648714E+02  0.17036990735E+03  0.27642617499E+03  0.92532296664E+02 0.  0.
        254    2    1    2    0    0  0.19302807066E+03  0.39540648714E+02  0.71357187036E+02  0.94268182273E+03  0.91909404948E+03 0.  0.
        -24    2    4    4    0    0 -0.71907801750E+02 -0.30831835309E+03 -0.23526322531E+03  0.40259512127E+03  0.80641848235E+02 0.  0.
         24    2    4    4    0    0  0.26493587241E+03  0.34785900180E+03  0.30662041234E+03  0.54008670146E+03  0.80502585070E+02 0.  0.
         13    1    3    3    0    0 -0.80950921979E+02 -0.62337102296E+02  0.94532714138E+02  0.13919554639E+03  0.00000000000E+00 0. -1.
        -13    1    3    3    0    0 -0.11207714868E+03  0.22796453582E+02  0.75837193215E+02  0.13723062861E+03  0.00000000000E+00 0.  1.
          2    1    6    6  502    0  0.13384356786E+03  0.23955162226E+03  0.18231756565E+03  0.32945223497E+03  0.00000000000E+00 0. -1.
          3    1    5    5  503    0 -0.82945433899E+02 -0.29456185186E+03 -0.20760682209E+03  0.36979348582E+03  0.00000000000E+00 0. -1.
         -4    1    5    5    0  503  0.11037632149E+02 -0.13756501224E+02 -0.27656403212E+02  0.32801635447E+02  0.00000000000E+00 0.  1.
         -1    1    6    6    0  502  0.13109230455E+03  0.10830737954E+03  0.12430284669E+03  0.21063446648E+03  0.00000000000E+00 0.  1.
<mgrwt>
<rscale>  0 0.11949026E+04</rscale>
<asrwt>0</asrwt>
<pdfrwt beam="1">  1        2 0.11237193E+00 0.11949026E+04</pdfrwt>
<pdfrwt beam="2">  1       -2 0.75183147E-01 0.11949026E+04</pdfrwt>
<totfact> 0.60864390E+01</totfact>
</mgrwt>
</event>
<event>
12    1  0.1518126E-007  0.1171495E+04  0.7818608E-02  0.9138180E-01
          2   -1    0    0  501    0  0.00000000000E+00  0.00000000000E+00  0.95409083368E+03  0.95409083368E+03  0.00000000000E+00 0.  1.
         -2   -1    0    0    0  501 -0.00000000000E+00 -0.00000000000E+00 -0.35960920952E+03  0.35960920952E+03  0.00000000000E+00 0. -1.
         23    2    1    2    0    0 -0.12176402117E+03  0.56916725972E+02 -0.57948730942E+02  0.17248828947E+03  0.91258775140E+02 0.  0.
        254    2    1    2    0    0  0.12176402117E+03 -0.56916725972E+02  0.65243035511E+03  0.11412117537E+04  0.92662446980E+03 0.  0.
        -24    2    4    4    0    0  0.83496697192E+02 -0.42334844620E+03  0.65278230848E+02  0.44373122273E+03  0.80253007779E+02 0.  0.
         24    2    4    4    0    0  0.38267323981E+02  0.36643172023E+03  0.58715212426E+03  0.69748053100E+03  0.77426613134E+02 0.  0.
         13    1    3    3    0    0 -0.70184807377E+02  0.80079548692E+00 -0.65360790315E+02  0.95909235064E+02  0.00000000000E+00 0. -1.
        -13    1    3    3    0    0 -0.51579213796E+02  0.56115930485E+02  0.74120593735E+01  0.76579054409E+02  0.00000000000E+00 0.  1.
          2    1    6    6  502    0  0.68571136271E+01  0.61964345145E+01  0.17560694433E+01  0.94074219570E+01  0.00000000000E+00 0. -1.
          1    1    5    5  503    0  0.48474124745E+02 -0.25038002016E+03  0.78284842917E+02  0.26677408400E+03  0.00000000000E+00 0. -1.
         -2    1    5    5    0  503  0.35022572447E+02 -0.17296842604E+03 -0.13006612069E+02  0.17695713873E+03  0.00000000000E+00 0.  1.
         -1    1    6    6    0  502  0.31410210354E+02  0.36023528572E+03  0.58539605481E+03  0.68807310904E+03  0.00000000000E+00 0.  1.
<mgrwt>
<rscale>  0 0.11714945E+04</rscale>
<asrwt>0</asrwt>
<pdfrwt beam="1">  1        2 0.14678320E+00 0.11714945E+04</pdfrwt>
<pdfrwt beam="2">  1       -2 0.55324494E-01 0.11714945E+04</pdfrwt>
<totfact> 0.81918750E+01</totfact>
</mgrwt>
</event>
<event>
12    1  0.1518126E-007  0.1166334E+04  0.7818608E-02  0.9142846E-01
         -1   -1    0    0    0  501 -0.00000000000E+00  0.00000000000E+00  0.58056875814E+03  0.58056875814E+03  0.00000000000E+00 0.  1.
          1   -1    0    0  501    0  0.00000000000E+00 -0.00000000000E+00 -0.58577661799E+03  0.58577661799E+03  0.00000000000E+00 0. -1.
         23    2    1    2    0    0  0.13816556841E+03 -0.10305334787E+03  0.14609708796E+03  0.24345092469E+03  0.90632647664E+02 0.  0.
        254    2    1    2    0    0 -0.13816556841E+03  0.10305334787E+03 -0.15130494781E+03  0.92289445144E+03  0.89394142116E+03 0.  0.
        -24    2    4    4    0    0 -0.35658474255E+02  0.43332444557E+02 -0.51914799087E+03  0.52819938483E+03  0.79565860649E+02 0.  0.
         24    2    4    4    0    0 -0.10250709415E+03  0.59720903313E+02  0.36784304306E+03  0.39469506660E+03  0.80008753481E+02 0.  0.
         13    1    3    3    0    0  0.11507560296E+03 -0.81808899101E+02  0.62965858934E+02  0.15459556837E+03  0.00000000000E+00 0. -1.
        -13    1    3    3    0    0  0.23089965452E+02 -0.21244448769E+02  0.83131229026E+02  0.88855356324E+02  0.00000000000E+00 0.  1.
          4    1    6    6  502    0 -0.79128875833E+02  0.66348092219E+02  0.34896843210E+03  0.36392638669E+03  0.00000000000E+00 0. -1.
          1    1    5    5  503    0 -0.27476712462E+02  0.21036490172E+02 -0.48701124765E+03  0.48823914119E+03  0.00000000000E+00 0. -1.
         -2    1    5    5    0  503 -0.81817617936E+01  0.22295954385E+02 -0.32136743216E+02  0.39960243650E+02  0.00000000000E+00 0.  1.
         -3    1    6    6    0  502 -0.23378218321E+02 -0.66271889063E+01  0.18874610959E+02  0.30768679912E+02  0.00000000000E+00 0.  1.
<mgrwt>
<rscale>  0 0.11663337E+04</rscale>
<asrwt>0</asrwt>
<pdfrwt beam="1">  1        1 0.90119479E-01 0.11663337E+04</pdfrwt>
<pdfrwt beam="2">  1       -1 0.89318271E-01 0.11663337E+04</pdfrwt>
<totfact> 0.43231936E+01</totfact>
</mgrwt>
</event>
<event>
12    1  0.1518126E-007  0.1464683E+04  0.7818608E-02  0.8908284E-01
          2   -1    0    0  501    0  0.00000000000E+00  0.00000000000E+00  0.14504779679E+04  0.14504779679E+04  0.00000000000E+00 0. -1.
         -2   -1    0    0    0  501 -0.00000000000E+00 -0.00000000000E+00 -0.36975675332E+03  0.36975675332E+03  0.00000000000E+00 0.  1.
         23    2    1    2    0    0  0.40345414438E+03  0.18573438082E+03  0.25805746164E+03  0.52153341025E+03  0.90171712098E+02 0.  0.
        254    2    1    2    0    0 -0.40345414438E+03 -0.18573438082E+03  0.82266375296E+03  0.12987013110E+04  0.90143049532E+03 0.  0.
        -24    2    4    4    0    0 -0.67360540887E+03 -0.23361134275E+03  0.61699763664E+03  0.94626300161E+03  0.80056719106E+02 0.  0.
         24    2    4    4    0    0  0.27015126449E+03  0.47876961925E+02  0.20566611632E+03  0.35243830938E+03  0.81488044075E+02 0.  0.
         13    1    3    3    0    0  0.24313333863E+03  0.13900571242E+03  0.11929858415E+03  0.30441511234E+03  0.00000000000E+00 0. -1.
        -13    1    3    3    0    0  0.16032080575E+03  0.46728668400E+02  0.13875887748E+03  0.21711829791E+03  0.00000000000E+00 0.  1.
          4    1    6    6  502    0  0.26449417009E+03  0.31123168333E+02  0.18066717113E+03  0.32181740839E+03  0.00000000000E+00 0. -1.
          1    1    5    5  503    0 -0.66183443556E+03 -0.24004400189E+03  0.60477882215E+03  0.92811818571E+03  0.00000000000E+00 0. -1.
         -2    1    5    5    0  503 -0.11770973313E+02  0.64326591380E+01  0.12218814495E+02  0.18144815898E+02  0.00000000000E+00 0.  1.
         -3    1    6    6    0  502  0.56570944015E+01  0.16753793592E+02  0.24998945194E+02  0.30620900993E+02  0.00000000000E+00 0.  1.
<mgrwt>
<rscale>  0 0.14646829E+04</rscale>
<asrwt>0</asrwt>
<pdfrwt beam="1">  1        2 0.22315045E+00 0.14646829E+04</pdfrwt>
<pdfrwt beam="2">  1       -2 0.56885655E-01 0.14646829E+04</pdfrwt>
<totfact> 0.38005660E+01</totfact>
</mgrwt>
</event>
<event>
12    1  0.1518126E-007  0.1114399E+04  0.7818608E-02  0.9191270E-01
          1   -1    0    0  501    0  0.00000000000E+00  0.00000000000E+00  0.53751646760E+03  0.53751646760E+03  0.00000000000E+00 0. -1.
         -1   -1    0    0    0  501 -0.00000000000E+00 -0.00000000000E+00 -0.57760309989E+03  0.57760309989E+03  0.00000000000E+00 0.  1.
         23    2    1    2    0    0  0.10616972226E+03  0.64421337608E+02 -0.13422967115E+03  0.19915226547E+03  0.78879031188E+02 0.  0.
        254    2    1    2    0    0 -0.10616972226E+03 -0.64421337608E+02  0.94143038864E+02  0.91596730202E+03  0.90261346541E+03 0.  0.
        -24    2    4    4    0    0  0.39011904809E+03 -0.17488084475E+02  0.98580855717E+02  0.41075559188E+03  0.80642832114E+02 0.  0.
         24    2    4    4    0    0 -0.49628877035E+03 -0.46933253133E+02 -0.44378168527E+01  0.50521171013E+03  0.81938415977E+02 0.  0.
         11    1    3    3    0    0  0.11064452473E+02  0.16731049357E+01 -0.64726629793E+02  0.65686817499E+02  0.00000000000E+00 0. -1.
        -11    1    3    3    0    0  0.95105269787E+02  0.62748232672E+02 -0.69503041359E+02  0.13346544797E+03  0.00000000000E+00 0.  1.
          2    1    6    6  502    0 -0.11457990841E+02  0.12186691118E+02  0.10323108538E+01  0.16759076950E+02  0.00000000000E+00 0. -1.
          3    1    5    5  503    0  0.42237782688E+02  0.18022367572E+02  0.28699363516E+02  0.54152465184E+02  0.00000000000E+00 0. -1.
         -4    1    5    5    0  503  0.34788126540E+03 -0.35510452047E+02  0.69881492201E+02  0.35660312670E+03  0.00000000000E+00 0.  1.
         -1    1    6    6    0  502 -0.48483077951E+03 -0.59119944251E+02 -0.54701277065E+01  0.48845263318E+03  0.00000000000E+00 0.  1.
<mgrwt>
<rscale>  0 0.11143988E+04</rscale>
<asrwt>0</asrwt>
<pdfrwt beam="1">  1        1 0.82694842E-01 0.11143988E+04</pdfrwt>
<pdfrwt beam="2">  1       -1 0.88862015E-01 0.11143988E+04</pdfrwt>
<totfact> 0.49585509E+01</totfact>
</mgrwt>
</event>
<event>
12    1  0.1518126E-007  0.1802109E+04  0.7818608E-02  0.8705179E-01
         -1   -1    0    0    0  501 -0.00000000000E+00  0.00000000000E+00  0.54770811871E+03  0.54770811871E+03  0.00000000000E+00 0.  1.
          1   -1    0    0  501    0  0.00000000000E+00 -0.00000000000E+00 -0.14823573321E+04  0.14823573321E+04  0.00000000000E+00 0. -1.
         23    2    1    2    0    0  0.10782947132E+03  0.64867626395E+03 -0.21518736873E+03  0.69787581293E+03  0.91197348140E+02 0.  0.
        254    2    1    2    0    0 -0.10782947132E+03 -0.64867626395E+03 -0.71946184470E+03  0.13321896379E+04  0.90812763151E+03 0.  0.
        -24    2    4    4    0    0 -0.21269124988E+03 -0.77518639907E+03 -0.27789919567E+03  0.85418937195E+03  0.79120156209E+02 0.  0.
         24    2    4    4    0    0  0.10486177856E+03  0.12651013511E+03 -0.44156264902E+03  0.47800026598E+03  0.80659000547E+02 0.  0.
         11    1    3    3    0    0  0.11223372346E+03  0.53840479236E+03 -0.20540481045E+03  0.58708369529E+03  0.00000000000E+00 0.  1.
        -11    1    3    3    0    0 -0.44042521386E+01  0.11027147159E+03 -0.97825582733E+01  0.11079211764E+03  0.00000000000E+00 0. -1.
          4    1    6    6  502    0  0.69731032542E+02  0.26046428680E+02 -0.14642360187E+03  0.16425804252E+03  0.00000000000E+00 0. -1.
          1    1    5    5  503    0 -0.92612358441E+02 -0.21572596550E+03 -0.64205618660E+02  0.24338673463E+03  0.00000000000E+00 0. -1.
         -2    1    5    5    0  503 -0.12007889144E+03 -0.55946043357E+03 -0.21369357701E+03  0.61080263732E+03  0.00000000000E+00 0.  1.
         -3    1    6    6    0  502  0.35130746018E+02  0.10046370643E+03 -0.29513904715E+03  0.31374222346E+03  0.00000000000E+00 0.  1.
<mgrwt>
<rscale>  0 0.18021089E+04</rscale>
<asrwt>0</asrwt>
<pdfrwt beam="1">  1        1 0.22805497E+00 0.18021089E+04</pdfrwt>
<pdfrwt beam="2">  1       -1 0.84262789E-01 0.18021089E+04</pdfrwt>
<totfact> 0.88568440E+00</totfact>
</mgrwt>
</event>
<event>
12    1  0.1518126E-007  0.1969613E+04  0.7818608E-02  0.8620961E-01
          2   -1    0    0  501    0  0.00000000000E+00  0.00000000000E+00  0.23271800334E+04  0.23271800334E+04  0.00000000000E+00 0. -1.
         -2   -1    0    0    0  501 -0.00000000000E+00 -0.00000000000E+00 -0.41674620890E+03  0.41674620890E+03  0.00000000000E+00 0.  1.
         23    2    1    2    0    0  0.40200941608E+03 -0.50566726093E+03  0.13431761740E+04  0.14925641119E+04  0.79463477322E+02 0.  0.
        254    2    1    2    0    0 -0.40200941608E+03  0.50566726093E+03  0.56725765050E+03  0.12513621304E+04  0.90929367645E+03 0.  0.
        -24    2    4    4    0    0  0.94780508689E+02 -0.19927441198E+03  0.42653834096E+02  0.23870333360E+03  0.80413281313E+02 0.  0.
         24    2    4    4    0    0 -0.49678992476E+03  0.70494167291E+03  0.52460381640E+03  0.10126587968E+04  0.80781700103E+02 0.  0.
         13    1    3    3    0    0  0.16664284729E+03 -0.25931703213E+03  0.69518501741E+03  0.76045865774E+03  0.00000000000E+00 0. -1.
        -13    1    3    3    0    0  0.23536656879E+03 -0.24635022880E+03  0.64799115661E+03  0.73210545413E+03  0.00000000000E+00 0.  1.
          4    1    6    6  502    0 -0.19706314929E+01 -0.13051931539E+01 -0.12079575313E+01  0.26544451487E+01  0.00000000000E+00 0. -1.
          1    1    5    5  503    0  0.20148643663E+02 -0.14336212556E+02  0.29992978169E+02  0.38872529779E+02  0.00000000000E+00 0. -1.
         -2    1    5    5    0  503  0.74631865026E+02 -0.18493819942E+03  0.12660855927E+02  0.19983080382E+03  0.00000000000E+00 0.  1.
         -3    1    6    6    0  502 -0.49481929327E+03  0.70624686606E+03  0.52581177393E+03  0.10100043517E+04  0.00000000000E+00 0.  1.
<mgrwt>
<rscale>  0 0.19696126E+04</rscale>
<asrwt>0</asrwt>
<pdfrwt beam="1">  1        2 0.35802769E+00 0.19696126E+04</pdfrwt>
<pdfrwt beam="2">  1       -2 0.64114803E-01 0.19696126E+04</pdfrwt>
<totfact> 0.91641478E+00</totfact>
</mgrwt>
</event>
<event>
12    1  0.1836932E-007  0.1245269E+04  0.7818608E-02  0.9074130E-01
         -2   -1    0    0    0  501 -0.00000000000E+00  0.00000000000E+00  0.61789539346E+03  0.61789539346E+03  0.00000000000E+00 0.  1.
          2   -1    0    0  501    0  0.00000000000E+00 -0.00000000000E+00 -0.62740993744E+03  0.62740993744E+03  0.00000000000E+00 0. -1.
         23    2    1    2    0    0 -0.18332428679E+03  0.13053951159E+03 -0.18662385881E+03  0.30644163545E+03  0.91813142040E+02 0.  0.
        254    2    1    2    0    0  0.18332428679E+03 -0.13053951159E+03  0.17710931483E+03  0.93886369545E+03  0.89411910338E+03 0.  0.
        -24    2    4    4    0    0  0.12678349371E+03  0.58512773445E+02  0.51496493177E+03  0.53958356001E+03  0.80397377695E+02 0.  0.
         24    2    4    4    0    0  0.56540793072E+02 -0.18905228503E+03 -0.33785561694E+03  0.39928013545E+03  0.79627764670E+02 0.  0.
         13    1    3    3    0    0 -0.16781286539E+03  0.12462077514E+03 -0.19669800659E+03  0.28702195244E+03  0.00000000000E+00 0. -1.
        -13    1    3    3    0    0 -0.15511421396E+02  0.59187364499E+01  0.10074147779E+02  0.19419683013E+02  0.00000000000E+00 0.  1.
          4    1    6    6  502    0  0.16000377216E+02  0.29153740086E+00 -0.11156934214E+02  0.19508312233E+02  0.00000000000E+00 0. -1.
          3    1    5    5  503    0 -0.94362683849E+01 -0.42233485185E+01  0.21947349811E+02  0.24260379170E+02  0.00000000000E+00 0. -1.
         -4    1    5    5    0  503  0.13621976210E+03  0.62736121964E+02  0.49301758196E+03  0.51532318084E+03  0.00000000000E+00 0.  1.
         -1    1    6    6    0  502  0.40540415856E+02 -0.18934382243E+03 -0.32669868273E+03  0.37977182321E+03  0.00000000000E+00 0.  1.
<mgrwt>
<rscale>  0 0.12452690E+04</rscale>
<asrwt>0</asrwt>
<pdfrwt beam="1">  1        2 0.96524606E-01 0.12452690E+04</pdfrwt>
<pdfrwt beam="2">  1       -2 0.95060830E-01 0.12452690E+04</pdfrwt>
<totfact> 0.43015122E+01</totfact>
</mgrwt>
</event>
<event>
12    1  0.1518126E-007  0.2201870E+04  0.7818608E-02  0.8517650E-01
          2   -1    0    0  501    0  0.00000000000E+00  0.00000000000E+00  0.39268195801E+04  0.39268195801E+04  0.00000000000E+00 0.  1.
         -2   -1    0    0    0  501 -0.00000000000E+00 -0.00000000000E+00 -0.30866159858E+03  0.30866159858E+03  0.00000000000E+00 0. -1.
         23    2    1    2    0    0 -0.72051521808E+03 -0.56127052115E+03  0.14288648753E+04  0.16982521957E+04  0.90768447278E+02 0.  0.
        254    2    1    2    0    0  0.72051521808E+03  0.56127052115E+03  0.21892931062E+04  0.25372289830E+04  0.90019988313E+03 0.  0.
        -24    2    4    4    0    0 -0.12561480544E+03 -0.89742755123E+02  0.12895689948E+03  0.21531036541E+03  0.76784308845E+02 0.  0.
         24    2    4    4    0    0  0.84613002353E+03  0.65101327627E+03  0.20603362068E+04  0.23219186176E+04  0.81033814527E+02 0.  0.
         11    1    3    3    0    0 -0.65950956540E+03 -0.52080473502E+03  0.13537056504E+04  0.15933328048E+04  0.00000000000E+00 0. -1.
        -11    1    3    3    0    0 -0.61005652680E+02 -0.40465786130E+02  0.75159224827E+02  0.10491939088E+03  0.00000000000E+00 0.  1.
          4    1    6    6  502    0  0.21249408230E+03  0.12065271853E+03  0.46807094864E+03  0.52801631269E+03  0.00000000000E+00 0. -1.
          3    1    5    5  503    0 -0.56041539116E+02 -0.31874140793E+02  0.10238956318E+03  0.12099684957E+03  0.00000000000E+00 0. -1.
         -4    1    5    5    0  503 -0.69573266327E+02 -0.57868614330E+02  0.26567336304E+02  0.94313515840E+02  0.00000000000E+00 0.  1.
         -3    1    6    6    0  502  0.63363594122E+03  0.53036055774E+03  0.15922652581E+04  0.17939023049E+04  0.00000000000E+00 0.  1.
<mgrwt>
<rscale>  0 0.22018705E+04</rscale>
<asrwt>0</asrwt>
<pdfrwt beam="1">  1        2 0.60412605E+00 0.22018705E+04</pdfrwt>
<pdfrwt beam="2">  1       -2 0.47486403E-01 0.22018705E+04</pdfrwt>
<totfact> 0.15137019E+00</totfact>
</mgrwt>
</event>
<event>
12    1  0.1518126E-007  0.1327630E+04  0.7818608E-02  0.9007937E-01
         -2   -1    0    0    0  501 -0.00000000000E+00  0.00000000000E+00  0.44447725275E+03  0.44447725275E+03  0.00000000000E+00 0.  1.
          2   -1    0    0  501    0  0.00000000000E+00 -0.00000000000E+00 -0.99138955477E+03  0.99138955477E+03  0.00000000000E+00 0. -1.
         23    2    1    2    0    0 -0.98404703164E+02  0.22698385947E+03  0.84661088992E+02  0.27666253094E+03  0.90385275190E+02 0.  0.
        254    2    1    2    0    0  0.98404703164E+02 -0.22698385947E+03 -0.63157339102E+03  0.11592042766E+04  0.94003428051E+03 0.  0.
        -24    2    4    4    0    0 -0.24986345380E+03 -0.43933899516E+03 -0.17275366397E+03  0.54008754102E+03  0.80001408363E+02 0.  0.
         24    2    4    4    0    0  0.34826815697E+03  0.21235513568E+03 -0.45881972705E+03  0.61911673556E+03  0.80028604346E+02 0.  0.
         11    1    3    3    0    0 -0.13783499210E+02  0.93388798600E+01  0.33789666564E+02  0.37668834519E+02  0.00000000000E+00 0.  1.
        -11    1    3    3    0    0 -0.84621203954E+02  0.21764497961E+03  0.50871422427E+02  0.23899369642E+03  0.00000000000E+00 0. -1.
          2    1    6    6  502    0  0.19792054657E+03  0.81881974425E+02 -0.20435049287E+03  0.29603432981E+03  0.00000000000E+00 0. -1.
          3    1    5    5  503    0 -0.21048753160E+03 -0.33487623000E+03 -0.16374147653E+03  0.42808686211E+03  0.00000000000E+00 0. -1.
         -4    1    5    5    0  503 -0.39375922204E+02 -0.10446276516E+03 -0.90121874415E+01  0.11200067891E+03  0.00000000000E+00 0.  1.
         -1    1    6    6    0  502  0.15034761039E+03  0.13047316126E+03 -0.25446923418E+03  0.32308240575E+03  0.00000000000E+00 0.  1.
<mgrwt>
<rscale>  0 0.13276296E+04</rscale>
<asrwt>0</asrwt>
<pdfrwt beam="1">  1        2 0.15252147E+00 0.13276296E+04</pdfrwt>
<pdfrwt beam="2">  1       -2 0.68381115E-01 0.13276296E+04</pdfrwt>
<totfact> 0.48837818E+01</totfact>
</mgrwt>
</event>
<event>
12    1  0.1518126E-007  0.1633338E+04  0.7818608E-02  0.8800325E-01
          1   -1    0    0  501    0  0.00000000000E+00  0.00000000000E+00  0.10364293911E+04  0.10364293911E+04  0.00000000000E+00 0. -1.
         -1   -1    0    0    0  501 -0.00000000000E+00 -0.00000000000E+00 -0.64350593799E+03  0.64350593799E+03  0.00000000000E+00 0.  1.
         23    2    1    2    0    0  0.43872220354E+03 -0.10323181956E+03 -0.19102096277E+03  0.49778613943E+03  0.90377275581E+02 0.  0.
        254    2    1    2    0    0 -0.43872220354E+03  0.10323181956E+03  0.58394441586E+03  0.11821491896E+04  0.92377034230E+03 0.  0.
        -24    2    4    4    0    0 -0.65205419700E+03 -0.65919069024E+02  0.17363330008E+03  0.68268410984E+03  0.79931667290E+02 0.  0.
         24    2    4    4    0    0  0.21333199346E+03  0.16915088859E+03  0.41031111577E+03  0.49946507981E+03  0.83591815847E+02 0.  0.
         13    1    3    3    0    0  0.59861015958E+02 -0.21400472192E+02 -0.63237028661E+02  0.89667403416E+02  0.00000000000E+00 0. -1.
        -13    1    3    3    0    0  0.37886118758E+03 -0.81831347370E+02 -0.12778393411E+03  0.40811873601E+03  0.00000000000E+00 0.  1.
          4    1    6    6  502    0  0.89411222609E+02  0.12391333581E+03  0.21446500668E+03  0.26333271846E+03  0.00000000000E+00 0. -1.
          3    1    5    5  503    0 -0.23794559585E+03 -0.58802519057E+02  0.46825000826E+02  0.24953641725E+03  0.00000000000E+00 0. -1.
         -4    1    5    5    0  503 -0.41410860116E+03 -0.71165499665E+01  0.12680829926E+03  0.43314769259E+03  0.00000000000E+00 0.  1.
         -3    1    6    6    0  502  0.12392077085E+03  0.45237552775E+02  0.19584610909E+03  0.23613236135E+03  0.00000000000E+00 0.  1.
<mgrwt>
<rscale>  0 0.16333383E+04</rscale>
<asrwt>0</asrwt>
<pdfrwt beam="1">  1        1 0.15945067E+00 0.16333383E+04</pdfrwt>
<pdfrwt beam="2">  1       -1 0.99000914E-01 0.16333383E+04</pdfrwt>
<totfact> 0.13232114E+01</totfact>
</mgrwt>
</event>
<event>
12    1  0.1518126E-007  0.1214933E+04  0.7818608E-02  0.9099885E-01
         -1   -1    0    0    0  501 -0.00000000000E+00  0.00000000000E+00  0.35604041856E+03  0.35604041856E+03  0.00000000000E+00 0.  1.
          1   -1    0    0  501    0  0.00000000000E+00 -0.00000000000E+00 -0.10364424195E+04  0.10364424195E+04  0.00000000000E+00 0. -1.
         23    2    1    2    0    0  0.39544947446E+02  0.12773589343E+03 -0.41803256638E+03  0.44784211516E+03  0.89056567555E+02 0.  0.
        254    2    1    2    0    0 -0.39544947446E+02 -0.12773589343E+03 -0.26236943452E+03  0.94464072285E+03  0.89756788811E+03 0.  0.
        -24    2    4    4    0    0  0.21026776264E+03 -0.30184011527E+03 -0.44339105216E+03  0.58173659516E+03  0.80634073576E+02 0.  0.
         24    2    4    4    0    0 -0.24981271009E+03  0.17410422185E+03  0.18102161764E+03  0.36290412769E+03  0.78815668854E+02 0.  0.
         11    1    3    3    0    0  0.42833097845E+02  0.10628320664E+03 -0.40826649202E+03  0.42404283132E+03  0.00000000000E+00 0. -1.
        -11    1    3    3    0    0 -0.32881503984E+01  0.21452686784E+02 -0.97660743578E+01  0.23799283847E+02  0.00000000000E+00 0.  1.
          4    1    6    6  502    0 -0.18771648274E+03  0.10037426617E+03  0.92740857497E+02  0.23219245864E+03  0.00000000000E+00 0. -1.
          1    1    5    5  503    0  0.13344841105E+03 -0.13006430169E+03 -0.25111884586E+03  0.31270733239E+03  0.00000000000E+00 0. -1.
         -2    1    5    5    0  503  0.76819351590E+02 -0.17177581358E+03 -0.19227220630E+03  0.26902926277E+03  0.00000000000E+00 0.  1.
         -3    1    6    6    0  502 -0.62096227354E+02  0.73729955674E+02  0.88280760140E+02  0.13071166905E+03  0.00000000000E+00 0.  1.
<mgrwt>
<rscale>  0 0.12149327E+04</rscale>
<asrwt>0</asrwt>
<pdfrwt beam="1">  1        1 0.15945268E+00 0.12149327E+04</pdfrwt>
<pdfrwt beam="2">  1       -1 0.54775450E-01 0.12149327E+04</pdfrwt>
<totfact> 0.47192479E+01</totfact>
</mgrwt>
</event>
<event>
12    1  0.1518126E-007  0.1505329E+04  0.7818608E-02  0.8880917E-01
         -1   -1    0    0    0  501 -0.00000000000E+00  0.00000000000E+00  0.12661196182E+04  0.12661196182E+04  0.00000000000E+00 0.  1.
          1   -1    0    0  501    0  0.00000000000E+00 -0.00000000000E+00 -0.44743322966E+03  0.44743322966E+03  0.00000000000E+00 0. -1.
         23    2    1    2    0    0 -0.46533225233E+03  0.55405599282E+02  0.15188250821E+03  0.50070645005E+03  0.89636863702E+02 0.  0.
        254    2    1    2    0    0  0.46533225233E+03 -0.55405599282E+02  0.66680388032E+03  0.12128463978E+04  0.89820102671E+03 0.  0.
        -24    2    4    4    0    0  0.42614454290E+03  0.17289957576E+03  0.80531084345E+03  0.93081363533E+03  0.79968959037E+02 0.  0.
         24    2    4    4    0    0  0.39187709425E+02 -0.22830517504E+03 -0.13850696312E+03  0.28203276248E+03  0.81849683919E+02 0.  0.
         13    1    3    3    0    0 -0.10740088059E+03 -0.11865669070E+01  0.72931023159E+02  0.12982792932E+03  0.00000000000E+00 0.  1.
        -13    1    3    3    0    0 -0.35793137173E+03  0.56592166189E+02  0.78951485050E+02  0.37087852073E+03  0.00000000000E+00 0. -1.
          2    1    6    6  502    0  0.29129499992E+02 -0.29045136778E+02 -0.47225238528E+02  0.62628834368E+02  0.00000000000E+00 0. -1.
          3    1    5    5  503    0  0.17332095211E+02  0.14295301228E+02  0.15035436286E+02  0.27033710547E+02  0.00000000000E+00 0. -1.
         -4    1    5    5    0  503  0.40881244769E+03  0.15860427453E+03  0.79027540716E+03  0.90377992479E+03  0.00000000000E+00 0.  1.
         -1    1    6    6    0  502  0.10058209433E+02 -0.19926003826E+03 -0.91281724593E+02  0.21940392811E+03  0.00000000000E+00 0.  1.
<mgrwt>
<rscale>  0 0.15053292E+04</rscale>
<asrwt>0</asrwt>
<pdfrwt beam="1">  1        1 0.68835882E-01 0.15053292E+04</pdfrwt>
<pdfrwt beam="2">  1       -1 0.19478763E+00 0.15053292E+04</pdfrwt>
<totfact> 0.81604073E+00</totfact>
</mgrwt>
</event>
<event>
12    1  0.1518126E-007  0.1630939E+04  0.7818608E-02  0.8801763E-01
         -1   -1    0    0    0  501 -0.00000000000E+00  0.00000000000E+00  0.27541368721E+03  0.27541368721E+03  0.00000000000E+00 0.  1.
          1   -1    0    0  501    0  0.00000000000E+00 -0.00000000000E+00 -0.24145164332E+04  0.24145164332E+04  0.00000000000E+00 0. -1.
         23    2    1    2    0    0 -0.20210508298E+03  0.40925351059E+03 -0.13013302888E+04  0.13817765615E+04  0.86666284112E+02 0.  0.
        254    2    1    2    0    0  0.20210508298E+03 -0.40925351059E+03 -0.83777245716E+03  0.13081535589E+04  0.89502410202E+03 0.  0.
        -24    2    4    4    0    0 -0.20784037347E+02  0.84479047757E+02 -0.74341006672E+03  0.75273860807E+03  0.79926210071E+02 0.  0.
         24    2    4    4    0    0  0.22288912033E+03 -0.49373255835E+03 -0.94362390432E+02  0.55541495083E+03  0.78295004580E+02 0.  0.
         11    1    3    3    0    0 -0.15514893196E+03  0.31220194225E+03 -0.10921944748E+04  0.11464859418E+04  0.00000000000E+00 0. -1.
        -11    1    3    3    0    0 -0.46956151024E+02  0.97051568338E+02 -0.20913581397E+03  0.23529061970E+03  0.00000000000E+00 0.  1.
          2    1    6    6  502    0  0.16741544815E+03 -0.43414920121E+03 -0.70810986675E+02  0.47066724660E+03  0.00000000000E+00 0. -1.
          1    1    5    5  503    0 -0.11651471926E+02  0.21304829730E+01 -0.37246048690E+03  0.37264877574E+03  0.00000000000E+00 0. -1.
         -2    1    5    5    0  503 -0.91325654208E+01  0.82348564784E+02 -0.37094957982E+03  0.38008983233E+03  0.00000000000E+00 0.  1.
         -1    1    6    6    0  502  0.55473672180E+02 -0.59583357144E+02 -0.23551403757E+02  0.84747704232E+02  0.00000000000E+00 0.  1.
<mgrwt>
<rscale>  0 0.16309395E+04</rscale>
<asrwt>0</asrwt>
<pdfrwt beam="1">  1        1 0.37146407E+00 0.16309395E+04</pdfrwt>
<pdfrwt beam="2">  1       -1 0.42371336E-01 0.16309395E+04</pdfrwt>
<totfact> 0.81517184E+00</totfact>
</mgrwt>
</event>
<event>
12    1  0.1518126E-007  0.1856468E+04  0.7818608E-02  0.8676834E-01
         -1   -1    0    0    0  501 -0.00000000000E+00  0.00000000000E+00  0.60680774759E+03  0.60680774759E+03  0.00000000000E+00 0.  1.
          1   -1    0    0  501    0  0.00000000000E+00 -0.00000000000E+00 -0.14199193830E+04  0.14199193830E+04  0.00000000000E+00 0. -1.
         23    2    1    2    0    0  0.42784769670E+03  0.42711701566E+03  0.82343091319E+02  0.61704437434E+03  0.92091142767E+02 0.  0.
        254    2    1    2    0    0 -0.42784769670E+03 -0.42711701566E+03 -0.89545472674E+03  0.14096827563E+04  0.90547430058E+03 0.  0.
        -24    2    4    4    0    0 -0.41418900618E+03  0.11452628708E+03 -0.10981706713E+03  0.45198084589E+03  0.86937296673E+02 0.  0.
         24    2    4    4    0    0 -0.13658690528E+02 -0.54164330273E+03 -0.78563765961E+03  0.95770191036E+03  0.80014934232E+02 0.  0.
         11    1    3    3    0    0  0.32354356949E+03  0.32506001571E+03  0.10188473861E+03  0.46981374515E+03  0.00000000000E+00 0.  1.
        -11    1    3    3    0    0  0.10430412721E+03  0.10205699995E+03 -0.19541647290E+02  0.14723062919E+03  0.00000000000E+00 0. -1.
          4    1    6    6  502    0 -0.93413967577E+01 -0.41107904715E+03 -0.65193491065E+03  0.77077387892E+03  0.00000000000E+00 0. -1.
          1    1    5    5  503    0 -0.29388083035E+03  0.11969655094E+03 -0.90899536801E+02  0.33008473540E+03  0.00000000000E+00 0. -1.
         -2    1    5    5    0  503 -0.12030817583E+03 -0.51702638666E+01 -0.18917530328E+02  0.12189611049E+03  0.00000000000E+00 0.  1.
         -3    1    6    6    0  502 -0.43172937701E+01 -0.13056425558E+03 -0.13370274896E+03  0.18692803145E+03  0.00000000000E+00 0.  1.
<mgrwt>
<rscale>  0 0.18564677E+04</rscale>
<asrwt>0</asrwt>
<pdfrwt beam="1">  1        1 0.21844914E+00 0.18564677E+04</pdfrwt>
<pdfrwt beam="2">  1       -1 0.93355038E-01 0.18564677E+04</pdfrwt>
<totfact> 0.77793021E+00</totfact>
</mgrwt>
</event>
<event>
12    1  0.1518126E-007  0.2034626E+04  0.7818608E-02  0.8590601E-01
         -1   -1    0    0    0  501 -0.00000000000E+00  0.00000000000E+00  0.46095905255E+03  0.46095905255E+03  0.00000000000E+00 0.  1.
          1   -1    0    0  501    0  0.00000000000E+00 -0.00000000000E+00 -0.22451575394E+04  0.22451575394E+04  0.00000000000E+00 0. -1.
         23    2    1    2    0    0 -0.33118501343E+03  0.72908482350E+03 -0.50631088719E+03  0.95175050109E+03  0.90719947433E+02 0.  0.
        254    2    1    2    0    0  0.33118501343E+03 -0.72908482350E+03 -0.12778875997E+04  0.17543660909E+04  0.89641255593E+03 0.  0.
        -24    2    4    4    0    0  0.25436298178E+03 -0.36346714018E+03 -0.32968056777E+02  0.45211317978E+03  0.80687954929E+02 0.  0.
         24    2    4    4    0    0  0.76822031646E+02 -0.36561768332E+03 -0.12449195429E+04  0.13022529111E+04  0.80374506272E+02 0.  0.
         11    1    3    3    0    0 -0.94613272398E+02  0.25622415028E+03 -0.21834239548E+03  0.34967969366E+03  0.00000000000E+00 0. -1.
        -11    1    3    3    0    0 -0.23657174103E+03  0.47286067322E+03 -0.28796849171E+03  0.60207080742E+03  0.00000000000E+00 0.  1.
          4    1    6    6  502    0  0.28663697986E+02 -0.24168637893E+03 -0.69130317583E+03  0.73289425858E+03  0.00000000000E+00 0. -1.
          3    1    5    5  503    0  0.15921029419E+03 -0.26251106460E+03 -0.54206160240E+02  0.31176639431E+03  0.00000000000E+00 0. -1.
         -4    1    5    5    0  503  0.95152687593E+02 -0.10095607558E+03  0.21238103463E+02  0.14034678547E+03  0.00000000000E+00 0.  1.
         -3    1    6    6    0  502  0.48158333659E+02 -0.12393130439E+03 -0.55361636709E+03  0.56935865254E+03  0.00000000000E+00 0.  1.
<mgrwt>
<rscale>  0 0.20346260E+04</rscale>
<asrwt>0</asrwt>
<pdfrwt beam="1">  1        1 0.34540885E+00 0.20346260E+04</pdfrwt>
<pdfrwt beam="2">  1       -1 0.70916777E-01 0.20346260E+04</pdfrwt>
<totfact> 0.37700090E+00</totfact>
</mgrwt>
</event>
<event>
12    1  0.1518126E-007  0.2579205E+04  0.7818608E-02  0.8375299E-01
          2   -1    0    0  501    0  0.00000000000E+00  0.00000000000E+00  0.47832525497E+03  0.47832525497E+03  0.00000000000E+00 0. -1.
         -2   -1    0    0    0  501 -0.00000000000E+00 -0.00000000000E+00 -0.34768707095E+04  0.34768707095E+04  0.00000000000E+00 0.  1.
         23    2    1    2    0    0  0.37611092964E+03  0.71378181081E+03 -0.10376529770E+03  0.81811000252E+03  0.87136871529E+02 0.  0.
        254    2    1    2    0    0 -0.37611092964E+03 -0.71378181081E+03 -0.28947801568E+04  0.31370859619E+04  0.90034008657E+03 0.  0.
        -24    2    4    4    0    0  0.26153040289E+03 -0.10591462583E+03 -0.10659251872E+04  0.11055379946E+04  0.80010582493E+02 0.  0.
         24    2    4    4    0    0 -0.63764133253E+03 -0.60786718498E+03 -0.18288549696E+04  0.20315479673E+04  0.79922837836E+02 0.  0.
         11    1    3    3    0    0  0.35984716477E+03  0.70306472718E+03 -0.11051069814E+03  0.79749771599E+03  0.00000000000E+00 0. -1.
        -11    1    3    3    0    0  0.16263764865E+02  0.10717083624E+02  0.67454004320E+01  0.20612286529E+02  0.00000000000E+00 0.  1.
          2    1    6    6  502    0 -0.28841687560E+03 -0.22937554698E+03 -0.81269887720E+03  0.89234348806E+03  0.00000000000E+00 0. -1.
          1    1    5    5  503    0  0.23469744948E+02  0.37943835985E+01 -0.38898582826E+02  0.45588661098E+02  0.00000000000E+00 0. -1.
         -2    1    5    5    0  503  0.23806065794E+03 -0.10970900943E+03 -0.10270266043E+04  0.10599493335E+04  0.00000000000E+00 0.  1.
         -1    1    6    6    0  502 -0.34922445693E+03 -0.37849163800E+03 -0.10161560924E+04  0.11392044792E+04  0.00000000000E+00 0.  1.
<mgrwt>
<rscale>  0 0.25792054E+04</rscale>
<asrwt>0</asrwt>
<pdfrwt beam="1">  1        2 0.73588500E-01 0.25792054E+04</pdfrwt>
<pdfrwt beam="2">  1       -2 0.53490319E+00 0.25792054E+04</pdfrwt>
<totfact> 0.58546797E-02</totfact>
</mgrwt>
</event>
<event>
12    1  0.1518126E-007  0.1866459E+04  0.7818608E-02  0.8671735E-01
          1   -1    0    0  501    0  0.00000000000E+00  0.00000000000E+00  0.37624381954E+04  0.37624381954E+04  0.00000000000E+00 0. -1.
         -1   -1    0    0    0  501 -0.00000000000E+00 -0.00000000000E+00 -0.23147675028E+03  0.23147675028E+03  0.00000000000E+00 0.  1.
         23    2    1    2    0    0  0.67213889474E+03 -0.22282269014E+02  0.18985039226E+04  0.20161464935E+04  0.90897447176E+02 0.  0.
        254    2    1    2    0    0 -0.67213889474E+03  0.22282269014E+02  0.16324575225E+04  0.19777684521E+04  0.89128182646E+03 0.  0.
        -24    2    4    4    0    0  0.45078262390E+02  0.15054810623E+03 -0.12773786684E+02  0.17666397681E+03  0.79688198930E+02 0.  0.
         24    2    4    4    0    0 -0.71721715713E+03 -0.12826583721E+03  0.16452313092E+04  0.18011044753E+04  0.79615920783E+02 0.  0.
         13    1    3    3    0    0  0.13231371483E+03 -0.15369169944E+02  0.48806973088E+03  0.50592014461E+03  0.00000000000E+00 0. -1.
        -13    1    3    3    0    0  0.53982517992E+03 -0.69130990698E+01  0.14104341917E+04  0.15102263489E+04  0.00000000000E+00 0.  1.
          2    1    6    6  502    0 -0.76371030367E+02 -0.13468234131E+02  0.24366520098E+03  0.25570814961E+03  0.00000000000E+00 0. -1.
          3    1    5    5  503    0 -0.20349536879E+02  0.14793871363E+02  0.20282574369E+01  0.25240366664E+02  0.00000000000E+00 0. -1.
         -4    1    5    5    0  503  0.65427799269E+02  0.13575423486E+03 -0.14802044121E+02  0.15142361015E+03  0.00000000000E+00 0.  1.
         -1    1    6    6    0  502 -0.64084612677E+03 -0.11479760308E+03  0.14015661082E+04  0.15453963257E+04  0.00000000000E+00 0.  1.
<mgrwt>
<rscale>  0 0.18664586E+04</rscale>
<asrwt>0</asrwt>
<pdfrwt beam="1">  1        1 0.57883660E+00 0.18664586E+04</pdfrwt>
<pdfrwt beam="2">  1       -1 0.35611810E-01 0.18664586E+04</pdfrwt>
<totfact> 0.10899101E+00</totfact>
</mgrwt>
</event>
<event>
12    1  0.1518126E-007  0.2493009E+04  0.7818608E-02  0.8405480E-01
          1   -1    0    0  501    0  0.00000000000E+00  0.00000000000E+00  0.29054568989E+04  0.29054568989E+04  0.00000000000E+00 0. -1.
         -1   -1    0    0    0  501 -0.00000000000E+00 -0.00000000000E+00 -0.53477782744E+03  0.53477782744E+03  0.00000000000E+00 0.  1.
         23    2    1    2    0    0  0.45214942422E+03  0.18244680876E+03  0.23520373473E+04  0.24037541356E+04  0.90710094429E+02 0.  0.
        254    2    1    2    0    0 -0.45214942422E+03 -0.18244680876E+03  0.18641724165E+02  0.10364805908E+04  0.91444986815E+03 0.  0.
        -24    2    4    4    0    0  0.66987848225E+02  0.47326896484E+02  0.35435991969E+03  0.37196920724E+03  0.77864828490E+02 0.  0.
         24    2    4    4    0    0 -0.51913727245E+03 -0.22977370524E+03 -0.33571819552E+03  0.66451138355E+03  0.81050655762E+02 0.  0.
         11    1    3    3    0    0  0.13816716484E+03  0.13861204522E+02  0.71823157092E+03  0.73153187757E+03  0.00000000000E+00 0.  1.
        -11    1    3    3    0    0  0.31398225938E+03  0.16858560423E+03  0.16338057764E+04  0.16722222580E+04  0.00000000000E+00 0. -1.
          2    1    6    6  502    0 -0.91430896007E+02 -0.56058100253E+02 -0.97919962438E+02  0.14522547432E+03  0.00000000000E+00 0. -1.
          1    1    5    5  503    0 -0.51788681902E+01 -0.11809083901E+02  0.10386963774E+03  0.10466698038E+03  0.00000000000E+00 0. -1.
         -2    1    5    5    0  503  0.72166716415E+02  0.59135980385E+02  0.25049028195E+03  0.26730222686E+03  0.00000000000E+00 0.  1.
         -1    1    6    6    0  502 -0.42770637644E+03 -0.17371560499E+03 -0.23779823309E+03  0.51928590923E+03  0.00000000000E+00 0.  1.
<mgrwt>
<rscale>  0 0.24930094E+04</rscale>
<asrwt>0</asrwt>
<pdfrwt beam="1">  1        1 0.44699336E+00 0.24930094E+04</pdfrwt>
<pdfrwt beam="2">  1       -1 0.82273513E-01 0.24930094E+04</pdfrwt>
<totfact> 0.91416383E-01</totfact>
</mgrwt>
</event>
<event>
12    1  0.1518126E-007  0.1860667E+04  0.7818608E-02  0.8674686E-01
          1   -1    0    0  501    0  0.00000000000E+00  0.00000000000E+00  0.24116711999E+04  0.24116711999E+04  0.00000000000E+00 0. -1.
         -1   -1    0    0    0  501 -0.00000000000E+00 -0.00000000000E+00 -0.35888835595E+03  0.35888835595E+03  0.00000000000E+00 0.  1.
         23    2    1    2    0    0 -0.50614340769E+02  0.64832170415E+03  0.12050676432E+04  0.13729268710E+04  0.99284060914E+02 0.  0.
        254    2    1    2    0    0  0.50614340769E+02 -0.64832170415E+03  0.84771520071E+03  0.13976326848E+04  0.90104007495E+03 0.  0.
        -24    2    4    4    0    0  0.18086802886E+03 -0.79342403341E+03  0.85949511152E+03  0.11862848553E+04  0.79403845002E+02 0.  0.
         24    2    4    4    0    0 -0.13025368809E+03  0.14510232925E+03 -0.11779910814E+02  0.21134782952E+03  0.80674838249E+02 0.  0.
         11    1    3    3    0    0 -0.28183341332E+02  0.36714941025E+03  0.57784281409E+03  0.68519727668E+03  0.00000000000E+00 0.  1.
        -11    1    3    3    0    0 -0.22430999437E+02  0.28117229390E+03  0.62722482915E+03  0.68772959431E+03  0.00000000000E+00 0. -1.
          2    1    6    6  502    0 -0.11629088761E+03  0.15280288607E+03 -0.86341025977E+00  0.19202353504E+03  0.00000000000E+00 0. -1.
          3    1    5    5  503    0  0.14455663560E+03 -0.53454709227E+03  0.53979060549E+03  0.77331178223E+03  0.00000000000E+00 0. -1.
         -2    1    5    5    0  503  0.36311393260E+02 -0.25887694113E+03  0.31970450603E+03  0.41297307310E+03  0.00000000000E+00 0.  1.
         -1    1    6    6    0  502 -0.13962800481E+02 -0.77005568182E+01 -0.10916500554E+02  0.19324294474E+02  0.00000000000E+00 0.  1.
<mgrwt>
<rscale>  0 0.18606673E+04</rscale>
<asrwt>0</asrwt>
<pdfrwt beam="1">  1        1 0.37102633E+00 0.18606673E+04</pdfrwt>
<pdfrwt beam="2">  1       -1 0.55213595E-01 0.18606673E+04</pdfrwt>
<totfact> 0.48577946E+00</totfact>
</mgrwt>
</event>
<event>
12    1  0.1518126E-007  0.1065364E+04  0.7818608E-02  0.9239624E-01
          2   -1    0    0  501    0  0.00000000000E+00  0.00000000000E+00  0.53324109692E+03  0.53324109692E+03  0.00000000000E+00 0. -1.
         -2   -1    0    0    0  501 -0.00000000000E+00 -0.00000000000E+00 -0.53212362111E+03  0.53212362111E+03  0.00000000000E+00 0.  1.
         23    2    1    2    0    0 -0.10024368899E+03  0.43459873066E+02 -0.64052642573E+02  0.15481934789E+03  0.89043425998E+02 0.  0.
        254    2    1    2    0    0  0.10024368899E+03 -0.43459873066E+02  0.65170118379E+02  0.91054537014E+03  0.90161420186E+03 0.  0.
        -24    2    4    4    0    0  0.30939476834E+03  0.56841308615E+02 -0.31902441915E+03  0.45498832389E+03  0.79257414966E+02 0.  0.
         24    2    4    4    0    0 -0.20915107935E+03 -0.10030118168E+03  0.38419453753E+03  0.45555704624E+03  0.78244991370E+02 0.  0.
         13    1    3    3    0    0 -0.79892074654E+02  0.22558327512E+01 -0.72716961225E+02  0.10805363864E+03  0.00000000000E+00 0.  1.
        -13    1    3    3    0    0 -0.20351614331E+02  0.41204040315E+02  0.86643186519E+01  0.46765709252E+02  0.00000000000E+00 0. -1.
          2    1    6    6  502    0 -0.18009339274E+02 -0.10266781040E+02  0.95979546743E+02  0.98192751703E+02  0.00000000000E+00 0. -1.
          1    1    5    5  503    0  0.51416708453E+02  0.25527374408E+02 -0.25090499098E+02  0.62648686318E+02  0.00000000000E+00 0. -1.
         -2    1    5    5    0  503  0.25797805988E+03  0.31313934207E+02 -0.29393392005E+03  0.39233963758E+03  0.00000000000E+00 0.  1.
         -1    1    6    6    0  502 -0.19114174008E+03 -0.90034400641E+02  0.28821499079E+03  0.35736429454E+03  0.00000000000E+00 0.  1.
<mgrwt>
<rscale>  0 0.10653641E+04</rscale>
<asrwt>0</asrwt>
<pdfrwt beam="1">  1        2 0.82037092E-01 0.10653641E+04</pdfrwt>
<pdfrwt beam="2">  1       -2 0.81865173E-01 0.10653641E+04</pdfrwt>
<totfact> 0.74597686E+01</totfact>
</mgrwt>
</event>
<event>
12    1  0.2054947E-007  0.2163542E+04  0.7818608E-02  0.8533758E-01
         -1   -1    0    0    0  501 -0.00000000000E+00  0.00000000000E+00  0.88560276289E+03  0.88560276289E+03  0.00000000000E+00 0.  1.
          1   -1    0    0  501    0  0.00000000000E+00 -0.00000000000E+00 -0.13213924854E+04  0.13213924854E+04  0.00000000000E+00 0. -1.
         23    2    1    2    0    0 -0.69628439584E+03  0.35641850112E+02  0.37427650348E+03  0.79582532985E+03  0.84692108198E+02 0.  0.
        254    2    1    2    0    0  0.69628439584E+03 -0.35641850112E+02 -0.81006622602E+03  0.14111699185E+04  0.92147216283E+03 0.  0.
        -24    2    4    4    0    0  0.58163234442E+03 -0.18381356968E+03 -0.97259478847E+03  0.11508092215E+04  0.79609227903E+02 0.  0.
         24    2    4    4    0    0  0.11465205142E+03  0.14817171957E+03  0.16252856246E+03  0.26036069700E+03  0.79197269862E+02 0.  0.
         13    1    3    3    0    0 -0.11068359352E+02  0.11897286096E+02  0.13173383709E+02  0.20918700570E+02  0.00000000000E+00 0. -1.
        -13    1    3    3    0    0 -0.68521603649E+03  0.23744564016E+02  0.36110311977E+03  0.77490662928E+03  0.00000000000E+00 0.  1.
          4    1    6    6  502    0  0.21821098830E+01  0.53755685261E+02  0.63581796467E+02  0.83289135807E+02  0.00000000000E+00 0. -1.
          1    1    5    5  503    0  0.34991518769E+03 -0.10927471090E+03 -0.50992898158E+03  0.62802003731E+03  0.00000000000E+00 0. -1.
         -2    1    5    5    0  503  0.23171715673E+03 -0.74538858787E+02 -0.46266580690E+03  0.52278918415E+03  0.00000000000E+00 0.  1.
         -3    1    6    6    0  502  0.11246994154E+03  0.94416034310E+02  0.98946765989E+02  0.17707156120E+03  0.00000000000E+00 0.  1.
<mgrwt>
<rscale>  0 0.21635423E+04</rscale>
<asrwt>0</asrwt>
<pdfrwt beam="1">  1        1 0.20329115E+00 0.21635423E+04</pdfrwt>
<pdfrwt beam="2">  1       -1 0.13624658E+00 0.21635423E+04</pdfrwt>
<totfact> 0.35935601E+00</totfact>
</mgrwt>
</event>
<event>
12    1  0.1518126E-007  0.1333855E+04  0.7818608E-02  0.9003141E-01
          2   -1    0    0  501    0  0.00000000000E+00  0.00000000000E+00  0.15332698380E+04  0.15332698380E+04  0.00000000000E+00 0. -1.
         -2   -1    0    0    0  501 -0.00000000000E+00 -0.00000000000E+00 -0.29009380569E+03  0.29009380569E+03  0.00000000000E+00 0.  1.
         23    2    1    2    0    0 -0.23779610917E+03 -0.17755417072E+03  0.77255453646E+02  0.31981130305E+03  0.90765584709E+02 0.  0.
        254    2    1    2    0    0  0.23779610917E+03  0.17755417072E+03  0.11659205787E+04  0.15035523407E+04  0.90179064769E+03 0.  0.
        -24    2    4    4    0    0 -0.49768945252E+01 -0.26995745799E+03  0.85810569141E+03  0.90332444458E+03  0.82145455967E+02 0.  0.
         24    2    4    4    0    0  0.24277300369E+03  0.44751162871E+03  0.30781488730E+03  0.60022789611E+03  0.79486686182E+02 0.  0.
         11    1    3    3    0    0 -0.11219975598E+03 -0.53009113156E+02  0.70684068709E+02  0.14281102509E+03  0.00000000000E+00 0.  1.
        -11    1    3    3    0    0 -0.12559635319E+03 -0.12454505756E+03  0.65713849369E+01  0.17700027796E+03  0.00000000000E+00 0. -1.
          4    1    6    6  502    0  0.24536486960E+03  0.43813981540E+03  0.31015607710E+03  0.59022640506E+03  0.00000000000E+00 0. -1.
          1    1    5    5  503    0  0.14294729858E+02 -0.25919968613E+03  0.77410005807E+03  0.81646782943E+03  0.00000000000E+00 0. -1.
         -2    1    5    5    0  503 -0.19271624383E+02 -0.10757771861E+02  0.84005633339E+02  0.86856615145E+02  0.00000000000E+00 0.  1.
         -3    1    6    6    0  502 -0.25918659059E+01  0.93718133041E+01 -0.23411898024E+01  0.10001491047E+02  0.00000000000E+00 0.  1.
<mgrwt>
<rscale>  0 0.13338547E+04</rscale>
<asrwt>0</asrwt>
<pdfrwt beam="1">  1        2 0.23588766E+00 0.13338547E+04</pdfrwt>
<pdfrwt beam="2">  1       -2 0.44629817E-01 0.13338547E+04</pdfrwt>
<totfact> 0.56583930E+01</totfact>
</mgrwt>
</event>
<event>
12    1  0.1518126E-007  0.1487118E+04  0.7818608E-02  0.8893065E-01
         -1   -1    0    0    0  501 -0.00000000000E+00  0.00000000000E+00  0.32679277511E+03  0.32679277511E+03  0.00000000000E+00 0.  1.
          1   -1    0    0  501    0  0.00000000000E+00 -0.00000000000E+00 -0.16918361964E+04  0.16918361964E+04  0.00000000000E+00 0. -1.
         23    2    1    2    0    0 -0.11637855381E+03 -0.41956417160E+03 -0.60405197871E+03  0.75018152847E+03  0.91189203349E+02 0.  0.
        254    2    1    2    0    0  0.11637855381E+03  0.41956417160E+03 -0.76099144259E+03  0.12684474430E+04  0.91666399417E+03 0.  0.
        -24    2    4    4    0    0 -0.20652920149E+03 -0.15836930620E+03 -0.46384286968E+03  0.53859176965E+03  0.84827698079E+02 0.  0.
         24    2    4    4    0    0  0.32290775530E+03  0.57793347780E+03 -0.29714857291E+03  0.72985567340E+03  0.78201703438E+02 0.  0.
         11    1    3    3    0    0 -0.93280151503E+02 -0.30204034318E+03 -0.49987097255E+03  0.59143938386E+03  0.00000000000E+00 0. -1.
        -11    1    3    3    0    0 -0.23098402304E+02 -0.11752382842E+03 -0.10418100615E+03  0.15874214462E+03  0.00000000000E+00 0.  1.
          4    1    6    6  502    0  0.31379709204E+03  0.51975689437E+03 -0.27949221110E+03  0.66837993707E+03  0.00000000000E+00 0. -1.
          1    1    5    5  503    0 -0.17727359698E+03 -0.95784813441E+02 -0.37849095319E+03  0.42878439841E+03  0.00000000000E+00 0. -1.
         -2    1    5    5    0  503 -0.29255604510E+02 -0.62584492762E+02 -0.85351916497E+02  0.10980737124E+03  0.00000000000E+00 0.  1.
         -3    1    6    6    0  502  0.91106632598E+01  0.58176583432E+02 -0.17656361806E+02  0.61475736328E+02  0.00000000000E+00 0.  1.
<mgrwt>
<rscale>  0 0.14871178E+04</rscale>
<asrwt>0</asrwt>
<pdfrwt beam="1">  1        1 0.26028249E+00 0.14871178E+04</pdfrwt>
<pdfrwt beam="2">  1       -1 0.50275812E-01 0.14871178E+04</pdfrwt>
<totfact> 0.18569455E+01</totfact>
</mgrwt>
</event>
<event>
12    1  0.1518126E-007  0.1462807E+04  0.7818608E-02  0.8909570E-01
          2   -1    0    0  501    0  0.00000000000E+00  0.00000000000E+00  0.68073104077E+03  0.68073104077E+03  0.00000000000E+00 0. -1.
         -2   -1    0    0    0  501 -0.00000000000E+00 -0.00000000000E+00 -0.78584795746E+03  0.78584795746E+03  0.00000000000E+00 0.  1.
         23    2    1    2    0    0 -0.77523922856E+02  0.81992003311E+02 -0.47629550184E+03  0.49785905548E+03  0.90959259187E+02 0.  0.
        254    2    1    2    0    0  0.77523922856E+02 -0.81992003311E+02  0.37117858516E+03  0.96871994275E+03  0.88764415065E+03 0.  0.
        -24    2    4    4    0    0 -0.18561084541E+02 -0.36754087660E+03  0.50613778934E+03  0.63084659437E+03  0.79756842948E+02 0.  0.
         24    2    4    4    0    0  0.96085007397E+02  0.28554887329E+03 -0.13495920418E+03  0.33787334838E+03  0.71930001151E+02 0.  0.
         13    1    3    3    0    0 -0.73810772018E+02  0.97547349188E+02 -0.45541808525E+03  0.47156033312E+03  0.00000000000E+00 0.  1.
        -13    1    3    3    0    0 -0.37131508377E+01 -0.15555345877E+02 -0.20877416594E+02  0.26298722367E+02  0.00000000000E+00 0. -1.
          4    1    6    6  502    0  0.95617971849E+01  0.44564729463E+02 -0.51032369708E+02  0.68423284308E+02  0.00000000000E+00 0. -1.
          3    1    5    5  503    0  0.19102990327E+02 -0.66122778515E+02  0.61166819216E+02  0.92078911000E+02  0.00000000000E+00 0. -1.
         -4    1    5    5    0  503 -0.37664074868E+02 -0.30141809809E+03  0.44497097013E+03  0.53876768337E+03  0.00000000000E+00 0.  1.
         -3    1    6    6    0  502  0.86523210212E+02  0.24098414383E+03 -0.83926834477E+02  0.26945006407E+03  0.00000000000E+00 0.  1.
<mgrwt>
<rscale>  0 0.14628070E+04</rscale>
<asrwt>0</asrwt>
<pdfrwt beam="1">  1        2 0.10472785E+00 0.14628070E+04</pdfrwt>
<pdfrwt beam="2">  1       -2 0.12089968E+00 0.14628070E+04</pdfrwt>
<totfact> 0.21429805E+01</totfact>
</mgrwt>
</event>
<event>
12    1  0.2160054E-007  0.1644194E+04  0.7818608E-02  0.8793849E-01
         -2   -1    0    0    0  501 -0.00000000000E+00  0.00000000000E+00  0.32665836707E+03  0.32665836707E+03  0.00000000000E+00 0.  1.
          2   -1    0    0  501    0  0.00000000000E+00 -0.00000000000E+00 -0.20689616981E+04  0.20689616981E+04  0.00000000000E+00 0. -1.
         23    2    1    2    0    0 -0.21866223862E+03 -0.75467638635E+02 -0.13734493127E+04  0.13959334896E+04  0.93588213004E+02 0.  0.
        254    2    1    2    0    0  0.21866223862E+03  0.75467638635E+02 -0.36885401833E+03  0.99968657562E+03  0.89989522921E+03 0.  0.
        -24    2    4    4    0    0  0.38115159188E+03 -0.23839608573E+03  0.34179566240E+02  0.45794341399E+03  0.80216569276E+02 0.  0.
         24    2    4    4    0    0 -0.16248935325E+03  0.31386372436E+03 -0.40303358457E+03  0.54174316163E+03  0.78334893181E+02 0.  0.
         11    1    3    3    0    0 -0.18531388671E+03 -0.94802991300E+02 -0.10713098313E+04  0.10913448577E+04  0.00000000000E+00 0. -1.
        -11    1    3    3    0    0 -0.33348351909E+02  0.19335352665E+02 -0.30213948140E+03  0.30458863186E+03  0.00000000000E+00 0.  1.
          4    1    6    6  502    0  0.50697558458E+01  0.14896194775E+02 -0.37522455168E+02  0.40688249962E+02  0.00000000000E+00 0. -1.
          1    1    5    5  503    0  0.57625761074E+02 -0.58519017355E+01  0.10020566890E+02  0.58782521672E+02  0.00000000000E+00 0. -1.
         -2    1    5    5    0  503  0.32352583080E+03 -0.23254418399E+03  0.24158999350E+02  0.39916089232E+03  0.00000000000E+00 0.  1.
         -3    1    6    6    0  502 -0.16755910910E+03  0.29896752959E+03 -0.36551112940E+03  0.50105491167E+03  0.00000000000E+00 0.  1.
<mgrwt>
<rscale>  0 0.16441942E+04</rscale>
<asrwt>0</asrwt>
<pdfrwt beam="1">  1        2 0.31830180E+00 0.16441942E+04</pdfrwt>
<pdfrwt beam="2">  1       -2 0.50255133E-01 0.16441942E+04</pdfrwt>
<totfact> 0.21893955E+01</totfact>
</mgrwt>
</event>
<event>
12    1  0.1518126E-007  0.2345629E+04  0.7818608E-02  0.8460144E-01
          2   -1    0    0  501    0  0.00000000000E+00  0.00000000000E+00  0.38392908042E+04  0.38392908042E+04  0.00000000000E+00 0. -1.
         -2   -1    0    0    0  501 -0.00000000000E+00 -0.00000000000E+00 -0.35826778268E+03  0.35826778268E+03  0.00000000000E+00 0.  1.
         23    2    1    2    0    0  0.96880587491E+03 -0.12594753413E+03  0.11234143027E+04  0.14916148858E+04  0.91693333176E+02 0.  0.
        254    2    1    2    0    0 -0.96880587491E+03  0.12594753413E+03  0.23576087188E+04  0.27059437011E+04  0.89964706292E+03 0.  0.
        -24    2    4    4    0    0 -0.10007774551E+04 -0.11583098319E+03  0.14838816887E+04  0.17953313606E+04  0.79608399051E+02 0.  0.
         24    2    4    4    0    0  0.31971580191E+02  0.24177851732E+03  0.87372703014E+03  0.91061234045E+03  0.79604510003E+02 0.  0.
         11    1    3    3    0    0  0.21511733048E+03 -0.52875633143E+02  0.21117888300E+03  0.30605198755E+03  0.00000000000E+00 0. -1.
        -11    1    3    3    0    0  0.75368854443E+03 -0.73071900986E+02  0.91223541969E+03  0.11855628982E+04  0.00000000000E+00 0.  1.
          4    1    6    6  502    0  0.15762705668E+02  0.49512169623E+02  0.94405354524E+02  0.10776033033E+03  0.00000000000E+00 0. -1.
          1    1    5    5  503    0 -0.21451546702E+03 -0.80943771605E+01  0.36772740994E+03  0.42580024959E+03  0.00000000000E+00 0. -1.
         -2    1    5    5    0  503 -0.78626198808E+03 -0.10773660603E+03  0.11161542787E+04  0.13695311110E+04  0.00000000000E+00 0.  1.
         -3    1    6    6    0  502  0.16208874522E+02  0.19226634770E+03  0.77932167562E+03  0.80285201012E+03  0.00000000000E+00 0.  1.
<mgrwt>
<rscale>  0 0.23456293E+04</rscale>
<asrwt>0</asrwt>
<pdfrwt beam="1">  1        2 0.59066009E+00 0.23456293E+04</pdfrwt>
<pdfrwt beam="2">  1       -2 0.55118123E-01 0.23456293E+04</pdfrwt>
<totfact> 0.12864963E+00</totfact>
</mgrwt>
</event>
<event>
12    1  0.1518126E-007  0.1398675E+04  0.7818608E-02  0.8954778E-01
         -1   -1    0    0    0  501 -0.00000000000E+00  0.00000000000E+00  0.42632007779E+03  0.42632007779E+03  0.00000000000E+00 0.  1.
          1   -1    0    0  501    0  0.00000000000E+00 -0.00000000000E+00 -0.11471966424E+04  0.11471966424E+04  0.00000000000E+00 0. -1.
         23    2    1    2    0    0  0.13117464937E+03 -0.81238560929E+02  0.20551298341E+03  0.27266933075E+03  0.91139920784E+02 0.  0.
        254    2    1    2    0    0 -0.13117464937E+03  0.81238560929E+02 -0.92638954807E+03  0.13008473895E+04  0.90011101734E+03 0.  0.
        -24    2    4    4    0    0 -0.45918964525E+03 -0.15726372839E+03 -0.59080616503E+03  0.76889549860E+03  0.81002176244E+02 0.  0.
         24    2    4    4    0    0  0.32801499588E+03  0.23850228931E+03 -0.33558338304E+03  0.53195189089E+03  0.76677426399E+02 0.  0.
         13    1    3    3    0    0  0.58670101612E+02 -0.86810265056E+02  0.10250131742E+03  0.14657667964E+03  0.00000000000E+00 0. -1.
        -13    1    3    3    0    0  0.72504547756E+02  0.55717041264E+01  0.10301166599E+03  0.12609265111E+03  0.00000000000E+00 0.  1.
          2    1    6    6  502    0  0.15038690337E+03  0.72052818257E+02 -0.10776412812E+03  0.19854706403E+03  0.00000000000E+00 0. -1.
          3    1    5    5  503    0 -0.34277928650E+03 -0.83157991990E+02 -0.39817936439E+03  0.53193956152E+03  0.00000000000E+00 0. -1.
         -4    1    5    5    0  503 -0.11641035875E+03 -0.74105736395E+02 -0.19262680064E+03  0.23695593707E+03  0.00000000000E+00 0.  1.
         -1    1    6    6    0  502  0.17762809251E+03  0.16644947106E+03 -0.22781925491E+03  0.33340482686E+03  0.00000000000E+00 0.  1.
<mgrwt>
<rscale>  0 0.13986750E+04</rscale>
<asrwt>0</asrwt>
<pdfrwt beam="1">  1        1 0.17649179E+00 0.13986750E+04</pdfrwt>
<pdfrwt beam="2">  1       -1 0.65587704E-01 0.13986750E+04</pdfrwt>
<totfact> 0.26859177E+01</totfact>
</mgrwt>
</event>
<event>
12    1  0.1518126E-007  0.3160621E+04  0.7818608E-02  0.8199295E-01
          1   -1    0    0  501    0  0.00000000000E+00  0.00000000000E+00  0.26244980345E+04  0.26244980345E+04  0.00000000000E+00 0. -1.
         -1   -1    0    0    0  501 -0.00000000000E+00 -0.00000000000E+00 -0.95156546669E+03  0.95156546669E+03  0.00000000000E+00 0.  1.
         23    2    1    2    0    0  0.10291719903E+04 -0.19495682452E+03 -0.36548158364E+03  0.11130222692E+04  0.89658433100E+02 0.  0.
        254    2    1    2    0    0 -0.10291719903E+04  0.19495682452E+03  0.20384141514E+04  0.24630412320E+04  0.90235065737E+03 0.  0.
        -24    2    4    4    0    0  0.12757168460E+03  0.15040040842E+03  0.22894891601E+03  0.31307709897E+03  0.81883125216E+02 0.  0.
         24    2    4    4    0    0 -0.11567436749E+04  0.44556416103E+02  0.18094652354E+04  0.21499641330E+04  0.90222677788E+02 0.  0.
         13    1    3    3    0    0  0.66364531868E+03 -0.12094703458E+03 -0.18978861204E+03  0.70076601761E+03  0.00000000000E+00 0.  1.
        -13    1    3    3    0    0  0.36552667161E+03 -0.74009789938E+02 -0.17569297160E+03  0.41225625154E+03  0.00000000000E+00 0. -1.
          4    1    6    6  502    0 -0.42449650586E+03  0.20681019841E+02  0.58559628122E+03  0.72356616328E+03  0.00000000000E+00 0. -1.
          1    1    5    5  503    0 -0.11076981604E+02  0.88087604398E+01  0.79202847420E+01  0.16218036020E+02  0.00000000000E+00 0. -1.
         -2    1    5    5    0  503  0.13864866620E+03  0.14159164798E+03  0.22102863126E+03  0.29685906295E+03  0.00000000000E+00 0.  1.
         -3    1    6    6    0  502 -0.73224716903E+03  0.23875396262E+02  0.12238689542E+04  0.14263979698E+04  0.00000000000E+00 0.  1.
<mgrwt>
<rscale>  0 0.31606213E+04</rscale>
<asrwt>0</asrwt>
<pdfrwt beam="1">  1        1 0.40376892E+00 0.31606213E+04</pdfrwt>
<pdfrwt beam="2">  1       -1 0.14639469E+00 0.31606213E+04</pdfrwt>
<totfact> 0.34662494E-01</totfact>
</mgrwt>
</event>
<event>
12    1  0.1518126E-007  0.1536700E+04  0.7818608E-02  0.8860408E-01
          1   -1    0    0  501    0  0.00000000000E+00  0.00000000000E+00  0.76962795290E+03  0.76962795290E+03  0.00000000000E+00 0. -1.
         -1   -1    0    0    0  501 -0.00000000000E+00 -0.00000000000E+00 -0.76707414859E+03  0.76707414859E+03  0.00000000000E+00 0.  1.
         23    2    1    2    0    0  0.28214423265E+03 -0.71955833599E+02  0.40043171581E+03  0.50410733308E+03  0.94845317399E+02 0.  0.
        254    2    1    2    0    0 -0.28214423265E+03  0.71955833599E+02 -0.39787791149E+03  0.10325947684E+04  0.90728281879E+03 0.  0.
        -24    2    4    4    0    0 -0.50065954913E+02  0.45914033841E+03 -0.84105798775E+02  0.47713290518E+03  0.85238334236E+02 0.  0.
         24    2    4    4    0    0 -0.23207827774E+03 -0.38718450481E+03 -0.31377211272E+03  0.55546186322E+03  0.79452973569E+02 0.  0.
         13    1    3    3    0    0  0.45945396958E+02 -0.50968872163E+02  0.10203258123E+03  0.12296118519E+03  0.00000000000E+00 0.  1.
        -13    1    3    3    0    0  0.23619883570E+03 -0.20986961436E+02  0.29839913458E+03  0.38114614789E+03  0.00000000000E+00 0. -1.
          4    1    6    6  502    0 -0.19106044759E+03 -0.24704952113E+03 -0.21107011383E+03  0.37694582299E+03  0.00000000000E+00 0. -1.
          3    1    5    5  503    0  0.20397713651E+02  0.20100021036E+03 -0.39438599813E+02  0.20584594832E+03  0.00000000000E+00 0. -1.
         -4    1    5    5    0  503 -0.70463668565E+02  0.25814012805E+03 -0.44667198962E+02  0.27128695686E+03  0.00000000000E+00 0.  1.
         -3    1    6    6    0  502 -0.41017830155E+02 -0.14013498368E+03 -0.10270199889E+03  0.17851604023E+03  0.00000000000E+00 0.  1.
<mgrwt>
<rscale>  0 0.15367000E+04</rscale>
<asrwt>0</asrwt>
<pdfrwt beam="1">  1        1 0.11840430E+00 0.15367000E+04</pdfrwt>
<pdfrwt beam="2">  1       -1 0.11801141E+00 0.15367000E+04</pdfrwt>
<totfact> 0.14632079E+01</totfact>
</mgrwt>
</event>
<event>
12    1  0.1518126E-007  0.1319622E+04  0.7818608E-02  0.9014148E-01
          2   -1    0    0  501    0  0.00000000000E+00  0.00000000000E+00  0.26884580747E+04  0.26884580747E+04  0.00000000000E+00 0. -1.
         -2   -1    0    0    0  501 -0.00000000000E+00 -0.00000000000E+00 -0.16193321022E+03  0.16193321022E+03  0.00000000000E+00 0.  1.
         23    2    1    2    0    0 -0.25364137727E+03 -0.16263635409E+03  0.34743019573E+03  0.46880210720E+03  0.91011773285E+02 0.  0.
        254    2    1    2    0    0  0.25364137727E+03  0.16263635409E+03  0.21790946688E+04  0.23815891777E+04  0.91253980960E+03 0.  0.
        -24    2    4    4    0    0  0.72723829315E+02 -0.33571142236E+03  0.45514324786E+03  0.57577851490E+03  0.79841140314E+02 0.  0.
         24    2    4    4    0    0  0.18091754796E+03  0.49834777645E+03  0.17239514209E+04  0.18058106628E+04  0.88667823511E+02 0.  0.
         11    1    3    3    0    0 -0.25974068010E+03 -0.15130744729E+03  0.34044895143E+03  0.45416368529E+03  0.00000000000E+00 0.  1.
        -11    1    3    3    0    0  0.60993028275E+01 -0.11328906796E+02  0.69812443033E+01  0.14638421916E+02  0.00000000000E+00 0. -1.
          4    1    6    6  502    0  0.13711059321E+03  0.43130455427E+03  0.15413396706E+04  0.16064093231E+04  0.00000000000E+00 0. -1.
          3    1    5    5  503    0  0.16066210269E+02 -0.14773314822E+03  0.13809182141E+03  0.20286093102E+03  0.00000000000E+00 0. -1.
         -4    1    5    5    0  503  0.56657619046E+02 -0.18797827414E+03  0.31705142646E+03  0.37291758388E+03  0.00000000000E+00 0.  1.
         -3    1    6    6    0  502  0.43806954750E+02  0.67043222179E+02  0.18261175034E+03  0.19940133973E+03  0.00000000000E+00 0.  1.
<mgrwt>
<rscale>  0 0.13196221E+04</rscale>
<asrwt>0</asrwt>
<pdfrwt beam="1">  1        2 0.41360890E+00 0.13196221E+04</pdfrwt>
<pdfrwt beam="2">  1       -2 0.24912804E-01 0.13196221E+04</pdfrwt>
<totfact> 0.38380376E+01</totfact>
</mgrwt>
</event>
<event>
12    1  0.1518126E-007  0.1591260E+04  0.7818608E-02  0.8825935E-01
         -2   -1    0    0    0  501 -0.00000000000E+00  0.00000000000E+00  0.29888436028E+04  0.29888436028E+04  0.00000000000E+00 0.  1.
          2   -1    0    0  501    0  0.00000000000E+00 -0.00000000000E+00 -0.21179671042E+03  0.21179671042E+03  0.00000000000E+00 0. -1.
         23    2    1    2    0    0  0.16759928978E+03  0.50287395114E+03  0.79730944414E+03  0.96184667302E+03  0.92059437314E+02 0.  0.
        254    2    1    2    0    0 -0.16759928978E+03 -0.50287395114E+03  0.19797374483E+04  0.22387936402E+04  0.90103544147E+03 0.  0.
        -24    2    4    4    0    0  0.33392678868E+03 -0.18148929623E+03  0.11545836859E+04  0.12178845934E+04  0.75722719805E+02 0.  0.
         24    2    4    4    0    0 -0.50152607846E+03 -0.32138465492E+03  0.82515376234E+03  0.10209090468E+04  0.80994114074E+02 0.  0.
         11    1    3    3    0    0  0.55576302409E+01  0.33856827961E+00  0.20509605546E-01  0.55679711761E+01  0.00000000000E+00 0. -1.
        -11    1    3    3    0    0  0.16204165954E+03  0.50253538286E+03  0.79728893454E+03  0.95627870184E+03  0.00000000000E+00 0.  1.
          4    1    6    6  502    0 -0.15390982022E+03 -0.13085171351E+03  0.32567578245E+03  0.38324289813E+03  0.00000000000E+00 0. -1.
          3    1    5    5  503    0  0.84155744770E+02 -0.14600259888E+02  0.30616183816E+03  0.31785284034E+03  0.00000000000E+00 0. -1.
         -4    1    5    5    0  503  0.24977104391E+03 -0.16688903634E+03  0.84842184776E+03  0.90003175309E+03  0.00000000000E+00 0.  1.
         -3    1    6    6    0  502 -0.34761625824E+03 -0.19053294140E+03  0.49947797989E+03  0.63766614866E+03  0.00000000000E+00 0.  1.
<mgrwt>
<rscale>  0 0.15912602E+04</rscale>
<asrwt>0</asrwt>
<pdfrwt beam="1">  1        2 0.32584111E-01 0.15912602E+04</pdfrwt>
<pdfrwt beam="2">  1       -2 0.45982206E+00 0.15912602E+04</pdfrwt>
<totfact> 0.46811875E-01</totfact>
</mgrwt>
</event>
<event>
12    1  0.1518126E-007  0.2674867E+04  0.7818608E-02  0.8343206E-01
         -1   -1    0    0    0  501 -0.00000000000E+00  0.00000000000E+00  0.58276304983E+03  0.58276304983E+03  0.00000000000E+00 0.  1.
          1   -1    0    0  501    0  0.00000000000E+00 -0.00000000000E+00 -0.30693914502E+04  0.30693914502E+04  0.00000000000E+00 0. -1.
         23    2    1    2    0    0 -0.18741478695E+03  0.50030901846E+03 -0.25282557253E+04  0.25857954245E+04  0.93955032812E+02 0.  0.
        254    2    1    2    0    0  0.18741478695E+03 -0.50030901846E+03  0.41627324976E+02  0.10663590755E+04  0.92193027257E+03 0.  0.
        -24    2    4    4    0    0 -0.15783210171E+02 -0.71256965270E+03  0.16736564580E+03  0.73671661932E+03  0.82070080553E+02 0.  0.
         24    2    4    4    0    0  0.20319799712E+03  0.21226063423E+03 -0.12573832082E+03  0.32964245622E+03  0.80684699577E+02 0.  0.
         13    1    3    3    0    0 -0.38201904530E+02  0.89845841723E+02 -0.65922444918E+03  0.66641468710E+03  0.00000000000E+00 0. -1.
        -13    1    3    3    0    0 -0.14921288242E+03  0.41046317674E+03 -0.18690312762E+04  0.19193807374E+04  0.00000000000E+00 0.  1.
          4    1    6    6  502    0  0.17251058624E+03  0.12907376874E+03 -0.98377268138E+02  0.23685022066E+03  0.00000000000E+00 0. -1.
          3    1    5    5  503    0 -0.33421285043E+02 -0.67611423571E+03  0.15677875570E+03  0.69485755394E+03  0.00000000000E+00 0. -1.
         -4    1    5    5    0  503  0.17638074871E+02 -0.36455416981E+02  0.10586890095E+02  0.41859065378E+02  0.00000000000E+00 0.  1.
         -3    1    6    6    0  502  0.30687410878E+02  0.83186865492E+02 -0.27361052685E+02  0.92792235563E+02  0.00000000000E+00 0.  1.
<mgrwt>
<rscale>  0 0.26748667E+04</rscale>
<asrwt>0</asrwt>
<pdfrwt beam="1">  1        1 0.47221407E+00 0.26748667E+04</pdfrwt>
<pdfrwt beam="2">  1       -1 0.89655853E-01 0.26748667E+04</pdfrwt>
<totfact> 0.56648472E-01</totfact>
</mgrwt>
</event>
<event>
12    1  0.1518126E-007  0.1189023E+04  0.7818608E-02  0.9122519E-01
          1   -1    0    0  501    0  0.00000000000E+00  0.00000000000E+00  0.11789876499E+04  0.11789876499E+04  0.00000000000E+00 0. -1.
         -1   -1    0    0    0  501 -0.00000000000E+00 -0.00000000000E+00 -0.29978608333E+03  0.29978608333E+03  0.00000000000E+00 0.  1.
         23    2    1    2    0    0  0.15255843737E+03 -0.12789971487E+02  0.12966882858E+03  0.22017402154E+03  0.90691424460E+02 0.  0.
        254    2    1    2    0    0 -0.15255843737E+03  0.12789971487E+02  0.74953273794E+03  0.12585997117E+04  0.99941795498E+03 0.  0.
        -24    2    4    4    0    0  0.24851755708E+03 -0.31603938586E+03  0.96462602321E+02  0.42097990703E+03  0.79228649341E+02 0.  0.
         24    2    4    4    0    0 -0.40107599445E+03  0.32882935735E+03  0.65307013562E+03  0.83761980463E+03  0.78202528620E+02 0.  0.
         11    1    3    3    0    0  0.92998686089E+02 -0.19476405797E+02  0.12902598856E+03  0.16023667408E+03  0.00000000000E+00 0. -1.
        -11    1    3    3    0    0  0.59559751279E+02  0.66864343095E+01  0.64284001885E+00  0.59937347451E+02  0.00000000000E+00 0.  1.
          2    1    6    6  502    0 -0.18521048595E+03  0.18652032176E+03  0.37464477363E+03  0.45765867297E+03  0.00000000000E+00 0. -1.
          1    1    5    5  503    0  0.22384592665E+03 -0.24607641925E+03  0.97955394910E+02  0.34677927040E+03  0.00000000000E+00 0. -1.
         -2    1    5    5    0  503  0.24671630436E+02 -0.69962966616E+02 -0.14927925883E+01  0.74200636626E+02  0.00000000000E+00 0.  1.
         -1    1    6    6    0  502 -0.21586550850E+03  0.14230903559E+03  0.27842536199E+03  0.37996113166E+03  0.00000000000E+00 0.  1.
<mgrwt>
<rscale>  0 0.11890233E+04</rscale>
<asrwt>0</asrwt>
<pdfrwt beam="1">  1        1 0.18138271E+00 0.11890233E+04</pdfrwt>
<pdfrwt beam="2">  1       -1 0.46120937E-01 0.11890233E+04</pdfrwt>
<totfact> 0.51267938E+01</totfact>
</mgrwt>
</event>
<event>
12    1  0.1518126E-007  0.1773526E+04  0.7818608E-02  0.8720506E-01
          2   -1    0    0  501    0  0.00000000000E+00  0.00000000000E+00  0.77611335832E+03  0.77611335832E+03  0.00000000000E+00 0. -1.
         -2   -1    0    0    0  501 -0.00000000000E+00 -0.00000000000E+00 -0.10131879181E+04  0.10131879181E+04  0.00000000000E+00 0.  1.
         23    2    1    2    0    0 -0.92269623029E+02 -0.65080428538E+03 -0.12042449262E+03  0.67461808239E+03  0.92453217645E+02 0.  0.
        254    2    1    2    0    0  0.92269623029E+02  0.65080428538E+03 -0.11665006715E+03  0.11146831940E+04  0.89266538168E+03 0.  0.
        -24    2    4    4    0    0  0.45664466306E+02  0.36472895477E+03 -0.50060671447E+03  0.62702341171E+03  0.86248607697E+02 0.  0.
         24    2    4    4    0    0  0.46605156723E+02  0.28607533061E+03  0.38395664732E+03  0.48765978230E+03  0.79863764204E+02 0.  0.
         13    1    3    3    0    0 -0.89260491988E+02 -0.39643679533E+03 -0.10530369064E+03  0.41978379600E+03  0.00000000000E+00 0. -1.
        -13    1    3    3    0    0 -0.30091310414E+01 -0.25436749005E+03 -0.15120801976E+02  0.25483428639E+03  0.00000000000E+00 0.  1.
          2    1    6    6  502    0  0.29386210333E+02  0.23974107829E+03  0.26347886885E+03  0.35743593594E+03  0.00000000000E+00 0. -1.
          3    1    5    5  503    0  0.14261701446E+02  0.21327899233E+03 -0.35622056292E+03  0.41543280341E+03  0.00000000000E+00 0. -1.
         -4    1    5    5    0  503  0.31402764860E+02  0.15144996244E+03 -0.14438615155E+03  0.21159060831E+03  0.00000000000E+00 0.  1.
         -1    1    6    6    0  502  0.17218946391E+02  0.46334252326E+02  0.12047777848E+03  0.13022384636E+03  0.00000000000E+00 0.  1.
<mgrwt>
<rscale>  0 0.17735261E+04</rscale>
<asrwt>0</asrwt>
<pdfrwt beam="1">  1        2 0.11940206E+00 0.17735261E+04</pdfrwt>
<pdfrwt beam="2">  1       -2 0.15587506E+00 0.17735261E+04</pdfrwt>
<totfact> 0.91682385E+00</totfact>
</mgrwt>
</event>
<event>
12    1  0.1518126E-007  0.2434943E+04  0.7818608E-02  0.8426536E-01
         -2   -1    0    0    0  501 -0.00000000000E+00  0.00000000000E+00  0.10384270935E+04  0.10384270935E+04  0.00000000000E+00 0.  1.
          2   -1    0    0  501    0  0.00000000000E+00 -0.00000000000E+00 -0.14273860680E+04  0.14273860680E+04  0.00000000000E+00 0. -1.
         23    2    1    2    0    0  0.69864177105E+03 -0.64431530245E+03 -0.50243000339E+03  0.10790020955E+04  0.92558525257E+02 0.  0.
        254    2    1    2    0    0 -0.69864177105E+03  0.64431530245E+03  0.11347102891E+03  0.13868110659E+04  0.10035570362E+04 0.  0.
        -24    2    4    4    0    0 -0.86656511889E+02  0.32231532637E+03  0.48769438563E+03  0.59649664559E+03  0.81030326168E+02 0.  0.
         24    2    4    4    0    0 -0.61198525916E+03  0.32199997607E+03 -0.37422335672E+03  0.79031442034E+03  0.79648102653E+02 0.  0.
         11    1    3    3    0    0  0.24078619552E+03 -0.21322095046E+03 -0.21972154561E+03  0.38951087697E+03  0.00000000000E+00 0. -1.
        -11    1    3    3    0    0  0.45785557553E+03 -0.43109435199E+03 -0.28270845777E+03  0.68949121855E+03  0.00000000000E+00 0.  1.
          4    1    6    6  502    0 -0.22837727776E+03  0.16421137739E+03 -0.14817744551E+03  0.31792784215E+03  0.00000000000E+00 0. -1.
          3    1    5    5  503    0 -0.35456867884E+02  0.17747976597E+03  0.32983528461E+03  0.37622808478E+03  0.00000000000E+00 0. -1.
         -4    1    5    5    0  503 -0.51199644005E+02  0.14483556041E+03  0.15785910102E+03  0.22026856081E+03  0.00000000000E+00 0.  1.
         -3    1    6    6    0  502 -0.38360798140E+03  0.15778859869E+03 -0.22604591121E+03  0.47238657818E+03  0.00000000000E+00 0.  1.
<mgrwt>
<rscale>  0 0.24349426E+04</rscale>
<asrwt>0</asrwt>
<pdfrwt beam="1">  1        2 0.21959786E+00 0.24349426E+04</pdfrwt>
<pdfrwt beam="2">  1       -2 0.15975801E+00 0.24349426E+04</pdfrwt>
<totfact> 0.31660961E+00</totfact>
</mgrwt>
</event>
<event>
12    1  0.1518126E-007  0.1222836E+04  0.7818608E-02  0.9093100E-01
         -2   -1    0    0    0  501 -0.00000000000E+00  0.00000000000E+00  0.10673784548E+03  0.10673784548E+03  0.00000000000E+00 0.  1.
          2   -1    0    0  501    0  0.00000000000E+00 -0.00000000000E+00 -0.35023381201E+04  0.35023381201E+04  0.00000000000E+00 0. -1.
         23    2    1    2    0    0  0.60978786160E+02  0.23633860008E+03 -0.88698862592E+03  0.92499396577E+03  0.96388111107E+02 0.  0.
        254    2    1    2    0    0 -0.60978786160E+02 -0.23633860008E+03 -0.25086116487E+04  0.26840819998E+04  0.92281603334E+03 0.  0.
        -24    2    4    4    0    0  0.26506436509E+03  0.61158083384E+02 -0.19347941372E+04  0.19554987088E+04  0.80916117220E+02 0.  0.
         24    2    4    4    0    0 -0.32604315125E+03 -0.29749668346E+03 -0.57381751155E+03  0.72858329103E+03  0.82211083558E+02 0.  0.
         11    1    3    3    0    0  0.37075154650E+02  0.21068830338E+03 -0.62340673771E+03  0.65909034957E+03  0.00000000000E+00 0.  1.
        -11    1    3    3    0    0  0.23903631510E+02  0.25650296703E+02 -0.26358188821E+03  0.26590361621E+03  0.00000000000E+00 0. -1.
          2    1    6    6  502    0 -0.32646547478E+03 -0.27707997515E+03 -0.54133501400E+03  0.69021490583E+03  0.00000000000E+00 0. -1.
          3    1    5    5  503    0  0.25836949813E+03  0.73947052628E+02 -0.18612040415E+04  0.18805061681E+04  0.00000000000E+00 0. -1.
         -4    1    5    5    0  503  0.66948669616E+01 -0.12788969244E+02 -0.73590095645E+02  0.74992540663E+02  0.00000000000E+00 0.  1.
         -1    1    6    6    0  502  0.42232353137E+00 -0.20416708317E+02 -0.32482497549E+02  0.38368385198E+02  0.00000000000E+00 0.  1.
<mgrwt>
<rscale>  0 0.12228361E+04</rscale>
<asrwt>0</asrwt>
<pdfrwt beam="1">  1        2 0.53882133E+00 0.12228361E+04</pdfrwt>
<pdfrwt beam="2">  1       -2 0.16421204E-01 0.12228361E+04</pdfrwt>
<totfact> 0.24613987E+01</totfact>
</mgrwt>
</event>
<event>
12    1  0.1518126E-007  0.1330199E+04  0.7818608E-02  0.9005954E-01
          2   -1    0    0  501    0  0.00000000000E+00  0.00000000000E+00  0.17775706670E+04  0.17775706670E+04  0.00000000000E+00 0. -1.
         -2   -1    0    0    0  501 -0.00000000000E+00 -0.00000000000E+00 -0.24885493659E+03  0.24885493659E+03  0.00000000000E+00 0.  1.
         23    2    1    2    0    0  0.31147100892E+03  0.14906676481E+03  0.47592067777E+03  0.59536169662E+03  0.93380771608E+02 0.  0.
        254    2    1    2    0    0 -0.31147100892E+03 -0.14906676481E+03  0.10527950526E+04  0.14310639070E+04  0.90572147661E+03 0.  0.
        -24    2    4    4    0    0 -0.57947455408E+03 -0.25483055620E+03  0.53078154099E+03  0.82945134578E+03  0.74371496904E+02 0.  0.
         24    2    4    4    0    0  0.26800354516E+03  0.10576379139E+03  0.52201351166E+03  0.60161256120E+03  0.80172861075E+02 0.  0.
         13    1    3    3    0    0  0.53393044266E+02  0.42216379937E+02  0.15876151928E+03  0.17273754634E+03  0.00000000000E+00 0.  1.
        -13    1    3    3    0    0  0.25807796466E+03  0.10685038487E+03  0.31715915848E+03  0.42262415028E+03  0.00000000000E+00 0. -1.
          2    1    6    6  502    0  0.15909032168E+03  0.55457431309E+02  0.38022004950E+03  0.41587563427E+03  0.00000000000E+00 0. -1.
          1    1    5    5  503    0 -0.23748580691E+03 -0.10447694782E+03  0.17058588842E+03  0.31050682189E+03  0.00000000000E+00 0. -1.
         -4    1    5    5    0  503 -0.34198874717E+03 -0.15035360839E+03  0.36019565257E+03  0.51894452389E+03  0.00000000000E+00 0.  1.
         -1    1    6    6    0  502  0.10891322348E+03  0.50306360085E+02  0.14179346215E+03  0.18573692692E+03  0.00000000000E+00 0.  1.
<mgrwt>
<rscale>  0 0.13301988E+04</rscale>
<asrwt>0</asrwt>
<pdfrwt beam="1">  1        2 0.27347240E+00 0.13301988E+04</pdfrwt>
<pdfrwt beam="2">  1       -2 0.38285376E-01 0.13301988E+04</pdfrwt>
<totfact> 0.55958677E+01</totfact>
</mgrwt>
</event>
<event>
12    1  0.1518126E-007  0.1137935E+04  0.7818608E-02  0.9168986E-01
          2   -1    0    0  501    0  0.00000000000E+00  0.00000000000E+00  0.20680407488E+04  0.20680407488E+04  0.00000000000E+00 0. -1.
         -2   -1    0    0    0  501 -0.00000000000E+00 -0.00000000000E+00 -0.15653664075E+03  0.15653664075E+03  0.00000000000E+00 0.  1.
         23    2    1    2    0    0  0.23229283321E+02  0.18842881704E+03  0.32600935300E+03  0.38861114355E+03  0.93228235804E+02 0.  0.
        254    2    1    2    0    0 -0.23229283321E+02 -0.18842881704E+03  0.15854947551E+04  0.18359662460E+04  0.90605376190E+03 0.  0.
        -24    2    4    4    0    0 -0.22382478461E+03  0.13310179252E+03  0.82366496980E+02  0.28373032729E+03  0.76844241308E+02 0.  0.
         24    2    4    4    0    0  0.20059550129E+03 -0.32153060955E+03  0.15031282581E+04  0.15522359187E+04  0.80133008828E+02 0.  0.
         13    1    3    3    0    0 -0.20020873979E+02  0.14158161835E+03  0.18468276321E+03  0.23356779118E+03  0.00000000000E+00 0.  1.
        -13    1    3    3    0    0  0.43250157299E+02  0.46847198686E+02  0.14132658979E+03  0.15504335237E+03  0.00000000000E+00 0. -1.
          2    1    6    6  502    0  0.92408902832E+02 -0.20882205975E+03  0.79950920636E+03  0.83148122589E+03  0.00000000000E+00 0. -1.
          3    1    5    5  503    0 -0.10916464282E+03  0.10583417360E+03  0.61635112101E+02  0.16406303236E+03  0.00000000000E+00 0. -1.
         -4    1    5    5    0  503 -0.11466014179E+03  0.27267618919E+02  0.20731384880E+02  0.11966729493E+03  0.00000000000E+00 0.  1.
         -1    1    6    6    0  502  0.10818659846E+03 -0.11270854981E+03  0.70361905172E+03  0.72075469282E+03  0.00000000000E+00 0.  1.
<mgrwt>
<rscale>  0 0.11379352E+04</rscale>
<asrwt>0</asrwt>
<pdfrwt beam="1">  1        2 0.31816010E+00 0.11379352E+04</pdfrwt>
<pdfrwt beam="2">  1       -2 0.24082562E-01 0.11379352E+04</pdfrwt>
<totfact> 0.93329528E+01</totfact>
</mgrwt>
</event>
<event>
12    1  0.1518126E-007  0.1229821E+04  0.7818608E-02  0.9087147E-01
          1   -1    0    0  501    0  0.00000000000E+00  0.00000000000E+00  0.76051711970E+03  0.76051711970E+03  0.00000000000E+00 0.  1.
         -1   -1    0    0    0  501 -0.00000000000E+00 -0.00000000000E+00 -0.49718139616E+03  0.49718139616E+03  0.00000000000E+00 0. -1.
         23    2    1    2    0    0  0.20979363274E+03  0.12105592580E+03  0.15024174606E+03  0.30301352846E+03  0.10284313617E+03 0.  0.
        254    2    1    2    0    0 -0.20979363274E+03 -0.12105592580E+03  0.11309397748E+03  0.95468498740E+03  0.91649619307E+03 0.  0.
        -24    2    4    4    0    0 -0.23022093194E+03 -0.34526256503E+03 -0.27099652925E+03  0.50245977164E+03  0.82575946442E+02 0.  0.
         24    2    4    4    0    0  0.20427299196E+02  0.22420663923E+03  0.38409050673E+03  0.45222521577E+03  0.79348829789E+02 0.  0.
         13    1    3    3    0    0  0.17764107977E+03  0.62741233250E+02  0.14199427659E+03  0.23591352262E+03  0.00000000000E+00 0.  1.
        -13    1    3    3    0    0  0.32152552978E+02  0.58314692552E+02  0.82474694661E+01  0.67100005835E+02  0.00000000000E+00 0. -1.
          4    1    6    6  502    0  0.38994440923E+02  0.19550550977E+03  0.28826228659E+03  0.35048269093E+03  0.00000000000E+00 0. -1.
          3    1    5    5  503    0 -0.16104567603E+03 -0.29826920883E+03 -0.20725509070E+03  0.39730958121E+03  0.00000000000E+00 0. -1.
         -4    1    5    5    0  503 -0.69175255907E+02 -0.46993356203E+02 -0.63741438552E+02  0.10515019042E+03  0.00000000000E+00 0.  1.
         -3    1    6    6    0  502 -0.18567141726E+02  0.28701129454E+02  0.95828220147E+02  0.10174252484E+03  0.00000000000E+00 0.  1.
<mgrwt>
<rscale>  0 0.12298211E+04</rscale>
<asrwt>0</asrwt>
<pdfrwt beam="1">  1        1 0.11700263E+00 0.12298211E+04</pdfrwt>
<pdfrwt beam="2">  1       -1 0.76489446E-01 0.12298211E+04</pdfrwt>
<totfact> 0.40617971E+01</totfact>
</mgrwt>
</event>
<event>
12    1  0.1518126E-007  0.2023441E+04  0.7818608E-02  0.8595739E-01
         -2   -1    0    0    0  501 -0.00000000000E+00  0.00000000000E+00  0.21363061413E+04  0.21363061413E+04  0.00000000000E+00 0.  1.
          2   -1    0    0  501    0  0.00000000000E+00 -0.00000000000E+00 -0.47913480709E+03  0.47913480709E+03  0.00000000000E+00 0. -1.
         23    2    1    2    0    0  0.40442362261E+03  0.67731699062E+02  0.15675909363E+04  0.16227191779E+04  0.87921197535E+02 0.  0.
        254    2    1    2    0    0 -0.40442362261E+03 -0.67731699062E+02  0.89580397854E+02  0.99272177050E+03  0.89962537557E+03 0.  0.
        -24    2    4    4    0    0 -0.22239424963E+03  0.37065343619E+03  0.22335338459E+03  0.49295487975E+03  0.79212417185E+02 0.  0.
         24    2    4    4    0    0 -0.18202937297E+03 -0.43838513525E+03 -0.13377298673E+03  0.49976689076E+03  0.80966126777E+02 0.  0.
         13    1    3    3    0    0  0.17221865919E+03 -0.11256486504E+02  0.58051393771E+03  0.60562563266E+03  0.00000000000E+00 0. -1.
        -13    1    3    3    0    0  0.23220496341E+03  0.78988185566E+02  0.98707699864E+03  0.10170935452E+04  0.00000000000E+00 0.  1.
          4    1    6    6  502    0 -0.16623813032E+03 -0.42452884816E+03 -0.14151928070E+03  0.47737570707E+03  0.00000000000E+00 0. -1.
          1    1    5    5  503    0 -0.17927025388E+03  0.22838060853E+03  0.15819765871E+03  0.33063881427E+03  0.00000000000E+00 0. -1.
         -2    1    5    5    0  503 -0.43123995750E+02  0.14227282765E+03  0.65155725875E+02  0.16231606548E+03  0.00000000000E+00 0.  1.
         -3    1    6    6    0  502 -0.15791242659E+02 -0.13856287089E+02  0.77462939706E+01  0.22391183686E+02  0.00000000000E+00 0.  1.
<mgrwt>
<rscale>  0 0.20234413E+04</rscale>
<asrwt>0</asrwt>
<pdfrwt beam="1">  1        2 0.73713049E-01 0.20234413E+04</pdfrwt>
<pdfrwt beam="2">  1       -2 0.32866248E+00 0.20234413E+04</pdfrwt>
<totfact> 0.12717985E+00</totfact>
</mgrwt>
</event>
<event>
12    1  0.1518126E-007  0.1618120E+04  0.7818608E-02  0.8809493E-01
          1   -1    0    0  501    0  0.00000000000E+00  0.00000000000E+00  0.66221913647E+03  0.66221913647E+03  0.00000000000E+00 0. -1.
         -1   -1    0    0    0  501 -0.00000000000E+00 -0.00000000000E+00 -0.98846114650E+03  0.98846114650E+03  0.00000000000E+00 0.  1.
         23    2    1    2    0    0 -0.11492257911E+03  0.47754888278E+03 -0.37135687252E+03  0.62251507647E+03  0.91427342903E+02 0.  0.
        254    2    1    2    0    0  0.11492257911E+03 -0.47754888278E+03  0.45114862487E+02  0.10281652065E+04  0.90212427437E+03 0.  0.
        -24    2    4    4    0    0  0.49377947046E+03 -0.37926905041E+03  0.22116698245E+02  0.62799642201E+03  0.78912481034E+02 0.  0.
         24    2    4    4    0    0 -0.37885689136E+03 -0.98279832365E+02  0.22998164241E+02  0.40016878449E+03  0.80091640936E+02 0.  0.
         13    1    3    3    0    0 -0.69869385647E+02  0.24801346669E+03 -0.24990362126E+03  0.35894878552E+03  0.00000000000E+00 0.  1.
        -13    1    3    3    0    0 -0.45053193461E+02  0.22953541609E+03 -0.12145325126E+03  0.26356629095E+03  0.00000000000E+00 0. -1.
          4    1    6    6  502    0 -0.10569514340E+03 -0.48767119839E+02 -0.23326787386E+02  0.11871745586E+03  0.00000000000E+00 0. -1.
          3    1    5    5  503    0  0.82099309678E+02 -0.29825436001E+02  0.94156873706E+01  0.87855042263E+02  0.00000000000E+00 0. -1.
         -4    1    5    5    0  503  0.41168016079E+03 -0.34944361441E+03  0.12701010875E+02  0.54014137975E+03  0.00000000000E+00 0.  1.
         -3    1    6    6    0  502 -0.27316174795E+03 -0.49512712527E+02  0.46324951627E+02  0.28145132863E+03  0.00000000000E+00 0.  1.
<mgrwt>
<rscale>  0 0.16181198E+04</rscale>
<asrwt>0</asrwt>
<pdfrwt beam="1">  1        1 0.10187987E+00 0.16181198E+04</pdfrwt>
<pdfrwt beam="2">  1       -1 0.15207095E+00 0.16181198E+04</pdfrwt>
<totfact> 0.95420260E+00</totfact>
</mgrwt>
</event>
<event>
12    1  0.1518126E-007  0.1541241E+04  0.7818608E-02  0.8857482E-01
          1   -1    0    0  501    0  0.00000000000E+00  0.00000000000E+00  0.42995488669E+03  0.42995488669E+03  0.00000000000E+00 0. -1.
         -1   -1    0    0    0  501 -0.00000000000E+00 -0.00000000000E+00 -0.13812044651E+04  0.13812044651E+04  0.00000000000E+00 0.  1.
         23    2    1    2    0    0  0.20488960704E+03 -0.29086595716E+03 -0.72474792257E+03  0.81236048121E+03  0.89929105718E+02 0.  0.
        254    2    1    2    0    0 -0.20488960704E+03  0.29086595716E+03 -0.22650165588E+03  0.99879887062E+03  0.90538026692E+03 0.  0.
        -24    2    4    4    0    0 -0.28035888367E+03 -0.13129078099E+03  0.20919120175E+03  0.38222081846E+03  0.80581774299E+02 0.  0.
         24    2    4    4    0    0  0.75469276626E+02  0.42215673815E+03 -0.43569285763E+03  0.61657805216E+03  0.80176710705E+02 0.  0.
         11    1    3    3    0    0  0.11102246028E+02 -0.43481568919E+02 -0.45324106110E+02  0.63782296111E+02  0.00000000000E+00 0. -1.
        -11    1    3    3    0    0  0.19378736102E+03 -0.24738438824E+03 -0.67942381646E+03  0.74857818510E+03  0.00000000000E+00 0.  1.
          4    1    6    6  502    0  0.28894046757E+02  0.36307153132E+02 -0.33096634258E+02  0.56995284943E+02  0.00000000000E+00 0. -1.
          3    1    5    5  503    0 -0.20598557279E+03 -0.96623275875E+02  0.10774923884E+03  0.25174592769E+03  0.00000000000E+00 0. -1.
         -4    1    5    5    0  503 -0.74373310879E+02 -0.34667505118E+02  0.10144196291E+03  0.13047489077E+03  0.00000000000E+00 0.  1.
         -3    1    6    6    0  502  0.46575229869E+02  0.38584958502E+03 -0.40259622337E+03  0.55958276722E+03  0.00000000000E+00 0.  1.
<mgrwt>
<rscale>  0 0.15412406E+04</rscale>
<asrwt>0</asrwt>
<pdfrwt beam="1">  1        1 0.66146906E-01 0.15412406E+04</pdfrwt>
<pdfrwt beam="2">  1       -1 0.21249299E+00 0.15412406E+04</pdfrwt>
<totfact> 0.64914048E+00</totfact>
</mgrwt>
</event>
<event>
12    1  0.1518126E-007  0.1927510E+04  0.7818608E-02  0.8641283E-01
          2   -1    0    0  501    0  0.00000000000E+00  0.00000000000E+00  0.22254298575E+04  0.22254298575E+04  0.00000000000E+00 0.  1.
         -2   -1    0    0    0  501 -0.00000000000E+00 -0.00000000000E+00 -0.41736810927E+03  0.41736810927E+03  0.00000000000E+00 0. -1.
         23    2    1    2    0    0  0.11688871919E+03 -0.67861882404E+01 -0.30457492401E+03  0.33892778136E+03  0.91635864259E+02 0.  0.
        254    2    1    2    0    0 -0.11688871919E+03  0.67861882404E+01  0.21126366722E+04  0.23038701854E+04  0.91152350346E+03 0.  0.
        -24    2    4    4    0    0  0.87992034767E+02  0.10403047711E+03 -0.18440329927E+02  0.15925037801E+03  0.80347363227E+02 0.  0.
         24    2    4    4    0    0 -0.20488075396E+03 -0.97244288873E+02  0.21310770022E+04  0.21446198074E+04  0.80450942277E+02 0.  0.
         13    1    3    3    0    0  0.40338158116E+02 -0.23942936813E+01 -0.21744862037E+02  0.45888328227E+02  0.00000000000E+00 0.  1.
        -13    1    3    3    0    0  0.76550561078E+02 -0.43918945591E+01 -0.28283006197E+03  0.29303945313E+03  0.00000000000E+00 0. -1.
          4    1    6    6  502    0 -0.12765890934E+03 -0.42472030304E+02  0.15556095528E+04  0.15614165848E+04  0.00000000000E+00 0. -1.
          3    1    5    5  503    0  0.99151460596E+02  0.10752043567E+03 -0.19298220845E+02  0.14752653169E+03  0.00000000000E+00 0. -1.
         -4    1    5    5    0  503 -0.11159425830E+02 -0.34899585605E+01  0.85789091805E+00  0.11723846315E+02  0.00000000000E+00 0.  1.
         -3    1    6    6    0  502 -0.77221844619E+02 -0.54772258569E+02  0.57546744933E+03  0.58320322258E+03  0.00000000000E+00 0.  1.
<mgrwt>
<rscale>  0 0.19275097E+04</rscale>
<asrwt>0</asrwt>
<pdfrwt beam="1">  1        2 0.34237382E+00 0.19275097E+04</pdfrwt>
<pdfrwt beam="2">  1       -2 0.64210480E-01 0.19275097E+04</pdfrwt>
<totfact> 0.10465855E+01</totfact>
</mgrwt>
</event>
<event>
12    1  0.1518126E-007  0.1522624E+04  0.7818608E-02  0.8869546E-01
          1   -1    0    0  501    0  0.00000000000E+00  0.00000000000E+00  0.14847792697E+04  0.14847792697E+04  0.00000000000E+00 0. -1.
         -1   -1    0    0    0  501 -0.00000000000E+00 -0.00000000000E+00 -0.39035856943E+03  0.39035856943E+03  0.00000000000E+00 0.  1.
         23    2    1    2    0    0  0.27098725408E+02  0.63355940733E+02  0.96647686143E+03  0.97313947845E+03  0.90413520435E+02 0.  0.
        254    2    1    2    0    0 -0.27098725408E+02 -0.63355940733E+02  0.12794383883E+03  0.90199836068E+03  0.89021519906E+03 0.  0.
        -24    2    4    4    0    0  0.45141969046E+02 -0.95713579369E+02  0.49813765970E+03  0.51546214316E+03  0.79757171342E+02 0.  0.
         24    2    4    4    0    0 -0.72240694455E+02  0.32357638635E+02 -0.37019382087E+03  0.38653621752E+03  0.78109203879E+02 0.  0.
         13    1    3    3    0    0  0.89793937151E+01  0.11452092495E+02  0.73793271649E+03  0.73807619796E+03  0.00000000000E+00 0. -1.
        -13    1    3    3    0    0  0.18119331693E+02  0.51903848238E+02  0.22854414495E+03  0.23506328049E+03  0.00000000000E+00 0.  1.
          4    1    6    6  502    0 -0.35878020626E+02 -0.19632820503E+02 -0.21533987821E+03  0.21918928613E+03  0.00000000000E+00 0. -1.
          1    1    5    5  503    0  0.26622626405E+02 -0.31815336116E+02  0.35732050518E+03  0.35972061836E+03  0.00000000000E+00 0. -1.
         -2    1    5    5    0  503  0.18519342642E+02 -0.63898243253E+02  0.14081715452E+03  0.15574152481E+03  0.00000000000E+00 0.  1.
         -3    1    6    6    0  502 -0.36362673829E+02  0.51990459138E+02 -0.15485394265E+03  0.16734693139E+03  0.00000000000E+00 0.  1.
<mgrwt>
<rscale>  0 0.15226245E+04</rscale>
<asrwt>0</asrwt>
<pdfrwt beam="1">  1        1 0.22842758E+00 0.15226245E+04</pdfrwt>
<pdfrwt beam="2">  1       -1 0.60055165E-01 0.15226245E+04</pdfrwt>
<totfact> 0.18194669E+01</totfact>
</mgrwt>
</event>
<event>
12    1  0.1518126E-007  0.1265037E+04  0.7818608E-02  0.9057760E-01
         -1   -1    0    0    0  501 -0.00000000000E+00  0.00000000000E+00  0.18248571061E+03  0.18248571061E+03  0.00000000000E+00 0.  1.
          1   -1    0    0  501    0  0.00000000000E+00 -0.00000000000E+00 -0.21923887960E+04  0.21923887960E+04  0.00000000000E+00 0. -1.
         23    2    1    2    0    0 -0.20366497045E+03  0.11207375723E+03 -0.76428636083E+03  0.80407792852E+03  0.91475278218E+02 0.  0.
        254    2    1    2    0    0  0.20366497045E+03 -0.11207375723E+03 -0.12456167245E+04  0.15707965781E+04  0.92833233164E+03 0.  0.
        -24    2    4    4    0    0 -0.33557001663E+02  0.64808800280E+02  0.12509472425E+03  0.16617001674E+03  0.81471046837E+02 0.  0.
         24    2    4    4    0    0  0.23722197212E+03 -0.17688255751E+03 -0.13707114488E+04  0.14046265613E+04  0.81019736871E+02 0.  0.
         11    1    3    3    0    0 -0.17715132067E+03  0.11367380995E+03 -0.73497785172E+03  0.76452388321E+03  0.00000000000E+00 0. -1.
        -11    1    3    3    0    0 -0.26513649787E+02 -0.16000527193E+01 -0.29308509116E+02  0.39554045309E+02  0.00000000000E+00 0.  1.
          2    1    6    6  502    0  0.11520522130E+03 -0.13568019641E+03 -0.78710241627E+03  0.80697681033E+03  0.00000000000E+00 0. -1.
          1    1    5    5  503    0  0.23305761382E+02  0.31187011833E+02  0.25091141701E+02  0.46317962094E+02  0.00000000000E+00 0. -1.
         -2    1    5    5    0  503 -0.56862763045E+02  0.33621788447E+02  0.10000358255E+03  0.11985205464E+03  0.00000000000E+00 0.  1.
         -1    1    6    6    0  502  0.12201675081E+03 -0.41202361104E+02 -0.58360903250E+03  0.59764975099E+03  0.00000000000E+00 0.  1.
<mgrwt>
<rscale>  0 0.12650370E+04</rscale>
<asrwt>0</asrwt>
<pdfrwt beam="1">  1        1 0.33729059E+00 0.12650370E+04</pdfrwt>
<pdfrwt beam="2">  1       -1 0.28074724E-01 0.12650370E+04</pdfrwt>
<totfact> 0.24954677E+01</totfact>
</mgrwt>
</event>
<event>
12    1  0.1518126E-007  0.2894680E+04  0.7818608E-02  0.8274462E-01
         -1   -1    0    0    0  501 -0.00000000000E+00  0.00000000000E+00  0.13475785182E+04  0.13475785182E+04  0.00000000000E+00 0.  1.
          1   -1    0    0  501    0  0.00000000000E+00 -0.00000000000E+00 -0.15544867429E+04  0.15544867429E+04  0.00000000000E+00 0. -1.
         23    2    1    2    0    0 -0.11857486821E+04 -0.45546009223E+03  0.21102515119E+03  0.12907552850E+04  0.89854095741E+02 0.  0.
        254    2    1    2    0    0  0.11857486821E+04  0.45546009223E+03 -0.41793337592E+03  0.16113099762E+04  0.89900372641E+03 0.  0.
        -24    2    4    4    0    0  0.80490380276E+03  0.51895391413E+03 -0.64406388045E+03  0.11569038008E+04  0.80155008971E+02 0.  0.
         24    2    4    4    0    0  0.38084487932E+03 -0.63493821904E+02  0.22613050453E+03  0.45440617545E+03  0.79219187580E+02 0.  0.
         11    1    3    3    0    0 -0.17389567044E+03 -0.94171229212E+02  0.53359492644E+02  0.20482958786E+03  0.00000000000E+00 0.  1.
        -11    1    3    3    0    0 -0.10118530116E+04 -0.36128886302E+03  0.15766565855E+03  0.10859256971E+04  0.00000000000E+00 0. -1.
          4    1    6    6  502    0  0.19827318645E+03  0.45782340868E+01  0.98136191559E+02  0.22127794464E+03  0.00000000000E+00 0. -1.
          3    1    5    5  503    0  0.23802007446E+03  0.12859595950E+03 -0.14696432977E+03  0.30787820786E+03  0.00000000000E+00 0. -1.
         -4    1    5    5    0  503  0.56688372829E+03  0.39035795464E+03 -0.49709955067E+03  0.84902559292E+03  0.00000000000E+00 0.  1.
         -1    1    6    6    0  502  0.18257169287E+03 -0.68072055991E+02  0.12799431297E+03  0.23312823080E+03  0.00000000000E+00 0.  1.
<mgrwt>
<rscale>  0 0.28946799E+04</rscale>
<asrwt>0</asrwt>
<pdfrwt beam="1">  1        1 0.23915181E+00 0.28946799E+04</pdfrwt>
<pdfrwt beam="2">  1       -1 0.20731977E+00 0.28946799E+04</pdfrwt>
<totfact> 0.69057636E-01</totfact>
</mgrwt>
</event>
<event>
12    1  0.1518126E-007  0.2185733E+04  0.7818608E-02  0.8524390E-01
         -2   -1    0    0    0  501 -0.00000000000E+00  0.00000000000E+00  0.76569635738E+03  0.76569635738E+03  0.00000000000E+00 0.  1.
          2   -1    0    0  501    0  0.00000000000E+00 -0.00000000000E+00 -0.15598319568E+04  0.15598319568E+04  0.00000000000E+00 0. -1.
         23    2    1    2    0    0  0.26674492309E+03 -0.20523524222E+03  0.56504391642E+03  0.66327351857E+03  0.85923072087E+02 0.  0.
        254    2    1    2    0    0 -0.26674492309E+03  0.20523524222E+03 -0.13591795158E+04  0.16622547956E+04  0.89579444663E+03 0.  0.
        -24    2    4    4    0    0 -0.52118351539E+02  0.41760491159E+03 -0.22122896464E+03  0.48214140664E+03  0.80049337550E+02 0.  0.
         24    2    4    4    0    0 -0.21462657155E+03 -0.21236966937E+03 -0.11379505512E+04  0.11801133890E+04  0.81059929674E+02 0.  0.
         13    1    3    3    0    0  0.31345057268E+02 -0.15305433164E+02  0.20759313821E+02  0.40592092946E+02  0.00000000000E+00 0. -1.
        -13    1    3    3    0    0  0.23539986582E+03 -0.18992980906E+03  0.54428460260E+03  0.62268142563E+03  0.00000000000E+00 0.  1.
          2    1    6    6  502    0 -0.30859901668E+02 -0.80987272747E+02 -0.32585296868E+03  0.33718159659E+03  0.00000000000E+00 0. -1.
          1    1    5    5  503    0  0.12227620834E+02  0.40792221206E+02 -0.42467466976E+02  0.60141547815E+02  0.00000000000E+00 0. -1.
         -2    1    5    5    0  503 -0.64345972373E+02  0.37681269039E+03 -0.17876149767E+03  0.42199985882E+03  0.00000000000E+00 0.  1.
         -1    1    6    6    0  502 -0.18376666988E+03 -0.13138239662E+03 -0.81209758250E+03  0.84293179238E+03  0.00000000000E+00 0.  1.
<mgrwt>
<rscale>  0 0.21857334E+04</rscale>
<asrwt>0</asrwt>
<pdfrwt beam="1">  1        2 0.23997414E+00 0.21857334E+04</pdfrwt>
<pdfrwt beam="2">  1       -2 0.11779944E+00 0.21857334E+04</pdfrwt>
<totfact> 0.59761632E+00</totfact>
</mgrwt>
</event>
<event>
12    1  0.1518126E-007  0.3499255E+04  0.7818608E-02  0.8113967E-01
          2   -1    0    0  501    0  0.00000000000E+00  0.00000000000E+00  0.25921711874E+04  0.25921711874E+04  0.00000000000E+00 0. -1.
         -2   -1    0    0    0  501 -0.00000000000E+00 -0.00000000000E+00 -0.11809388261E+04  0.11809388261E+04  0.00000000000E+00 0.  1.
         23    2    1    2    0    0  0.77547136275E+03 -0.39787827650E+03 -0.82896071559E+03  0.12064854429E+04  0.93639193296E+02 0.  0.
        254    2    1    2    0    0 -0.77547136275E+03  0.39787827650E+03  0.22401930769E+04  0.25666245706E+04  0.89968533791E+03 0.  0.
        -24    2    4    4    0    0 -0.92026494774E+03  0.13009361136E+03  0.15711584397E+04  0.18272888920E+04  0.81448943380E+02 0.  0.
         24    2    4    4    0    0  0.14479358499E+03  0.26778466514E+03  0.66903463726E+03  0.73933567866E+03  0.79599565055E+02 0.  0.
         13    1    3    3    0    0  0.20250702819E+03 -0.63791512577E+02 -0.22663790082E+03  0.31055304158E+03  0.00000000000E+00 0. -1.
        -13    1    3    3    0    0  0.57296433456E+03 -0.33408676392E+03 -0.60232281477E+03  0.89593240130E+03  0.00000000000E+00 0.  1.
          2    1    6    6  502    0  0.94159662435E+02  0.92013323445E+02  0.28858033675E+03  0.31719253535E+03  0.00000000000E+00 0. -1.
          3    1    5    5  503    0 -0.84766527688E+03  0.11971261014E+03  0.14855434058E+04  0.17145573018E+04  0.00000000000E+00 0. -1.
         -4    1    5    5    0  503 -0.72599670855E+02  0.10381001222E+02  0.85615033901E+02  0.11273159018E+03  0.00000000000E+00 0.  1.
         -3    1    6    6    0  502  0.50633922553E+02  0.17577134170E+03  0.38045430051E+03  0.42214314332E+03  0.00000000000E+00 0.  1.
<mgrwt>
<rscale>  0 0.34992545E+04</rscale>
<asrwt>0</asrwt>
<pdfrwt beam="1">  1        2 0.39879557E+00 0.34992545E+04</pdfrwt>
<pdfrwt beam="2">  1       -2 0.18168290E+00 0.34992545E+04</pdfrwt>
<totfact> 0.44611970E-01</totfact>
</mgrwt>
</event>
<event>
12    1  0.1518126E-007  0.1188302E+04  0.7818608E-02  0.9123158E-01
         -1   -1    0    0    0  501 -0.00000000000E+00  0.00000000000E+00  0.31342066795E+03  0.31342066795E+03  0.00000000000E+00 0.  1.
          1   -1    0    0  501    0  0.00000000000E+00 -0.00000000000E+00 -0.11263307154E+04  0.11263307154E+04  0.00000000000E+00 0. -1.
         23    2    1    2    0    0 -0.14768945365E+03 -0.17311547416E+03 -0.58525241113E+02  0.25255614420E+03  0.92618896649E+02 0.  0.
        254    2    1    2    0    0  0.14768945365E+03  0.17311547416E+03 -0.75438480637E+03  0.11871952392E+04  0.88800616989E+03 0.  0.
        -24    2    4    4    0    0 -0.14568095278E+03  0.44915308132E+03 -0.25856426473E+03  0.54345155452E+03  0.74314753928E+02 0.  0.
         24    2    4    4    0    0  0.29337040642E+03 -0.27603760716E+03 -0.49582054164E+03  0.64374368467E+03  0.79403816718E+02 0.  0.
         13    1    3    3    0    0  0.11489713855E+02 -0.47185112199E+01  0.30534472968E+01  0.12790676800E+02  0.00000000000E+00 0. -1.
        -13    1    3    3    0    0 -0.15917916750E+03 -0.16839696294E+03 -0.61578688409E+02  0.23976546740E+03  0.00000000000E+00 0.  1.
          2    1    6    6  502    0  0.24652880947E+03 -0.21367631936E+03 -0.35063643869E+03  0.47893625410E+03  0.00000000000E+00 0. -1.
          1    1    5    5  503    0 -0.14377953099E+03  0.41869782779E+03 -0.22021752889E+03  0.49444533020E+03  0.00000000000E+00 0. -1.
         -2    1    5    5    0  503 -0.19014217902E+01  0.30455253531E+02 -0.38346735837E+02  0.49006224317E+02  0.00000000000E+00 0.  1.
         -1    1    6    6    0  502  0.46841596949E+02 -0.62361287795E+02 -0.14518410296E+03  0.16480743057E+03  0.00000000000E+00 0.  1.
<mgrwt>
<rscale>  0 0.11883019E+04</rscale>
<asrwt>0</asrwt>
<pdfrwt beam="1">  1        1 0.17328165E+00 0.11883019E+04</pdfrwt>
<pdfrwt beam="2">  1       -1 0.48218565E-01 0.11883019E+04</pdfrwt>
<totfact> 0.51585520E+01</totfact>
</mgrwt>
</event>
<event>
12    1  0.1518126E-007  0.1555407E+04  0.7818608E-02  0.8848421E-01
          2   -1    0    0  501    0  0.00000000000E+00  0.00000000000E+00  0.11294547710E+04  0.11294547710E+04  0.00000000000E+00 0. -1.
         -2   -1    0    0    0  501 -0.00000000000E+00 -0.00000000000E+00 -0.53549985950E+03  0.53549985950E+03  0.00000000000E+00 0.  1.
         23    2    1    2    0    0  0.44484651543E+03  0.99244600119E+02 -0.52773788547E+02  0.46780387579E+03  0.91200222049E+02 0.  0.
        254    2    1    2    0    0 -0.44484651543E+03 -0.99244600119E+02  0.64672870003E+03  0.11971507547E+04  0.89842863105E+03 0.  0.
        -24    2    4    4    0    0 -0.50386955288E+02  0.15401808074E+03 -0.17256585127E+03  0.24984816203E+03  0.79904421578E+02 0.  0.
         24    2    4    4    0    0 -0.39445956014E+03 -0.25326268086E+03  0.81929455131E+03  0.94730259266E+03  0.79989437849E+02 0.  0.
         13    1    3    3    0    0  0.14277057546E+02 -0.82681979224E+01  0.10456005288E+02  0.19532678148E+02  0.00000000000E+00 0. -1.
        -13    1    3    3    0    0  0.43056945788E+03  0.10751279804E+03 -0.63229793835E+02  0.44827119764E+03  0.00000000000E+00 0.  1.
          4    1    6    6  502    0 -0.37954512271E+03 -0.21933370500E+03  0.76085669954E+03  0.87810289349E+03  0.00000000000E+00 0. -1.
          1    1    5    5  503    0 -0.74123251689E+00  0.11482519496E+03 -0.13079764025E+03  0.17404998568E+03  0.00000000000E+00 0. -1.
         -2    1    5    5    0  503 -0.49645722771E+02  0.39192885783E+02 -0.41768211025E+02  0.75798176348E+02  0.00000000000E+00 0.  1.
         -3    1    6    6    0  502 -0.14914437429E+02 -0.33928975858E+02  0.58437851763E+02  0.69199699171E+02  0.00000000000E+00 0.  1.
<mgrwt>
<rscale>  0 0.15554072E+04</rscale>
<asrwt>0</asrwt>
<pdfrwt beam="1">  1        2 0.17376227E+00 0.15554072E+04</pdfrwt>
<pdfrwt beam="2">  1       -2 0.82384594E-01 0.15554072E+04</pdfrwt>
<totfact> 0.26013505E+01</totfact>
</mgrwt>
</event>
<event>
12    1  0.1518126E-007  0.2215542E+04  0.7818608E-02  0.8511987E-01
          1   -1    0    0  501    0  0.00000000000E+00  0.00000000000E+00  0.30056927062E+04  0.30056927062E+04  0.00000000000E+00 0. -1.
         -1   -1    0    0    0  501 -0.00000000000E+00 -0.00000000000E+00 -0.40827753077E+03  0.40827753077E+03  0.00000000000E+00 0.  1.
         23    2    1    2    0    0 -0.65996982503E+01 -0.49942549887E+03  0.22871928385E+04  0.23428113583E+04  0.89691667157E+02 0.  0.
        254    2    1    2    0    0  0.65996982503E+01  0.49942549887E+03  0.31022233686E+03  0.10711588786E+04  0.89536252992E+03 0.  0.
        -24    2    4    4    0    0 -0.16380558391E+03  0.59629750570E+03 -0.78270009775E+02  0.62862106355E+03  0.81457120507E+02 0.  0.
         24    2    4    4    0    0  0.17040528216E+03 -0.96872006828E+02  0.38849234664E+03  0.44253781505E+03  0.80568408570E+02 0.  0.
         11    1    3    3    0    0  0.10722018707E+02 -0.41847853917E+02  0.11423127843E+03  0.12212694025E+03  0.00000000000E+00 0.  1.
        -11    1    3    3    0    0 -0.17321716957E+02 -0.45757764496E+03  0.21729615601E+04  0.22206844181E+04  0.00000000000E+00 0. -1.
          4    1    6    6  502    0  0.42322226173E+02 -0.20039622743E+02  0.18048435122E+03  0.18646007172E+03  0.00000000000E+00 0. -1.
          1    1    5    5  503    0 -0.47710714822E+00  0.82414678194E+02 -0.28114436492E+02  0.87079437024E+02  0.00000000000E+00 0. -1.
         -2    1    5    5    0  503 -0.16332847676E+03  0.51388282751E+03 -0.50155573283E+02  0.54154162653E+03  0.00000000000E+00 0.  1.
         -3    1    6    6    0  502  0.12808305599E+03 -0.76832384085E+02  0.20800799541E+03  0.25607774334E+03  0.00000000000E+00 0.  1.
<mgrwt>
<rscale>  0 0.22155422E+04</rscale>
<asrwt>0</asrwt>
<pdfrwt beam="1">  1        1 0.46241425E+00 0.22155422E+04</pdfrwt>
<pdfrwt beam="2">  1       -1 0.62811930E-01 0.22155422E+04</pdfrwt>
<totfact> 0.13869942E+00</totfact>
</mgrwt>
</event>
<event>
12    1  0.1518126E-007  0.2216007E+04  0.7818608E-02  0.8511795E-01
          1   -1    0    0  501    0  0.00000000000E+00  0.00000000000E+00  0.92577517736E+03  0.92577517736E+03  0.00000000000E+00 0. -1.
         -1   -1    0    0    0  501 -0.00000000000E+00 -0.00000000000E+00 -0.13261013281E+04  0.13261013281E+04  0.00000000000E+00 0.  1.
         23    2    1    2    0    0 -0.19679284446E+03  0.65785961566E+03 -0.79371878434E+03  0.10537782360E+04  0.94616936059E+02 0.  0.
        254    2    1    2    0    0  0.19679284446E+03 -0.65785961566E+03  0.39339263361E+03  0.11980982694E+04  0.89954155070E+03 0.  0.
        -24    2    4    4    0    0  0.34324314514E+03 -0.29209361552E+03  0.59334185288E+03  0.74922142763E+03  0.78381479516E+02 0.  0.
         24    2    4    4    0    0 -0.14645030067E+03 -0.36576600014E+03 -0.19994921927E+03  0.44887684178E+03  0.79235543609E+02 0.  0.
         13    1    3    3    0    0 -0.99468563548E+01  0.13197353689E+03 -0.19079211738E+03  0.23220160733E+03  0.00000000000E+00 0. -1.
        -13    1    3    3    0    0 -0.18684598811E+03  0.52588607877E+03 -0.60292666695E+03  0.82157662871E+03  0.00000000000E+00 0.  1.
          4    1    6    6  502    0 -0.79250522060E+02 -0.17067604409E+03 -0.52807367939E+02  0.19544711658E+03  0.00000000000E+00 0. -1.
          1    1    5    5  503    0  0.73693468987E+02 -0.51306521431E+02  0.73301055815E+02  0.11591432740E+03  0.00000000000E+00 0. -1.
         -2    1    5    5    0  503  0.26954967615E+03 -0.24078709409E+03  0.52004079707E+03  0.63330710023E+03  0.00000000000E+00 0.  1.
         -3    1    6    6    0  502 -0.67199778613E+02 -0.19508995605E+03 -0.14714185133E+03  0.25342972519E+03  0.00000000000E+00 0.  1.
<mgrwt>
<rscale>  0 0.22160069E+04</rscale>
<asrwt>0</asrwt>
<pdfrwt beam="1">  1        1 0.14242695E+00 0.22160069E+04</pdfrwt>
<pdfrwt beam="2">  1       -1 0.20401559E+00 0.22160069E+04</pdfrwt>
<totfact> 0.22290339E+00</totfact>
</mgrwt>
</event>
<event>
12    1  0.1518126E-007  0.1471856E+04  0.7818608E-02  0.8903387E-01
          1   -1    0    0  501    0  0.00000000000E+00  0.00000000000E+00  0.11268239558E+04  0.11268239558E+04  0.00000000000E+00 0. -1.
         -1   -1    0    0    0  501 -0.00000000000E+00 -0.00000000000E+00 -0.48063408018E+03  0.48063408018E+03  0.00000000000E+00 0.  1.
         23    2    1    2    0    0  0.41188971119E+03  0.14045783268E+00  0.41956865673E+03  0.59578051428E+03  0.96246608111E+02 0.  0.
        254    2    1    2    0    0 -0.41188971119E+03 -0.14045783268E+00  0.22662121886E+03  0.10116775217E+04  0.89581308157E+03 0.  0.
        -24    2    4    4    0    0 -0.37112813876E+03  0.40026405675E+03  0.24000423021E+03  0.60127093027E+03  0.77312939187E+02 0.  0.
         24    2    4    4    0    0 -0.40761572433E+02 -0.40040451458E+03 -0.13383011350E+02  0.41040659141E+03  0.79178180008E+02 0.  0.
         13    1    3    3    0    0  0.38001758170E+03  0.20704723044E+02  0.35259328649E+03  0.51881024820E+03  0.00000000000E+00 0. -1.
        -13    1    3    3    0    0  0.31872129493E+02 -0.20564265211E+02  0.66975370246E+02  0.76970266088E+02  0.00000000000E+00 0.  1.
          4    1    6    6  502    0 -0.13803898362E+02 -0.38592572111E+02  0.20840748655E+02  0.45981203080E+02  0.00000000000E+00 0. -1.
          1    1    5    5  503    0  0.70187552030E+00 -0.10189952285E+01 -0.25552180487E+01  0.28390350118E+01  0.00000000000E+00 0. -1.
         -2    1    5    5    0  503 -0.37183001428E+03  0.40128305198E+03  0.24255944826E+03  0.59843189526E+03  0.00000000000E+00 0.  1.
         -3    1    6    6    0  502 -0.26957674070E+02 -0.36181194247E+03 -0.34223760005E+02  0.36442538833E+03  0.00000000000E+00 0.  1.
<mgrwt>
<rscale>  0 0.14718560E+04</rscale>
<asrwt>0</asrwt>
<pdfrwt beam="1">  1        1 0.17335753E+00 0.14718560E+04</pdfrwt>
<pdfrwt beam="2">  1       -1 0.73943705E-01 0.14718560E+04</pdfrwt>
<totfact> 0.21616057E+01</totfact>
</mgrwt>
</event>
<event>
12    1  0.1518126E-007  0.1625597E+04  0.7818608E-02  0.8804975E-01
         -2   -1    0    0    0  501 -0.00000000000E+00  0.00000000000E+00  0.35047131499E+03  0.35047131499E+03  0.00000000000E+00 0.  1.
          2   -1    0    0  501    0  0.00000000000E+00 -0.00000000000E+00 -0.18850087105E+04  0.18850087105E+04  0.00000000000E+00 0. -1.
         23    2    1    2    0    0  0.53203372435E+03  0.12838717122E+03 -0.37751270639E+03  0.67103602982E+03  0.90721332984E+02 0.  0.
        254    2    1    2    0    0 -0.53203372435E+03 -0.12838717122E+03 -0.11570246891E+04  0.15644439956E+04  0.89957530797E+03 0.  0.
        -24    2    4    4    0    0 -0.51524946766E+03 -0.18929816270E+03 -0.18191567807E+03  0.58402253631E+03  0.81689660725E+02 0.  0.
         24    2    4    4    0    0 -0.16784256689E+02  0.60910991476E+02 -0.97510901102E+03  0.98042145932E+03  0.79979962234E+02 0.  0.
         11    1    3    3    0    0  0.45086312787E+03  0.73998461474E+02 -0.31726521363E+03  0.55624684103E+03  0.00000000000E+00 0.  1.
        -11    1    3    3    0    0  0.81170596474E+02  0.54388709749E+02 -0.60247492760E+02  0.11478918879E+03  0.00000000000E+00 0. -1.
          4    1    6    6  502    0 -0.48612394204E+02  0.34823501142E+02 -0.64233103152E+03  0.64510851425E+03  0.00000000000E+00 0. -1.
          1    1    5    5  503    0 -0.46501749823E+03 -0.19171911777E+03 -0.15176098280E+03  0.52538451603E+03  0.00000000000E+00 0. -1.
         -2    1    5    5    0  503 -0.50231969426E+02  0.24209550760E+01 -0.30154695269E+02  0.58638020282E+02  0.00000000000E+00 0.  1.
         -3    1    6    6    0  502  0.31828137515E+02  0.26087490334E+02 -0.33277797950E+03  0.33531294507E+03  0.00000000000E+00 0.  1.
<mgrwt>
<rscale>  0 0.16255971E+04</rscale>
<asrwt>0</asrwt>
<pdfrwt beam="1">  1        2 0.29000134E+00 0.16255971E+04</pdfrwt>
<pdfrwt beam="2">  1       -2 0.53918664E-01 0.16255971E+04</pdfrwt>
<totfact> 0.24001533E+01</totfact>
</mgrwt>
</event>
<event>
12    1  0.1518126E-007  0.2900663E+04  0.7818608E-02  0.8272680E-01
         -1   -1    0    0    0  501 -0.00000000000E+00  0.00000000000E+00  0.11022977295E+04  0.11022977295E+04  0.00000000000E+00 0.  1.
          1   -1    0    0  501    0  0.00000000000E+00 -0.00000000000E+00 -0.19082517026E+04  0.19082517026E+04  0.00000000000E+00 0. -1.
         23    2    1    2    0    0  0.29880493115E+03  0.10618109777E+04  0.37009149907E+03  0.11671252072E+04  0.92122703730E+02 0.  0.
        254    2    1    2    0    0 -0.29880493115E+03 -0.10618109777E+04 -0.11760454722E+04  0.18434242249E+04  0.89353398433E+03 0.  0.
        -24    2    4    4    0    0  0.29225761811E+03 -0.25755393114E+03 -0.48420330087E+03  0.62663769413E+03  0.80457568607E+02 0.  0.
         24    2    4    4    0    0 -0.59106254927E+03 -0.80425704652E+03 -0.69184217129E+03  0.12167865308E+04  0.75759734807E+02 0.  0.
         11    1    3    3    0    0  0.77005893136E+02  0.29565832664E+03  0.60013034072E+02  0.31136043093E+03  0.00000000000E+00 0.  1.
        -11    1    3    3    0    0  0.22179903801E+03  0.76615265103E+03  0.31007846499E+03  0.85576477632E+03  0.00000000000E+00 0. -1.
          4    1    6    6  502    0 -0.67520427703E+02 -0.12610051322E+03 -0.78791228295E+02  0.16330463939E+03  0.00000000000E+00 0. -1.
          3    1    5    5  503    0  0.26842960738E+03 -0.23811698011E+03 -0.47345021348E+03  0.59406165924E+03  0.00000000000E+00 0. -1.
         -4    1    5    5    0  503  0.23828010733E+02 -0.19436951030E+02 -0.10753087383E+02  0.32576034889E+02  0.00000000000E+00 0.  1.
         -3    1    6    6    0  502 -0.52354212156E+03 -0.67815653331E+03 -0.61305094300E+03  0.10534818914E+04  0.00000000000E+00 0.  1.
<mgrwt>
<rscale>  0 0.29006630E+04</rscale>
<asrwt>0</asrwt>
<pdfrwt beam="1">  1        1 0.29357718E+00 0.29006630E+04</pdfrwt>
<pdfrwt beam="2">  1       -1 0.16958427E+00 0.29006630E+04</pdfrwt>
<totfact> 0.73154088E-01</totfact>
</mgrwt>
</event>
<event>
12    1  0.1518126E-007  0.1134040E+04  0.7818608E-02  0.9172635E-01
          2   -1    0    0  501    0  0.00000000000E+00  0.00000000000E+00  0.12345072529E+04  0.12345072529E+04  0.00000000000E+00 0. -1.
         -2   -1    0    0    0  501 -0.00000000000E+00 -0.00000000000E+00 -0.26043737677E+03  0.26043737677E+03  0.00000000000E+00 0.  1.
         23    2    1    2    0    0 -0.14683821277E+03  0.13887978490E+03  0.24806461979E+03  0.33359940836E+03  0.94358117228E+02 0.  0.
        254    2    1    2    0    0  0.14683821277E+03 -0.13887978490E+03  0.72600525634E+03  0.11613452213E+04  0.88362324294E+03 0.  0.
        -24    2    4    4    0    0  0.15198969351E+03 -0.48345453932E+02 -0.17623844890E+03  0.25094780768E+03  0.80477707862E+02 0.  0.
         24    2    4    4    0    0 -0.51514807397E+01 -0.90534330966E+02  0.90224370524E+03  0.91039741363E+03  0.80973725837E+02 0.  0.
         13    1    3    3    0    0 -0.13179377902E+03  0.13607254201E+03  0.17154423254E+03  0.25556361360E+03  0.00000000000E+00 0. -1.
        -13    1    3    3    0    0 -0.15044433744E+02  0.28072428859E+01  0.76520387251E+02  0.78035794764E+02  0.00000000000E+00 0.  1.
          4    1    6    6  502    0 -0.36381987162E+02 -0.76597166835E+02  0.71963093866E+03  0.72460986940E+03  0.00000000000E+00 0. -1.
          1    1    5    5  503    0  0.15619734759E+03 -0.40666072235E+02 -0.13998526439E+03  0.21365208886E+03  0.00000000000E+00 0. -1.
         -2    1    5    5    0  503 -0.42076540837E+01 -0.76793816974E+01 -0.36253184503E+02  0.37295718826E+02  0.00000000000E+00 0.  1.
         -3    1    6    6    0  502  0.31230506423E+02 -0.13937164131E+02  0.18261276657E+03  0.18578754423E+03  0.00000000000E+00 0.  1.
<mgrwt>
<rscale>  0 0.11340403E+04</rscale>
<asrwt>0</asrwt>
<pdfrwt beam="1">  1        2 0.18992419E+00 0.11340403E+04</pdfrwt>
<pdfrwt beam="2">  1       -2 0.40067290E-01 0.11340403E+04</pdfrwt>
<totfact> 0.10543708E+02</totfact>
</mgrwt>
</event>
<event>
12    1  0.1518126E-007  0.2005409E+04  0.7818608E-02  0.8604096E-01
          2   -1    0    0  501    0  0.00000000000E+00  0.00000000000E+00  0.35188606857E+04  0.35188606857E+04  0.00000000000E+00 0. -1.
         -2   -1    0    0    0  501 -0.00000000000E+00 -0.00000000000E+00 -0.28572203967E+03  0.28572203967E+03  0.00000000000E+00 0.  1.
         23    2    1    2    0    0 -0.11996977131E+03 -0.63609538720E+03  0.40727409960E+03  0.77028161627E+03  0.91931977592E+02 0.  0.
        254    2    1    2    0    0  0.11996977131E+03  0.63609538720E+03  0.28258645464E+04  0.30343011091E+04  0.89580282333E+03 0.  0.
        -24    2    4    4    0    0 -0.24389485775E+03  0.66338623596E+03  0.21092666320E+04  0.22260014306E+04  0.80688566925E+02 0.  0.
         24    2    4    4    0    0  0.36386462906E+03 -0.27290848765E+02  0.71659791448E+03  0.80829967847E+03  0.81814060329E+02 0.  0.
         13    1    3    3    0    0 -0.13425196583E+03 -0.56353187195E+03  0.37089635467E+03  0.68786326180E+03  0.00000000000E+00 0.  1.
        -13    1    3    3    0    0  0.14282194518E+02 -0.72563515254E+02  0.36377744931E+02  0.82418354464E+02  0.00000000000E+00 0. -1.
          4    1    6    6  502    0  0.25393243401E+02  0.10691513612E+02  0.24226382727E+02  0.36688457228E+02  0.00000000000E+00 0. -1.
          3    1    5    5  503    0 -0.23507033402E+02  0.15049391038E+03  0.40931439600E+03  0.43673707475E+03  0.00000000000E+00 0. -1.
         -4    1    5    5    0  503 -0.22038782434E+03  0.51289232559E+03  0.16999522359E+04  0.17892643559E+04  0.00000000000E+00 0.  1.
         -3    1    6    6    0  502  0.33847138565E+03 -0.37982362377E+02  0.69237153176E+03  0.77161122124E+03  0.00000000000E+00 0.  1.
<mgrwt>
<rscale>  0 0.20054087E+04</rscale>
<asrwt>0</asrwt>
<pdfrwt beam="1">  1        2 0.54136315E+00 0.20054087E+04</pdfrwt>
<pdfrwt beam="2">  1       -2 0.43957239E-01 0.20054087E+04</pdfrwt>
<totfact> 0.36146548E+00</totfact>
</mgrwt>
</event>
<event>
12    1  0.1518126E-007  0.1880118E+04  0.7818608E-02  0.8664817E-01
          2   -1    0    0  501    0  0.00000000000E+00  0.00000000000E+00  0.16839585874E+04  0.16839585874E+04  0.00000000000E+00 0. -1.
         -2   -1    0    0    0  501 -0.00000000000E+00 -0.00000000000E+00 -0.52478205149E+03  0.52478205149E+03  0.00000000000E+00 0.  1.
         23    2    1    2    0    0 -0.15515852843E+03  0.13293391939E+03  0.12600027768E+04  0.12799293579E+04  0.94162453724E+02 0.  0.
        254    2    1    2    0    0  0.15515852843E+03 -0.13293391939E+03 -0.10082624090E+03  0.92881128102E+03  0.90043260105E+03 0.  0.
        -24    2    4    4    0    0  0.40101862070E+03  0.15599426939E+03  0.15439430603E+03  0.46405510105E+03  0.79745776352E+02 0.  0.
         24    2    4    4    0    0 -0.24586009227E+03 -0.28892818878E+03 -0.25522054693E+03  0.46475617997E+03  0.83271219581E+02 0.  0.
         11    1    3    3    0    0 -0.13258476652E+03  0.82716592119E+02  0.10922488797E+04  0.11033713655E+04  0.00000000000E+00 0. -1.
        -11    1    3    3    0    0 -0.22573761907E+02  0.50217327271E+02  0.16775389712E+03  0.17655799241E+03  0.00000000000E+00 0.  1.
          4    1    6    6  502    0 -0.23764544682E+02 -0.22951920398E+02 -0.56105830080E+02  0.65110739535E+02  0.00000000000E+00 0. -1.
          3    1    5    5  503    0  0.32529367703E+02  0.98696958193E+00 -0.63950447996E+01  0.33166707255E+02  0.00000000000E+00 0. -1.
         -4    1    5    5    0  503  0.36848925300E+03  0.15500729980E+03  0.16078935083E+03  0.43088839379E+03  0.00000000000E+00 0.  1.
         -3    1    6    6    0  502 -0.22209554759E+03 -0.26597626838E+03 -0.19911471685E+03  0.39964544044E+03  0.00000000000E+00 0.  1.
<mgrwt>
<rscale>  0 0.18801183E+04</rscale>
<asrwt>0</asrwt>
<pdfrwt beam="1">  1        2 0.25907055E+00 0.18801183E+04</pdfrwt>
<pdfrwt beam="2">  1       -2 0.80735701E-01 0.18801183E+04</pdfrwt>
<totfact> 0.12714821E+01</totfact>
</mgrwt>
</event>
<event>
12    1  0.2347976E-007  0.1665551E+04  0.7818608E-02  0.8781260E-01
          1   -1    0    0  501    0  0.00000000000E+00  0.00000000000E+00  0.24927604373E+04  0.24927604373E+04  0.00000000000E+00 0. -1.
         -1   -1    0    0    0  501 -0.00000000000E+00 -0.00000000000E+00 -0.27821159486E+03  0.27821159486E+03  0.00000000000E+00 0.  1.
         23    2    1    2    0    0 -0.36154079846E+03  0.36897161443E+03  0.12018245882E+04  0.13112972486E+04  0.90919371819E+02 0.  0.
        254    2    1    2    0    0  0.36154079846E+03 -0.36897161443E+03  0.10127242542E+04  0.14596747835E+04  0.91552621886E+03 0.  0.
        -24    2    4    4    0    0  0.41406235207E+03  0.20414775130E+03  0.40953146980E+03  0.62216951576E+03  0.79088215398E+02 0.  0.
         24    2    4    4    0    0 -0.52521553612E+02 -0.57311936573E+03  0.60319278439E+03  0.83750526777E+03  0.79681976792E+02 0.  0.
         13    1    3    3    0    0 -0.25221864361E+03  0.23982999100E+03  0.70065812027E+03  0.78233910184E+03  0.00000000000E+00 0. -1.
        -13    1    3    3    0    0 -0.10932215485E+03  0.12914162342E+03  0.50116646795E+03  0.52895814677E+03  0.00000000000E+00 0.  1.
          4    1    6    6  502    0  0.57743200391E+01 -0.11005151106E+03  0.78691944924E+02  0.13541454890E+03  0.00000000000E+00 0. -1.
          1    1    5    5  503    0  0.31722256680E+02  0.22176978835E+02  0.67671161260E+02  0.77958360844E+02  0.00000000000E+00 0. -1.
         -2    1    5    5    0  503  0.38234009539E+03  0.18197077247E+03  0.34186030854E+03  0.54421115492E+03  0.00000000000E+00 0.  1.
         -3    1    6    6    0  502 -0.58295873651E+02 -0.46306785468E+03  0.52450083947E+03  0.70209071887E+03  0.00000000000E+00 0.  1.
<mgrwt>
<rscale>  0 0.16655508E+04</rscale>
<asrwt>0</asrwt>
<pdfrwt beam="1">  1        1 0.38350159E+00 0.16655508E+04</pdfrwt>
<pdfrwt beam="2">  1       -1 0.42801786E-01 0.16655508E+04</pdfrwt>
<totfact> 0.70434656E+00</totfact>
</mgrwt>
</event>
<event>
12    1  0.1518126E-007  0.1526986E+04  0.7818608E-02  0.8866703E-01
          1   -1    0    0  501    0  0.00000000000E+00  0.00000000000E+00  0.11418474798E+04  0.11418474798E+04  0.00000000000E+00 0. -1.
         -1   -1    0    0    0  501 -0.00000000000E+00 -0.00000000000E+00 -0.51050756980E+03  0.51050756980E+03  0.00000000000E+00 0.  1.
         23    2    1    2    0    0  0.16624834862E+02  0.90412689200E+02 -0.31389586898E+03  0.33905295355E+03  0.89305370767E+02 0.  0.
        254    2    1    2    0    0 -0.16624834862E+02 -0.90412689200E+02  0.94523577901E+03  0.13133020961E+04  0.90710577010E+03 0.  0.
        -24    2    4    4    0    0  0.20019062365E+03  0.28559727914E+03  0.12072446474E+03  0.37772116604E+03  0.80354161279E+02 0.  0.
         24    2    4    4    0    0 -0.21681545851E+03 -0.37600996834E+03  0.82451131427E+03  0.93558093005E+03  0.84263455658E+02 0.  0.
         11    1    3    3    0    0  0.12125231586E+02  0.24383564305E+02 -0.11604250941E+02  0.29601319043E+02  0.00000000000E+00 0. -1.
        -11    1    3    3    0    0  0.44996032757E+01  0.66029124896E+02 -0.30229161803E+03  0.30945163451E+03  0.00000000000E+00 0.  1.
          2    1    6    6  502    0 -0.23232038179E+02 -0.11392347848E+03  0.21072081581E+03  0.24066896094E+03  0.00000000000E+00 0. -1.
          1    1    5    5  503    0  0.13160093525E+03  0.24454475352E+03  0.99758279519E+02  0.29508076346E+03  0.00000000000E+00 0. -1.
         -2    1    5    5    0  503  0.68589688403E+02  0.41052525623E+02  0.20966185216E+02  0.82640402576E+02  0.00000000000E+00 0.  1.
         -1    1    6    6    0  502 -0.19358342033E+03 -0.26208648986E+03  0.61379049846E+03  0.69491196910E+03  0.00000000000E+00 0.  1.
<mgrwt>
<rscale>  0 0.15269863E+04</rscale>
<asrwt>0</asrwt>
<pdfrwt beam="1">  1        1 0.17566884E+00 0.15269863E+04</pdfrwt>
<pdfrwt beam="2">  1       -1 0.78539626E-01 0.15269863E+04</pdfrwt>
<totfact> 0.18472805E+01</totfact>
</mgrwt>
</event>
<event>
12    1  0.1518126E-007  0.1980836E+04  0.7818608E-02  0.8615633E-01
         -2   -1    0    0    0  501 -0.00000000000E+00  0.00000000000E+00  0.43845866014E+03  0.43845866014E+03  0.00000000000E+00 0.  1.
          2   -1    0    0  501    0  0.00000000000E+00 -0.00000000000E+00 -0.22372181518E+04  0.22372181518E+04  0.00000000000E+00 0. -1.
         23    2    1    2    0    0 -0.17030166050E+03  0.43004834623E+03  0.12522153397E+03  0.48742163108E+03  0.89191805723E+02 0.  0.
        254    2    1    2    0    0  0.17030166050E+03 -0.43004834623E+03 -0.19239810256E+04  0.21882551809E+04  0.93424488969E+03 0.  0.
        -24    2    4    4    0    0  0.10768690207E+03  0.24300315899E+03 -0.21954842943E+03  0.35299006099E+03  0.75851606047E+02 0.  0.
         24    2    4    4    0    0  0.62614758430E+02 -0.67305150522E+03 -0.17044325962E+04  0.18352651199E+04  0.78667963865E+02 0.  0.
         13    1    3    3    0    0 -0.82067993630E+02  0.17955800995E+03  0.98131062608E+02  0.22046754855E+03  0.00000000000E+00 0. -1.
        -13    1    3    3    0    0 -0.88233666874E+02  0.25049033628E+03  0.27090471365E+02  0.26695408253E+03  0.00000000000E+00 0.  1.
          4    1    6    6  502    0  0.28810510682E+02 -0.24175154863E+03 -0.71734713872E+03  0.75753598873E+03  0.00000000000E+00 0. -1.
          1    1    5    5  503    0  0.27290518368E+02  0.14586319718E+03 -0.97881305551E+02  0.17776837362E+03  0.00000000000E+00 0. -1.
         -2    1    5    5    0  503  0.80396383705E+02  0.97139961814E+02 -0.12166712387E+03  0.17522168737E+03  0.00000000000E+00 0.  1.
         -3    1    6    6    0  502  0.33804247748E+02 -0.43129995660E+03 -0.98708545747E+03  0.10777291311E+04  0.00000000000E+00 0.  1.
<mgrwt>
<rscale>  0 0.19808359E+04</rscale>
<asrwt>0</asrwt>
<pdfrwt beam="1">  1        2 0.34418740E+00 0.19808359E+04</pdfrwt>
<pdfrwt beam="2">  1       -2 0.67455180E-01 0.19808359E+04</pdfrwt>
<totfact> 0.92263990E+00</totfact>
</mgrwt>
</event>
<event>
12    1  0.1518126E-007  0.1985179E+04  0.7818608E-02  0.8613582E-01
          2   -1    0    0  501    0  0.00000000000E+00  0.00000000000E+00  0.27007932974E+04  0.27007932974E+04  0.00000000000E+00 0. -1.
         -2   -1    0    0    0  501 -0.00000000000E+00 -0.00000000000E+00 -0.36479413656E+03  0.36479413656E+03  0.00000000000E+00 0.  1.
         23    2    1    2    0    0 -0.47711204489E+03 -0.39191364199E+03  0.16800510330E+04  0.17921449018E+04  0.89328995261E+02 0.  0.
        254    2    1    2    0    0  0.47711204489E+03  0.39191364199E+03  0.65594812787E+03  0.12734425322E+04  0.90008651262E+03 0.  0.
        -24    2    4    4    0    0  0.10678380449E+03 -0.20130004945E+03  0.49582334772E+03  0.55153308281E+03  0.80146481395E+02 0.  0.
         24    2    4    4    0    0  0.37032824040E+03  0.59321369144E+03  0.16012478015E+03  0.72190944939E+03  0.80422748910E+02 0.  0.
         13    1    3    3    0    0 -0.37031297576E+03 -0.28080031624E+03  0.13532317149E+04  0.14308097679E+04  0.00000000000E+00 0. -1.
        -13    1    3    3    0    0 -0.10679906913E+03 -0.11111332575E+03  0.32681931806E+03  0.36133513389E+03  0.00000000000E+00 0.  1.
          2    1    6    6  502    0  0.20412086780E+03  0.26386736487E+03  0.53212819727E+02  0.33782083875E+03  0.00000000000E+00 0. -1.
          3    1    5    5  503    0  0.16022175515E+01 -0.24855786523E+02  0.16040199344E+02  0.29625415098E+02  0.00000000000E+00 0. -1.
         -4    1    5    5    0  503  0.10518158694E+03 -0.17644426293E+03  0.47978314838E+03  0.52190766772E+03  0.00000000000E+00 0.  1.
         -1    1    6    6    0  502  0.16620737260E+03  0.32934632658E+03  0.10691196042E+03  0.38408861063E+03  0.00000000000E+00 0.  1.
<mgrwt>
<rscale>  0 0.19851786E+04</rscale>
<asrwt>0</asrwt>
<pdfrwt beam="1">  1        2 0.41550665E+00 0.19851786E+04</pdfrwt>
<pdfrwt beam="2">  1       -2 0.56122177E-01 0.19851786E+04</pdfrwt>
<totfact> 0.73634474E+00</totfact>
</mgrwt>
</event>
<event>
12    1  0.1518126E-007  0.1638429E+04  0.7818608E-02  0.8797281E-01
         -2   -1    0    0    0  501 -0.00000000000E+00  0.00000000000E+00  0.77524487093E+03  0.77524487093E+03  0.00000000000E+00 0. -1.
          2   -1    0    0  501    0  0.00000000000E+00 -0.00000000000E+00 -0.86567804492E+03  0.86567804492E+03  0.00000000000E+00 0.  1.
         23    2    1    2    0    0  0.42760656936E+03  0.23318919758E+03  0.26073323730E+03  0.55970385297E+03  0.89788651656E+02 0.  0.
        254    2    1    2    0    0 -0.42760656936E+03 -0.23318919758E+03 -0.35116641128E+03  0.10812190629E+04  0.89916196178E+03 0.  0.
        -24    2    4    4    0    0  0.43893913742E+02 -0.12227698441E+03 -0.53579239552E+03  0.55714839695E+03  0.80389729142E+02 0.  0.
         24    2    4    4    0    0 -0.47150048310E+03 -0.11091221317E+03  0.18462598424E+03  0.52407066593E+03  0.77130306877E+02 0.  0.
         11    1    3    3    0    0  0.78272295674E+02  0.43765154579E+02  0.90450681265E+02  0.12737058831E+03  0.00000000000E+00 0. -1.
        -11    1    3    3    0    0  0.34933427369E+03  0.18942404300E+03  0.17028255603E+03  0.43233326466E+03  0.00000000000E+00 0.  1.
          4    1    6    6  502    0 -0.15131819916E+02 -0.94134794334E+00  0.23091761163E+02  0.27624039233E+02  0.00000000000E+00 0. -1.
          3    1    5    5  503    0  0.10315955937E+02  0.37146479195E+01 -0.14005905154E+03  0.14048756342E+03  0.00000000000E+00 0. -1.
         -4    1    5    5    0  503  0.33577957806E+02 -0.12599163233E+03 -0.39573334398E+03  0.41666083354E+03  0.00000000000E+00 0.  1.
         -3    1    6    6    0  502 -0.45636866319E+03 -0.10997086522E+03  0.16153422308E+03  0.49644662670E+03  0.00000000000E+00 0.  1.
<mgrwt>
<rscale>  0 0.16384291E+04</rscale>
<asrwt>0</asrwt>
<pdfrwt beam="1">  1        2 0.13318124E+00 0.16384291E+04</pdfrwt>
<pdfrwt beam="2">  1       -2 0.11926844E+00 0.16384291E+04</pdfrwt>
<totfact> 0.15954682E+01</totfact>
</mgrwt>
</event>
<event>
12    1  0.1518126E-007  0.3790631E+04  0.7818608E-02  0.8048168E-01
         -2   -1    0    0    0  501 -0.00000000000E+00  0.00000000000E+00  0.20314937194E+04  0.20314937194E+04  0.00000000000E+00 0.  1.
          2   -1    0    0  501    0  0.00000000000E+00 -0.00000000000E+00 -0.17682659557E+04  0.17682659557E+04  0.00000000000E+00 0. -1.
         23    2    1    2    0    0 -0.20991979903E+02 -0.13202501964E+04  0.13339141131E+04  0.18791854830E+04  0.92249519970E+02 0.  0.
        254    2    1    2    0    0  0.20991979903E+02  0.13202501964E+04 -0.10706863493E+04  0.19205741922E+04  0.89371960075E+03 0.  0.
        -24    2    4    4    0    0 -0.34315708126E+03  0.87708554542E+03 -0.92666746267E+03  0.13237534456E+04  0.81084905848E+02 0.  0.
         24    2    4    4    0    0  0.36414906116E+03  0.44316465102E+03 -0.14401888668E+03  0.59682074663E+03  0.80337520708E+02 0.  0.
         11    1    3    3    0    0 -0.49798102937E+02 -0.76522511365E+03  0.80963384811E+03  0.11151485523E+04  0.00000000000E+00 0.  1.
        -11    1    3    3    0    0  0.28806123034E+02 -0.55502508279E+03  0.52428026494E+03  0.76403693069E+03  0.00000000000E+00 0. -1.
          2    1    6    6  502    0  0.33191286470E+03  0.43155063590E+03 -0.12956931395E+03  0.55963408422E+03  0.00000000000E+00 0. -1.
          1    1    5    5  503    0 -0.26605294445E+03  0.59135284769E+03 -0.66288788161E+03  0.92730938920E+03  0.00000000000E+00 0. -1.
         -2    1    5    5    0  503 -0.77104136815E+02  0.28573269773E+03 -0.26377958105E+03  0.39644405639E+03  0.00000000000E+00 0.  1.
         -1    1    6    6    0  502  0.32236196459E+02  0.11614015114E+02 -0.14449572734E+02  0.37186662413E+02  0.00000000000E+00 0.  1.
<mgrwt>
<rscale>  0 0.37906312E+04</rscale>
<asrwt>0</asrwt>
<pdfrwt beam="1">  1        2 0.27204092E+00 0.37906312E+04</pdfrwt>
<pdfrwt beam="2">  1       -2 0.31253749E+00 0.37906312E+04</pdfrwt>
<totfact> 0.19193843E-01</totfact>
</mgrwt>
</event>
<event>
12    1  0.1518126E-007  0.1681907E+04  0.7818608E-02  0.8771752E-01
         -2   -1    0    0    0  501 -0.00000000000E+00  0.00000000000E+00  0.74456703934E+03  0.74456703934E+03  0.00000000000E+00 0. -1.
          2   -1    0    0  501    0  0.00000000000E+00 -0.00000000000E+00 -0.94981691723E+03  0.94981691723E+03  0.00000000000E+00 0.  1.
         23    2    1    2    0    0  0.28097550831E+03 -0.23533179044E+03  0.39196795006E+03  0.54424421310E+03  0.90744706471E+02 0.  0.
        254    2    1    2    0    0 -0.28097550831E+03  0.23533179044E+03 -0.59721782795E+03  0.11501397435E+04  0.91204386277E+03 0.  0.
        -24    2    4    4    0    0  0.10306521610E+03 -0.12708884686E+03 -0.58816978730E+03  0.61585309466E+03  0.80977291546E+02 0.  0.
         24    2    4    4    0    0 -0.38404072442E+03  0.36242063730E+03 -0.90480406509E+01  0.53428664880E+03  0.80897216867E+02 0.  0.
         13    1    3    3    0    0  0.24084579214E+03 -0.15127871622E+03  0.29758759947E+03  0.41164344393E+03  0.00000000000E+00 0. -1.
        -13    1    3    3    0    0  0.40129716168E+02 -0.84053074218E+02  0.94380350592E+02  0.13260076916E+03  0.00000000000E+00 0.  1.
          2    1    6    6  502    0 -0.13591028352E+03  0.12869037660E+03  0.35505044302E+02  0.19050833674E+03  0.00000000000E+00 0. -1.
          3    1    5    5  503    0  0.78819734137E+02 -0.84076714609E+02 -0.51393368744E+03  0.52669657253E+03  0.00000000000E+00 0. -1.
         -4    1    5    5    0  503  0.24245481966E+02 -0.43012132251E+02 -0.74236099867E+02  0.89156522139E+02  0.00000000000E+00 0.  1.
         -1    1    6    6    0  502 -0.24813044089E+03  0.23373026070E+03 -0.44553084953E+02  0.34377831206E+03  0.00000000000E+00 0.  1.
<mgrwt>
<rscale>  0 0.16819065E+04</rscale>
<asrwt>0</asrwt>
<pdfrwt beam="1">  1        2 0.14612568E+00 0.16819065E+04</pdfrwt>
<pdfrwt beam="2">  1       -2 0.11454878E+00 0.16819065E+04</pdfrwt>
<totfact> 0.15407564E+01</totfact>
</mgrwt>
</event>
<event>
12    1  0.1518126E-007  0.1299426E+04  0.7818608E-02  0.9030021E-01
         -1   -1    0    0    0  501 -0.00000000000E+00  0.00000000000E+00  0.48173463843E+03  0.48173463843E+03  0.00000000000E+00 0.  1.
          1   -1    0    0  501    0  0.00000000000E+00 -0.00000000000E+00 -0.87626419207E+03  0.87626419207E+03  0.00000000000E+00 0. -1.
         23    2    1    2    0    0  0.15065465410E+03 -0.25188136249E+03  0.33626881852E+02  0.30898528215E+03  0.90554358433E+02 0.  0.
        254    2    1    2    0    0 -0.15065465410E+03  0.25188136249E+03 -0.42815643550E+03  0.10490135484E+04  0.91157580365E+03 0.  0.
        -24    2    4    4    0    0  0.61508078333E+02  0.51326555225E+03 -0.46690020623E+03  0.70110644289E+03  0.79559228627E+02 0.  0.
         24    2    4    4    0    0 -0.21216273243E+03 -0.26138418976E+03  0.38743770728E+02  0.34790710546E+03  0.78762647051E+02 0.  0.
         13    1    3    3    0    0  0.13764665245E+03 -0.22377818788E+03 -0.74058274476E+00  0.26272386028E+03  0.00000000000E+00 0. -1.
        -13    1    3    3    0    0  0.13008001649E+02 -0.28103174613E+02  0.34367464597E+02  0.46261421865E+02  0.00000000000E+00 0.  1.
          4    1    6    6  502    0 -0.10401154359E+03 -0.96393692571E+02  0.49850005091E+02  0.15031689252E+03  0.00000000000E+00 0. -1.
          1    1    5    5  503    0  0.46110593479E+02  0.43828788423E+03 -0.43148797192E+03  0.61676926496E+03  0.00000000000E+00 0. -1.
         -2    1    5    5    0  503  0.15397484854E+02  0.74977668023E+02 -0.35412234306E+02  0.84337177926E+02  0.00000000000E+00 0.  1.
         -3    1    6    6    0  502 -0.10815118884E+03 -0.16499049719E+03 -0.11106234363E+02  0.19759021295E+03  0.00000000000E+00 0.  1.
<mgrwt>
<rscale>  0 0.12994257E+04</rscale>
<asrwt>0</asrwt>
<pdfrwt beam="1">  1        1 0.13480987E+00 0.12994257E+04</pdfrwt>
<pdfrwt beam="2">  1       -1 0.74113022E-01 0.12994257E+04</pdfrwt>
<totfact> 0.34297039E+01</totfact>
</mgrwt>
</event>
<event>
12    1  0.1518126E-007  0.1312681E+04  0.7818608E-02  0.9019569E-01
         -2   -1    0    0    0  501 -0.00000000000E+00  0.00000000000E+00  0.12877837770E+03  0.12877837770E+03  0.00000000000E+00 0.  1.
          2   -1    0    0  501    0  0.00000000000E+00 -0.00000000000E+00 -0.33451480075E+04  0.33451480075E+04  0.00000000000E+00 0. -1.
         23    2    1    2    0    0  0.26315205453E+03  0.19893202125E+03 -0.10278123808E+04  0.10834055505E+04  0.92446437644E+02 0.  0.
        254    2    1    2    0    0 -0.26315205453E+03 -0.19893202125E+03 -0.21885572490E+04  0.23905208347E+04  0.90331836924E+03 0.  0.
        -24    2    4    4    0    0 -0.25636041971E+03 -0.38789134800E+03 -0.49320984390E+03  0.68279917366E+03  0.82331031705E+02 0.  0.
         24    2    4    4    0    0 -0.67916348206E+01  0.18895932675E+03 -0.16953474051E+04  0.17077216611E+04  0.79741420964E+02 0.  0.
         11    1    3    3    0    0  0.10295534191E+03  0.73638325913E+02 -0.54501879305E+03  0.55952470030E+03  0.00000000000E+00 0. -1.
        -11    1    3    3    0    0  0.16019671262E+03  0.12529369533E+03 -0.48279358778E+03  0.52388085022E+03  0.00000000000E+00 0.  1.
          4    1    6    6  502    0  0.11393543415E+01  0.13802787315E+02 -0.28596776333E+02  0.31774056754E+02  0.00000000000E+00 0. -1.
          1    1    5    5  503    0 -0.93919018524E+02 -0.80342876699E+02 -0.11245900823E+03  0.16710113228E+03  0.00000000000E+00 0. -1.
         -2    1    5    5    0  503 -0.16244140118E+03 -0.30754847130E+03 -0.38075083568E+03  0.51569804138E+03  0.00000000000E+00 0.  1.
         -3    1    6    6    0  502 -0.79309891621E+01  0.17515653944E+03 -0.16667506288E+04  0.16759476043E+04  0.00000000000E+00 0.  1.
<mgrwt>
<rscale>  0 0.13126808E+04</rscale>
<asrwt>0</asrwt>
<pdfrwt beam="1">  1        2 0.51463811E+00 0.13126808E+04</pdfrwt>
<pdfrwt beam="2">  1       -2 0.19812060E-01 0.13126808E+04</pdfrwt>
<totfact> 0.22492499E+01</totfact>
</mgrwt>
</event>
<event>
12    1  0.1518126E-007  0.1756970E+04  0.7818608E-02  0.8729523E-01
         -2   -1    0    0    0  501 -0.00000000000E+00  0.00000000000E+00  0.33342718965E+03  0.33342718965E+03  0.00000000000E+00 0.  1.
          2   -1    0    0  501    0  0.00000000000E+00 -0.00000000000E+00 -0.23145548623E+04  0.23145548623E+04  0.00000000000E+00 0. -1.
         23    2    1    2    0    0  0.21093943224E+03 -0.30598295108E+03 -0.15241959085E+04  0.15715733440E+04  0.92458626247E+02 0.  0.
        254    2    1    2    0    0 -0.21093943224E+03  0.30598295108E+03 -0.45693176413E+03  0.10764087080E+04  0.90097062055E+03 0.  0.
        -24    2    4    4    0    0 -0.39630739623E+03  0.16319792708E+03 -0.63659685139E+03  0.77117730780E+03  0.75932688319E+02 0.  0.
         24    2    4    4    0    0  0.18536796398E+03  0.14278502399E+03  0.17966508726E+03  0.30523140017E+03  0.78344233491E+02 0.  0.
         11    1    3    3    0    0  0.83678293173E+02 -0.14538029310E+03 -0.87046943842E+03  0.88648436512E+03  0.00000000000E+00 0. -1.
        -11    1    3    3    0    0  0.12726113907E+03 -0.16060265798E+03 -0.65372647009E+03  0.68508897886E+03  0.00000000000E+00 0.  1.
          2    1    6    6  502    0  0.35401943822E+01  0.26850851029E+02  0.40014273334E+02  0.48318146153E+02  0.00000000000E+00 0. -1.
          3    1    5    5  503    0 -0.15333632723E+03  0.10279043635E+03 -0.28436468714E+03  0.33902976026E+03  0.00000000000E+00 0. -1.
         -4    1    5    5    0  503 -0.24297106900E+03  0.60407490731E+02 -0.35223216425E+03  0.43214754753E+03  0.00000000000E+00 0.  1.
         -1    1    6    6    0  502  0.18182776960E+03  0.11593417297E+03  0.13965081392E+03  0.25691325402E+03  0.00000000000E+00 0.  1.
<mgrwt>
<rscale>  0 0.17569696E+04</rscale>
<asrwt>0</asrwt>
<pdfrwt beam="1">  1        2 0.35608535E+00 0.17569696E+04</pdfrwt>
<pdfrwt beam="2">  1       -2 0.51296492E-01 0.17569696E+04</pdfrwt>
<totfact> 0.15141570E+01</totfact>
</mgrwt>
</event>
<event>
12    1  0.1518126E-007  0.1992987E+04  0.7818608E-02  0.8609906E-01
          2   -1    0    0  501    0  0.00000000000E+00  0.00000000000E+00  0.17421989513E+04  0.17421989513E+04  0.00000000000E+00 0. -1.
         -2   -1    0    0    0  501 -0.00000000000E+00 -0.00000000000E+00 -0.56996915164E+03  0.56996915164E+03  0.00000000000E+00 0.  1.
         23    2    1    2    0    0 -0.21672507285E+03 -0.18143257412E+03  0.13259812035E+04  0.13592319711E+04  0.96942575660E+02 0.  0.
        254    2    1    2    0    0  0.21672507285E+03  0.18143257412E+03 -0.15375140387E+03  0.95293613184E+03  0.89697282068E+03 0.  0.
        -24    2    4    4    0    0  0.59921492408E+01  0.20917998708E+03  0.34122271800E+03  0.40847674932E+03  0.81413380975E+02 0.  0.
         24    2    4    4    0    0  0.21073292361E+03 -0.27747412963E+02 -0.49497412187E+03  0.54445938253E+03  0.79109758443E+02 0.  0.
         11    1    3    3    0    0 -0.50604261712E+02  0.12010930708E+01  0.18157695709E+03  0.18850046492E+03  0.00000000000E+00 0.  1.
        -11    1    3    3    0    0 -0.16612081114E+03 -0.18263366719E+03  0.11444042464E+04  0.11707315061E+04  0.00000000000E+00 0. -1.
          2    1    6    6  502    0  0.24724269363E+02  0.81489307099E+01 -0.19170305558E+02  0.32329478537E+02  0.00000000000E+00 0. -1.
          1    1    5    5  503    0 -0.16619106472E+01  0.81577405876E+01  0.71570768105E+02  0.72053351939E+02  0.00000000000E+00 0. -1.
         -4    1    5    5    0  503  0.76540598880E+01  0.20102224650E+03  0.26965194990E+03  0.33642339738E+03  0.00000000000E+00 0.  1.
         -1    1    6    6    0  502  0.18600865425E+03 -0.35896343672E+02 -0.47580381631E+03  0.51212990399E+03  0.00000000000E+00 0.  1.
<mgrwt>
<rscale>  0 0.19929874E+04</rscale>
<asrwt>0</asrwt>
<pdfrwt beam="1">  1        2 0.26803061E+00 0.19929874E+04</pdfrwt>
<pdfrwt beam="2">  1       -2 0.87687563E-01 0.19929874E+04</pdfrwt>
<totfact> 0.96908637E+00</totfact>
</mgrwt>
</event>
<event>
12    1  0.1518126E-007  0.1272137E+04  0.7818608E-02  0.9051957E-01
         -1   -1    0    0    0  501 -0.00000000000E+00  0.00000000000E+00  0.45360512648E+03  0.45360512648E+03  0.00000000000E+00 0.  1.
          1   -1    0    0  501    0  0.00000000000E+00 -0.00000000000E+00 -0.89192828597E+03  0.89192828597E+03  0.00000000000E+00 0. -1.
         23    2    1    2    0    0 -0.78086586348E+02  0.29710204324E+03 -0.13186256316E+03  0.34601090275E+03  0.89267408351E+02 0.  0.
        254    2    1    2    0    0  0.78086586348E+02 -0.29710204324E+03 -0.30646059633E+03  0.99952250970E+03  0.90042212946E+03 0.  0.
        -24    2    4    4    0    0  0.37832649918E+03  0.13522176716E+03 -0.63279522864E+02  0.41445861376E+03  0.79723134731E+02 0.  0.
         24    2    4    4    0    0 -0.30023991283E+03 -0.43232381040E+03 -0.24318107346E+03  0.58506389594E+03  0.78197477875E+02 0.  0.
         11    1    3    3    0    0 -0.85835599377E+02  0.29930919113E+03 -0.12537881924E+03  0.33566887007E+03  0.00000000000E+00 0.  1.
        -11    1    3    3    0    0  0.77490130292E+01 -0.22071478951E+01 -0.64837439244E+01  0.10342032684E+02  0.00000000000E+00 0. -1.
          4    1    6    6  502    0 -0.26251971235E+03 -0.36618688728E+03 -0.23588527659E+03  0.50857772219E+03  0.00000000000E+00 0. -1.
          1    1    5    5  503    0  0.31230369594E+03  0.10563934065E+03 -0.20307268070E+02  0.33031144989E+03  0.00000000000E+00 0. -1.
         -2    1    5    5    0  503  0.66022803242E+02  0.29582426503E+02 -0.42972254794E+02  0.84147163873E+02  0.00000000000E+00 0.  1.
         -3    1    6    6    0  502 -0.37720200481E+02 -0.66136923113E+02 -0.72957968719E+01  0.76486173752E+02  0.00000000000E+00 0.  1.
<mgrwt>
<rscale>  0 0.12721372E+04</rscale>
<asrwt>0</asrwt>
<pdfrwt beam="1">  1        1 0.13721973E+00 0.12721372E+04</pdfrwt>
<pdfrwt beam="2">  1       -1 0.69785405E-01 0.12721372E+04</pdfrwt>
<totfact> 0.37780710E+01</totfact>
</mgrwt>
</event>
<event>
12    1  0.1518126E-007  0.3320305E+04  0.7818608E-02  0.8157748E-01
         -2   -1    0    0    0  501 -0.00000000000E+00  0.00000000000E+00  0.13303028357E+04  0.13303028357E+04  0.00000000000E+00 0.  1.
          2   -1    0    0  501    0  0.00000000000E+00 -0.00000000000E+00 -0.20717892406E+04  0.20717892406E+04  0.00000000000E+00 0. -1.
         23    2    1    2    0    0  0.12249596806E+04  0.63112620699E+03 -0.10437212398E+04  0.17310758520E+04  0.91777290011E+02 0.  0.
        254    2    1    2    0    0 -0.12249596806E+04 -0.63112620699E+03  0.30223483483E+03  0.16710162243E+04  0.89560193068E+03 0.  0.
        -24    2    4    4    0    0 -0.87810119262E+03  0.33916970653E+02  0.24080387470E+03  0.91463917658E+03  0.79788795441E+02 0.  0.
         24    2    4    4    0    0 -0.34685848796E+03 -0.66504317764E+03  0.61430960126E+02  0.75637704771E+03  0.75757749721E+02 0.  0.
         11    1    3    3    0    0  0.96397347832E+03  0.51899198638E+03 -0.78839913559E+03  0.13491370375E+04  0.00000000000E+00 0.  1.
        -11    1    3    3    0    0  0.26098620226E+03  0.11213422061E+03 -0.25532210418E+03  0.38193881458E+03  0.00000000000E+00 0. -1.
          2    1    6    6  502    0 -0.72762442593E+02 -0.94666620282E+02 -0.85332249014E+01  0.11970362557E+03  0.00000000000E+00 0. -1.
          1    1    5    5  503    0 -0.31698666986E+03  0.50640372085E+02  0.88249200973E+02  0.33291578158E+03  0.00000000000E+00 0. -1.
         -2    1    5    5    0  503 -0.56111452276E+03 -0.16723401431E+02  0.15255467373E+03  0.58172339499E+03  0.00000000000E+00 0.  1.
         -1    1    6    6    0  502 -0.27409604537E+03 -0.57037655736E+03  0.69964185027E+02  0.63667342214E+03  0.00000000000E+00 0.  1.
<mgrwt>
<rscale>  0 0.33203055E+04</rscale>
<asrwt>0</asrwt>
<pdfrwt beam="1">  1        2 0.31873680E+00 0.33203055E+04</pdfrwt>
<pdfrwt beam="2">  1       -2 0.20466198E+00 0.33203055E+04</pdfrwt>
<totfact> 0.62995584E-01</totfact>
</mgrwt>
</event>
<event>
12    1  0.1518126E-007  0.1898622E+04  0.7818608E-02  0.8655543E-01
          1   -1    0    0  501    0  0.00000000000E+00  0.00000000000E+00  0.85683441721E+03  0.85683441721E+03  0.00000000000E+00 0. -1.
         -1   -1    0    0    0  501 -0.00000000000E+00 -0.00000000000E+00 -0.10517682294E+04  0.10517682294E+04  0.00000000000E+00 0.  1.
         23    2    1    2    0    0 -0.44175316859E+03 -0.55538916636E+03 -0.25604039420E+03  0.76080758759E+03  0.98328601131E+02 0.  0.
        254    2    1    2    0    0  0.44175316859E+03  0.55538916636E+03  0.61106582031E+02  0.11477950590E+04  0.90005360676E+03 0.  0.
        -24    2    4    4    0    0  0.66080066809E+02  0.26933540835E+03  0.44738816761E+03  0.53234123041E+03  0.79516511866E+02 0.  0.
         24    2    4    4    0    0  0.37567310178E+03  0.28605375801E+03 -0.38628158558E+03  0.61545382859E+03  0.81319861654E+02 0.  0.
         13    1    3    3    0    0 -0.43886920761E+03 -0.55764150022E+03 -0.24755618308E+03  0.75156788645E+03  0.00000000000E+00 0.  1.
        -13    1    3    3    0    0 -0.28839609778E+01  0.22523338657E+01 -0.84842111203E+01  0.92397011368E+01  0.00000000000E+00 0. -1.
          2    1    6    6  502    0  0.18492240233E+01  0.20493297754E+02 -0.17386681038E+02  0.26938662918E+02  0.00000000000E+00 0. -1.
          3    1    5    5  503    0  0.24888771244E+02  0.18882756928E+02  0.79242373833E+02  0.85178420118E+02  0.00000000000E+00 0. -1.
         -4    1    5    5    0  503  0.41191295565E+02  0.25045265142E+03  0.36814579378E+03  0.44716281029E+03  0.00000000000E+00 0.  1.
         -1    1    6    6    0  502  0.37382387776E+03  0.26556046026E+03 -0.36889490454E+03  0.58851516568E+03  0.00000000000E+00 0.  1.
<mgrwt>
<rscale>  0 0.18986218E+04</rscale>
<asrwt>0</asrwt>
<pdfrwt beam="1">  1        1 0.13182068E+00 0.18986218E+04</pdfrwt>
<pdfrwt beam="2">  1       -1 0.16181050E+00 0.18986218E+04</pdfrwt>
<totfact> 0.52369436E+00</totfact>
</mgrwt>
</event>
<event>
12    1  0.1518126E-007  0.2262604E+04  0.7818608E-02  0.8492814E-01
         -2   -1    0    0    0  501 -0.00000000000E+00  0.00000000000E+00  0.58473891797E+03  0.58473891797E+03  0.00000000000E+00 0.  1.
          2   -1    0    0  501    0  0.00000000000E+00 -0.00000000000E+00 -0.21887443388E+04  0.21887443388E+04  0.00000000000E+00 0. -1.
         23    2    1    2    0    0 -0.40286153793E+03  0.73574619118E+03 -0.13481686935E+03  0.85455647720E+03  0.92039708202E+02 0.  0.
        254    2    1    2    0    0  0.40286153793E+03 -0.73574619118E+03 -0.14691885514E+04  0.19189267795E+04  0.90561863329E+03 0.  0.
        -24    2    4    4    0    0 -0.37159974643E+02  0.14750573915E+03 -0.33527889906E+02  0.17502537589E+03  0.79818268613E+02 0.  0.
         24    2    4    4    0    0  0.44002151257E+03 -0.88325193033E+03 -0.14356606615E+04  0.17439014036E+04  0.79483750547E+02 0.  0.
         11    1    3    3    0    0 -0.29446404644E+03  0.54295867943E+03 -0.57831582518E+02  0.62036899837E+03  0.00000000000E+00 0.  1.
        -11    1    3    3    0    0 -0.10839749149E+03  0.19278751175E+03 -0.76985286833E+02  0.23418747882E+03  0.00000000000E+00 0. -1.
          2    1    6    6  502    0  0.38538806204E+03 -0.74125585641E+03 -0.12558864644E+04  0.15083882174E+04  0.00000000000E+00 0. -1.
          3    1    5    5  503    0 -0.37603551479E+01  0.13652346150E+03 -0.28361531401E+02  0.13948896829E+03  0.00000000000E+00 0. -1.
         -4    1    5    5    0  503 -0.33399619495E+02  0.10982277654E+02 -0.51663585053E+01  0.35536407600E+02  0.00000000000E+00 0.  1.
         -1    1    6    6    0  502  0.54633450527E+02 -0.14199607392E+03 -0.17977419716E+03  0.23551318623E+03  0.00000000000E+00 0.  1.
<mgrwt>
<rscale>  0 0.22626038E+04</rscale>
<asrwt>0</asrwt>
<pdfrwt beam="1">  1        2 0.33672990E+00 0.22626038E+04</pdfrwt>
<pdfrwt beam="2">  1       -2 0.89959834E-01 0.22626038E+04</pdfrwt>
<totfact> 0.50401004E+00</totfact>
</mgrwt>
</event>
<event>
12    1  0.1518126E-007  0.1984782E+04  0.7818608E-02  0.8613769E-01
          1   -1    0    0  501    0  0.00000000000E+00  0.00000000000E+00  0.90452879540E+03  0.90452879540E+03  0.00000000000E+00 0. -1.
         -1   -1    0    0    0  501 -0.00000000000E+00 -0.00000000000E+00 -0.10887879873E+04  0.10887879873E+04  0.00000000000E+00 0.  1.
         23    2    1    2    0    0  0.66954317724E+03 -0.49952426150E+02  0.33516590482E+03  0.75597561236E+03  0.91540328072E+02 0.  0.
        254    2    1    2    0    0 -0.66954317724E+03  0.49952426150E+02 -0.51942509668E+03  0.12373411703E+04  0.90023742958E+03 0.  0.
        -24    2    4    4    0    0 -0.46947404151E+03  0.45431635056E+03 -0.23858627827E+03  0.70006305426E+03  0.79722303862E+02 0.  0.
         24    2    4    4    0    0 -0.20006913573E+03 -0.40436392440E+03 -0.28083881840E+03  0.53727811604E+03  0.79116936415E+02 0.  0.
         13    1    3    3    0    0  0.23849015985E+03 -0.11630283674E+02  0.71597961178E+02  0.24927713070E+03  0.00000000000E+00 0.  1.
        -13    1    3    3    0    0  0.43105301739E+03 -0.38322142476E+02  0.26356794364E+03  0.50669848166E+03  0.00000000000E+00 0. -1.
          2    1    6    6  502    0 -0.76813585923E+01 -0.27665801493E+02 -0.43894526443E+02  0.52451208697E+02  0.00000000000E+00 0. -1.
          3    1    5    5  503    0 -0.43904898615E+02  0.78089397040E+02 -0.42369530824E+02  0.99099804211E+02  0.00000000000E+00 0. -1.
         -4    1    5    5    0  503 -0.42556914289E+03  0.37622695352E+03 -0.19621674745E+03  0.60096325005E+03  0.00000000000E+00 0.  1.
         -1    1    6    6    0  502 -0.19238777714E+03 -0.37669812291E+03 -0.23694429196E+03  0.48482690735E+03  0.00000000000E+00 0.  1.
<mgrwt>
<rscale>  0 0.19847822E+04</rscale>
<asrwt>0</asrwt>
<pdfrwt beam="1">  1        1 0.13915828E+00 0.19847822E+04</pdfrwt>
<pdfrwt beam="2">  1       -1 0.16750584E+00 0.19847822E+04</pdfrwt>
<totfact> 0.43023045E+00</totfact>
</mgrwt>
</event>
<event>
12    1  0.1518126E-007  0.3266209E+04  0.7818608E-02  0.8171547E-01
         -2   -1    0    0    0  501 -0.00000000000E+00  0.00000000000E+00  0.37074246579E+04  0.37074246579E+04  0.00000000000E+00 0.  1.
          2   -1    0    0  501    0  0.00000000000E+00 -0.00000000000E+00 -0.71937551655E+03  0.71937551655E+03  0.00000000000E+00 0. -1.
         23    2    1    2    0    0  0.14625363657E+04  0.26080016784E+03  0.13023828736E+04  0.19777549003E+04  0.91016193739E+02 0.  0.
        254    2    1    2    0    0 -0.14625363657E+04 -0.26080016784E+03  0.16856662677E+04  0.24490452741E+04  0.97433189419E+03 0.  0.
        -24    2    4    4    0    0 -0.29900499932E+03  0.29873798054E+03  0.70461797934E+03  0.82555752668E+03  0.80064738860E+02 0.  0.
         24    2    4    4    0    0 -0.11635313664E+04 -0.55953814837E+03  0.98104828838E+03  0.16234877475E+04  0.79803144857E+02 0.  0.
         11    1    3    3    0    0  0.69331036846E+01 -0.47855864860E+01  0.10839102582E+02  0.13727924442E+02  0.00000000000E+00 0.  1.
        -11    1    3    3    0    0  0.14556032620E+04  0.26558575432E+03  0.12915437711E+04  0.19640269759E+04  0.00000000000E+00 0. -1.
          4    1    6    6  502    0 -0.17662481853E+03 -0.62635488805E+02  0.16754992295E+03  0.25138119989E+03  0.00000000000E+00 0. -1.
          1    1    5    5  503    0 -0.14385595252E+03  0.11660225360E+03  0.24188683332E+03  0.30463069569E+03  0.00000000000E+00 0. -1.
         -2    1    5    5    0  503 -0.15514904680E+03  0.18213572694E+03  0.46273114602E+03  0.52092683099E+03  0.00000000000E+00 0.  1.
         -3    1    6    6    0  502 -0.98690654789E+03 -0.49690265957E+03  0.81349836544E+03  0.13721065476E+04  0.00000000000E+00 0.  1.
<mgrwt>
<rscale>  0 0.32662091E+04</rscale>
<asrwt>0</asrwt>
<pdfrwt beam="1">  1        2 0.11067316E+00 0.32662091E+04</pdfrwt>
<pdfrwt beam="2">  1       -2 0.57037301E+00 0.32662091E+04</pdfrwt>
<totfact> 0.22332432E-02</totfact>
</mgrwt>
</event>
<event>
12    1  0.1518126E-007  0.1079589E+04  0.7818608E-02  0.9225317E-01
          2   -1    0    0  501    0  0.00000000000E+00  0.00000000000E+00  0.12579320090E+04  0.12579320090E+04  0.00000000000E+00 0. -1.
         -2   -1    0    0    0  501 -0.00000000000E+00 -0.00000000000E+00 -0.23163277564E+03  0.23163277564E+03  0.00000000000E+00 0.  1.
         23    2    1    2    0    0 -0.56485193339E+02  0.12306271591E+03  0.17846051098E+03  0.24192619311E+03  0.91351627354E+02 0.  0.
        254    2    1    2    0    0  0.56485193339E+02 -0.12306271591E+03  0.84783872239E+03  0.12476385915E+04  0.90522734535E+03 0.  0.
        -24    2    4    4    0    0  0.40574750826E+03 -0.99403996481E+02  0.12907366773E+03  0.44409675869E+03  0.77779974305E+02 0.  0.
         24    2    4    4    0    0 -0.34926231492E+03 -0.23658719432E+02  0.71876505466E+03  0.80354183284E+03  0.80699279310E+02 0.  0.
         13    1    3    3    0    0  0.36164196498E+00  0.12741817860E+02 -0.10048876369E+02  0.16231593377E+02  0.00000000000E+00 0.  1.
        -13    1    3    3    0    0 -0.56846835304E+02  0.11032089805E+03  0.18850938735E+03  0.22569459973E+03  0.00000000000E+00 0. -1.
          2    1    6    6  502    0 -0.31023983459E+03 -0.40472253347E+02  0.58814018451E+03  0.66617988178E+03  0.00000000000E+00 0. -1.
          3    1    5    5  503    0  0.35794475527E+03 -0.78394036178E+02  0.85946674235E+02  0.37637335658E+03  0.00000000000E+00 0. -1.
         -4    1    5    5    0  503  0.47802752994E+02 -0.21009960303E+02  0.43126993492E+02  0.67723402110E+02  0.00000000000E+00 0.  1.
         -1    1    6    6    0  502 -0.39022480330E+02  0.16813533915E+02  0.13062487016E+03  0.13736195105E+03  0.00000000000E+00 0.  1.
<mgrwt>
<rscale>  0 0.10795893E+04</rscale>
<asrwt>0</asrwt>
<pdfrwt beam="1">  1        2 0.19352800E+00 0.10795893E+04</pdfrwt>
<pdfrwt beam="2">  1       -2 0.35635812E-01 0.10795893E+04</pdfrwt>
<totfact> 0.12859594E+02</totfact>
</mgrwt>
</event>
<event>
12    1  0.1518126E-007  0.1493224E+04  0.7818608E-02  0.8888971E-01
          2   -1    0    0  501    0  0.00000000000E+00  0.00000000000E+00  0.44031272340E+03  0.44031272340E+03  0.00000000000E+00 0. -1.
         -2   -1    0    0    0  501 -0.00000000000E+00 -0.00000000000E+00 -0.12659859032E+04  0.12659859032E+04  0.00000000000E+00 0.  1.
         23    2    1    2    0    0  0.16195282747E+03  0.42972626557E+02  0.23605101778E+03  0.30955378067E+03  0.10967267287E+03 0.  0.
        254    2    1    2    0    0 -0.16195282747E+03 -0.42972626557E+02 -0.10617241976E+04  0.13967448459E+04  0.89194311923E+03 0.  0.
        -24    2    4    4    0    0 -0.13605337909E+03 -0.12329490811E+03 -0.12001426949E+04  0.12167595532E+04  0.80306698131E+02 0.  0.
         24    2    4    4    0    0 -0.25899448376E+02  0.80322281557E+02  0.13841849736E+03  0.17998529273E+03  0.78182957516E+02 0.  0.
         13    1    3    3    0    0  0.13515784931E+03  0.52863489996E+01  0.22416105647E+03  0.26180864950E+03  0.00000000000E+00 0. -1.
        -13    1    3    3    0    0  0.26794978157E+02  0.37686277557E+02  0.11889961311E+02  0.47745131171E+02  0.00000000000E+00 0.  1.
          2    1    6    6  502    0 -0.29971021140E+02  0.46184624746E+02  0.13456224094E+03  0.14539009030E+03  0.00000000000E+00 0. -1.
          3    1    5    5  503    0 -0.14222690519E+03 -0.12832802607E+03 -0.11701792410E+04  0.11857554685E+04  0.00000000000E+00 0. -1.
         -4    1    5    5    0  503  0.61735260991E+01  0.50331179539E+01 -0.29963453910E+02  0.31004084748E+02  0.00000000000E+00 0.  1.
         -1    1    6    6    0  502  0.40715727635E+01  0.34137656811E+02  0.38562564198E+01  0.34595202426E+02  0.00000000000E+00 0.  1.
<mgrwt>
<rscale>  0 0.14932243E+04</rscale>
<asrwt>0</asrwt>
<pdfrwt beam="1">  1        2 0.67740418E-01 0.14932243E+04</pdfrwt>
<pdfrwt beam="2">  1       -2 0.19476706E+00 0.14932243E+04</pdfrwt>
<totfact> 0.99168482E+00</totfact>
</mgrwt>
</event>
<event>
12    1  0.1518126E-007  0.1757160E+04  0.7818608E-02  0.8729419E-01
          2   -1    0    0  501    0  0.00000000000E+00  0.00000000000E+00  0.14160715870E+04  0.14160715870E+04  0.00000000000E+00 0.  1.
         -2   -1    0    0    0  501 -0.00000000000E+00 -0.00000000000E+00 -0.54510173592E+03  0.54510173592E+03  0.00000000000E+00 0. -1.
         23    2    1    2    0    0  0.20897546984E+03 -0.19505046123E+03  0.95589979325E+03  0.10019052830E+04  0.91402144295E+02 0.  0.
        254    2    1    2    0    0 -0.20897546984E+03  0.19505046123E+03 -0.84929942218E+02  0.95926803985E+03  0.91173825618E+03 0.  0.
        -24    2    4    4    0    0 -0.48138608318E+03  0.22864174385E+03  0.18063168610E+03  0.56844345648E+03  0.80563944057E+02 0.  0.
         24    2    4    4    0    0  0.27241061334E+03 -0.33591282619E+02 -0.26556162832E+03  0.39082458337E+03  0.82975659123E+02 0.  0.
         11    1    3    3    0    0  0.64776978949E+02 -0.11167915848E+03  0.33394716597E+03  0.35803491604E+03  0.00000000000E+00 0. -1.
        -11    1    3    3    0    0  0.14419849089E+03 -0.83371302747E+02  0.62195262728E+03  0.64387036698E+03  0.00000000000E+00 0.  1.
          2    1    6    6  502    0  0.23431158917E+03 -0.39638053210E+02 -0.25933475871E+03  0.35174936127E+03  0.00000000000E+00 0. -1.
          1    1    5    5  503    0 -0.24082974014E+03  0.81841552647E+02  0.56775327322E+02  0.26061550466E+03  0.00000000000E+00 0. -1.
         -2    1    5    5    0  503 -0.24055634304E+03  0.14680019120E+03  0.12385635878E+03  0.30782795182E+03  0.00000000000E+00 0.  1.
         -1    1    6    6    0  502  0.38099024167E+02  0.60467705917E+01 -0.62268696105E+01  0.39075222100E+02  0.00000000000E+00 0.  1.
<mgrwt>
<rscale>  0 0.17571603E+04</rscale>
<asrwt>0</asrwt>
<pdfrwt beam="1">  1        2 0.21785717E+00 0.17571603E+04</pdfrwt>
<pdfrwt beam="2">  1       -2 0.83861806E-01 0.17571603E+04</pdfrwt>
<totfact> 0.16675118E+01</totfact>
</mgrwt>
</event>
<event>
12    1  0.1761168E-007  0.1858524E+04  0.7818608E-02  0.8675781E-01
          2   -1    0    0  501    0  0.00000000000E+00  0.00000000000E+00  0.15203067497E+04  0.15203067497E+04  0.00000000000E+00 0. -1.
         -2   -1    0    0    0  501 -0.00000000000E+00 -0.00000000000E+00 -0.56799596989E+03  0.56799596989E+03  0.00000000000E+00 0.  1.
         23    2    1    2    0    0  0.28163705989E+03  0.62779760338E+03  0.53752185263E+03  0.87805963107E+03  0.92788519501E+02 0.  0.
        254    2    1    2    0    0 -0.28163705989E+03 -0.62779760338E+03  0.41478892718E+03  0.12102430885E+04  0.90509072189E+03 0.  0.
        -24    2    4    4    0    0 -0.97548223549E+02 -0.37707861854E+03 -0.25120132657E+03  0.47079927244E+03  0.82740002302E+02 0.  0.
         24    2    4    4    0    0 -0.18408883634E+03 -0.25071898484E+03  0.66599025375E+03  0.73944381606E+03  0.80532167466E+02 0.  0.
         11    1    3    3    0    0  0.49012783832E+00  0.41632155096E+02  0.15931726647E+02  0.44579103594E+02  0.00000000000E+00 0. -1.
        -11    1    3    3    0    0  0.28114693205E+03  0.58616544829E+03  0.52159012598E+03  0.83348052748E+03  0.00000000000E+00 0.  1.
          2    1    6    6  502    0 -0.53986267352E+02 -0.83494254643E+02  0.13435224098E+03  0.16714165333E+03  0.00000000000E+00 0. -1.
          1    1    5    5  503    0  0.91159894728E+01 -0.10822732808E+02 -0.20769805481E+02  0.25132004083E+02  0.00000000000E+00 0. -1.
         -2    1    5    5    0  503 -0.10666421302E+03 -0.36625588573E+03 -0.23043152109E+03  0.44566726836E+03  0.00000000000E+00 0.  1.
         -1    1    6    6    0  502 -0.13010256898E+03 -0.16722473020E+03  0.53163801277E+03  0.57230216273E+03  0.00000000000E+00 0.  1.
<mgrwt>
<rscale>  0 0.18585243E+04</rscale>
<asrwt>0</asrwt>
<pdfrwt beam="1">  1        2 0.23389334E+00 0.18585243E+04</pdfrwt>
<pdfrwt beam="2">  1       -2 0.87383996E-01 0.18585243E+04</pdfrwt>
<totfact> 0.13140053E+01</totfact>
</mgrwt>
</event>
<event>
12    1  0.1518126E-007  0.1820334E+04  0.7818608E-02  0.8695560E-01
          1   -1    0    0  501    0  0.00000000000E+00  0.00000000000E+00  0.40600139992E+03  0.40600139992E+03  0.00000000000E+00 0. -1.
         -1   -1    0    0    0  501 -0.00000000000E+00 -0.00000000000E+00 -0.20403973828E+04  0.20403973828E+04  0.00000000000E+00 0.  1.
         23    2    1    2    0    0 -0.43440896526E+03 -0.31010013365E+03 -0.12629347750E+04  0.13741370975E+04  0.91516528080E+02 0.  0.
        254    2    1    2    0    0  0.43440896526E+03  0.31010013365E+03 -0.37146120793E+03  0.10722616852E+04  0.85257753352E+03 0.  0.
        -24    2    4    4    0    0 -0.17429385526E+02  0.35661923161E+03  0.13250738752E+03  0.38902742235E+03  0.79391862052E+02 0.  0.
         24    2    4    4    0    0  0.45183835078E+03 -0.46519097961E+02 -0.50396859545E+03  0.68323426289E+03  0.80639885178E+02 0.  0.
         11    1    3    3    0    0 -0.10645431536E+02 -0.32237501933E+02 -0.99621446293E+02  0.10524739572E+03  0.00000000000E+00 0. -1.
        -11    1    3    3    0    0 -0.42376353372E+03 -0.27786263171E+03 -0.11633133287E+04  0.12688897018E+04  0.00000000000E+00 0.  1.
          4    1    6    6  502    0  0.14775741069E+02 -0.17791920503E+02 -0.21111500067E+02  0.31314060650E+02  0.00000000000E+00 0. -1.
          3    1    5    5  503    0 -0.18788556740E+02  0.16218976267E+02  0.38257383166E+01  0.25113767722E+02  0.00000000000E+00 0. -1.
         -4    1    5    5    0  503  0.13591712147E+01  0.34040025534E+03  0.12868164920E+03  0.36391365463E+03  0.00000000000E+00 0.  1.
         -3    1    6    6    0  502  0.43706260971E+03 -0.28727177459E+02 -0.48285709538E+03  0.65192020224E+03  0.00000000000E+00 0.  1.
<mgrwt>
<rscale>  0 0.18203342E+04</rscale>
<asrwt>0</asrwt>
<pdfrwt beam="1">  1        1 0.62461755E-01 0.18203342E+04</pdfrwt>
<pdfrwt beam="2">  1       -1 0.31390728E+00 0.18203342E+04</pdfrwt>
<totfact> 0.14879933E+00</totfact>
</mgrwt>
</event>
<event>
12    1  0.1518126E-007  0.1703429E+04  0.7818608E-02  0.8759411E-01
         -2   -1    0    0    0  501 -0.00000000000E+00  0.00000000000E+00  0.16673497187E+04  0.16673497187E+04  0.00000000000E+00 0.  1.
          2   -1    0    0  501    0  0.00000000000E+00 -0.00000000000E+00 -0.43507206278E+03  0.43507206278E+03  0.00000000000E+00 0. -1.
         23    2    1    2    0    0  0.53153237333E+03  0.55430268225E+02  0.79991269189E+03  0.96619918364E+03  0.89896436503E+02 0.  0.
        254    2    1    2    0    0 -0.53153237333E+03 -0.55430268225E+02  0.43236496407E+03  0.11362225979E+04  0.90468953304E+03 0.  0.
        -24    2    4    4    0    0  0.12599802127E+03 -0.23258115653E+03  0.35026919316E+03  0.44616861534E+03  0.80052669517E+02 0.  0.
         24    2    4    4    0    0 -0.65753039461E+03  0.17715088830E+03  0.82095770904E+02  0.69005398252E+03  0.75538904767E+02 0.  0.
         11    1    3    3    0    0  0.16402983937E+03 -0.24395023920E+02  0.24127348017E+03  0.29276918832E+03  0.00000000000E+00 0. -1.
        -11    1    3    3    0    0  0.36750253397E+03  0.79825292145E+02  0.55863921171E+03  0.67342999532E+03  0.00000000000E+00 0.  1.
          4    1    6    6  502    0 -0.32434692693E+03  0.12356548320E+03  0.56072623775E+02  0.35158711123E+03  0.00000000000E+00 0. -1.
          1    1    5    5  503    0  0.76497303376E+01 -0.41583513104E+02  0.10678823878E+03  0.11485397197E+03  0.00000000000E+00 0. -1.
         -2    1    5    5    0  503  0.11834829094E+03 -0.19099764343E+03  0.24348095439E+03  0.33131464337E+03  0.00000000000E+00 0.  1.
         -3    1    6    6    0  502 -0.33318346768E+03  0.53585405103E+02  0.26023147129E+02  0.33846687129E+03  0.00000000000E+00 0.  1.
<mgrwt>
<rscale>  0 0.17034286E+04</rscale>
<asrwt>0</asrwt>
<pdfrwt beam="1">  1        2 0.66934164E-01 0.17034286E+04</pdfrwt>
<pdfrwt beam="2">  1       -2 0.25651534E+00 0.17034286E+04</pdfrwt>
<totfact> 0.40309308E+00</totfact>
</mgrwt>
</event>
<event>
12    1  0.1518126E-007  0.1341139E+04  0.7818608E-02  0.8997563E-01
         -1   -1    0    0    0  501 -0.00000000000E+00  0.00000000000E+00  0.25399305453E+03  0.25399305453E+03  0.00000000000E+00 0.  1.
          1   -1    0    0  501    0  0.00000000000E+00 -0.00000000000E+00 -0.17703771513E+04  0.17703771513E+04  0.00000000000E+00 0. -1.
         23    2    1    2    0    0 -0.40828931136E+02 -0.24954932272E+03 -0.40002968918E+02  0.27432144949E+03  0.98540113860E+02 0.  0.
        254    2    1    2    0    0  0.40828931136E+02  0.24954932272E+03 -0.14763811279E+04  0.17500487564E+04  0.90500140820E+03 0.  0.
        -24    2    4    4    0    0 -0.16685803708E+03  0.46219186502E+03 -0.42609054209E+03  0.65556760547E+03  0.82175486936E+02 0.  0.
         24    2    4    4    0    0  0.20768696821E+03 -0.21264254230E+03 -0.10502905858E+04  0.10944811509E+04  0.80174481826E+02 0.  0.
         11    1    3    3    0    0 -0.35720420777E+02 -0.64451522385E+02  0.25398704446E+02  0.77942551830E+02  0.00000000000E+00 0. -1.
        -11    1    3    3    0    0 -0.51085103592E+01 -0.18509780034E+03 -0.65401673363E+02  0.19637889766E+03  0.00000000000E+00 0.  1.
          2    1    6    6  502    0  0.10431778349E+03 -0.14894408609E+03 -0.71908629012E+03  0.74172207286E+03  0.00000000000E+00 0. -1.
          3    1    5    5  503    0 -0.10719596877E+03  0.38572422475E+03 -0.32707925052E+03  0.51696710668E+03  0.00000000000E+00 0. -1.
         -4    1    5    5    0  503 -0.59662068308E+02  0.76467640275E+02 -0.99011291575E+02  0.13860049878E+03  0.00000000000E+00 0.  1.
         -3    1    6    6    0  502  0.10336918473E+03 -0.63698456212E+02 -0.33120429567E+03  0.35275907804E+03  0.00000000000E+00 0.  1.
<mgrwt>
<rscale>  0 0.13411391E+04</rscale>
<asrwt>0</asrwt>
<pdfrwt beam="1">  1        1 0.27236571E+00 0.13411391E+04</pdfrwt>
<pdfrwt beam="2">  1       -1 0.39075855E-01 0.13411391E+04</pdfrwt>
<totfact> 0.26581573E+01</totfact>
</mgrwt>
</event>
<event>
12    1  0.1518126E-007  0.1808915E+04  0.7818608E-02  0.8701573E-01
         -1   -1    0    0    0  501 -0.00000000000E+00  0.00000000000E+00  0.29406034167E+03  0.29406034167E+03  0.00000000000E+00 0.  1.
          1   -1    0    0  501    0  0.00000000000E+00 -0.00000000000E+00 -0.27818883726E+04  0.27818883726E+04  0.00000000000E+00 0. -1.
         23    2    1    2    0    0 -0.28569464853E+03  0.31384804984E+03 -0.18278837524E+04  0.18788085575E+04  0.92954574055E+02 0.  0.
        254    2    1    2    0    0  0.28569464853E+03 -0.31384804984E+03 -0.65994427851E+03  0.11971401568E+04  0.90415489469E+03 0.  0.
        -24    2    4    4    0    0  0.60305836511E+03 -0.18487440747E+03 -0.33503000952E+03  0.71870992959E+03  0.80255326037E+02 0.  0.
         24    2    4    4    0    0 -0.31736371658E+03 -0.12897364237E+03 -0.32491426900E+03  0.47843022717E+03  0.77280469981E+02 0.  0.
         13    1    3    3    0    0 -0.14154704121E+03  0.12465650407E+03 -0.63391870529E+03  0.66138319739E+03  0.00000000000E+00 0.  1.
        -13    1    3    3    0    0 -0.14414760732E+03  0.18919154577E+03 -0.11939650471E+04  0.12174253601E+04  0.00000000000E+00 0. -1.
          2    1    6    6  502    0  0.13240372122E+01 -0.91854455152E+01 -0.26803130381E+01  0.96596874605E+01  0.00000000000E+00 0. -1.
          3    1    5    5  503    0  0.20655801967E+02  0.81848319280E+01 -0.13544684564E+02  0.26021377914E+02  0.00000000000E+00 0. -1.
         -4    1    5    5    0  503  0.58240256314E+03 -0.19305923940E+03 -0.32148532495E+03  0.69268855168E+03  0.00000000000E+00 0.  1.
         -1    1    6    6    0  502 -0.31868775379E+03 -0.11978819686E+03 -0.32223395596E+03  0.46877053970E+03  0.00000000000E+00 0.  1.
<mgrwt>
<rscale>  0 0.18089146E+04</rscale>
<asrwt>0</asrwt>
<pdfrwt beam="1">  1        1 0.42798283E+00 0.18089146E+04</pdfrwt>
<pdfrwt beam="2">  1       -1 0.45240052E-01 0.18089146E+04</pdfrwt>
<totfact> 0.39333167E+00</totfact>
</mgrwt>
</event>
<event>
12    1  0.1518126E-007  0.2450080E+04  0.7818608E-02  0.8420989E-01
          2   -1    0    0  501    0  0.00000000000E+00  0.00000000000E+00  0.47676709176E+04  0.47676709176E+04  0.00000000000E+00 0. -1.
         -2   -1    0    0    0  501 -0.00000000000E+00 -0.00000000000E+00 -0.31477056882E+03  0.31477056882E+03  0.00000000000E+00 0.  1.
         23    2    1    2    0    0  0.66676852717E+03  0.28689188354E+03  0.35500431528E+04  0.36246448237E+04  0.91413839080E+02 0.  0.
        254    2    1    2    0    0 -0.66676852717E+03 -0.28689188354E+03  0.90285719597E+03  0.14577966626E+04  0.88494789205E+03 0.  0.
        -24    2    4    4    0    0  0.11639882224E+03 -0.13428704572E+03 -0.61174640238E+02  0.20384972021E+03  0.78934627118E+02 0.  0.
         24    2    4    4    0    0 -0.78316734941E+03 -0.15260483783E+03  0.96403183621E+03  0.12539469424E+04  0.79913825532E+02 0.  0.
         13    1    3    3    0    0  0.64788369805E+03  0.29088240949E+03  0.34917020543E+04  0.35631936656E+04  0.00000000000E+00 0. -1.
        -13    1    3    3    0    0  0.18884829116E+02 -0.39905259505E+01  0.58341098459E+02  0.61451158146E+02  0.00000000000E+00 0.  1.
          2    1    6    6  502    0 -0.95566846965E+02 -0.44040776909E+02  0.14268150799E+03  0.17728684382E+03  0.00000000000E+00 0. -1.
          1    1    5    5  503    0 -0.11825688846E+02 -0.10961192216E+02 -0.89223820959E+01  0.18428335621E+02  0.00000000000E+00 0. -1.
         -2    1    5    5    0  503  0.12822451108E+03 -0.12332585350E+03 -0.52252258142E+02  0.18542138459E+03  0.00000000000E+00 0.  1.
         -1    1    6    6    0  502 -0.68760050244E+03 -0.10856406092E+03  0.82135032821E+03  0.10766600986E+04  0.00000000000E+00 0.  1.
<mgrwt>
<rscale>  0 0.24500796E+04</rscale>
<asrwt>0</asrwt>
<pdfrwt beam="1">  1        2 0.73348778E+00 0.24500796E+04</pdfrwt>
<pdfrwt beam="2">  1       -2 0.48426245E-01 0.24500796E+04</pdfrwt>
<totfact> 0.23614210E-01</totfact>
</mgrwt>
</event>
<event>
12    1  0.1518126E-007  0.2591939E+04  0.7818608E-02  0.8370945E-01
          2   -1    0    0  501    0  0.00000000000E+00  0.00000000000E+00  0.13697000954E+04  0.13697000954E+04  0.00000000000E+00 0. -1.
         -2   -1    0    0    0  501 -0.00000000000E+00 -0.00000000000E+00 -0.12262076847E+04  0.12262076847E+04  0.00000000000E+00 0.  1.
         23    2    1    2    0    0  0.21890785049E+03 -0.99744328689E+03 -0.43981739793E+03  0.11155341538E+04  0.90351244090E+02 0.  0.
        254    2    1    2    0    0 -0.21890785049E+03  0.99744328689E+03  0.58330980863E+03  0.14803736262E+04  0.89913401819E+03 0.  0.
        -24    2    4    4    0    0 -0.11300961546E+03  0.31187204709E+03  0.69424229242E+03  0.77338972042E+03  0.78255684222E+02 0.  0.
         24    2    4    4    0    0 -0.10589823503E+03  0.68557123980E+03 -0.11093248379E+03  0.70698390576E+03  0.79359095366E+02 0.  0.
         11    1    3    3    0    0  0.20061046529E+03 -0.97788568962E+03 -0.43119722739E+03  0.10873987446E+04  0.00000000000E+00 0.  1.
        -11    1    3    3    0    0  0.18297385193E+02 -0.19557597268E+02 -0.86201705421E+01  0.28135409291E+02  0.00000000000E+00 0. -1.
          2    1    6    6  502    0 -0.74827501866E+02  0.60805223164E+03 -0.11513581277E+03  0.62336420079E+03  0.00000000000E+00 0. -1.
          1    1    5    5  503    0 -0.11435916674E+03  0.21324315412E+03  0.48067296496E+03  0.53814232415E+03  0.00000000000E+00 0. -1.
         -2    1    5    5    0  503  0.13495512823E+01  0.98628892973E+02  0.21356932746E+03  0.23524739627E+03  0.00000000000E+00 0.  1.
         -1    1    6    6    0  502 -0.31070733161E+02  0.77519008158E+02  0.42033289765E+01  0.83619704971E+02  0.00000000000E+00 0.  1.
<mgrwt>
<rscale>  0 0.25919389E+04</rscale>
<asrwt>0</asrwt>
<pdfrwt beam="1">  1        2 0.21072309E+00 0.25919389E+04</pdfrwt>
<pdfrwt beam="2">  1       -2 0.18864733E+00 0.25919389E+04</pdfrwt>
<totfact> 0.21104993E+00</totfact>
</mgrwt>
</event>
<event>
12    1  0.1518126E-007  0.1272389E+04  0.7818608E-02  0.9051752E-01
          2   -1    0    0  501    0  0.00000000000E+00  0.00000000000E+00  0.19825657860E+04  0.19825657860E+04  0.00000000000E+00 0. -1.
         -2   -1    0    0    0  501 -0.00000000000E+00 -0.00000000000E+00 -0.20415125633E+03  0.20415125633E+03  0.00000000000E+00 0.  1.
         23    2    1    2    0    0 -0.92207766733E+02  0.14007087389E+03  0.75753397860E+00  0.19292461514E+03  0.95379302328E+02 0.  0.
        254    2    1    2    0    0  0.92207766733E+02 -0.14007087389E+03  0.17776569957E+04  0.19937924272E+04  0.88714244991E+03 0.  0.
        -24    2    4    4    0    0 -0.21982068248E+03 -0.66259678685E+02  0.68066977834E+02  0.25263387325E+03  0.80493993429E+02 0.  0.
         24    2    4    4    0    0  0.31202844921E+03 -0.73811195203E+02  0.17095900179E+04  0.17411585539E+04  0.78263881382E+02 0.  0.
         11    1    3    3    0    0  0.18088859000E+02  0.27377376110E+02  0.11752847318E+02  0.34854798274E+02  0.00000000000E+00 0. -1.
        -11    1    3    3    0    0 -0.11029662573E+03  0.11269349778E+03 -0.10995313340E+02  0.15806981687E+03  0.00000000000E+00 0.  1.
          4    1    6    6  502    0  0.15409576095E+03 -0.48159578723E+02  0.10559273913E+04  0.10681982514E+04  0.00000000000E+00 0. -1.
          1    1    5    5  503    0 -0.20977554297E+03 -0.66644442425E+02  0.41176436330E+02  0.22392578914E+03  0.00000000000E+00 0. -1.
         -2    1    5    5    0  503 -0.10045139510E+02  0.38476374058E+00  0.26890541504E+02  0.28708084110E+02  0.00000000000E+00 0.  1.
         -3    1    6    6    0  502  0.15793268826E+03 -0.25651616480E+02  0.65366262656E+03  0.67296030255E+03  0.00000000000E+00 0.  1.
<mgrwt>
<rscale>  0 0.12723888E+04</rscale>
<asrwt>0</asrwt>
<pdfrwt beam="1">  1        2 0.30501011E+00 0.12723888E+04</pdfrwt>
<pdfrwt beam="2">  1       -2 0.31407887E-01 0.12723888E+04</pdfrwt>
<totfact> 0.63187541E+01</totfact>
</mgrwt>
</event>
<event>
12    1  0.1518126E-007  0.1965111E+04  0.7818608E-02  0.8623108E-01
         -1   -1    0    0    0  501 -0.00000000000E+00  0.00000000000E+00  0.12544075373E+04  0.12544075373E+04  0.00000000000E+00 0.  1.
          1   -1    0    0  501    0  0.00000000000E+00 -0.00000000000E+00 -0.76961841672E+03  0.76961841672E+03  0.00000000000E+00 0. -1.
         23    2    1    2    0    0 -0.58028055967E+03 -0.25602837249E+03 -0.26450039779E+03  0.69313552266E+03  0.90555711520E+02 0.  0.
        254    2    1    2    0    0  0.58028055967E+03  0.25602837249E+03  0.74928951836E+03  0.13308904313E+04  0.89864258884E+03 0.  0.
        -24    2    4    4    0    0  0.62819651290E+03  0.16394745709E+03  0.91766988525E+02  0.66035420399E+03  0.78338158250E+02 0.  0.
         24    2    4    4    0    0 -0.47915953224E+02  0.92080915397E+02  0.65752252983E+03  0.67053622736E+03  0.80672928617E+02 0.  0.
         11    1    3    3    0    0 -0.54077262995E+03 -0.25401333254E+03 -0.26495412635E+03  0.65357363739E+03  0.00000000000E+00 0. -1.
        -11    1    3    3    0    0 -0.39507929720E+02 -0.20150399444E+01  0.45372856272E+00  0.39561885273E+02  0.00000000000E+00 0.  1.
          2    1    6    6  502    0 -0.62388557818E+01  0.74643204033E+02  0.52959227098E+03  0.53486307099E+03  0.00000000000E+00 0. -1.
          1    1    5    5  503    0  0.25003913627E+03  0.29984660742E+02  0.18265880451E+02  0.25249216212E+03  0.00000000000E+00 0. -1.
         -2    1    5    5    0  503  0.37815737663E+03  0.13396279635E+03  0.73501108073E+02  0.40786204186E+03  0.00000000000E+00 0.  1.
         -1    1    6    6    0  502 -0.41677097442E+02  0.17437711364E+02  0.12793025886E+03  0.13567315637E+03  0.00000000000E+00 0.  1.
<mgrwt>
<rscale>  0 0.19651108E+04</rscale>
<asrwt>0</asrwt>
<pdfrwt beam="1">  1        1 0.11840283E+00 0.19651108E+04</pdfrwt>
<pdfrwt beam="2">  1       -1 0.19298577E+00 0.19651108E+04</pdfrwt>
<totfact> 0.36842185E+00</totfact>
</mgrwt>
</event>
<event>
12    1  0.1518126E-007  0.2289081E+04  0.7818608E-02  0.8482239E-01
         -2   -1    0    0    0  501 -0.00000000000E+00  0.00000000000E+00  0.11825881927E+04  0.11825881927E+04  0.00000000000E+00 0.  1.
          2   -1    0    0  501    0  0.00000000000E+00 -0.00000000000E+00 -0.11077168827E+04  0.11077168827E+04  0.00000000000E+00 0. -1.
         23    2    1    2    0    0 -0.35802398077E+03 -0.89464221622E+03  0.96846814150E+02  0.97270558828E+03  0.90614514341E+02 0.  0.
        254    2    1    2    0    0  0.35802398077E+03  0.89464221622E+03 -0.21975504136E+02  0.13175994871E+04  0.89834270734E+03 0.  0.
        -24    2    4    4    0    0  0.14548237377E+03  0.20242717192E+03  0.39845337000E+03  0.47645530852E+03  0.78119728281E+02 0.  0.
         24    2    4    4    0    0  0.21254160700E+03  0.69221504430E+03 -0.42042887413E+03  0.84114417860E+03  0.80171620451E+02 0.  0.
         13    1    3    3    0    0 -0.20956766305E+03 -0.50178748180E+03  0.99005605753E+02  0.55273084974E+03  0.00000000000E+00 0.  1.
        -13    1    3    3    0    0 -0.14845631772E+03 -0.39285473442E+03 -0.21587916024E+01  0.41997473854E+03  0.00000000000E+00 0. -1.
          4    1    6    6  502    0  0.13689441166E+03  0.55694652679E+03 -0.32801186344E+03  0.66069758302E+03  0.00000000000E+00 0. -1.
          1    1    5    5  503    0  0.12169781881E+03  0.19764813741E+03  0.32706135503E+03  0.40105395557E+03  0.00000000000E+00 0. -1.
         -2    1    5    5    0  503  0.23784554969E+02  0.47790345067E+01  0.71392014968E+02  0.75401352953E+02  0.00000000000E+00 0.  1.
         -3    1    6    6    0  502  0.75647195335E+02  0.13526851751E+03 -0.92417010694E+02  0.18044659558E+03  0.00000000000E+00 0.  1.
<mgrwt>
<rscale>  0 0.22890810E+04</rscale>
<asrwt>0</asrwt>
<pdfrwt beam="1">  1        2 0.17041798E+00 0.22890810E+04</pdfrwt>
<pdfrwt beam="2">  1       -2 0.18193664E+00 0.22890810E+04</pdfrwt>
<totfact> 0.34379650E+00</totfact>
</mgrwt>
</event>
<event>
12    1  0.1518126E-007  0.2235059E+04  0.7818608E-02  0.8503976E-01
          2   -1    0    0  501    0  0.00000000000E+00  0.00000000000E+00  0.93077421176E+03  0.93077421176E+03  0.00000000000E+00 0. -1.
         -2   -1    0    0    0  501 -0.00000000000E+00 -0.00000000000E+00 -0.13417561941E+04  0.13417561941E+04  0.00000000000E+00 0.  1.
         23    2    1    2    0    0  0.60774688283E+03  0.24269323747E+03 -0.84767626322E+03  0.10747828437E+04  0.91361003023E+02 0.  0.
        254    2    1    2    0    0 -0.60774688283E+03 -0.24269323747E+03  0.43669428092E+03  0.11977475621E+04  0.90312847722E+03 0.  0.
        -24    2    4    4    0    0 -0.29848831855E+03 -0.50109891970E+03  0.51163407997E+03  0.78007806185E+03  0.80974978546E+02 0.  0.
         24    2    4    4    0    0 -0.30925856428E+03  0.25840568222E+03 -0.74939799053E+02  0.41766950023E+03  0.80109186462E+02 0.  0.
         13    1    3    3    0    0  0.16361248151E+03  0.23054500666E+02 -0.20603637476E+03  0.26410517191E+03  0.00000000000E+00 0. -1.
        -13    1    3    3    0    0  0.44413440132E+03  0.21963873680E+03 -0.64163988846E+03  0.81067767183E+03  0.00000000000E+00 0.  1.
          4    1    6    6  502    0 -0.26581503360E+03  0.17962803348E+03 -0.54492121653E+02  0.32541243649E+03  0.00000000000E+00 0. -1.
          3    1    5    5  503    0 -0.28489815994E+03 -0.43268599917E+03  0.46531748573E+03  0.69635084400E+03  0.00000000000E+00 0. -1.
         -4    1    5    5    0  503 -0.13590158614E+02 -0.68412920521E+02  0.46316594246E+02  0.83727217844E+02  0.00000000000E+00 0.  1.
         -3    1    6    6    0  502 -0.43443530680E+02  0.78777648740E+02 -0.20447677400E+02  0.92257063741E+02  0.00000000000E+00 0.  1.
<mgrwt>
<rscale>  0 0.22350589E+04</rscale>
<asrwt>0</asrwt>
<pdfrwt beam="1">  1        2 0.14319603E+00 0.22350589E+04</pdfrwt>
<pdfrwt beam="2">  1       -2 0.20642403E+00 0.22350589E+04</pdfrwt>
<totfact> 0.30763120E+00</totfact>
</mgrwt>
</event>
<event>
12    1  0.1798402E-007  0.1474723E+04  0.7818608E-02  0.8901438E-01
         -1   -1    0    0    0  501 -0.00000000000E+00  0.00000000000E+00  0.43103426248E+03  0.43103426248E+03  0.00000000000E+00 0.  1.
          1   -1    0    0  501    0  0.00000000000E+00 -0.00000000000E+00 -0.12613887222E+04  0.12613887222E+04  0.00000000000E+00 0. -1.
         23    2    1    2    0    0 -0.16093775838E+03 -0.25896907987E+03  0.14058148055E+03  0.34808874466E+03  0.91851374975E+02 0.  0.
        254    2    1    2    0    0  0.16093775838E+03  0.25896907987E+03 -0.97093594026E+03  0.13443342400E+04  0.87838032901E+03 0.  0.
        -24    2    4    4    0    0  0.78113508035E+02 -0.23042250670E+03 -0.75477308334E+03  0.79697910037E+03  0.79353811293E+02 0.  0.
         24    2    4    4    0    0  0.82824250342E+02  0.48939158657E+03 -0.21616285692E+03  0.54735513964E+03  0.80667755200E+02 0.  0.
         11    1    3    3    0    0 -0.12547050141E+03 -0.25305399979E+03  0.12617268024E+03  0.30935209515E+03  0.00000000000E+00 0.  1.
        -11    1    3    3    0    0 -0.35467256963E+02 -0.59150800801E+01  0.14408800313E+02  0.38736649511E+02  0.00000000000E+00 0. -1.
          2    1    6    6  502    0  0.17294139494E+02  0.13928340740E+02 -0.15807256964E+02  0.27257206558E+02  0.00000000000E+00 0. -1.
          1    1    5    5  503    0 -0.10235220583E+02 -0.90649012716E+01 -0.17926081976E+02  0.22544990363E+02  0.00000000000E+00 0. -1.
         -2    1    5    5    0  503  0.88348728618E+02 -0.22135760543E+03 -0.73684700136E+03  0.77443411001E+03  0.00000000000E+00 0.  1.
         -1    1    6    6    0  502  0.65530110847E+02  0.47546324583E+03 -0.20035559995E+03  0.52009793308E+03  0.00000000000E+00 0.  1.
<mgrwt>
<rscale>  0 0.14747227E+04</rscale>
<asrwt>0</asrwt>
<pdfrwt beam="1">  1        1 0.19405980E+00 0.14747227E+04</pdfrwt>
<pdfrwt beam="2">  1       -1 0.66312964E-01 0.14747227E+04</pdfrwt>
<totfact> 0.21538759E+01</totfact>
</mgrwt>
</event>
<event>
12    1  0.2425378E-007  0.2471084E+04  0.7818608E-02  0.8413360E-01
          2   -1    0    0  501    0  0.00000000000E+00  0.00000000000E+00  0.20439175974E+04  0.20439175974E+04  0.00000000000E+00 0. -1.
         -2   -1    0    0    0  501 -0.00000000000E+00 -0.00000000000E+00 -0.74688139294E+03  0.74688139294E+03  0.00000000000E+00 0.  1.
         23    2    1    2    0    0 -0.12573886175E+03 -0.74268428017E+03 -0.29323042476E+03  0.81327806873E+03  0.89704702772E+02 0.  0.
        254    2    1    2    0    0  0.12573886175E+03  0.74268428017E+03  0.15902666292E+04  0.19775209216E+04  0.90235848866E+03 0.  0.
        -24    2    4    4    0    0  0.28274914105E+03 -0.98904874039E+02  0.51125858687E+03  0.59782825819E+03  0.79271891421E+02 0.  0.
         24    2    4    4    0    0 -0.15701027930E+03  0.84158915421E+03  0.10790080423E+04  0.13796926634E+04  0.79805750195E+02 0.  0.
         11    1    3    3    0    0 -0.42554880375E+02 -0.87439180684E+02 -0.50583151990E+02  0.10961379214E+03  0.00000000000E+00 0. -1.
        -11    1    3    3    0    0 -0.83183981377E+02 -0.65524509949E+03 -0.24264727277E+03  0.70366427659E+03  0.00000000000E+00 0.  1.
          2    1    6    6  502    0 -0.85230478063E+02  0.64023391514E+03  0.79862821727E+03  0.10271176807E+04  0.00000000000E+00 0. -1.
          3    1    5    5  503    0  0.24378759889E+03 -0.11238112520E+03  0.45008560179E+03  0.52406007253E+03  0.00000000000E+00 0. -1.
         -4    1    5    5    0  503  0.38961542164E+02  0.13476251165E+02  0.61172985080E+02  0.73768185669E+02  0.00000000000E+00 0.  1.
         -1    1    6    6    0  502 -0.71779801236E+02  0.20135523907E+03  0.28037982507E+03  0.35257498277E+03  0.00000000000E+00 0.  1.
<mgrwt>
<rscale>  0 0.24710840E+04</rscale>
<asrwt>0</asrwt>
<pdfrwt beam="1">  1        2 0.31444886E+00 0.24710840E+04</pdfrwt>
<pdfrwt beam="2">  1       -2 0.11490483E+00 0.24710840E+04</pdfrwt>
<totfact> 0.33356764E+00</totfact>
</mgrwt>
</event>
<event>
12    1  0.1518126E-007  0.1844028E+04  0.7818608E-02  0.8683230E-01
         -2   -1    0    0    0  501 -0.00000000000E+00  0.00000000000E+00  0.12605230139E+04  0.12605230139E+04  0.00000000000E+00 0.  1.
          2   -1    0    0  501    0  0.00000000000E+00 -0.00000000000E+00 -0.67441009313E+03  0.67441009313E+03  0.00000000000E+00 0. -1.
         23    2    1    2    0    0  0.58046249203E+02 -0.39147589124E+03  0.83047869964E+03  0.92493064351E+03  0.95807537686E+02 0.  0.
        254    2    1    2    0    0 -0.58046249203E+02  0.39147589124E+03 -0.24436577890E+03  0.10100024635E+04  0.89653087056E+03 0.  0.
        -24    2    4    4    0    0 -0.44344434896E+03  0.18851943968E+03 -0.28513465662E+03  0.56537889464E+03  0.78543315042E+02 0.  0.
         24    2    4    4    0    0  0.38539809976E+03  0.20295645156E+03  0.40768877721E+02  0.44462356884E+03  0.79404030452E+02 0.  0.
         11    1    3    3    0    0  0.39826152938E+01 -0.30505828608E+03  0.63382345015E+03  0.70342631817E+03  0.00000000000E+00 0.  1.
        -11    1    3    3    0    0  0.54063633909E+02 -0.86417605166E+02  0.19665524948E+03  0.22150432534E+03  0.00000000000E+00 0. -1.
          4    1    6    6  502    0  0.41803261563E+02  0.32343995355E+02 -0.19417246730E+02  0.56308757608E+02  0.00000000000E+00 0. -1.
          3    1    5    5  503    0 -0.87118179199E+02  0.11016690122E+02 -0.73598784070E+02  0.11457628736E+03  0.00000000000E+00 0. -1.
         -2    1    5    5    0  503 -0.35632616976E+03  0.17750274956E+03 -0.21153587255E+03  0.45080260728E+03  0.00000000000E+00 0.  1.
         -3    1    6    6    0  502  0.34359483819E+03  0.17061245620E+03  0.60186124452E+02  0.38831481123E+03  0.00000000000E+00 0.  1.
<mgrwt>
<rscale>  0 0.18440276E+04</rscale>
<asrwt>0</asrwt>
<pdfrwt beam="1">  1        2 0.10375540E+00 0.18440276E+04</pdfrwt>
<pdfrwt beam="2">  1       -2 0.19392662E+00 0.18440276E+04</pdfrwt>
<totfact> 0.58897593E+00</totfact>
</mgrwt>
</event>
<event>
12    1  0.1518126E-007  0.1385578E+04  0.7818608E-02  0.8964324E-01
         -2   -1    0    0    0  501 -0.00000000000E+00  0.00000000000E+00  0.26723800520E+03  0.26723800520E+03  0.00000000000E+00 0.  1.
          2   -1    0    0  501    0  0.00000000000E+00 -0.00000000000E+00 -0.17959898762E+04  0.17959898762E+04  0.00000000000E+00 0. -1.
         23    2    1    2    0    0  0.22847527581E+03 -0.64155184098E+02  0.19670212569E+02  0.25709001362E+03  0.96909847496E+02 0.  0.
        254    2    1    2    0    0 -0.22847527581E+03  0.64155184098E+02 -0.15484220836E+04  0.18061378678E+04  0.89900289723E+03 0.  0.
        -24    2    4    4    0    0 -0.26077058421E+03  0.64470817783E+02 -0.16499418660E+04  0.16738956687E+04  0.86375717385E+02 0.  0.
         24    2    4    4    0    0  0.32295308403E+02 -0.31563368515E+00  0.10151978244E+03  0.13224219907E+03  0.78349514472E+02 0.  0.
         13    1    3    3    0    0  0.12877839266E+02  0.19975769954E+02  0.89976271446E+01  0.25413134864E+02  0.00000000000E+00 0. -1.
        -13    1    3    3    0    0  0.21559743654E+03 -0.84130954052E+02  0.10672585424E+02  0.23167687876E+03  0.00000000000E+00 0.  1.
          4    1    6    6  502    0  0.25402005659E+02  0.26673757156E+02  0.12391863756E+02  0.38862700622E+02  0.00000000000E+00 0. -1.
          3    1    5    5  503    0 -0.17571192313E+02 -0.15144409133E+02 -0.82376416828E+02  0.85580219541E+02  0.00000000000E+00 0. -1.
         -4    1    5    5    0  503 -0.24319939190E+03  0.79615226916E+02 -0.15675654492E+04  0.15883154492E+04  0.00000000000E+00 0.  1.
         -3    1    6    6    0  502  0.68933027445E+01 -0.26989390841E+02  0.89127918689E+02  0.93379498448E+02  0.00000000000E+00 0.  1.
<mgrwt>
<rscale>  0 0.13855782E+04</rscale>
<asrwt>0</asrwt>
<pdfrwt beam="1">  1        2 0.27630612E+00 0.13855782E+04</pdfrwt>
<pdfrwt beam="2">  1       -2 0.41113541E-01 0.13855782E+04</pdfrwt>
<totfact> 0.47353790E+01</totfact>
</mgrwt>
</event>
<event>
12    1  0.1518126E-007  0.2368747E+04  0.7818608E-02  0.8451298E-01
         -2   -1    0    0    0  501 -0.00000000000E+00  0.00000000000E+00  0.36626174312E+03  0.36626174312E+03  0.00000000000E+00 0.  1.
          2   -1    0    0  501    0  0.00000000000E+00 -0.00000000000E+00 -0.38298848698E+04  0.38298848698E+04  0.00000000000E+00 0. -1.
         23    2    1    2    0    0  0.60831686302E+03  0.77401413421E+03 -0.11029197340E+04  0.14811860411E+04  0.91284517149E+02 0.  0.
        254    2    1    2    0    0 -0.60831686302E+03 -0.77401413421E+03 -0.23607033927E+04  0.27149605718E+04  0.91046313065E+03 0.  0.
        -24    2    4    4    0    0 -0.39557066072E+03 -0.43924277587E+02 -0.26534921249E+03  0.48446789831E+03  0.76768809664E+02 0.  0.
         24    2    4    4    0    0 -0.21274620230E+03 -0.73008985662E+03 -0.20953541802E+04  0.22304926735E+04  0.79349105833E+02 0.  0.
         11    1    3    3    0    0  0.10300045945E+03  0.95642405625E+02 -0.12412091688E+03  0.18751684300E+03  0.00000000000E+00 0. -1.
        -11    1    3    3    0    0  0.50531640356E+03  0.67837172858E+03 -0.97879881711E+03  0.12936691981E+04  0.00000000000E+00 0.  1.
          4    1    6    6  502    0 -0.52317271627E+02 -0.95530691304E+02 -0.25851061721E+03  0.28051907083E+03  0.00000000000E+00 0. -1.
          1    1    5    5  503    0 -0.28890309468E+02  0.13970466175E+02 -0.35468759562E+02  0.47831546192E+02  0.00000000000E+00 0. -1.
         -2    1    5    5    0  503 -0.36668035125E+03 -0.57894743762E+02 -0.22988045293E+03  0.43663635211E+03  0.00000000000E+00 0.  1.
         -3    1    6    6    0  502 -0.16042893067E+03 -0.63455916532E+03 -0.18368435630E+04  0.19499736027E+04  0.00000000000E+00 0.  1.
<mgrwt>
<rscale>  0 0.23687468E+04</rscale>
<asrwt>0</asrwt>
<pdfrwt beam="1">  1        2 0.58921307E+00 0.23687468E+04</pdfrwt>
<pdfrwt beam="2">  1       -2 0.56347959E-01 0.23687468E+04</pdfrwt>
<totfact> 0.12464899E+00</totfact>
</mgrwt>
</event>
<event>
12    1  0.1518126E-007  0.2856962E+04  0.7818608E-02  0.8285799E-01
          1   -1    0    0  501    0  0.00000000000E+00  0.00000000000E+00  0.14872511413E+04  0.14872511413E+04  0.00000000000E+00 0. -1.
         -1   -1    0    0    0  501 -0.00000000000E+00 -0.00000000000E+00 -0.13720335619E+04  0.13720335619E+04  0.00000000000E+00 0.  1.
         23    2    1    2    0    0  0.66669827932E+03 -0.97213974213E+03  0.56711105157E+03  0.13117785718E+04  0.98009196951E+02 0.  0.
        254    2    1    2    0    0 -0.66669827932E+03  0.97213974213E+03 -0.45189347218E+03  0.15475061315E+04  0.89500013573E+03 0.  0.
        -24    2    4    4    0    0  0.98419646891E+02  0.20396570183E+02  0.13841632714E+03  0.18879626403E+03  0.79890567178E+02 0.  0.
         24    2    4    4    0    0 -0.76511792621E+03  0.95174317194E+03 -0.59030979932E+03  0.13587098675E+04  0.80039605302E+02 0.  0.
         13    1    3    3    0    0  0.47980188359E+03 -0.69759499943E+03  0.45539741989E+03  0.96137164550E+03  0.00000000000E+00 0. -1.
        -13    1    3    3    0    0  0.18689639573E+03 -0.27454474270E+03  0.11171363167E+03  0.35040692628E+03  0.00000000000E+00 0.  1.
          4    1    6    6  502    0 -0.47644776772E+03  0.60756917473E+03 -0.33129152212E+03  0.84017667790E+03  0.00000000000E+00 0. -1.
          3    1    5    5  503    0 -0.91559454975E+01  0.89083607028E+01 -0.42409938974E+00  0.12781630908E+02  0.00000000000E+00 0. -1.
         -4    1    5    5    0  503  0.10757559239E+03  0.11488209480E+02  0.13884042653E+03  0.17601463313E+03  0.00000000000E+00 0.  1.
         -3    1    6    6    0  502 -0.28867015849E+03  0.34417399721E+03 -0.25901827720E+03  0.51853318957E+03  0.00000000000E+00 0.  1.
<mgrwt>
<rscale>  0 0.28569624E+04</rscale>
<asrwt>0</asrwt>
<pdfrwt beam="1">  1        1 0.22880787E+00 0.28569624E+04</pdfrwt>
<pdfrwt beam="2">  1       -1 0.21108209E+00 0.28569624E+04</pdfrwt>
<totfact> 0.72708098E-01</totfact>
</mgrwt>
</event>
<event>
12    1  0.1518126E-007  0.4260064E+04  0.7818608E-02  0.7954044E-01
          2   -1    0    0  501    0  0.00000000000E+00  0.00000000000E+00  0.24144254228E+04  0.24144254228E+04  0.00000000000E+00 0. -1.
         -2   -1    0    0    0  501 -0.00000000000E+00 -0.00000000000E+00 -0.18791370193E+04  0.18791370193E+04  0.00000000000E+00 0.  1.
         23    2    1    2    0    0  0.90331323746E+03 -0.83907276951E+03 -0.13628693744E+04  0.18400028940E+04  0.90442250434E+02 0.  0.
        254    2    1    2    0    0 -0.90331323746E+03  0.83907276951E+03  0.18981577779E+04  0.24535595481E+04  0.94706577859E+03 0.  0.
        -24    2    4    4    0    0 -0.89250915597E+03  0.50787566852E+03  0.18384663447E+04  0.21072871820E+04  0.78679595560E+02 0.  0.
         24    2    4    4    0    0 -0.10804081486E+02  0.33119710100E+03  0.59691433248E+02  0.34627236616E+03  0.80828438541E+02 0.  0.
         13    1    3    3    0    0  0.26768249810E+03 -0.29033016110E+03 -0.47985194189E+03  0.62145265980E+03  0.00000000000E+00 0. -1.
        -13    1    3    3    0    0  0.63563073936E+03 -0.54874260841E+03 -0.88301743250E+03  0.12185502342E+04  0.00000000000E+00 0.  1.
          4    1    6    6  502    0 -0.34807711567E+02  0.24046805551E+03  0.67275156102E+02  0.25211586450E+03  0.00000000000E+00 0. -1.
          1    1    5    5  503    0 -0.47205825244E+02  0.23133573448E+02  0.13401101576E+03  0.14395313301E+03  0.00000000000E+00 0. -1.
         -2    1    5    5    0  503 -0.84530333073E+03  0.48474209507E+03  0.17044553289E+04  0.19633340490E+04  0.00000000000E+00 0.  1.
         -3    1    6    6    0  502  0.24003630080E+02  0.90729045490E+02 -0.75837228535E+01  0.94156501660E+02  0.00000000000E+00 0.  1.
<mgrwt>
<rscale>  0 0.42600639E+04</rscale>
<asrwt>0</asrwt>
<pdfrwt beam="1">  1        2 0.37145006E+00 0.42600639E+04</pdfrwt>
<pdfrwt beam="2">  1       -2 0.28909800E+00 0.42600639E+04</pdfrwt>
<totfact> 0.11166189E-01</totfact>
</mgrwt>
</event>
<event>
12    1  0.1518126E-007  0.2132677E+04  0.7818608E-02  0.8546984E-01
         -2   -1    0    0    0  501 -0.00000000000E+00  0.00000000000E+00  0.12231257573E+04  0.12231257573E+04  0.00000000000E+00 0.  1.
          2   -1    0    0  501    0  0.00000000000E+00 -0.00000000000E+00 -0.92964923508E+03  0.92964923508E+03  0.00000000000E+00 0. -1.
         23    2    1    2    0    0  0.49509213785E+03 -0.68090700482E+03 -0.11059444846E+03  0.85381277745E+03  0.89524034385E+02 0.  0.
        254    2    1    2    0    0 -0.49509213785E+03  0.68090700482E+03  0.40407097063E+03  0.12989622149E+04  0.90292796624E+03 0.  0.
        -24    2    4    4    0    0 -0.62179307807E+03  0.17597577363E+03  0.41513407065E+03  0.77219760698E+03  0.79741725421E+02 0.  0.
         24    2    4    4    0    0  0.12670094021E+03  0.50493123119E+03 -0.11063100012E+02  0.52676460791E+03  0.79686156120E+02 0.  0.
         13    1    3    3    0    0  0.27642581968E+03 -0.40777713445E+03 -0.10594988403E+03  0.50390356527E+03  0.00000000000E+00 0. -1.
        -13    1    3    3    0    0  0.21866631817E+03 -0.27312987037E+03 -0.46445644374E+01  0.34990921218E+03  0.00000000000E+00 0.  1.
          2    1    6    6  502    0  0.95463347030E+02  0.22026889283E+03 -0.12477965413E+02  0.24038996526E+03  0.00000000000E+00 0. -1.
          1    1    5    5  503    0 -0.36257931042E+03  0.13189805944E+03  0.27883400162E+03  0.47603493033E+03  0.00000000000E+00 0. -1.
         -2    1    5    5    0  503 -0.25921376764E+03  0.44077714183E+02  0.13630006903E+03  0.29616267665E+03  0.00000000000E+00 0.  1.
         -1    1    6    6    0  502  0.31237593184E+02  0.28466233836E+03  0.14148654008E+01  0.28637464265E+03  0.00000000000E+00 0.  1.
<mgrwt>
<rscale>  0 0.21326771E+04</rscale>
<asrwt>0</asrwt>
<pdfrwt beam="1">  1        2 0.14302296E+00 0.21326771E+04</pdfrwt>
<pdfrwt beam="2">  1       -2 0.18817319E+00 0.21326771E+04</pdfrwt>
<totfact> 0.41031443E+00</totfact>
</mgrwt>
</event>
<event>
12    1  0.1518126E-007  0.2060266E+04  0.7818608E-02  0.8578951E-01
          1   -1    0    0  501    0  0.00000000000E+00  0.00000000000E+00  0.12164439141E+04  0.12164439141E+04  0.00000000000E+00 0. -1.
         -1   -1    0    0    0  501 -0.00000000000E+00 -0.00000000000E+00 -0.87235752264E+03  0.87235752264E+03  0.00000000000E+00 0.  1.
         23    2    1    2    0    0  0.11264351584E+03 -0.13883522342E+03  0.95897768265E+03  0.97974396945E+03  0.91083856607E+02 0.  0.
        254    2    1    2    0    0 -0.11264351584E+03  0.13883522342E+03 -0.61489129118E+03  0.11090574673E+04  0.90551277457E+03 0.  0.
        -24    2    4    4    0    0 -0.44284609655E+02 -0.37994946247E+03 -0.30818590827E+03  0.49724387275E+03  0.77137502175E+02 0.  0.
         24    2    4    4    0    0 -0.68358906190E+02  0.51878468589E+03 -0.30670538290E+03  0.61181359456E+03  0.80232114656E+02 0.  0.
         11    1    3    3    0    0  0.80318551741E+02 -0.35558733805E+02  0.53559176655E+03  0.54274674913E+03  0.00000000000E+00 0. -1.
        -11    1    3    3    0    0  0.32324964104E+02 -0.10327648961E+03  0.42338591611E+03  0.43699722032E+03  0.00000000000E+00 0.  1.
          2    1    6    6  502    0 -0.21827681418E+01 -0.28302947607E+01 -0.17141610713E+01  0.39640122819E+01  0.00000000000E+00 0. -1.
          3    1    5    5  503    0  0.78734260336E+01 -0.38715091227E+02 -0.60978777607E+02  0.72658519423E+02  0.00000000000E+00 0. -1.
         -4    1    5    5    0  503 -0.52158035688E+02 -0.34123437124E+03 -0.24720713067E+03  0.42458535332E+03  0.00000000000E+00 0.  1.
         -1    1    6    6    0  502 -0.66176138048E+02  0.52161498065E+03 -0.30499122183E+03  0.60784958228E+03  0.00000000000E+00 0.  1.
<mgrwt>
<rscale>  0 0.20602660E+04</rscale>
<asrwt>0</asrwt>
<pdfrwt beam="1">  1        1 0.18714522E+00 0.20602660E+04</pdfrwt>
<pdfrwt beam="2">  1       -1 0.13420885E+00 0.20602660E+04</pdfrwt>
<totfact> 0.44860124E+00</totfact>
</mgrwt>
</event>
<event>
12    1  0.1518126E-007  0.1809845E+04  0.7818608E-02  0.8701081E-01
          2   -1    0    0  501    0  0.00000000000E+00  0.00000000000E+00  0.17297160994E+04  0.17297160994E+04  0.00000000000E+00 0.  1.
         -2   -1    0    0    0  501 -0.00000000000E+00 -0.00000000000E+00 -0.47342151116E+03  0.47342151116E+03  0.00000000000E+00 0. -1.
         23    2    1    2    0    0 -0.35743093571E+03 -0.53065580004E+03  0.75616069534E+03  0.99460119550E+03  0.90000494390E+02 0.  0.
        254    2    1    2    0    0  0.35743093571E+03  0.53065580004E+03  0.50013389295E+03  0.12085364151E+04  0.89502732016E+03 0.  0.
        -24    2    4    4    0    0  0.19987183989E+03  0.68457859801E+03  0.72532784943E+02  0.72149640800E+03  0.81850184016E+02 0.  0.
         24    2    4    4    0    0  0.15755909582E+03 -0.15392279797E+03  0.42760110801E+03  0.48704000711E+03  0.76473293004E+02 0.  0.
         13    1    3    3    0    0 -0.22879479823E+03 -0.36159881483E+03  0.44052095749E+03  0.61413310982E+03  0.00000000000E+00 0. -1.
        -13    1    3    3    0    0 -0.12863613748E+03 -0.16905698521E+03  0.31563973784E+03  0.38046808568E+03  0.00000000000E+00 0.  1.
          4    1    6    6  502    0  0.81106742906E+02 -0.38996239730E+02  0.12098056890E+03  0.15078232161E+03  0.00000000000E+00 0. -1.
          1    1    5    5  503    0  0.70063058779E+02  0.37428354639E+03  0.22571947061E+02  0.38145314011E+03  0.00000000000E+00 0. -1.
         -2    1    5    5    0  503  0.12980878111E+03  0.31029505162E+03  0.49960837881E+02  0.34004326789E+03  0.00000000000E+00 0.  1.
         -3    1    6    6    0  502  0.76452352911E+02 -0.11492655824E+03  0.30662053911E+03  0.33625768550E+03  0.00000000000E+00 0.  1.
<mgrwt>
<rscale>  0 0.18098451E+04</rscale>
<asrwt>0</asrwt>
<pdfrwt beam="1">  1        2 0.26611017E+00 0.18098451E+04</pdfrwt>
<pdfrwt beam="2">  1       -2 0.72834080E-01 0.18098451E+04</pdfrwt>
<totfact> 0.15171422E+01</totfact>
</mgrwt>
</event>
<event>
12    1  0.1518126E-007  0.1614914E+04  0.7818608E-02  0.8811438E-01
          2   -1    0    0  501    0  0.00000000000E+00  0.00000000000E+00  0.12513070825E+04  0.12513070825E+04  0.00000000000E+00 0.  1.
         -2   -1    0    0    0  501 -0.00000000000E+00 -0.00000000000E+00 -0.52104480931E+03  0.52104480931E+03  0.00000000000E+00 0. -1.
         23    2    1    2    0    0  0.44463433862E+03  0.30722431294E+03  0.42201713700E+03  0.69263482508E+03  0.97765348893E+02 0.  0.
        254    2    1    2    0    0 -0.44463433862E+03 -0.30722431294E+03  0.30824513619E+03  0.10797170667E+04  0.88243266411E+03 0.  0.
        -24    2    4    4    0    0  0.14511088596E+03  0.26795497480E+02 -0.17561002874E+03  0.24296359124E+03  0.80107780936E+02 0.  0.
         24    2    4    4    0    0 -0.58974522458E+03 -0.33401981042E+03  0.48385516493E+03  0.83675347550E+03  0.81681665418E+02 0.  0.
         11    1    3    3    0    0  0.28152786379E+03  0.24953843349E+03  0.29134020662E+03  0.47582190352E+03  0.00000000000E+00 0. -1.
        -11    1    3    3    0    0  0.16310647482E+03  0.57685879453E+02  0.13067693039E+03  0.21681292155E+03  0.00000000000E+00 0.  1.
          2    1    6    6  502    0 -0.22466209015E+02 -0.10387437954E+01  0.30398220142E+02  0.37813507163E+02  0.00000000000E+00 0. -1.
          3    1    5    5  503    0  0.15747334122E+02  0.18608355567E+02  0.39185185304E+00  0.24380380980E+02  0.00000000000E+00 0. -1.
         -4    1    5    5    0  503  0.12936355183E+03  0.81871419136E+01 -0.17600188059E+03  0.21858321026E+03  0.00000000000E+00 0.  1.
         -1    1    6    6    0  502 -0.56727901556E+03 -0.33298106662E+03  0.45345694478E+03  0.79893996833E+03  0.00000000000E+00 0.  1.
<mgrwt>
<rscale>  0 0.16149143E+04</rscale>
<asrwt>0</asrwt>
<pdfrwt beam="1">  1        2 0.19250878E+00 0.16149143E+04</pdfrwt>
<pdfrwt beam="2">  1       -2 0.80160740E-01 0.16149143E+04</pdfrwt>
<totfact> 0.23274256E+01</totfact>
</mgrwt>
</event>
<event>
12    1  0.1518126E-007  0.2441464E+04  0.7818608E-02  0.8424141E-01
          1   -1    0    0  501    0  0.00000000000E+00  0.00000000000E+00  0.26744123163E+04  0.26744123163E+04  0.00000000000E+00 0. -1.
         -1   -1    0    0    0  501 -0.00000000000E+00 -0.00000000000E+00 -0.55720166330E+03  0.55720166330E+03  0.00000000000E+00 0.  1.
         23    2    1    2    0    0 -0.33496963283E+03  0.59528888292E+03 -0.14440840487E+03  0.70475326530E+03  0.96176236716E+02 0.  0.
        254    2    1    2    0    0  0.33496963283E+03 -0.59528888292E+03  0.22616190579E+04  0.25268607143E+04  0.89639879376E+03 0.  0.
        -24    2    4    4    0    0 -0.15949114583E+03 -0.37593207500E+03  0.36806898157E+03  0.55598111940E+03  0.82932980907E+02 0.  0.
         24    2    4    4    0    0  0.49446077866E+03 -0.21935680792E+03  0.18935500763E+04  0.19708795949E+04  0.78902568338E+02 0.  0.
         11    1    3    3    0    0 -0.10854031243E+03  0.21928167272E+03 -0.68075505243E+01  0.24476885863E+03  0.00000000000E+00 0.  1.
        -11    1    3    3    0    0 -0.22642932040E+03  0.37600721020E+03 -0.13760085435E+03  0.45998440667E+03  0.00000000000E+00 0. -1.
          4    1    6    6  502    0  0.70525910527E+02 -0.52093130720E+02  0.23389009803E+03  0.24978425947E+03  0.00000000000E+00 0. -1.
          3    1    5    5  503    0 -0.76116697746E+02 -0.10254552753E+03  0.83041949598E+02  0.15233286673E+03  0.00000000000E+00 0. -1.
         -4    1    5    5    0  503 -0.83374448086E+02 -0.27338654747E+03  0.28502703197E+03  0.40364825267E+03  0.00000000000E+00 0.  1.
         -3    1    6    6    0  502  0.42393486813E+03 -0.16726367720E+03  0.16596599783E+04  0.17210953354E+04  0.00000000000E+00 0.  1.
<mgrwt>
<rscale>  0 0.24414643E+04</rscale>
<asrwt>0</asrwt>
<pdfrwt beam="1">  1        1 0.41144804E+00 0.24414643E+04</pdfrwt>
<pdfrwt beam="2">  1       -1 0.85723334E-01 0.24414643E+04</pdfrwt>
<totfact> 0.12275719E+00</totfact>
</mgrwt>
</event>
<event>
12    1  0.1518126E-007  0.1920663E+04  0.7818608E-02  0.8644639E-01
          1   -1    0    0  501    0  0.00000000000E+00  0.00000000000E+00  0.49538381853E+03  0.49538381853E+03  0.00000000000E+00 0. -1.
         -1   -1    0    0    0  501 -0.00000000000E+00 -0.00000000000E+00 -0.18616598022E+04  0.18616598022E+04  0.00000000000E+00 0.  1.
         23    2    1    2    0    0  0.20931393992E+02 -0.43415624187E+03 -0.12187872034E+04  0.12972908018E+04  0.92689867659E+02 0.  0.
        254    2    1    2    0    0 -0.20931393992E+02  0.43415624187E+03 -0.14748878024E+03  0.10597528189E+04  0.95519282415E+03 0.  0.
        -24    2    4    4    0    0 -0.29202764627E+03  0.21171479836E+03  0.30638840199E+03  0.48070387309E+03  0.84255911920E+02 0.  0.
         24    2    4    4    0    0  0.27109625228E+03  0.22244144351E+03 -0.45387718223E+03  0.57904894584E+03  0.79497241043E+02 0.  0.
         13    1    3    3    0    0 -0.30335711745E+02 -0.27064535563E+03 -0.71134348204E+03  0.76169463263E+03  0.00000000000E+00 0.  1.
        -13    1    3    3    0    0  0.51267105736E+02 -0.16351088624E+03 -0.50744372138E+03  0.53559616916E+03  0.00000000000E+00 0. -1.
          4    1    6    6  502    0  0.90754603000E+02  0.10555884321E+03 -0.13075784532E+03  0.19098869458E+03  0.00000000000E+00 0. -1.
          3    1    5    5  503    0 -0.16501209523E+03  0.88263769457E+02  0.11366907309E+03  0.21895237552E+03  0.00000000000E+00 0. -1.
         -4    1    5    5    0  503 -0.12701555105E+03  0.12345102890E+03  0.19271932890E+03  0.26175149756E+03  0.00000000000E+00 0.  1.
         -3    1    6    6    0  502  0.18034164928E+03  0.11688260030E+03 -0.32311933691E+03  0.38806025125E+03  0.00000000000E+00 0.  1.
<mgrwt>
<rscale>  0 0.19206625E+04</rscale>
<asrwt>0</asrwt>
<pdfrwt beam="1">  1        1 0.76212895E-01 0.19206625E+04</pdfrwt>
<pdfrwt beam="2">  1       -1 0.28640920E+00 0.19206625E+04</pdfrwt>
<totfact> 0.16970555E+00</totfact>
</mgrwt>
</event>
<event>
12    1  0.1518126E-007  0.1097312E+04  0.7818608E-02  0.9207816E-01
         -1   -1    0    0    0  501 -0.00000000000E+00  0.00000000000E+00  0.51244546125E+03  0.51244546125E+03  0.00000000000E+00 0.  1.
          1   -1    0    0  501    0  0.00000000000E+00 -0.00000000000E+00 -0.58742486808E+03  0.58742486808E+03  0.00000000000E+00 0. -1.
         23    2    1    2    0    0 -0.12120095504E+03  0.16273698408E+02 -0.11025989994E+03  0.18721417893E+03  0.89092078757E+02 0.  0.
        254    2    1    2    0    0  0.12120095504E+03 -0.16273698408E+02  0.35280493108E+02  0.91265615040E+03  0.90373781093E+03 0.  0.
        -24    2    4    4    0    0 -0.15066932312E+03 -0.23846491105E+03 -0.30042114364E+03  0.42012277046E+03  0.81752797997E+02 0.  0.
         24    2    4    4    0    0  0.27187027816E+03  0.22219121264E+03  0.33570163675E+03  0.49253337994E+03  0.81309029796E+02 0.  0.
         13    1    3    3    0    0 -0.39380683856E+02  0.28894868976E+02 -0.89345647578E+02  0.10182532325E+03  0.00000000000E+00 0. -1.
        -13    1    3    3    0    0 -0.81820271183E+02 -0.12621170569E+02 -0.20914252361E+02  0.85388855682E+02  0.00000000000E+00 0.  1.
          2    1    6    6  502    0  0.11176010459E+03  0.46185101420E+02  0.13513176489E+03  0.18133940127E+03  0.00000000000E+00 0. -1.
          1    1    5    5  503    0 -0.36967781647E+01  0.67726077581E+01 -0.93367613478E+01  0.12112369591E+02  0.00000000000E+00 0. -1.
         -2    1    5    5    0  503 -0.14697254495E+03 -0.24523751880E+03 -0.29108438229E+03  0.40801040086E+03  0.00000000000E+00 0.  1.
         -1    1    6    6    0  502  0.16011017357E+03  0.17600611122E+03  0.20056987186E+03  0.31119397867E+03  0.00000000000E+00 0.  1.
<mgrwt>
<rscale>  0 0.10973116E+04</rscale>
<asrwt>0</asrwt>
<pdfrwt beam="1">  1        1 0.90373057E-01 0.10973116E+04</pdfrwt>
<pdfrwt beam="2">  1       -1 0.78837763E-01 0.10973116E+04</pdfrwt>
<totfact> 0.56667095E+01</totfact>
</mgrwt>
</event>
<event>
12    1  0.1518126E-007  0.2204443E+04  0.7818608E-02  0.8516581E-01
          2   -1    0    0  501    0  0.00000000000E+00  0.00000000000E+00  0.23867299505E+04  0.23867299505E+04  0.00000000000E+00 0. -1.
         -2   -1    0    0    0  501 -0.00000000000E+00 -0.00000000000E+00 -0.50901945656E+03  0.50901945656E+03  0.00000000000E+00 0.  1.
         23    2    1    2    0    0  0.48372895744E+02  0.43929558506E+03 -0.26729037282E+03  0.52459829663E+03  0.91862295461E+02 0.  0.
        254    2    1    2    0    0 -0.48372895744E+02 -0.43929558506E+03  0.21450008667E+04  0.23711511104E+04  0.90884999975E+03 0.  0.
        -24    2    4    4    0    0 -0.21358221593E+03  0.15992868466E+03  0.24661172750E+03  0.37200210943E+03  0.79835318909E+02 0.  0.
         24    2    4    4    0    0  0.16520932019E+03 -0.59922426972E+03  0.18983891392E+04  0.19991490010E+04  0.79696670274E+02 0.  0.
         13    1    3    3    0    0  0.20195982514E+02  0.30320249036E+03 -0.22882167745E+03  0.38039320175E+03  0.00000000000E+00 0.  1.
        -13    1    3    3    0    0  0.28176913230E+02  0.13609309470E+03 -0.38468695370E+02  0.14420509487E+03  0.00000000000E+00 0. -1.
          4    1    6    6  502    0  0.10164394456E+03 -0.24484702647E+03  0.87477261244E+03  0.91406163978E+03  0.00000000000E+00 0. -1.
          1    1    5    5  503    0 -0.12992905047E+03  0.55521943698E+02  0.97498055207E+02  0.17166862019E+03  0.00000000000E+00 0. -1.
         -2    1    5    5    0  503 -0.83653165463E+02  0.10440674096E+03  0.14911367229E+03  0.20033348925E+03  0.00000000000E+00 0.  1.
         -3    1    6    6    0  502  0.63565375626E+02 -0.35437724325E+03  0.10236165268E+04  0.10850873612E+04  0.00000000000E+00 0.  1.
<mgrwt>
<rscale>  0 0.22044428E+04</rscale>
<asrwt>0</asrwt>
<pdfrwt beam="1">  1        2 0.36718922E+00 0.22044428E+04</pdfrwt>
<pdfrwt beam="2">  1       -2 0.78310687E-01 0.22044428E+04</pdfrwt>
<totfact> 0.53605599E+00</totfact>
</mgrwt>
</event>
<event>
12    1  0.1518126E-007  0.1744907E+04  0.7818608E-02  0.8736159E-01
          1   -1    0    0  501    0  0.00000000000E+00  0.00000000000E+00  0.91346574906E+03  0.91346574906E+03  0.00000000000E+00 0. -1.
         -1   -1    0    0    0  501 -0.00000000000E+00 -0.00000000000E+00 -0.83328278583E+03  0.83328278583E+03  0.00000000000E+00 0.  1.
         23    2    1    2    0    0 -0.21643825438E+03  0.41575033280E+03 -0.40818108819E+03  0.62772570714E+03  0.87942625985E+02 0.  0.
        254    2    1    2    0    0  0.21643825438E+03 -0.41575033280E+03  0.48836405143E+03  0.11190228277E+04  0.89107731713E+03 0.  0.
        -24    2    4    4    0    0  0.28786403296E+03 -0.52313673099E+03  0.65783573078E+03  0.89196572107E+03  0.79481180690E+02 0.  0.
         24    2    4    4    0    0 -0.71425778582E+02  0.10738639819E+03 -0.16947167935E+03  0.22705710668E+03  0.78745153671E+02 0.  0.
         11    1    3    3    0    0 -0.12610254156E+03  0.20006381659E+03 -0.15331419244E+03  0.28183793800E+03  0.00000000000E+00 0. -1.
        -11    1    3    3    0    0 -0.90335712817E+02  0.21568651621E+03 -0.25486689576E+03  0.34588776914E+03  0.00000000000E+00 0.  1.
          4    1    6    6  502    0  0.60462731273E+01  0.30482042854E+01  0.57639530612E+01  0.88922507267E+01  0.00000000000E+00 0. -1.
          1    1    5    5  503    0 -0.30165904762E+01 -0.21430641211E+02  0.33111485778E+02  0.39556828630E+02  0.00000000000E+00 0. -1.
         -2    1    5    5    0  503  0.29088062344E+03 -0.50170608978E+03  0.62472424500E+03  0.85240889244E+03  0.00000000000E+00 0.  1.
         -3    1    6    6    0  502 -0.77472051710E+02  0.10433819391E+03 -0.17523563241E+03  0.21816485595E+03  0.00000000000E+00 0.  1.
<mgrwt>
<rscale>  0 0.17449072E+04</rscale>
<asrwt>0</asrwt>
<pdfrwt beam="1">  1        1 0.14053319E+00 0.17449072E+04</pdfrwt>
<pdfrwt beam="2">  1       -1 0.12819735E+00 0.17449072E+04</pdfrwt>
<totfact> 0.88368661E+00</totfact>
</mgrwt>
</event>
<event>
12    1  0.1518126E-007  0.1534359E+04  0.7818608E-02  0.8861921E-01
          1   -1    0    0  501    0  0.00000000000E+00  0.00000000000E+00  0.18425884773E+04  0.18425884773E+04  0.00000000000E+00 0.  1.
         -1   -1    0    0    0  501 -0.00000000000E+00 -0.00000000000E+00 -0.31942243955E+03  0.31942243955E+03  0.00000000000E+00 0. -1.
         23    2    1    2    0    0 -0.28302948155E+03  0.29943351301E+03  0.88709745993E+03  0.98240829109E+03  0.91749827595E+02 0.  0.
        254    2    1    2    0    0  0.28302948155E+03 -0.29943351301E+03  0.63606857785E+03  0.11796026258E+04  0.90394303079E+03 0.  0.
        -24    2    4    4    0    0  0.37218466506E+03 -0.53275152528E+03  0.64200699417E+03  0.91710339055E+03  0.80994047906E+02 0.  0.
         24    2    4    4    0    0 -0.89155183512E+02  0.23331801227E+03 -0.59384163244E+01  0.26249923524E+03  0.80527275625E+02 0.  0.
         11    1    3    3    0    0 -0.27751238073E+03  0.28173765524E+03  0.78881895398E+03  0.88239705915E+03  0.00000000000E+00 0.  1.
        -11    1    3    3    0    0 -0.55171008158E+01  0.17695857767E+02  0.98278505950E+02  0.10001123195E+03  0.00000000000E+00 0. -1.
          2    1    6    6  502    0 -0.96352598348E+02  0.15985045566E+03  0.10251864614E+02  0.18692536508E+03  0.00000000000E+00 0. -1.
          3    1    5    5  503    0  0.15669322957E+03 -0.15740761744E+03  0.21692593567E+03  0.31046221636E+03  0.00000000000E+00 0. -1.
         -4    1    5    5    0  503  0.21549143548E+03 -0.37534390784E+03  0.42508105850E+03  0.60664117419E+03  0.00000000000E+00 0.  1.
         -1    1    6    6    0  502  0.71974148362E+01  0.73467556612E+02 -0.16190280938E+02  0.75573870165E+02  0.00000000000E+00 0.  1.
<mgrwt>
<rscale>  0 0.15343586E+04</rscale>
<asrwt>0</asrwt>
<pdfrwt beam="1">  1        1 0.28347514E+00 0.15343586E+04</pdfrwt>
<pdfrwt beam="2">  1       -1 0.49141915E-01 0.15343586E+04</pdfrwt>
<totfact> 0.15255549E+01</totfact>
</mgrwt>
</event>
<event>
12    1  0.1518126E-007  0.2773397E+04  0.7818608E-02  0.8311575E-01
         -2   -1    0    0    0  501 -0.00000000000E+00  0.00000000000E+00  0.99330117891E+03  0.99330117891E+03  0.00000000000E+00 0.  1.
          2   -1    0    0  501    0  0.00000000000E+00 -0.00000000000E+00 -0.19359013173E+04  0.19359013173E+04  0.00000000000E+00 0. -1.
         23    2    1    2    0    0  0.40248336795E+02  0.34549105730E+02 -0.17370741130E+04  0.17404086398E+04  0.93713340397E+02 0.  0.
        254    2    1    2    0    0 -0.40248336795E+02 -0.34549105730E+02  0.79447397463E+03  0.11887938564E+04  0.88273912750E+03 0.  0.
        -24    2    4    4    0    0  0.87967750066E+02 -0.23399088040E+03  0.88476607997E+03  0.92284164321E+03  0.79596639443E+02 0.  0.
         24    2    4    4    0    0 -0.12821608686E+03  0.19944177467E+03 -0.90292105334E+02  0.26595221315E+03  0.79759193717E+02 0.  0.
         13    1    3    3    0    0 -0.29642436089E+02  0.16950228385E+02 -0.70067102585E+03  0.70150258070E+03  0.00000000000E+00 0. -1.
        -13    1    3    3    0    0  0.69890772884E+02  0.17598877345E+02 -0.10364030872E+04  0.10389060591E+04  0.00000000000E+00 0.  1.
          2    1    6    6  502    0 -0.37293771320E+01  0.99936528109E+01  0.13020290416E+02  0.16831794700E+02  0.00000000000E+00 0. -1.
          3    1    5    5  503    0  0.83053408154E+02 -0.13263185655E+03  0.45151533552E+03  0.47786522806E+03  0.00000000000E+00 0. -1.
         -4    1    5    5    0  503  0.49143419114E+01 -0.10135902385E+03  0.43325074445E+03  0.44497641515E+03  0.00000000000E+00 0.  1.
         -1    1    6    6    0  502 -0.12448670973E+03  0.18944812186E+03 -0.10331239575E+03  0.24912041845E+03  0.00000000000E+00 0.  1.
<mgrwt>
<rscale>  0 0.27733972E+04</rscale>
<asrwt>0</asrwt>
<pdfrwt beam="1">  1        2 0.29783097E+00 0.27733972E+04</pdfrwt>
<pdfrwt beam="2">  1       -2 0.15281557E+00 0.27733972E+04</pdfrwt>
<totfact> 0.18036707E+00</totfact>
</mgrwt>
</event>
<event>
12    1  0.1707910E-007  0.2949626E+04  0.7818608E-02  0.8258264E-01
         -2   -1    0    0    0  501 -0.00000000000E+00  0.00000000000E+00  0.13485603722E+04  0.13485603722E+04  0.00000000000E+00 0. -1.
          2   -1    0    0  501    0  0.00000000000E+00 -0.00000000000E+00 -0.16128852771E+04  0.16128852771E+04  0.00000000000E+00 0.  1.
         23    2    1    2    0    0 -0.16537818806E+03 -0.47833172348E+02 -0.14522546087E+04  0.14648993848E+04  0.85139895608E+02 0.  0.
        254    2    1    2    0    0  0.16537818806E+03  0.47833172348E+02  0.11879297037E+04  0.14965462645E+04  0.89377613716E+03 0.  0.
        -24    2    4    4    0    0 -0.10433384877E+03 -0.16970471162E+03 -0.40052203341E+02  0.21813855011E+03  0.79341079548E+02 0.  0.
         24    2    4    4    0    0  0.26971203684E+03  0.21753788397E+03  0.12279819070E+04  0.12784077144E+04  0.79494694175E+02 0.  0.
         11    1    3    3    0    0 -0.17185050449E+02  0.22152484983E+02 -0.19347728633E+03  0.19549813011E+03  0.00000000000E+00 0. -1.
        -11    1    3    3    0    0 -0.14819313761E+03 -0.69985657331E+02 -0.12587773223E+04  0.12694012547E+04  0.00000000000E+00 0.  1.
          2    1    6    6  502    0  0.82393967469E+02  0.11636205053E+03  0.50121432413E+03  0.52109950239E+03  0.00000000000E+00 0. -1.
          1    1    5    5  503    0  0.58601857177E+01 -0.54646765732E+02 -0.13916942830E+02  0.56694727086E+02  0.00000000000E+00 0. -1.
         -2    1    5    5    0  503 -0.11019403449E+03 -0.11505794589E+03 -0.26135260512E+02  0.16144382302E+03  0.00000000000E+00 0.  1.
         -1    1    6    6    0  502  0.18731806937E+03  0.10117583344E+03  0.72676758291E+03  0.75730821199E+03  0.00000000000E+00 0.  1.
<mgrwt>
<rscale>  0 0.29496259E+04</rscale>
<asrwt>0</asrwt>
<pdfrwt beam="1">  1        2 0.24813620E+00 0.29496259E+04</pdfrwt>
<pdfrwt beam="2">  1       -2 0.20747083E+00 0.29496259E+04</pdfrwt>
<totfact> 0.11210227E+00</totfact>
</mgrwt>
</event>
<event>
12    1  0.1518126E-007  0.1154251E+04  0.7818608E-02  0.9153871E-01
         -1   -1    0    0    0  501 -0.00000000000E+00  0.00000000000E+00  0.16206638485E+03  0.16206638485E+03  0.00000000000E+00 0.  1.
          1   -1    0    0  501    0  0.00000000000E+00 -0.00000000000E+00 -0.20551694990E+04  0.20551694990E+04  0.00000000000E+00 0. -1.
         23    2    1    2    0    0  0.53101329401E+02  0.16365432469E+03 -0.55646925243E+03  0.58951774439E+03  0.90943129912E+02 0.  0.
        254    2    1    2    0    0 -0.53101329401E+02 -0.16365432469E+03 -0.13366338617E+04  0.16277181395E+04  0.91283830554E+03 0.  0.
        -24    2    4    4    0    0 -0.28343753974E+03 -0.17926792274E+03 -0.88501888381E+02  0.35601894578E+03  0.80268788753E+02 0.  0.
         24    2    4    4    0    0  0.23033621034E+03  0.15613598055E+02 -0.12481319734E+04  0.12716991937E+04  0.78018344635E+02 0.  0.
         13    1    3    3    0    0  0.71138579773E+02  0.14159936293E+03 -0.51767052892E+03  0.54138143081E+03  0.00000000000E+00 0. -1.
        -13    1    3    3    0    0 -0.18037250373E+02  0.22054961754E+02 -0.38798723513E+02  0.48136313582E+02  0.00000000000E+00 0.  1.
          2    1    6    6  502    0  0.86290656006E+02  0.42907056215E+02 -0.54335190483E+03  0.55183184510E+03  0.00000000000E+00 0. -1.
          1    1    5    5  503    0 -0.23372843778E+02  0.64349584282E+01 -0.13601867881E+02  0.27797649651E+02  0.00000000000E+00 0. -1.
         -2    1    5    5    0  503 -0.26006469596E+03 -0.18570288117E+03 -0.74900020499E+02  0.32822129613E+03  0.00000000000E+00 0.  1.
         -1    1    6    6    0  502  0.14404555433E+03 -0.27293458159E+02 -0.70478006854E+03  0.71986734861E+03  0.00000000000E+00 0.  1.
<mgrwt>
<rscale>  0 0.11542511E+04</rscale>
<asrwt>0</asrwt>
<pdfrwt beam="1">  1        1 0.31617991E+00 0.11542511E+04</pdfrwt>
<pdfrwt beam="2">  1       -1 0.24933291E-01 0.11542511E+04</pdfrwt>
<totfact> 0.38298714E+01</totfact>
</mgrwt>
</event>
<event>
12    1  0.1518126E-007  0.2763349E+04  0.7818608E-02  0.8314738E-01
          2   -1    0    0  501    0  0.00000000000E+00  0.00000000000E+00  0.27121038969E+04  0.27121038969E+04  0.00000000000E+00 0. -1.
         -2   -1    0    0    0  501 -0.00000000000E+00 -0.00000000000E+00 -0.70389051472E+03  0.70389051472E+03  0.00000000000E+00 0.  1.
         23    2    1    2    0    0  0.11357827424E+04 -0.48842413310E+03  0.91115208437E+03  0.15384755034E+04  0.90267280336E+02 0.  0.
        254    2    1    2    0    0 -0.11357827424E+04  0.48842413310E+03  0.10970612978E+04  0.18775189082E+04  0.89049041985E+03 0.  0.
        -24    2    4    4    0    0 -0.81665222183E+03  0.21529688480E+03  0.11688907045E+04  0.14438873696E+04  0.72330193043E+02 0.  0.
         24    2    4    4    0    0 -0.31913052060E+03  0.27312724829E+03 -0.71829406709E+02  0.43363153868E+03  0.80212622031E+02 0.  0.
         11    1    3    3    0    0  0.89802072525E+03 -0.35859947647E+03  0.74503973487E+03  0.12207043106E+04  0.00000000000E+00 0. -1.
        -11    1    3    3    0    0  0.23776201718E+03 -0.12982465663E+03  0.16611234950E+03  0.31777119274E+03  0.00000000000E+00 0.  1.
          2    1    6    6  502    0 -0.17706386133E+03  0.19628946076E+03 -0.25355467547E+02  0.26556367057E+03  0.00000000000E+00 0. -1.
          1    1    5    5  503    0 -0.40396409517E+03  0.10563674101E+03  0.51636187532E+03  0.66406001048E+03  0.00000000000E+00 0. -1.
         -2    1    5    5    0  503 -0.41268812665E+03  0.10966014379E+03  0.65252882921E+03  0.77982735908E+03  0.00000000000E+00 0.  1.
         -1    1    6    6    0  502 -0.14206665927E+03  0.76837787536E+02 -0.46473939162E+02  0.16806786811E+03  0.00000000000E+00 0.  1.
<mgrwt>
<rscale>  0 0.27633488E+04</rscale>
<asrwt>0</asrwt>
<pdfrwt beam="1">  1        2 0.41724675E+00 0.27633488E+04</pdfrwt>
<pdfrwt beam="2">  1       -2 0.10829085E+00 0.27633488E+04</pdfrwt>
<totfact> 0.15549529E+00</totfact>
</mgrwt>
</event>
<event>
12    1  0.1518126E-007  0.2070587E+04  0.7818608E-02  0.8574312E-01
         -3   -1    0    0    0  501 -0.00000000000E+00  0.00000000000E+00  0.97543670983E+03  0.97543670983E+03  0.00000000000E+00 0.  1.
          3   -1    0    0  501    0  0.00000000000E+00 -0.00000000000E+00 -0.10988236433E+04  0.10988236433E+04  0.00000000000E+00 0. -1.
         23    2    1    2    0    0  0.30296136899E+03  0.22495368326E+03 -0.80673668744E+03  0.89543175068E+03  0.92650885340E+02 0.  0.
        254    2    1    2    0    0 -0.30296136899E+03 -0.22495368326E+03  0.68334975400E+03  0.11788286024E+04  0.88333472527E+03 0.  0.
        -24    2    4    4    0    0 -0.71992605273E+02 -0.45847256660E+03  0.69632755280E+03  0.84060410417E+03  0.79769477933E+02 0.  0.
         24    2    4    4    0    0 -0.23096876372E+03  0.23351888334E+03 -0.12977798798E+02  0.33822449825E+03  0.79685314005E+02 0.  0.
         11    1    3    3    0    0  0.27348981022E+03  0.15917259480E+03 -0.65235061123E+03  0.72504752340E+03  0.00000000000E+00 0. -1.
        -11    1    3    3    0    0  0.29471558768E+02  0.65781088465E+02 -0.15438607621E+03  0.17038422727E+03  0.00000000000E+00 0.  1.
          4    1    6    6  502    0 -0.12364818519E+03  0.11705788368E+03  0.32740967645E+02  0.17338798342E+03  0.00000000000E+00 0. -1.
          1    1    5    5  503    0  0.35765585446E+01 -0.23281337407E+03  0.33667337564E+03  0.40934560066E+03  0.00000000000E+00 0. -1.
         -2    1    5    5    0  503 -0.75569163817E+02 -0.22565919253E+03  0.35965417716E+03  0.43125850350E+03  0.00000000000E+00 0.  1.
         -3    1    6    6    0  502 -0.10732057853E+03  0.11646099966E+03 -0.45718766443E+02  0.16483651483E+03  0.00000000000E+00 0.  1.
<mgrwt>
<rscale>  0 0.20705873E+04</rscale>
<asrwt>0</asrwt>
<pdfrwt beam="1">  1        3 0.16904979E+00 0.20705873E+04</pdfrwt>
<pdfrwt beam="2">  1       -3 0.15006719E+00 0.20705873E+04</pdfrwt>
<totfact> 0.18327236E-01</totfact>
</mgrwt>
</event>
<event>
12    1  0.1518126E-007  0.1881999E+04  0.7818608E-02  0.8663869E-01
          1   -1    0    0  501    0  0.00000000000E+00  0.00000000000E+00  0.16528636822E+04  0.16528636822E+04  0.00000000000E+00 0. -1.
         -1   -1    0    0    0  501 -0.00000000000E+00 -0.00000000000E+00 -0.53572479236E+03  0.53572479236E+03  0.00000000000E+00 0.  1.
         23    2    1    2    0    0  0.23220071861E+03 -0.67854920519E+03  0.31251544040E+03  0.78809518246E+03  0.95299100382E+02 0.  0.
        254    2    1    2    0    0 -0.23220071861E+03  0.67854920519E+03  0.80462344949E+03  0.14004932921E+04  0.89421270863E+03 0.  0.
        -24    2    4    4    0    0 -0.16049557243E+03  0.82879954073E+03  0.86042318826E+03  0.12077253272E+04  0.74865851100E+02 0.  0.
         24    2    4    4    0    0 -0.71705146184E+02 -0.15025033553E+03 -0.55799738763E+02  0.19276796492E+03  0.79555553765E+02 0.  0.
         11    1    3    3    0    0  0.16377229224E+03 -0.39036849941E+03  0.22409323693E+03  0.47898508105E+03  0.00000000000E+00 0. -1.
        -11    1    3    3    0    0  0.68428426371E+02 -0.28818070579E+03  0.88422203468E+02  0.30911010141E+03  0.00000000000E+00 0.  1.
          2    1    6    6  502    0 -0.82016592895E+02 -0.95708090757E+02 -0.54293849883E+02  0.13723914267E+03  0.00000000000E+00 0. -1.
          1    1    5    5  503    0 -0.90911492236E+02  0.57388101997E+03  0.63117787032E+03  0.85789849544E+03  0.00000000000E+00 0. -1.
         -2    1    5    5    0  503 -0.69584080193E+02  0.25491852075E+03  0.22924531794E+03  0.34982683179E+03  0.00000000000E+00 0.  1.
         -1    1    6    6    0  502  0.10311446711E+02 -0.54542244776E+02 -0.15058888808E+01  0.55528822243E+02  0.00000000000E+00 0.  1.
<mgrwt>
<rscale>  0 0.18819990E+04</rscale>
<asrwt>0</asrwt>
<pdfrwt beam="1">  1        1 0.25428672E+00 0.18819990E+04</pdfrwt>
<pdfrwt beam="2">  1       -1 0.82419200E-01 0.18819990E+04</pdfrwt>
<totfact> 0.70385910E+00</totfact>
</mgrwt>
</event>
<event>
12    1  0.1518126E-007  0.1372499E+04  0.7818608E-02  0.8973969E-01
         -1   -1    0    0    0  501 -0.00000000000E+00  0.00000000000E+00  0.52399607910E+03  0.52399607910E+03  0.00000000000E+00 0.  1.
          1   -1    0    0  501    0  0.00000000000E+00 -0.00000000000E+00 -0.89874405298E+03  0.89874405298E+03  0.00000000000E+00 0. -1.
         23    2    1    2    0    0 -0.32506450805E+03 -0.10630814164E+03  0.67300321856E+02  0.36032592033E+03  0.91307612858E+02 0.  0.
        254    2    1    2    0    0  0.32506450805E+03  0.10630814164E+03 -0.44204829574E+03  0.10624142117E+04  0.90352028543E+03 0.  0.
        -24    2    4    4    0    0  0.95205617774E+02  0.15651282591E+02 -0.69112889065E+03  0.70253261238E+03  0.81140961684E+02 0.  0.
         24    2    4    4    0    0  0.22985889028E+03  0.90656859048E+02  0.24908059491E+03  0.35988159937E+03  0.80123949440E+02 0.  0.
         11    1    3    3    0    0 -0.24220047359E+03 -0.37112183996E+02  0.59130381704E+02  0.25206107523E+03  0.00000000000E+00 0.  1.
        -11    1    3    3    0    0 -0.82864034465E+02 -0.69195957642E+02  0.81699401517E+01  0.10826484510E+03  0.00000000000E+00 0. -1.
          4    1    6    6  502    0  0.54269986645E+02  0.45857018351E+02  0.11210342032E+03  0.13272254680E+03  0.00000000000E+00 0. -1.
          3    1    5    5  503    0  0.89720107580E+02  0.11461675779E+02 -0.35528007457E+03  0.36661287362E+03  0.00000000000E+00 0. -1.
         -4    1    5    5    0  503  0.54855101935E+01  0.41896068121E+01 -0.33584881608E+03  0.33591973876E+03  0.00000000000E+00 0.  1.
         -3    1    6    6    0  502  0.17558890364E+03  0.44799840697E+02  0.13697717459E+03  0.22715905257E+03  0.00000000000E+00 0.  1.
<mgrwt>
<rscale>  0 0.13724990E+04</rscale>
<asrwt>0</asrwt>
<pdfrwt beam="1">  1        1 0.13826832E+00 0.13724990E+04</pdfrwt>
<pdfrwt beam="2">  1       -1 0.80614782E-01 0.13724990E+04</pdfrwt>
<totfact> 0.27359982E+01</totfact>
</mgrwt>
</event>
<event>
12    1  0.1518126E-007  0.2039604E+04  0.7818608E-02  0.8588325E-01
         -2   -1    0    0    0  501 -0.00000000000E+00  0.00000000000E+00  0.13365670338E+04  0.13365670338E+04  0.00000000000E+00 0. -1.
          2   -1    0    0  501    0  0.00000000000E+00 -0.00000000000E+00 -0.77811017470E+03  0.77811017470E+03  0.00000000000E+00 0.  1.
         23    2    1    2    0    0  0.66456266648E+03 -0.30993985194E+03  0.50597780461E+03  0.89550794555E+03  0.90634939647E+02 0.  0.
        254    2    1    2    0    0 -0.66456266648E+03  0.30993985194E+03  0.52479054509E+02  0.12191692630E+04  0.97258078899E+03 0.  0.
        -24    2    4    4    0    0 -0.17666884457E+03  0.58361989125E+03  0.17780192235E+03  0.64023250226E+03  0.80374593306E+02 0.  0.
         24    2    4    4    0    0 -0.48789382191E+03 -0.27368003932E+03 -0.12532286784E+03  0.57893676071E+03  0.80751509721E+02 0.  0.
         13    1    3    3    0    0  0.23184646847E+03 -0.81005177871E+02  0.21228956271E+03  0.32462514108E+03  0.00000000000E+00 0. -1.
        -13    1    3    3    0    0  0.43271619801E+03 -0.22893467407E+03  0.29368824190E+03  0.57088280447E+03  0.00000000000E+00 0.  1.
          2    1    6    6  502    0 -0.33084867793E+03 -0.17507025874E+03 -0.12122543396E+03  0.39345399861E+03  0.00000000000E+00 0. -1.
          3    1    5    5  503    0 -0.56568949711E+02  0.25420266287E+03  0.11200053174E+03  0.28348396603E+03  0.00000000000E+00 0. -1.
         -4    1    5    5    0  503 -0.12009989486E+03  0.32941722838E+03  0.65801390608E+02  0.35674853623E+03  0.00000000000E+00 0.  1.
         -1    1    6    6    0  502 -0.15704514398E+03 -0.98609780575E+02 -0.40974338815E+01  0.18548276210E+03  0.00000000000E+00 0.  1.
<mgrwt>
<rscale>  0 0.20396043E+04</rscale>
<asrwt>0</asrwt>
<pdfrwt beam="1">  1        2 0.11970926E+00 0.20396043E+04</pdfrwt>
<pdfrwt beam="2">  1       -2 0.20562570E+00 0.20396043E+04</pdfrwt>
<totfact> 0.40425025E+00</totfact>
</mgrwt>
</event>
<event>
12    1  0.1518126E-007  0.2481669E+04  0.7818608E-02  0.8409545E-01
          2   -1    0    0  501    0  0.00000000000E+00  0.00000000000E+00  0.22110598506E+04  0.22110598506E+04  0.00000000000E+00 0. -1.
         -2   -1    0    0    0  501 -0.00000000000E+00 -0.00000000000E+00 -0.69634916730E+03  0.69634916730E+03  0.00000000000E+00 0.  1.
         23    2    1    2    0    0 -0.21715031014E+03  0.54943003261E+03  0.17163931193E+04  0.18175306299E+04  0.91567641790E+02 0.  0.
        254    2    1    2    0    0  0.21715031014E+03 -0.54943003261E+03 -0.20168243596E+03  0.10898783880E+04  0.89338204461E+03 0.  0.
        -24    2    4    4    0    0  0.44817176376E+03 -0.18390004894E+03 -0.37397404828E+03  0.61724944869E+03  0.80393627152E+02 0.  0.
         24    2    4    4    0    0 -0.23102145362E+03 -0.36552998367E+03  0.17229161232E+03  0.47262893927E+03  0.81918456759E+02 0.  0.
         13    1    3    3    0    0 -0.28520188159E+02  0.16809950236E+03  0.42786153837E+03  0.46058260914E+03  0.00000000000E+00 0.  1.
        -13    1    3    3    0    0 -0.18863012198E+03  0.38133053025E+03  0.12885315809E+04  0.13569480208E+04  0.00000000000E+00 0. -1.
          2    1    6    6  502    0 -0.10626745296E+03 -0.17936715330E+03  0.12662533913E+03  0.24392483217E+03  0.00000000000E+00 0. -1.
          3    1    5    5  503    0  0.35001621849E+03 -0.11626927738E+03 -0.31097310250E+03  0.48242529841E+03  0.00000000000E+00 0. -1.
         -4    1    5    5    0  503  0.98155545277E+02 -0.67630771555E+02 -0.63000945781E+02  0.13482415028E+03  0.00000000000E+00 0.  1.
         -1    1    6    6    0  502 -0.12475400067E+03 -0.18616283037E+03  0.45666273195E+02  0.22870410710E+03  0.00000000000E+00 0.  1.
<mgrwt>
<rscale>  0 0.24816685E+04</rscale>
<asrwt>0</asrwt>
<pdfrwt beam="1">  1        2 0.34016305E+00 0.24816685E+04</pdfrwt>
<pdfrwt beam="2">  1       -2 0.10713064E+00 0.24816685E+04</pdfrwt>
<totfact> 0.31840559E+00</totfact>
</mgrwt>
</event>
<event>
12    1  0.1518126E-007  0.1377322E+04  0.7818608E-02  0.8970400E-01
         -1   -1    0    0    0  501 -0.00000000000E+00  0.00000000000E+00  0.85748084799E+03  0.85748084799E+03  0.00000000000E+00 0.  1.
          1   -1    0    0  501    0  0.00000000000E+00 -0.00000000000E+00 -0.55307781306E+03  0.55307781306E+03  0.00000000000E+00 0. -1.
         23    2    1    2    0    0 -0.32321794295E+03  0.22166406488E+03  0.76889252248E+01  0.40209855935E+03  0.89550742933E+02 0.  0.
        254    2    1    2    0    0  0.32321794295E+03 -0.22166406488E+03  0.29671410971E+03  0.10084601017E+04  0.88053831122E+03 0.  0.
        -24    2    4    4    0    0  0.36743152170E+03 -0.38306805597E+02  0.56031117110E+03  0.67589099860E+03  0.80041858007E+02 0.  0.
         24    2    4    4    0    0 -0.44213578756E+02 -0.18335725928E+03 -0.26359706139E+03  0.33256910310E+03  0.74458528615E+02 0.  0.
         11    1    3    3    0    0 -0.90885159576E+02  0.19858583513E+02 -0.11625093086E+02  0.93752964537E+02  0.00000000000E+00 0. -1.
        -11    1    3    3    0    0 -0.23233278337E+03  0.20180548136E+03  0.19314018310E+02  0.30834559481E+03  0.00000000000E+00 0.  1.
          4    1    6    6  502    0 -0.18689478297E+02 -0.17481930079E+03 -0.22610101105E+03  0.28641360255E+03  0.00000000000E+00 0. -1.
          1    1    5    5  503    0  0.32779278979E+03 -0.44412954146E+02  0.53322616353E+03  0.62749562947E+03  0.00000000000E+00 0. -1.
         -2    1    5    5    0  503  0.39638731919E+02  0.61061485489E+01  0.27085007571E+02  0.48395369131E+02  0.00000000000E+00 0.  1.
         -1    1    6    6    0  502 -0.25524100459E+02 -0.85379584863E+01 -0.37496050344E+02  0.46155500547E+02  0.00000000000E+00 0.  1.
<mgrwt>
<rscale>  0 0.13773215E+04</rscale>
<asrwt>0</asrwt>
<pdfrwt beam="1">  1        1 0.85088894E-01 0.13773215E+04</pdfrwt>
<pdfrwt beam="2">  1       -1 0.13192013E+00 0.13773215E+04</pdfrwt>
<totfact> 0.18373086E+01</totfact>
</mgrwt>
</event>
<event>
12    1  0.1518126E-007  0.1445130E+04  0.7818608E-02  0.8921784E-01
         -1   -1    0    0    0  501 -0.00000000000E+00  0.00000000000E+00  0.24651418919E+03  0.24651418919E+03  0.00000000000E+00 0.  1.
          1   -1    0    0  501    0  0.00000000000E+00 -0.00000000000E+00 -0.21179319075E+04  0.21179319075E+04  0.00000000000E+00 0. -1.
         23    2    1    2    0    0 -0.35642250388E+03 -0.11185713868E+03 -0.93184828614E+03  0.10079826350E+04  0.90214983602E+02 0.  0.
        254    2    1    2    0    0  0.35642250388E+03  0.11185713868E+03 -0.93956943212E+03  0.13564634617E+04  0.90424188374E+03 0.  0.
        -24    2    4    4    0    0  0.25335791025E+03  0.42093074803E+03 -0.18471153201E+03  0.53041699727E+03  0.76491277974E+02 0.  0.
         24    2    4    4    0    0  0.10306459363E+03 -0.30907360935E+03 -0.75485790011E+03  0.82604646440E+03  0.79959399268E+02 0.  0.
         13    1    3    3    0    0 -0.16494839756E+03 -0.70644081747E+02 -0.55483518896E+03  0.58313004300E+03  0.00000000000E+00 0. -1.
        -13    1    3    3    0    0 -0.19147410633E+03 -0.41213056933E+02 -0.37701309718E+03  0.42485259197E+03  0.00000000000E+00 0.  1.
          2    1    6    6  502    0  0.38332754108E+01 -0.11554932554E+02 -0.91239246746E+02  0.92047871315E+02  0.00000000000E+00 0. -1.
          3    1    5    5  503    0  0.11479781193E+02  0.54325065902E+02 -0.38277239420E+02  0.67439937864E+02  0.00000000000E+00 0. -1.
         -4    1    5    5    0  503  0.24187812906E+03  0.36660568213E+03 -0.14643429259E+03  0.46297705940E+03  0.00000000000E+00 0.  1.
         -1    1    6    6    0  502  0.99231318220E+02 -0.29751867680E+03 -0.66361865336E+03  0.73399859308E+03  0.00000000000E+00 0.  1.
<mgrwt>
<rscale>  0 0.14451301E+04</rscale>
<asrwt>0</asrwt>
<pdfrwt beam="1">  1        1 0.32583567E+00 0.14451301E+04</pdfrwt>
<pdfrwt beam="2">  1       -1 0.37925261E-01 0.14451301E+04</pdfrwt>
<totfact> 0.16180071E+01</totfact>
</mgrwt>
</event>
<event>
12    1  0.1518126E-007  0.3031989E+04  0.7818608E-02  0.8234655E-01
         -2   -1    0    0    0  501 -0.00000000000E+00  0.00000000000E+00  0.16945766891E+04  0.16945766891E+04  0.00000000000E+00 0.  1.
          2   -1    0    0  501    0  0.00000000000E+00 -0.00000000000E+00 -0.13562321780E+04  0.13562321780E+04  0.00000000000E+00 0. -1.
         23    2    1    2    0    0 -0.12579345868E+03 -0.12204723545E+04  0.79156852901E+03  0.14628754075E+04  0.89704846559E+02 0.  0.
        254    2    1    2    0    0  0.12579345868E+03  0.12204723545E+04 -0.45322401790E+03  0.15879334595E+04  0.90041318240E+03 0.  0.
        -24    2    4    4    0    0 -0.23836507157E+03  0.20761320269E+03 -0.38786391800E+03  0.50657906140E+03  0.79137710924E+02 0.  0.
         24    2    4    4    0    0  0.36415853025E+03  0.10128591518E+04 -0.65360099898E+02  0.10813543981E+04  0.80995648322E+02 0.  0.
         11    1    3    3    0    0 -0.54395305257E+01 -0.91909475092E+02  0.33253009740E+02  0.97891280311E+02  0.00000000000E+00 0. -1.
        -11    1    3    3    0    0 -0.12035392815E+03 -0.11285628794E+04  0.75831551927E+03  0.13649841272E+04  0.00000000000E+00 0.  1.
          4    1    6    6  502    0  0.27320192054E+03  0.75638863283E+03 -0.84024602583E+02  0.80859333852E+03  0.00000000000E+00 0. -1.
          3    1    5    5  503    0 -0.19827777963E+03  0.12670429407E+03 -0.27111746040E+03  0.35898848639E+03  0.00000000000E+00 0. -1.
         -4    1    5    5    0  503 -0.40087291944E+02  0.80908908620E+02 -0.11674645760E+03  0.14759057501E+03  0.00000000000E+00 0.  1.
         -3    1    6    6    0  502  0.90956609707E+02  0.25647051899E+03  0.18664502685E+02  0.27276105957E+03  0.00000000000E+00 0.  1.
<mgrwt>
<rscale>  0 0.30319891E+04</rscale>
<asrwt>0</asrwt>
<pdfrwt beam="1">  1        2 0.20865110E+00 0.30319891E+04</pdfrwt>
<pdfrwt beam="2">  1       -2 0.26070411E+00 0.30319891E+04</pdfrwt>
<totfact> 0.72322389E-01</totfact>
</mgrwt>
</event>
<event>
12    1  0.1518126E-007  0.1787345E+04  0.7818608E-02  0.8713058E-01
         -2   -1    0    0    0  501 -0.00000000000E+00  0.00000000000E+00  0.38645375008E+03  0.38645375008E+03  0.00000000000E+00 0.  1.
          2   -1    0    0  501    0  0.00000000000E+00 -0.00000000000E+00 -0.20666135263E+04  0.20666135263E+04  0.00000000000E+00 0. -1.
         23    2    1    2    0    0 -0.15094260105E+03  0.64569702758E+03 -0.62077888438E+03  0.91259220483E+03  0.88032884640E+02 0.  0.
        254    2    1    2    0    0  0.15094260105E+03 -0.64569702758E+03 -0.10593808918E+04  0.15404750715E+04  0.90059272249E+03 0.  0.
        -24    2    4    4    0    0  0.19283396162E+03  0.82074157868E+02 -0.67786615326E+03  0.71382860421E+03  0.78279309619E+02 0.  0.
         24    2    4    4    0    0 -0.41891360562E+02 -0.72777118545E+03 -0.38151473856E+03  0.82664646731E+03  0.79906831554E+02 0.  0.
         13    1    3    3    0    0 -0.84360541304E+01  0.17920077428E+03 -0.13843128798E+03  0.22659943955E+03  0.00000000000E+00 0. -1.
        -13    1    3    3    0    0 -0.14250654692E+03  0.46649625330E+03 -0.48234759641E+03  0.68599276528E+03  0.00000000000E+00 0.  1.
          2    1    6    6  502    0 -0.60948316223E+02 -0.60257445907E+03 -0.29840115661E+03  0.67516955369E+03  0.00000000000E+00 0. -1.
          1    1    5    5  503    0  0.19192800974E+03  0.71809816513E+02 -0.57456334043E+03  0.61001314972E+03  0.00000000000E+00 0. -1.
         -2    1    5    5    0  503  0.90595187982E+00  0.10264341355E+02 -0.10330281283E+03  0.10381545449E+03  0.00000000000E+00 0.  1.
         -1    1    6    6    0  502  0.19056955661E+02 -0.12519672638E+03 -0.83113581950E+02  0.15147691362E+03  0.00000000000E+00 0.  1.
<mgrwt>
<rscale>  0 0.17873450E+04</rscale>
<asrwt>0</asrwt>
<pdfrwt beam="1">  1        2 0.31794055E+00 0.17873450E+04</pdfrwt>
<pdfrwt beam="2">  1       -2 0.59454422E-01 0.17873450E+04</pdfrwt>
<totfact> 0.15306877E+01</totfact>
</mgrwt>
</event>
<event>
12    1  0.1518126E-007  0.1675894E+04  0.7818608E-02  0.8775234E-01
          2   -1    0    0  501    0  0.00000000000E+00  0.00000000000E+00  0.34215332651E+04  0.34215332651E+04  0.00000000000E+00 0. -1.
         -2   -1    0    0    0  501 -0.00000000000E+00 -0.00000000000E+00 -0.20521651763E+03  0.20521651763E+03  0.00000000000E+00 0.  1.
         23    2    1    2    0    0 -0.51746248007E+03  0.13872859244E+03  0.60613699212E+03  0.81441257789E+03  0.94089070362E+02 0.  0.
        254    2    1    2    0    0  0.51746248007E+03 -0.13872859244E+03  0.26101797554E+04  0.28123372048E+04  0.89954941936E+03 0.  0.
        -24    2    4    4    0    0 -0.10452541279E+03  0.90698217657E+01  0.92848690796E+01  0.13285315126E+03  0.80968681723E+02 0.  0.
         24    2    4    4    0    0  0.62198789286E+03 -0.14779841421E+03  0.26008948863E+04  0.26794840536E+04  0.79166115681E+02 0.  0.
         11    1    3    3    0    0 -0.48055679000E+03  0.10932329038E+03  0.57753989353E+03  0.75923562802E+03  0.00000000000E+00 0.  1.
        -11    1    3    3    0    0 -0.36905690064E+02  0.29405302062E+02  0.28597098589E+02  0.55176949863E+02  0.00000000000E+00 0. -1.
          2    1    6    6  502    0  0.95077666893E+02 -0.95496047272E+01  0.29376995429E+03  0.30892028703E+03  0.00000000000E+00 0. -1.
          3    1    5    5  503    0 -0.40095900271E+02  0.32067921275E+02  0.32319946896E+02  0.60668045631E+02  0.00000000000E+00 0. -1.
         -4    1    5    5    0  503 -0.64429512522E+02 -0.22998099509E+02 -0.23035077816E+02  0.72185105630E+02  0.00000000000E+00 0.  1.
         -1    1    6    6    0  502  0.52691022597E+03 -0.13824880948E+03  0.23071249320E+04  0.23705637666E+04  0.00000000000E+00 0.  1.
<mgrwt>
<rscale>  0 0.16758940E+04</rscale>
<asrwt>0</asrwt>
<pdfrwt beam="1">  1        2 0.52638969E+00 0.16758940E+04</pdfrwt>
<pdfrwt beam="2">  1       -2 0.31571774E-01 0.16758940E+04</pdfrwt>
<totfact> 0.82636582E+00</totfact>
</mgrwt>
</event>
<event>
12    1  0.1518126E-007  0.1792708E+04  0.7818608E-02  0.8710187E-01
         -1   -1    0    0    0  501 -0.00000000000E+00  0.00000000000E+00  0.59848366741E+03  0.59848366741E+03  0.00000000000E+00 0.  1.
          1   -1    0    0  501    0  0.00000000000E+00 -0.00000000000E+00 -0.13424774274E+04  0.13424774274E+04  0.00000000000E+00 0. -1.
         23    2    1    2    0    0 -0.12863403217E+03  0.13792016014E+02 -0.99684634320E+03  0.10091577536E+04  0.89217743071E+02 0.  0.
        254    2    1    2    0    0  0.12863403217E+03 -0.13792016014E+02  0.25285258325E+03  0.93180334122E+03  0.88746048020E+03 0.  0.
        -24    2    4    4    0    0 -0.13665162216E+03 -0.31563807673E+03 -0.12482398657E+03  0.37451155506E+03  0.79854968110E+02 0.  0.
         24    2    4    4    0    0  0.26528565432E+03  0.30184606071E+03  0.37767656982E+03  0.55729178616E+03  0.80293342016E+02 0.  0.
         13    1    3    3    0    0 -0.79040654285E+02 -0.23444405544E+02 -0.75494200564E+03  0.75943037670E+03  0.00000000000E+00 0. -1.
        -13    1    3    3    0    0 -0.49593377883E+02  0.37236421558E+02 -0.24190433756E+03  0.24972737685E+03  0.00000000000E+00 0.  1.
          2    1    6    6  502    0  0.23774887066E+02  0.22080683756E+01  0.32458063036E+02  0.40294499339E+02  0.00000000000E+00 0. -1.
          3    1    5    5  503    0  0.10550406106E+02 -0.15261973090E+02 -0.53466560865E+01  0.19308692937E+02  0.00000000000E+00 0. -1.
         -4    1    5    5    0  503 -0.14720202826E+03 -0.30037610364E+03 -0.11947733048E+03  0.35520286212E+03  0.00000000000E+00 0.  1.
         -1    1    6    6    0  502  0.24151076726E+03  0.29963799234E+03  0.34521850678E+03  0.51699728682E+03  0.00000000000E+00 0.  1.
<mgrwt>
<rscale>  0 0.17927084E+04</rscale>
<asrwt>0</asrwt>
<pdfrwt beam="1">  1        1 0.20653498E+00 0.17927084E+04</pdfrwt>
<pdfrwt beam="2">  1       -1 0.92074412E-01 0.17927084E+04</pdfrwt>
<totfact> 0.91480319E+00</totfact>
</mgrwt>
</event>
<event>
12    1  0.1518126E-007  0.1300022E+04  0.7818608E-02  0.9029548E-01
         -1   -1    0    0    0  501 -0.00000000000E+00  0.00000000000E+00  0.22601581560E+03  0.22601581560E+03  0.00000000000E+00 0.  1.
          1   -1    0    0  501    0  0.00000000000E+00 -0.00000000000E+00 -0.18694014275E+04  0.18694014275E+04  0.00000000000E+00 0. -1.
         23    2    1    2    0    0 -0.19580636281E+03 -0.25737674357E+03 -0.31813259702E+03  0.46264987311E+03  0.90849523693E+02 0.  0.
        254    2    1    2    0    0  0.19580636281E+03  0.25737674357E+03 -0.13252530148E+04  0.16327673699E+04  0.89724623777E+03 0.  0.
        -24    2    4    4    0    0  0.30192394786E+03 -0.22111582557E+03 -0.90401856672E+03  0.98171819628E+03  0.80441092191E+02 0.  0.
         24    2    4    4    0    0 -0.10611758505E+03  0.47849256914E+03 -0.42123444812E+03  0.65104917367E+03  0.78806634790E+02 0.  0.
         11    1    3    3    0    0 -0.39499487953E+02 -0.49002922212E+02 -0.11954062681E+03  0.13509795481E+03  0.00000000000E+00 0. -1.
        -11    1    3    3    0    0 -0.15630687486E+03 -0.20837382136E+03 -0.19859197021E+03  0.32755191831E+03  0.00000000000E+00 0.  1.
          2    1    6    6  502    0 -0.10453625329E+03  0.39857841986E+03 -0.38250706996E+03  0.56223148578E+03  0.00000000000E+00 0. -1.
          1    1    5    5  503    0  0.11554599877E+03 -0.11378339021E+03 -0.30801598296E+03  0.34809680188E+03  0.00000000000E+00 0. -1.
         -2    1    5    5    0  503  0.18637794908E+03 -0.10733243536E+03 -0.59600258376E+03  0.63362139440E+03  0.00000000000E+00 0.  1.
         -1    1    6    6    0  502 -0.15813317619E+01  0.79914149273E+02 -0.38727378156E+02  0.88817687895E+02  0.00000000000E+00 0.  1.
<mgrwt>
<rscale>  0 0.13000220E+04</rscale>
<asrwt>0</asrwt>
<pdfrwt beam="1">  1        1 0.28760022E+00 0.13000220E+04</pdfrwt>
<pdfrwt beam="2">  1       -1 0.34771664E-01 0.13000220E+04</pdfrwt>
<totfact> 0.28214778E+01</totfact>
</mgrwt>
</event>
<event>
12    1  0.1518126E-007  0.2563382E+04  0.7818608E-02  0.8380747E-01
         -4   -1    0    0    0  501 -0.00000000000E+00  0.00000000000E+00  0.22584096150E+04  0.22584096150E+04  0.00000000000E+00 0.  1.
          4   -1    0    0  501    0  0.00000000000E+00 -0.00000000000E+00 -0.72738430863E+03  0.72738430863E+03  0.00000000000E+00 0. -1.
         23    2    1    2    0    0 -0.29619141382E+03 -0.10271915643E+04  0.11496557513E+04  0.15726480263E+04  0.93067742082E+02 0.  0.
        254    2    1    2    0    0  0.29619141382E+03  0.10271915643E+04  0.38136955515E+03  0.14131458974E+04  0.84183533211E+03 0.  0.
        -24    2    4    4    0    0  0.37776539078E+03  0.93934630696E+03  0.57891179367E+03  0.11688545207E+04  0.77484519469E+02 0.  0.
         24    2    4    4    0    0 -0.81573976957E+02  0.87845257355E+02 -0.19754223853E+03  0.24429137676E+03  0.79273184607E+02 0.  0.
         11    1    3    3    0    0 -0.54562392486E+02 -0.12419101131E+03  0.11083803078E+03  0.17517286043E+03  0.00000000000E+00 0. -1.
        -11    1    3    3    0    0 -0.24162902133E+03 -0.90300055301E+03  0.10388177205E+04  0.13974751658E+04  0.00000000000E+00 0.  1.
          4    1    6    6  502    0 -0.42947568183E+02  0.94068976217E+02 -0.15659092115E+03  0.18765442304E+03  0.00000000000E+00 0. -1.
          1    1    5    5  503    0  0.30980270084E+02  0.60642457850E+02  0.61601353602E+02  0.91825985397E+02  0.00000000000E+00 0. -1.
         -4    1    5    5    0  503  0.34678512069E+03  0.87870384911E+03  0.51731044007E+03  0.10770285353E+04  0.00000000000E+00 0.  1.
         -3    1    6    6    0  502 -0.38626408774E+02 -0.62237188622E+01 -0.40951317379E+02  0.56636953717E+02  0.00000000000E+00 0.  1.
<mgrwt>
<rscale>  0 0.25633819E+04</rscale>
<asrwt>0</asrwt>
<pdfrwt beam="1">  1        4 0.11190528E+00 0.25633819E+04</pdfrwt>
<pdfrwt beam="2">  1       -4 0.34744763E+00 0.25633819E+04</pdfrwt>
<totfact> 0.17144695E-02</totfact>
</mgrwt>
</event>
<event>
12    1  0.1518126E-007  0.1576413E+04  0.7818608E-02  0.8835171E-01
          2   -1    0    0  501    0  0.00000000000E+00  0.00000000000E+00  0.98886379639E+03  0.98886379639E+03  0.00000000000E+00 0.  1.
         -2   -1    0    0    0  501 -0.00000000000E+00 -0.00000000000E+00 -0.62826626469E+03  0.62826626469E+03  0.00000000000E+00 0. -1.
         23    2    1    2    0    0  0.49745307476E+03 -0.87490687900E+02  0.28184286758E+03  0.58568452050E+03  0.92069395022E+02 0.  0.
        254    2    1    2    0    0 -0.49745307476E+03  0.87490687900E+02  0.78754664129E+02  0.10314455406E+04  0.89585904248E+03 0.  0.
        -24    2    4    4    0    0 -0.38906141791E+03 -0.21520173892E+03  0.37619684532E+03  0.58656846450E+03  0.69698793220E+02 0.  0.
         24    2    4    4    0    0 -0.10839165685E+03  0.30269242682E+03 -0.29744218120E+03  0.44487707607E+03  0.77924996834E+02 0.  0.
         13    1    3    3    0    0  0.36999806143E+03 -0.95765489530E+02  0.23992810248E+03  0.45125944733E+03  0.00000000000E+00 0.  1.
        -13    1    3    3    0    0  0.12745501333E+03  0.82748016298E+01  0.41914765100E+02  0.13442507318E+03  0.00000000000E+00 0. -1.
          4    1    6    6  502    0 -0.26577338149E+02  0.68574993031E+02 -0.28051234344E+02  0.78713126736E+02  0.00000000000E+00 0. -1.
          3    1    5    5  503    0 -0.11818932966E+03 -0.96648376297E+02  0.10449015763E+03  0.18500761965E+03  0.00000000000E+00 0. -1.
         -4    1    5    5    0  503 -0.27087208825E+03 -0.11855336263E+03  0.27170668770E+03  0.40156084486E+03  0.00000000000E+00 0.  1.
         -3    1    6    6    0  502 -0.81814318699E+02  0.23411743379E+03 -0.26939094685E+03  0.36616394934E+03  0.00000000000E+00 0.  1.
<mgrwt>
<rscale>  0 0.15764134E+04</rscale>
<asrwt>0</asrwt>
<pdfrwt beam="1">  1        2 0.15213289E+00 0.15764134E+04</pdfrwt>
<pdfrwt beam="2">  1       -2 0.96656348E-01 0.15764134E+04</pdfrwt>
<totfact> 0.22022674E+01</totfact>
</mgrwt>
</event>
<event>
12    1  0.1518126E-007  0.1883348E+04  0.7818608E-02  0.8663190E-01
         -3   -1    0    0    0  501 -0.00000000000E+00  0.00000000000E+00  0.84742975600E+03  0.84742975600E+03  0.00000000000E+00 0.  1.
          3   -1    0    0  501    0  0.00000000000E+00 -0.00000000000E+00 -0.10463992007E+04  0.10463992007E+04  0.00000000000E+00 0. -1.
         23    2    1    2    0    0  0.61589632161E+03  0.32902454154E+03 -0.26806466865E+03  0.75318717438E+03  0.88582307294E+02 0.  0.
        254    2    1    2    0    0 -0.61589632161E+03 -0.32902454154E+03  0.69095223989E+02  0.11406417823E+04  0.89927976604E+03 0.  0.
        -24    2    4    4    0    0 -0.37951720472E+03 -0.44335052319E+03  0.40021338679E+03  0.71218353672E+03  0.80259827567E+02 0.  0.
         24    2    4    4    0    0 -0.23637911689E+03  0.11432598165E+03 -0.33111816280E+03  0.42845824556E+03  0.70652059246E+02 0.  0.
         11    1    3    3    0    0  0.52346101777E+02  0.28965462417E+02  0.22452515136E+01  0.59867800516E+02  0.00000000000E+00 0. -1.
        -11    1    3    3    0    0  0.56355021984E+03  0.30005907912E+03 -0.27030992016E+03  0.69331937387E+03  0.00000000000E+00 0.  1.
          2    1    6    6  502    0 -0.21776138491E+03  0.94516913117E+02 -0.25872795684E+03  0.35113191720E+03  0.00000000000E+00 0. -1.
          1    1    5    5  503    0 -0.15645133154E+03 -0.23446688401E+03  0.21848337572E+03  0.35663247791E+03  0.00000000000E+00 0. -1.
         -2    1    5    5    0  503 -0.22306587318E+03 -0.20888363918E+03  0.18173001107E+03  0.35555105881E+03  0.00000000000E+00 0.  1.
         -1    1    6    6    0  502 -0.18617731979E+02  0.19809068530E+02 -0.72390205959E+02  0.77326328368E+02  0.00000000000E+00 0.  1.
<mgrwt>
<rscale>  0 0.18833479E+04</rscale>
<asrwt>0</asrwt>
<pdfrwt beam="1">  1        3 0.16098449E+00 0.18833479E+04</pdfrwt>
<pdfrwt beam="2">  1       -3 0.13037381E+00 0.18833479E+04</pdfrwt>
<totfact> 0.30368943E-01</totfact>
</mgrwt>
</event>
<event>
12    1  0.1518126E-007  0.1269173E+04  0.7818608E-02  0.9054375E-01
         -1   -1    0    0    0  501 -0.00000000000E+00  0.00000000000E+00  0.29294286550E+03  0.29294286550E+03  0.00000000000E+00 0. -1.
          1   -1    0    0  501    0  0.00000000000E+00 -0.00000000000E+00 -0.13746707488E+04  0.13746707488E+04  0.00000000000E+00 0.  1.
         23    2    1    2    0    0  0.24652388126E+03  0.42934416810E+02 -0.36655440085E+02  0.26738085428E+03  0.86784282937E+02 0.  0.
        254    2    1    2    0    0 -0.24652388126E+03 -0.42934416810E+02 -0.10450724432E+04  0.14002327600E+04  0.89769592987E+03 0.  0.
        -24    2    4    4    0    0 -0.18624825293E+03 -0.14649184075E+03 -0.11780154570E+04  0.12041467052E+04  0.78106335212E+02 0.  0.
         24    2    4    4    0    0 -0.60275628336E+02  0.10355742394E+03  0.13294301381E+03  0.19608605480E+03  0.80116194006E+02 0.  0.
         11    1    3    3    0    0 -0.20447819461E+01 -0.65575028713E+01  0.74396339950E+01  0.10125716325E+02  0.00000000000E+00 0.  1.
        -11    1    3    3    0    0  0.24856866321E+03  0.49491919682E+02 -0.44095074080E+02  0.25725513795E+03  0.00000000000E+00 0. -1.
          2    1    6    6  502    0 -0.73861251068E+02  0.59383426406E+02  0.69182006404E+02  0.11733723088E+03  0.00000000000E+00 0. -1.
          1    1    5    5  503    0 -0.10688860958E+03 -0.10294834311E+03 -0.88854825448E+03  0.90085600223E+03  0.00000000000E+00 0. -1.
         -2    1    5    5    0  503 -0.79359643350E+02 -0.43543497645E+02 -0.28946720256E+03  0.30329070301E+03  0.00000000000E+00 0.  1.
         -1    1    6    6    0  502  0.13585622732E+02  0.44173997535E+02  0.63761007403E+02  0.78748823917E+02  0.00000000000E+00 0.  1.
<mgrwt>
<rscale>  0 0.12691729E+04</rscale>
<asrwt>0</asrwt>
<pdfrwt beam="1">  1        1 0.21148781E+00 0.12691729E+04</pdfrwt>
<pdfrwt beam="2">  1       -1 0.45068133E-01 0.12691729E+04</pdfrwt>
<totfact> 0.38488059E+01</totfact>
</mgrwt>
</event>
<event>
12    1  0.1518126E-007  0.1935239E+04  0.7818608E-02  0.8637512E-01
          2   -1    0    0  501    0  0.00000000000E+00  0.00000000000E+00  0.32248033115E+04  0.32248033115E+04  0.00000000000E+00 0. -1.
         -2   -1    0    0    0  501 -0.00000000000E+00 -0.00000000000E+00 -0.29033932659E+03  0.29033932659E+03  0.00000000000E+00 0.  1.
         23    2    1    2    0    0 -0.26256617153E+03  0.69042204247E+03  0.14019550882E+04  0.15873119076E+04  0.91964294302E+02 0.  0.
        254    2    1    2    0    0  0.26256617153E+03 -0.69042204247E+03  0.15325088967E+04  0.19278307305E+04  0.90682093927E+03 0.  0.
        -24    2    4    4    0    0  0.23888613525E+03 -0.50374538761E+02 -0.82645890975E+01  0.25724164832E+03  0.80627429752E+02 0.  0.
         24    2    4    4    0    0  0.23680036277E+02 -0.64004750371E+03  0.15407734858E+04  0.16705890822E+04  0.81629626185E+02 0.  0.
         11    1    3    3    0    0 -0.13328245728E+03  0.28221729627E+03  0.51038660259E+03  0.59825186990E+03  0.00000000000E+00 0. -1.
        -11    1    3    3    0    0 -0.12928371425E+03  0.40820474620E+03  0.89156848561E+03  0.98906003768E+03  0.00000000000E+00 0.  1.
          2    1    6    6  502    0 -0.32190463825E+01  0.26914856984E+00  0.22958697924E+01  0.39630441164E+01  0.00000000000E+00 0. -1.
          3    1    5    5  503    0  0.19961425600E+03 -0.58884951862E+02  0.18533599601E+02  0.20894205672E+03  0.00000000000E+00 0. -1.
         -4    1    5    5    0  503  0.39271879253E+02  0.85104131004E+01 -0.26798188699E+02  0.48299591600E+02  0.00000000000E+00 0.  1.
         -1    1    6    6    0  502  0.26899082660E+02 -0.64031665228E+03  0.15384776160E+04  0.16666260381E+04  0.00000000000E+00 0.  1.
<mgrwt>
<rscale>  0 0.19352387E+04</rscale>
<asrwt>0</asrwt>
<pdfrwt beam="1">  1        2 0.49612356E+00 0.19352387E+04</pdfrwt>
<pdfrwt beam="2">  1       -2 0.44667591E-01 0.19352387E+04</pdfrwt>
<totfact> 0.55687001E+00</totfact>
</mgrwt>
</event>
<event>
12    1  0.1518126E-007  0.1562523E+04  0.7818608E-02  0.8843908E-01
         -2   -1    0    0    0  501 -0.00000000000E+00  0.00000000000E+00  0.55650947338E+03  0.55650947338E+03  0.00000000000E+00 0.  1.
          2   -1    0    0  501    0  0.00000000000E+00 -0.00000000000E+00 -0.10967814318E+04  0.10967814318E+04  0.00000000000E+00 0. -1.
         23    2    1    2    0    0 -0.39750671038E+03 -0.25834703453E+03  0.33278886014E+02  0.48476419109E+03  0.95572285017E+02 0.  0.
        254    2    1    2    0    0  0.39750671038E+03  0.25834703453E+03 -0.57355084446E+03  0.11685267141E+04  0.90096577925E+03 0.  0.
        -24    2    4    4    0    0  0.12717122373E+03 -0.33058656264E+03 -0.22212057118E+03  0.42740223187E+03  0.88741896131E+02 0.  0.
         24    2    4    4    0    0  0.27033548665E+03  0.58893359717E+03 -0.35143027328E+03  0.74112448224E+03  0.76408140861E+02 0.  0.
         11    1    3    3    0    0 -0.16718975800E+03 -0.98695195567E+02 -0.32649197132E+02  0.19687337779E+03  0.00000000000E+00 0.  1.
        -11    1    3    3    0    0 -0.23031695238E+03 -0.15965183896E+03  0.65928083146E+02  0.28789081330E+03  0.00000000000E+00 0. -1.
          4    1    6    6  502    0  0.18586070651E+03  0.34786473682E+03 -0.18032515269E+03  0.43367180913E+03  0.00000000000E+00 0. -1.
          1    1    5    5  503    0  0.11879734828E+03 -0.30842427569E+03 -0.22973999549E+03  0.40251560134E+03  0.00000000000E+00 0. -1.
         -2    1    5    5    0  503  0.83738754441E+01 -0.22162286941E+02  0.76194243076E+01  0.24886630531E+02  0.00000000000E+00 0.  1.
         -1    1    6    6    0  502  0.84474780141E+02  0.24106886035E+03 -0.17110512059E+03  0.30745267311E+03  0.00000000000E+00 0.  1.
<mgrwt>
<rscale>  0 0.15625226E+04</rscale>
<asrwt>0</asrwt>
<pdfrwt beam="1">  1        2 0.16873560E+00 0.15625226E+04</pdfrwt>
<pdfrwt beam="2">  1       -2 0.85616843E-01 0.15625226E+04</pdfrwt>
<totfact> 0.24950005E+01</totfact>
</mgrwt>
</event>
<event>
12    1  0.1518126E-007  0.1784224E+04  0.7818608E-02  0.8714734E-01
          1   -1    0    0  501    0  0.00000000000E+00  0.00000000000E+00  0.15086644166E+04  0.15086644166E+04  0.00000000000E+00 0. -1.
         -1   -1    0    0    0  501 -0.00000000000E+00 -0.00000000000E+00 -0.52752873237E+03  0.52752873237E+03  0.00000000000E+00 0.  1.
         23    2    1    2    0    0  0.22661425310E+03  0.42268951990E+03  0.89187309533E+03  0.10165840169E+04  0.89358800974E+02 0.  0.
        254    2    1    2    0    0 -0.22661425310E+03 -0.42268951990E+03  0.89262588896E+02  0.10196091321E+04  0.89532928158E+03 0.  0.
        -24    2    4    4    0    0 -0.39430698833E+03 -0.20610107437E+03 -0.29583883998E+03  0.54024840812E+03  0.79950417957E+02 0.  0.
         24    2    4    4    0    0  0.16769273523E+03 -0.21658844553E+03  0.38510142887E+03  0.47936072393E+03  0.80325493724E+02 0.  0.
         11    1    3    3    0    0  0.11243006898E+03  0.16451645513E+03  0.29080093472E+03  0.35252144339E+03  0.00000000000E+00 0.  1.
        -11    1    3    3    0    0  0.11418418412E+03  0.25817306477E+03  0.60107216061E+03  0.66406257351E+03  0.00000000000E+00 0. -1.
          4    1    6    6  502    0  0.41793707602E+02 -0.32338902658E+02  0.32382146195E+02  0.61976786077E+02  0.00000000000E+00 0. -1.
          1    1    5    5  503    0 -0.49345289437E+02 -0.42373291005E+02 -0.16402673647E+02  0.67078320514E+02  0.00000000000E+00 0. -1.
         -2    1    5    5    0  503 -0.34496169890E+03 -0.16372778336E+03 -0.27943616633E+03  0.47317008760E+03  0.00000000000E+00 0.  1.
         -3    1    6    6    0  502  0.12589902763E+03 -0.18424954287E+03  0.35271928268E+03  0.41738393786E+03  0.00000000000E+00 0.  1.
<mgrwt>
<rscale>  0 0.17842240E+04</rscale>
<asrwt>0</asrwt>
<pdfrwt beam="1">  1        1 0.23210222E+00 0.17842240E+04</pdfrwt>
<pdfrwt beam="2">  1       -1 0.81158267E-01 0.17842240E+04</pdfrwt>
<totfact> 0.92211632E+00</totfact>
</mgrwt>
</event>
<event>
12    1  0.1518126E-007  0.1367615E+04  0.7818608E-02  0.8977600E-01
         -2   -1    0    0    0  501 -0.00000000000E+00  0.00000000000E+00  0.51672064870E+03  0.51672064870E+03  0.00000000000E+00 0. -1.
          2   -1    0    0  501    0  0.00000000000E+00 -0.00000000000E+00 -0.90492348928E+03  0.90492348928E+03  0.00000000000E+00 0.  1.
         23    2    1    2    0    0  0.10464598913E+03 -0.10471396835E+03  0.25184736108E+03  0.30781034242E+03  0.96975849599E+02 0.  0.
        254    2    1    2    0    0 -0.10464598913E+03  0.10471396835E+03 -0.64005020166E+03  0.11138337956E+04  0.89946965779E+03 0.  0.
        -24    2    4    4    0    0 -0.15804646797E+03  0.29259735917E+03  0.90114850160E+02  0.35379835550E+03  0.80378414402E+02 0.  0.
         24    2    4    4    0    0  0.53400478845E+02 -0.18788339082E+03 -0.73016505182E+03  0.76003544006E+03  0.79756426442E+02 0.  0.
         13    1    3    3    0    0  0.11938737827E+03 -0.10660447674E+03  0.21465563921E+03  0.26775904092E+03  0.00000000000E+00 0. -1.
        -13    1    3    3    0    0 -0.14741389140E+02  0.18905083831E+01  0.37191721873E+02  0.40051301496E+02  0.00000000000E+00 0.  1.
          2    1    6    6  502    0  0.29734824179E+02 -0.16725166463E+03 -0.50769977362E+03  0.53536561266E+03  0.00000000000E+00 0. -1.
          3    1    5    5  503    0 -0.12237325556E+03  0.21356942165E+03  0.29281514940E+02  0.24788004893E+03  0.00000000000E+00 0. -1.
         -4    1    5    5    0  503 -0.35673212417E+02  0.79027937523E+02  0.60833335220E+02  0.10591830657E+03  0.00000000000E+00 0.  1.
         -1    1    6    6    0  502  0.23665654666E+02 -0.20631726191E+02 -0.22246527821E+03  0.22466982740E+03  0.00000000000E+00 0.  1.
<mgrwt>
<rscale>  0 0.13676149E+04</rscale>
<asrwt>0</asrwt>
<pdfrwt beam="1">  1        2 0.13921900E+00 0.13676149E+04</pdfrwt>
<pdfrwt beam="2">  1       -2 0.79495485E-01 0.13676149E+04</pdfrwt>
<totfact> 0.39813977E+01</totfact>
</mgrwt>
</event>
<event>
12    1  0.1518126E-007  0.1478668E+04  0.7818608E-02  0.8898764E-01
          2   -1    0    0  501    0  0.00000000000E+00  0.00000000000E+00  0.17536557855E+04  0.17536557855E+04  0.00000000000E+00 0. -1.
         -2   -1    0    0    0  501 -0.00000000000E+00 -0.00000000000E+00 -0.31170007962E+03  0.31170007962E+03  0.00000000000E+00 0.  1.
         23    2    1    2    0    0  0.75608456564E+02 -0.11359982505E+03  0.10701636873E+04  0.10823884886E+04  0.87709541412E+02 0.  0.
        254    2    1    2    0    0 -0.75608456564E+02  0.11359982505E+03  0.37179201856E+03  0.98296737651E+03  0.89965215459E+03 0.  0.
        -24    2    4    4    0    0  0.98501717008E+02 -0.35189459711E+03  0.28935922115E+03  0.47288046311E+03  0.79716860192E+02 0.  0.
         24    2    4    4    0    0 -0.17411017357E+03  0.46549442216E+03  0.82432797410E+02  0.51008691340E+03  0.79963013524E+02 0.  0.
         11    1    3    3    0    0  0.98254648502E+01 -0.57210288132E+02  0.69179464380E+03  0.69422574571E+03  0.00000000000E+00 0. -1.
        -11    1    3    3    0    0  0.65782991714E+02 -0.56389536919E+02  0.37836904354E+03  0.38816274290E+03  0.00000000000E+00 0.  1.
          2    1    6    6  502    0  0.45391096250E+01  0.26856274838E+02  0.16634326906E+02  0.31914947062E+02  0.00000000000E+00 0. -1.
          3    1    5    5  503    0 -0.94809370624E+01 -0.79351132868E+02  0.76191586078E+02  0.11041579708E+03  0.00000000000E+00 0. -1.
         -4    1    5    5    0  503  0.10798265407E+03 -0.27254346424E+03  0.21316763507E+03  0.36246466603E+03  0.00000000000E+00 0.  1.
         -1    1    6    6    0  502 -0.17864928320E+03  0.43863814732E+03  0.65798470504E+02  0.47817196634E+03  0.00000000000E+00 0.  1.
<mgrwt>
<rscale>  0 0.14786678E+04</rscale>
<asrwt>0</asrwt>
<pdfrwt beam="1">  1        2 0.26979319E+00 0.14786678E+04</pdfrwt>
<pdfrwt beam="2">  1       -2 0.47953859E-01 0.14786678E+04</pdfrwt>
<totfact> 0.36502434E+01</totfact>
</mgrwt>
</event>
<event>
12    1  0.1518126E-007  0.1637589E+04  0.7818608E-02  0.8797783E-01
         -2   -1    0    0    0  501 -0.00000000000E+00  0.00000000000E+00  0.12227659905E+04  0.12227659905E+04  0.00000000000E+00 0.  1.
          2   -1    0    0  501    0  0.00000000000E+00 -0.00000000000E+00 -0.54828495670E+03  0.54828495670E+03  0.00000000000E+00 0. -1.
         23    2    1    2    0    0  0.29186716256E+03 -0.12276973954E+03 -0.26276896341E+03  0.42149135459E+03  0.91370587900E+02 0.  0.
        254    2    1    2    0    0 -0.29186716256E+03  0.12276973954E+03  0.93724999722E+03  0.13495595926E+04  0.91794045950E+03 0.  0.
        -24    2    4    4    0    0 -0.13976024972E+03  0.45207281582E+03  0.19166478210E+03  0.51680087819E+03  0.80280762335E+02 0.  0.
         24    2    4    4    0    0 -0.15210691285E+03 -0.32930307627E+03  0.74558521512E+03  0.83275871442E+03  0.77541823893E+02 0.  0.
         13    1    3    3    0    0  0.12583589905E+03 -0.90934035310E+01 -0.12519391519E+03  0.17773823414E+03  0.00000000000E+00 0. -1.
        -13    1    3    3    0    0  0.16603126352E+03 -0.11367633601E+03 -0.13757504822E+03  0.24375312045E+03  0.00000000000E+00 0.  1.
          4    1    6    6  502    0 -0.13322890699E+03 -0.21221459627E+03  0.46691977521E+03  0.52990475843E+03  0.00000000000E+00 0. -1.
          1    1    5    5  503    0 -0.12838022228E+03  0.43514323342E+03  0.16397725674E+03  0.48241025672E+03  0.00000000000E+00 0. -1.
         -2    1    5    5    0  503 -0.11380027440E+02  0.16929582399E+02  0.27687525356E+02  0.34390621470E+02  0.00000000000E+00 0.  1.
         -3    1    6    6    0  502 -0.18878005856E+02 -0.11708848000E+03  0.27866543991E+03  0.30285395599E+03  0.00000000000E+00 0.  1.
<mgrwt>
<rscale>  0 0.16375887E+04</rscale>
<asrwt>0</asrwt>
<pdfrwt beam="1">  1        2 0.84351532E-01 0.16375887E+04</pdfrwt>
<pdfrwt beam="2">  1       -2 0.18811784E+00 0.16375887E+04</pdfrwt>
<totfact> 0.84234748E+00</totfact>
</mgrwt>
</event>
<event>
12    1  0.1581867E-007  0.1922122E+04  0.7818608E-02  0.8643923E-01
         -1   -1    0    0    0  501 -0.00000000000E+00  0.00000000000E+00  0.83656014035E+03  0.83656014035E+03  0.00000000000E+00 0.  1.
          1   -1    0    0  501    0  0.00000000000E+00 -0.00000000000E+00 -0.11040907323E+04  0.11040907323E+04  0.00000000000E+00 0. -1.
         23    2    1    2    0    0 -0.42143857603E+03  0.51683842513E+03 -0.44347832136E+03  0.80574286869E+03  0.88408811147E+02 0.  0.
        254    2    1    2    0    0  0.42143857603E+03 -0.51683842513E+03  0.17594772938E+03  0.11349080040E+04  0.90129137520E+03 0.  0.
        -24    2    4    4    0    0  0.64154067115E+03 -0.44162614632E+03 -0.71510503865E+02  0.78616988462E+03  0.79631962612E+02 0.  0.
         24    2    4    4    0    0 -0.22010209512E+03 -0.75212278804E+02  0.24745823325E+03  0.34873811937E+03  0.79252000256E+02 0.  0.
         11    1    3    3    0    0 -0.39771832323E+03  0.49906807204E+03 -0.44158274601E+03  0.77604389485E+03  0.00000000000E+00 0. -1.
        -11    1    3    3    0    0 -0.23720252796E+02  0.17770353088E+02 -0.18955753501E+01  0.29698973846E+02  0.00000000000E+00 0.  1.
          2    1    6    6  502    0 -0.21157409314E+03 -0.66839033611E+02  0.19645681209E+03  0.29635507810E+03  0.00000000000E+00 0. -1.
          3    1    5    5  503    0  0.63315616542E+03 -0.43725365745E+03 -0.79802785790E+02  0.77359290030E+03  0.00000000000E+00 0. -1.
         -4    1    5    5    0  503  0.83845057215E+01 -0.43724888682E+01  0.82922819246E+01  0.12576984321E+02  0.00000000000E+00 0.  1.
         -1    1    6    6    0  502 -0.85280019826E+01 -0.83732451934E+01  0.51001421156E+02  0.52383041271E+02  0.00000000000E+00 0.  1.
<mgrwt>
<rscale>  0 0.19221221E+04</rscale>
<asrwt>0</asrwt>
<pdfrwt beam="1">  1        1 0.16986011E+00 0.19221221E+04</pdfrwt>
<pdfrwt beam="2">  1       -1 0.12870156E+00 0.19221221E+04</pdfrwt>
<totfact> 0.61159324E+00</totfact>
</mgrwt>
</event>
<event>
12    1  0.1518126E-007  0.2367156E+04  0.7818608E-02  0.8451903E-01
          2   -1    0    0  501    0  0.00000000000E+00  0.00000000000E+00  0.21258221810E+04  0.21258221810E+04  0.00000000000E+00 0. -1.
         -2   -1    0    0    0  501 -0.00000000000E+00 -0.00000000000E+00 -0.65897160532E+03  0.65897160532E+03  0.00000000000E+00 0.  1.
         23    2    1    2    0    0 -0.85082102534E+03  0.41163051091E+02 -0.99852512738E+01  0.85683213473E+03  0.92036883582E+02 0.  0.
        254    2    1    2    0    0  0.85082102534E+03 -0.41163051091E+02  0.14768358269E+04  0.19279616516E+04  0.90022289254E+03 0.  0.
        -24    2    4    4    0    0  0.15802039315E+03 -0.41142419755E+03  0.58591906028E+03  0.73753707646E+03  0.80121651025E+02 0.  0.
         24    2    4    4    0    0  0.69280063219E+03  0.37026114646E+03  0.89091676666E+03  0.11904245751E+04  0.79447790245E+02 0.  0.
         11    1    3    3    0    0 -0.75521363419E+03  0.77574565717E+01 -0.15421915093E+02  0.75541091260E+03  0.00000000000E+00 0.  1.
        -11    1    3    3    0    0 -0.95607391142E+02  0.33405594520E+02  0.54366638194E+01  0.10142122214E+03  0.00000000000E+00 0. -1.
          2    1    6    6  502    0  0.56402828734E+03  0.31726784027E+03  0.77156392445E+03  0.10070241710E+04  0.00000000000E+00 0. -1.
          3    1    5    5  503    0  0.16715310595E+03 -0.39469139240E+03  0.56575062641E+03  0.70978533892E+03  0.00000000000E+00 0. -1.
         -4    1    5    5    0  503 -0.91327128013E+01 -0.16732805152E+02  0.20168433871E+02  0.27751737535E+02  0.00000000000E+00 0.  1.
         -1    1    6    6    0  502  0.12877234485E+03  0.52993306194E+02  0.11935284221E+03  0.18340040415E+03  0.00000000000E+00 0.  1.
<mgrwt>
<rscale>  0 0.23671556E+04</rscale>
<asrwt>0</asrwt>
<pdfrwt beam="1">  1        2 0.32704956E+00 0.23671556E+04</pdfrwt>
<pdfrwt beam="2">  1       -2 0.10138025E+00 0.23671556E+04</pdfrwt>
<totfact> 0.40966354E+00</totfact>
</mgrwt>
</event>
<event>
12    1  0.1518126E-007  0.1515620E+04  0.7818608E-02  0.8874132E-01
         -2   -1    0    0    0  501 -0.00000000000E+00  0.00000000000E+00  0.79504375779E+03  0.79504375779E+03  0.00000000000E+00 0.  1.
          2   -1    0    0  501    0  0.00000000000E+00 -0.00000000000E+00 -0.72232010760E+03  0.72232010760E+03  0.00000000000E+00 0. -1.
         23    2    1    2    0    0 -0.95925983515E+02 -0.23370470386E+03 -0.39403617027E+03  0.47710430014E+03  0.92435527853E+02 0.  0.
        254    2    1    2    0    0  0.95925983515E+02  0.23370470386E+03  0.46675982047E+03  0.10402595653E+04  0.89468181505E+03 0.  0.
        -24    2    4    4    0    0  0.44799866293E+03 -0.57238672266E+02  0.17076791338E+03  0.48994926211E+03  0.83123592386E+02 0.  0.
         24    2    4    4    0    0 -0.35207267942E+03  0.29094337612E+03  0.29599190709E+03  0.55031030314E+03  0.81406393962E+02 0.  0.
         13    1    3    3    0    0  0.17919370968E+02 -0.39378920178E+02 -0.74965858776E+02  0.86554509948E+02  0.00000000000E+00 0.  1.
        -13    1    3    3    0    0 -0.11384535448E+03 -0.19432578368E+03 -0.31907031150E+03  0.39054979019E+03  0.00000000000E+00 0. -1.
          2    1    6    6  502    0 -0.17407617939E+03  0.10950801854E+03  0.96337386388E+02  0.22710221128E+03  0.00000000000E+00 0. -1.
          1    1    5    5  503    0  0.27155161428E+03 -0.35674801634E+02  0.14630909247E+03  0.31051460711E+03  0.00000000000E+00 0. -1.
         -2    1    5    5    0  503  0.17644704866E+03 -0.21563870632E+02  0.24458820910E+02  0.17943465501E+03  0.00000000000E+00 0.  1.
         -1    1    6    6    0  502 -0.17799650003E+03  0.18143535758E+03  0.19965452070E+03  0.32320809186E+03  0.00000000000E+00 0.  1.
<mgrwt>
<rscale>  0 0.15156201E+04</rscale>
<asrwt>0</asrwt>
<pdfrwt beam="1">  1        2 0.11112617E+00 0.15156201E+04</pdfrwt>
<pdfrwt beam="2">  1       -2 0.12231442E+00 0.15156201E+04</pdfrwt>
<totfact> 0.19231404E+01</totfact>
</mgrwt>
</event>
<event>
12    1  0.1518126E-007  0.1318214E+04  0.7818608E-02  0.9015245E-01
          2   -1    0    0  501    0  0.00000000000E+00  0.00000000000E+00  0.76184774100E+03  0.76184774100E+03  0.00000000000E+00 0. -1.
         -2   -1    0    0    0  501 -0.00000000000E+00 -0.00000000000E+00 -0.57022141893E+03  0.57022141893E+03  0.00000000000E+00 0.  1.
         23    2    1    2    0    0 -0.17823280870E+03 -0.19198937089E+03  0.26813564500E+03  0.38559007507E+03  0.90311290768E+02 0.  0.
        254    2    1    2    0    0  0.17823280870E+03  0.19198937089E+03 -0.76509322925E+02  0.94647908486E+03  0.90627927757E+03 0.  0.
        -24    2    4    4    0    0  0.27664962499E+03  0.28617764371E+03  0.32143120367E+03  0.51774983105E+03  0.79462004093E+02 0.  0.
         24    2    4    4    0    0 -0.98416816287E+02 -0.94188272818E+02 -0.39794052659E+03  0.42872925381E+03  0.83034992063E+02 0.  0.
         13    1    3    3    0    0 -0.13925274784E+03 -0.14702968074E+03  0.14574504514E+03  0.24950084766E+03  0.00000000000E+00 0.  1.
        -13    1    3    3    0    0 -0.38980060860E+02 -0.44959690151E+02  0.12239059986E+03  0.13608922741E+03  0.00000000000E+00 0. -1.
          2    1    6    6  502    0 -0.47954747540E+02 -0.44070581142E+02 -0.30402495443E+03  0.31092289534E+03  0.00000000000E+00 0. -1.
          3    1    5    5  503    0  0.23296755500E+03  0.27542423622E+03  0.28104708019E+03  0.45729624190E+03  0.00000000000E+00 0. -1.
         -4    1    5    5    0  503  0.43682069991E+02  0.10753407494E+02  0.40384123480E+02  0.60453589146E+02  0.00000000000E+00 0.  1.
         -1    1    6    6    0  502 -0.50462068748E+02 -0.50117691676E+02 -0.93915572165E+02  0.11780635847E+03  0.00000000000E+00 0.  1.
<mgrwt>
<rscale>  0 0.13182138E+04</rscale>
<asrwt>0</asrwt>
<pdfrwt beam="1">  1        2 0.11720734E+00 0.13182138E+04</pdfrwt>
<pdfrwt beam="2">  1       -2 0.87726372E-01 0.13182138E+04</pdfrwt>
<totfact> 0.40333919E+01</totfact>
</mgrwt>
</event>
<event>
12    1  0.1518126E-007  0.1144037E+04  0.7818608E-02  0.9163302E-01
         -1   -1    0    0    0  501 -0.00000000000E+00  0.00000000000E+00  0.84226407197E+03  0.84226407197E+03  0.00000000000E+00 0.  1.
          1   -1    0    0  501    0  0.00000000000E+00 -0.00000000000E+00 -0.38848284281E+03  0.38848284281E+03  0.00000000000E+00 0. -1.
         23    2    1    2    0    0 -0.11366545749E+03 -0.11475545874E+03 -0.42986877595E+02  0.19091701738E+03  0.92264751344E+02 0.  0.
        254    2    1    2    0    0  0.11366545749E+03  0.11475545874E+03  0.49676810675E+03  0.10398298974E+04  0.89909900018E+03 0.  0.
        -24    2    4    4    0    0  0.41360027712E+03  0.96495242390E+02 -0.25137436437E+02  0.43227894075E+03  0.76528889114E+02 0.  0.
         24    2    4    4    0    0 -0.29993481963E+03  0.18260216348E+02  0.52190554318E+03  0.60755095665E+03  0.80239874105E+02 0.  0.
         11    1    3    3    0    0 -0.34394194706E+02 -0.47194388263E-01  0.17894523538E+02  0.38770824462E+02  0.00000000000E+00 0.  1.
        -11    1    3    3    0    0 -0.79271262788E+02 -0.11470826435E+03 -0.60881401133E+02  0.15214619291E+03  0.00000000000E+00 0. -1.
          2    1    6    6  502    0 -0.12947622144E+03  0.36490026133E+02  0.28471988537E+03  0.31489843927E+03  0.00000000000E+00 0. -1.
          1    1    5    5  503    0  0.91659805697E+02  0.13974011410E+02 -0.36728558182E+02  0.99728531331E+02  0.00000000000E+00 0. -1.
         -2    1    5    5    0  503  0.32194047143E+03  0.82521230980E+02  0.11591121745E+02  0.33255040942E+03  0.00000000000E+00 0.  1.
         -1    1    6    6    0  502 -0.17045859819E+03 -0.18229809785E+02  0.23718565781E+03  0.29265251739E+03  0.00000000000E+00 0.  1.
<mgrwt>
<rscale>  0 0.11440370E+04</rscale>
<asrwt>0</asrwt>
<pdfrwt beam="1">  1        1 0.59766591E-01 0.11440370E+04</pdfrwt>
<pdfrwt beam="2">  1       -1 0.12957909E+00 0.11440370E+04</pdfrwt>
<totfact> 0.31699176E+01</totfact>
</mgrwt>
</event>
<event>
12    1  0.1518126E-007  0.2238267E+04  0.7818608E-02  0.8502667E-01
          1   -1    0    0  501    0  0.00000000000E+00  0.00000000000E+00  0.93907135101E+03  0.93907135101E+03  0.00000000000E+00 0. -1.
         -1   -1    0    0    0  501 -0.00000000000E+00 -0.00000000000E+00 -0.13337212682E+04  0.13337212682E+04  0.00000000000E+00 0.  1.
         23    2    1    2    0    0 -0.48848950135E+03  0.24694363008E+03  0.60764247720E+03  0.82289930740E+03  0.91272891218E+02 0.  0.
        254    2    1    2    0    0  0.48848950135E+03 -0.24694363008E+03 -0.10022923944E+04  0.14498933118E+04  0.89330701464E+03 0.  0.
        -24    2    4    4    0    0 -0.87790826217E+02  0.82032548625E+02 -0.70233628658E+03  0.71717360804E+03  0.81395063888E+02 0.  0.
         24    2    4    4    0    0  0.57628032757E+03 -0.32897617870E+03 -0.29995610783E+03  0.73271970378E+03  0.81118158178E+02 0.  0.
         13    1    3    3    0    0 -0.33906100410E+03  0.21324549812E+03  0.46309334393E+03  0.61228380034E+03  0.00000000000E+00 0. -1.
        -13    1    3    3    0    0 -0.14942849725E+03  0.33698131959E+02  0.14454913327E+03  0.21061550707E+03  0.00000000000E+00 0.  1.
          4    1    6    6  502    0  0.57741200708E+03 -0.33072833451E+03 -0.30106186711E+03  0.73035888780E+03  0.00000000000E+00 0. -1.
          3    1    5    5  503    0 -0.15286719726E+02  0.60415740731E+02 -0.20979559407E+03  0.21885597278E+03  0.00000000000E+00 0. -1.
         -4    1    5    5    0  503 -0.72504106491E+02  0.21616807894E+02 -0.49254069250E+03  0.49831763526E+03  0.00000000000E+00 0.  1.
         -3    1    6    6    0  502 -0.11316795110E+01  0.17521558060E+01  0.11057592804E+01  0.23608159755E+01  0.00000000000E+00 0.  1.
<mgrwt>
<rscale>  0 0.22382667E+04</rscale>
<asrwt>0</asrwt>
<pdfrwt beam="1">  1        1 0.14447252E+00 0.22382667E+04</pdfrwt>
<pdfrwt beam="2">  1       -1 0.20518789E+00 0.22382667E+04</pdfrwt>
<totfact> 0.21306689E+00</totfact>
</mgrwt>
</event>
<event>
12    1  0.1518126E-007  0.2129366E+04  0.7818608E-02  0.8548417E-01
          1   -1    0    0  501    0  0.00000000000E+00  0.00000000000E+00  0.15722197309E+04  0.15722197309E+04  0.00000000000E+00 0. -1.
         -1   -1    0    0    0  501 -0.00000000000E+00 -0.00000000000E+00 -0.72098684285E+03  0.72098684285E+03  0.00000000000E+00 0.  1.
         23    2    1    2    0    0  0.69006875384E+03 -0.52712079266E+03  0.16471982506E+03  0.88857580385E+03  0.91559397852E+02 0.  0.
        254    2    1    2    0    0 -0.69006875384E+03  0.52712079266E+03  0.68651306300E+03  0.14046307699E+04  0.86465958563E+03 0.  0.
        -24    2    4    4    0    0 -0.64288744230E+03  0.58735653174E+03  0.84154676527E+03  0.12135854881E+04  0.79352504693E+02 0.  0.
         24    2    4    4    0    0 -0.47181311547E+02 -0.60235739085E+02 -0.15503370227E+03  0.19104528179E+03  0.81292253222E+02 0.  0.
         11    1    3    3    0    0  0.44125427799E+02 -0.53518455894E+02 -0.59947487308E+01  0.69621947057E+02  0.00000000000E+00 0. -1.
        -11    1    3    3    0    0  0.64594332604E+03 -0.47360233676E+03  0.17071457379E+03  0.81895385679E+03  0.00000000000E+00 0.  1.
          4    1    6    6  502    0 -0.25515116695E+02 -0.34229274497E+02 -0.12409866668E+02  0.44459748124E+02  0.00000000000E+00 0. -1.
          3    1    5    5  503    0 -0.45498209679E+03  0.45061219515E+03  0.58372952654E+03  0.86648728725E+03  0.00000000000E+00 0. -1.
         -4    1    5    5    0  503 -0.18790534551E+03  0.13674433659E+03  0.25781723873E+03  0.34709820087E+03  0.00000000000E+00 0.  1.
         -3    1    6    6    0  502 -0.21666194852E+02 -0.26006464588E+02 -0.14262383560E+03  0.14658553367E+03  0.00000000000E+00 0.  1.
<mgrwt>
<rscale>  0 0.21293659E+04</rscale>
<asrwt>0</asrwt>
<pdfrwt beam="1">  1        1 0.24187996E+00 0.21293659E+04</pdfrwt>
<pdfrwt beam="2">  1       -1 0.11092105E+00 0.21293659E+04</pdfrwt>
<totfact> 0.40022968E+00</totfact>
</mgrwt>
</event>
<event>
12    1  0.1569218E-007  0.2525509E+04  0.7818608E-02  0.8393954E-01
          1   -1    0    0  501    0  0.00000000000E+00  0.00000000000E+00  0.17951219050E+04  0.17951219050E+04  0.00000000000E+00 0. -1.
         -1   -1    0    0    0  501 -0.00000000000E+00 -0.00000000000E+00 -0.88826773208E+03  0.88826773208E+03  0.00000000000E+00 0.  1.
         23    2    1    2    0    0  0.72517817747E+03 -0.73018450941E+03  0.68236206165E+03  0.12383490487E+04  0.94008384957E+02 0.  0.
        254    2    1    2    0    0 -0.72517817747E+03  0.73018450941E+03  0.22449211124E+03  0.14450405883E+04  0.98928903109E+03 0.  0.
        -24    2    4    4    0    0 -0.81049733733E+03  0.83635383525E+03  0.37694628824E+03  0.12269148791E+04  0.82691866034E+02 0.  0.
         24    2    4    4    0    0  0.85319159864E+02 -0.10616932584E+03 -0.15245417700E+03  0.21812570925E+03  0.76060924024E+02 0.  0.
         13    1    3    3    0    0  0.19739701399E+02 -0.46105814019E+02  0.42428393423E+02  0.65693001653E+02  0.00000000000E+00 0.  1.
        -13    1    3    3    0    0  0.70543847607E+03 -0.68407869539E+03  0.63993366823E+03  0.11726560471E+04  0.00000000000E+00 0. -1.
          2    1    6    6  502    0  0.57740005319E+01 -0.67038185759E+02 -0.62646285009E+02  0.91934838105E+02  0.00000000000E+00 0. -1.
          1    1    5    5  503    0 -0.11774953411E+03  0.16065492437E+03  0.48770515846E+02  0.20506955095E+03  0.00000000000E+00 0. -1.
         -2    1    5    5    0  503 -0.69274780322E+03  0.67569891088E+03  0.32817577240E+03  0.10218453281E+04  0.00000000000E+00 0.  1.
         -1    1    6    6    0  502  0.79545159332E+02 -0.39131140079E+02 -0.89807891990E+02  0.12619087115E+03  0.00000000000E+00 0.  1.
<mgrwt>
<rscale>  0 0.25255089E+04</rscale>
<asrwt>0</asrwt>
<pdfrwt beam="1">  1        1 0.27617260E+00 0.25255089E+04</pdfrwt>
<pdfrwt beam="2">  1       -1 0.13665657E+00 0.25255089E+04</pdfrwt>
<totfact> 0.16244102E+00</totfact>
</mgrwt>
</event>
<event>
12    1  0.1518126E-007  0.2012578E+04  0.7818608E-02  0.8600763E-01
          2   -1    0    0  501    0  0.00000000000E+00  0.00000000000E+00  0.25975910695E+04  0.25975910695E+04  0.00000000000E+00 0. -1.
         -2   -1    0    0    0  501 -0.00000000000E+00 -0.00000000000E+00 -0.38982941572E+03  0.38982941572E+03  0.00000000000E+00 0.  1.
         23    2    1    2    0    0 -0.69308845186E+03 -0.22403078786E+03  0.40551200519E+03  0.84014567816E+03  0.10413154259E+03 0.  0.
        254    2    1    2    0    0  0.69308845186E+03  0.22403078786E+03  0.18022496486E+04  0.21472748071E+04  0.91220825759E+03 0.  0.
        -24    2    4    4    0    0  0.59899109909E+03 -0.16768783795E+03  0.56661090592E+03  0.84507701228E+03  0.78725410103E+02 0.  0.
         24    2    4    4    0    0  0.94097352770E+02  0.39171862581E+03  0.12356387427E+04  0.13021977948E+04  0.81352324750E+02 0.  0.
         13    1    3    3    0    0 -0.49145691960E+03 -0.14320815452E+03  0.33495947992E+03  0.61174858605E+03  0.00000000000E+00 0.  1.
        -13    1    3    3    0    0 -0.20163153226E+03 -0.80822633347E+02  0.70552525270E+02  0.22839709211E+03  0.00000000000E+00 0. -1.
          4    1    6    6  502    0  0.27508642087E+02  0.83474338968E+02  0.38714197590E+03  0.39699319914E+03  0.00000000000E+00 0. -1.
          3    1    5    5  503    0  0.32723074586E+03 -0.69888924523E+02  0.34865567902E+03  0.48324445710E+03  0.00000000000E+00 0. -1.
         -2    1    5    5    0  503  0.27176035324E+03 -0.97798913423E+02  0.21795522690E+03  0.36183255518E+03  0.00000000000E+00 0.  1.
         -3    1    6    6    0  502  0.66588710683E+02  0.30824428684E+03  0.84849676680E+03  0.90520459567E+03  0.00000000000E+00 0.  1.
<mgrwt>
<rscale>  0 0.20125779E+04</rscale>
<asrwt>0</asrwt>
<pdfrwt beam="1">  1        2 0.39962938E+00 0.20125779E+04</pdfrwt>
<pdfrwt beam="2">  1       -2 0.59973758E-01 0.20125779E+04</pdfrwt>
<totfact> 0.73515846E+00</totfact>
</mgrwt>
</event>
<event>
12    1  0.1518126E-007  0.1011988E+04  0.7818608E-02  0.9295494E-01
          2   -1    0    0  501    0  0.00000000000E+00  0.00000000000E+00  0.30078839549E+04  0.30078839549E+04  0.00000000000E+00 0. -1.
         -2   -1    0    0    0  501 -0.00000000000E+00 -0.00000000000E+00 -0.85119571155E+02  0.85119571155E+02  0.00000000000E+00 0.  1.
         23    2    1    2    0    0  0.50783721470E+02  0.32524805474E+02  0.14703415856E+03  0.18351583255E+03  0.91772368802E+02 0.  0.
        254    2    1    2    0    0 -0.50783721470E+02 -0.32524805474E+02  0.27757302252E+04  0.29094876935E+04  0.86994454210E+03 0.  0.
        -24    2    4    4    0    0 -0.20537725666E+03 -0.27743938398E+03  0.49357941866E+03  0.60765549854E+03  0.80449568338E+02 0.  0.
         24    2    4    4    0    0  0.15459353519E+03  0.24491457851E+03  0.22821508066E+04  0.23018321950E+04  0.79604259674E+02 0.  0.
         11    1    3    3    0    0  0.68790741887E+02  0.13301310789E+02  0.13952047516E+03  0.15612512298E+03  0.00000000000E+00 0. -1.
        -11    1    3    3    0    0 -0.18007020417E+02  0.19223494684E+02  0.75136833975E+01  0.27390709563E+02  0.00000000000E+00 0.  1.
          4    1    6    6  502    0  0.55905680911E+02  0.32205645322E+02  0.40812812677E+03  0.41319634148E+03  0.00000000000E+00 0. -1.
          1    1    5    5  503    0  0.71983491847E+00 -0.86019883816E+01  0.43471102603E+02  0.44319850269E+02  0.00000000000E+00 0. -1.
         -2    1    5    5    0  503 -0.20609709158E+03 -0.26883739560E+03  0.45010831606E+03  0.56333564827E+03  0.00000000000E+00 0.  1.
         -3    1    6    6    0  502  0.98687854277E+02  0.21270893319E+03  0.18740226798E+04  0.18886358535E+04  0.00000000000E+00 0.  1.
<mgrwt>
<rscale>  0 0.10119877E+04</rscale>
<asrwt>0</asrwt>
<pdfrwt beam="1">  1        2 0.46275130E+00 0.10119877E+04</pdfrwt>
<pdfrwt beam="2">  1       -2 0.13095321E-01 0.10119877E+04</pdfrwt>
<totfact> 0.77610818E+01</totfact>
</mgrwt>
</event>
<event>
12    1  0.1518126E-007  0.1433913E+04  0.7818608E-02  0.8929630E-01
          1   -1    0    0  501    0  0.00000000000E+00  0.00000000000E+00  0.13577568165E+04  0.13577568165E+04  0.00000000000E+00 0. -1.
         -1   -1    0    0    0  501 -0.00000000000E+00 -0.00000000000E+00 -0.37858496135E+03  0.37858496135E+03  0.00000000000E+00 0.  1.
         23    2    1    2    0    0 -0.12195374530E+03 -0.12109298210E+02 -0.20059409994E+03  0.25257068881E+03  0.92382946564E+02 0.  0.
        254    2    1    2    0    0  0.12195374530E+03  0.12109298210E+02  0.11797659551E+04  0.14837710890E+04  0.89146485336E+03 0.  0.
        -24    2    4    4    0    0  0.41621483564E+03 -0.24076662451E+03  0.50880431138E+03  0.70467818971E+03  0.80536742542E+02 0.  0.
         24    2    4    4    0    0 -0.29426109033E+03  0.25287592272E+03  0.67096164370E+03  0.77909289931E+03  0.79122669772E+02 0.  0.
         13    1    3    3    0    0  0.80332286789E+01  0.39602239210E+01  0.38670506339E+01  0.97555223908E+01  0.00000000000E+00 0. -1.
        -13    1    3    3    0    0 -0.12998697398E+03 -0.16069522131E+02 -0.20446115058E+03  0.24281516642E+03  0.00000000000E+00 0.  1.
          2    1    6    6  502    0 -0.60493768168E+02  0.17393685815E+02  0.13080880187E+03  0.14516535034E+03  0.00000000000E+00 0. -1.
          3    1    5    5  503    0  0.10944189695E+03 -0.63701597619E+02  0.85810707986E+02  0.15296698975E+03  0.00000000000E+00 0. -1.
         -4    1    5    5    0  503  0.30677293869E+03 -0.17706502689E+03  0.42299360339E+03  0.55171119997E+03  0.00000000000E+00 0.  1.
         -1    1    6    6    0  502 -0.23376732217E+03  0.23548223690E+03  0.54015284182E+03  0.63392754897E+03  0.00000000000E+00 0.  1.
<mgrwt>
<rscale>  0 0.14339126E+04</rscale>
<asrwt>0</asrwt>
<pdfrwt beam="1">  1        1 0.20888566E+00 0.14339126E+04</pdfrwt>
<pdfrwt beam="2">  1       -1 0.58243841E-01 0.14339126E+04</pdfrwt>
<totfact> 0.23899026E+01</totfact>
</mgrwt>
</event>
<event>
12    1  0.1518126E-007  0.1254538E+04  0.7818608E-02  0.9066415E-01
          2   -1    0    0  501    0  0.00000000000E+00  0.00000000000E+00  0.16206086584E+04  0.16206086584E+04  0.00000000000E+00 0. -1.
         -2   -1    0    0    0  501 -0.00000000000E+00 -0.00000000000E+00 -0.24278936458E+03  0.24278936458E+03  0.00000000000E+00 0.  1.
         23    2    1    2    0    0 -0.70779134368E+02 -0.58875381329E+02 -0.76312098638E+02  0.15012975135E+03  0.90771192859E+02 0.  0.
        254    2    1    2    0    0  0.70779134368E+02  0.58875381329E+02  0.14541313925E+04  0.17132682717E+04  0.90128467628E+03 0.  0.
        -24    2    4    4    0    0  0.12884800235E+03 -0.40478365754E+03  0.72494773298E+03  0.84367608626E+03  0.76082230873E+02 0.  0.
         24    2    4    4    0    0 -0.58068867982E+02  0.46365903887E+03  0.72918365951E+03  0.86959218541E+03  0.78294711676E+02 0.  0.
         11    1    3    3    0    0 -0.66133718471E+02 -0.39652712529E+02 -0.95384790697E+02  0.12265506360E+03  0.00000000000E+00 0.  1.
        -11    1    3    3    0    0 -0.46454158972E+01 -0.19222668799E+02  0.19072692060E+02  0.27474687751E+02  0.00000000000E+00 0. -1.
          2    1    6    6  502    0 -0.69846068094E+01  0.36754155497E+02  0.10661475017E+03  0.11298830751E+03  0.00000000000E+00 0. -1.
          3    1    5    5  503    0  0.73002903216E+02 -0.32233501756E+03  0.52631940683E+03  0.62148323021E+03  0.00000000000E+00 0. -1.
         -2    1    5    5    0  503  0.55845099134E+02 -0.82448639978E+02  0.19862832615E+03  0.22219285605E+03  0.00000000000E+00 0.  1.
         -1    1    6    6    0  502 -0.51084261173E+02  0.42690488337E+03  0.62256890933E+03  0.75660387790E+03  0.00000000000E+00 0.  1.
<mgrwt>
<rscale>  0 0.12545382E+04</rscale>
<asrwt>0</asrwt>
<pdfrwt beam="1">  1        2 0.24932440E+00 0.12545382E+04</pdfrwt>
<pdfrwt beam="2">  1       -2 0.37352211E-01 0.12545382E+04</pdfrwt>
<totfact> 0.72139830E+01</totfact>
</mgrwt>
</event>
<event>
12    1  0.1518126E-007  0.1123725E+04  0.7818608E-02  0.9182371E-01
         -2   -1    0    0    0  501 -0.00000000000E+00  0.00000000000E+00  0.13441247264E+03  0.13441247264E+03  0.00000000000E+00 0. -1.
          2   -1    0    0  501    0  0.00000000000E+00 -0.00000000000E+00 -0.23486635066E+04  0.23486635066E+04  0.00000000000E+00 0.  1.
         23    2    1    2    0    0 -0.15085181694E+03 -0.13537589564E+03 -0.45219775589E+03  0.50431139205E+03  0.93617658194E+02 0.  0.
        254    2    1    2    0    0  0.15085181694E+03  0.13537589564E+03 -0.17620532781E+04  0.19787645872E+04  0.87726542902E+03 0.  0.
        -24    2    4    4    0    0  0.40541564708E+03  0.25479145111E+03 -0.15337918098E+04  0.16086110656E+04  0.76365659457E+02 0.  0.
         24    2    4    4    0    0 -0.25456383015E+03 -0.11941555547E+03 -0.22826146828E+03  0.37015352165E+03  0.76469034119E+02 0.  0.
         13    1    3    3    0    0 -0.14765539311E+03 -0.12249172317E+03 -0.33248875872E+03  0.38386861299E+03  0.00000000000E+00 0. -1.
        -13    1    3    3    0    0 -0.31964238280E+01 -0.12884172465E+02 -0.11970899716E+03  0.12044277906E+03  0.00000000000E+00 0.  1.
          4    1    6    6  502    0 -0.18868528281E+03 -0.57718761443E+02 -0.18329324923E+03  0.26931395542E+03  0.00000000000E+00 0. -1.
          1    1    5    5  503    0  0.20579484548E+03  0.94491515402E+02 -0.80040673746E+03  0.83182396593E+03  0.00000000000E+00 0. -1.
         -2    1    5    5    0  503  0.19962080160E+03  0.16029993570E+03 -0.73338507235E+03  0.77678709963E+03  0.00000000000E+00 0.  1.
         -3    1    6    6    0  502 -0.65878547334E+02 -0.61696794025E+02 -0.44968219059E+02  0.10083956623E+03  0.00000000000E+00 0.  1.
<mgrwt>
<rscale>  0 0.11237254E+04</rscale>
<asrwt>0</asrwt>
<pdfrwt beam="1">  1        2 0.36133281E+00 0.11237254E+04</pdfrwt>
<pdfrwt beam="2">  1       -2 0.20678844E-01 0.11237254E+04</pdfrwt>
<totfact> 0.85494392E+01</totfact>
</mgrwt>
</event>
<event>
12    1  0.1518126E-007  0.1515228E+04  0.7818608E-02  0.8874389E-01
         -1   -1    0    0    0  501 -0.00000000000E+00  0.00000000000E+00  0.13147446653E+04  0.13147446653E+04  0.00000000000E+00 0.  1.
          1   -1    0    0  501    0  0.00000000000E+00 -0.00000000000E+00 -0.43657062963E+03  0.43657062963E+03  0.00000000000E+00 0. -1.
         23    2    1    2    0    0 -0.47933844481E+03 -0.11662999493E+03  0.32451080082E+03  0.59767992229E+03  0.92445277126E+02 0.  0.
        254    2    1    2    0    0  0.47933844481E+03  0.11662999493E+03  0.55366323489E+03  0.11536353727E+04  0.88372150311E+03 0.  0.
        -24    2    4    4    0    0  0.48336968218E+03  0.45179818093E+03  0.38812032909E+03  0.77148342809E+03  0.82349523468E+02 0.  0.
         24    2    4    4    0    0 -0.40312373681E+01 -0.33516818600E+03  0.16554290580E+03  0.38215194460E+03  0.79257121565E+02 0.  0.
         13    1    3    3    0    0 -0.41774960731E+03 -0.67660801551E+02  0.27610927202E+03  0.50530094852E+03  0.00000000000E+00 0.  1.
        -13    1    3    3    0    0 -0.61588837499E+02 -0.48969193376E+02  0.48401528803E+02  0.92378973770E+02  0.00000000000E+00 0. -1.
          4    1    6    6  502    0  0.29758663588E+02 -0.21100858896E+03  0.79910220121E+02  0.22758700744E+03  0.00000000000E+00 0. -1.
          3    1    5    5  503    0  0.40179134298E+03  0.41080198937E+03  0.34773306290E+03  0.67164934363E+03  0.00000000000E+00 0. -1.
         -4    1    5    5    0  503  0.81578339201E+02  0.40996191561E+02  0.40387266195E+02  0.99834084460E+02  0.00000000000E+00 0.  1.
         -3    1    6    6    0  502 -0.33789900956E+02 -0.12415959704E+03  0.85632685680E+02  0.15456493716E+03  0.00000000000E+00 0.  1.
<mgrwt>
<rscale>  0 0.15152279E+04</rscale>
<asrwt>0</asrwt>
<pdfrwt beam="1">  1        1 0.67164713E-01 0.15152279E+04</pdfrwt>
<pdfrwt beam="2">  1       -1 0.20226841E+00 0.15152279E+04</pdfrwt>
<totfact> 0.74819957E+00</totfact>
</mgrwt>
</event>
<event>
12    1  0.1518126E-007  0.1340425E+04  0.7818608E-02  0.8998108E-01
          2   -1    0    0  501    0  0.00000000000E+00  0.00000000000E+00  0.23594698905E+04  0.23594698905E+04  0.00000000000E+00 0.  1.
         -2   -1    0    0    0  501 -0.00000000000E+00 -0.00000000000E+00 -0.19037520952E+03  0.19037520952E+03  0.00000000000E+00 0. -1.
         23    2    1    2    0    0  0.23850632455E+03  0.17294524526E+03  0.20720094682E+03  0.37179778293E+03  0.92228164436E+02 0.  0.
        254    2    1    2    0    0 -0.23850632455E+03 -0.17294524526E+03  0.19618937342E+04  0.21780473171E+04  0.89892589611E+03 0.  0.
        -24    2    4    4    0    0  0.31223930913E+03 -0.20030659882E+03  0.65156618412E+03  0.75429094080E+03  0.82463394203E+02 0.  0.
         24    2    4    4    0    0 -0.55074563369E+03  0.27361353557E+02  0.13103275501E+04  0.14237563763E+04  0.77810886074E+02 0.  0.
         11    1    3    3    0    0  0.12513126643E+03  0.37000062991E+02  0.71822503720E+02  0.14894734150E+03  0.00000000000E+00 0. -1.
        -11    1    3    3    0    0  0.11337505812E+03  0.13594518227E+03  0.13537844310E+03  0.22285044142E+03  0.00000000000E+00 0.  1.
          2    1    6    6  502    0 -0.40148406366E+02 -0.15353594131E+02  0.76132293419E+02  0.87428562196E+02  0.00000000000E+00 0. -1.
          1    1    5    5  503    0  0.14748313525E+03 -0.68948159959E+02  0.35434570491E+03  0.38995641106E+03  0.00000000000E+00 0. -1.
         -2    1    5    5    0  503  0.16475617388E+03 -0.13135843886E+03  0.29722047921E+03  0.36433452973E+03  0.00000000000E+00 0.  1.
         -1    1    6    6    0  502 -0.51059722732E+03  0.42714947689E+02  0.12341952566E+04  0.13363278141E+04  0.00000000000E+00 0.  1.
<mgrwt>
<rscale>  0 0.13404247E+04</rscale>
<asrwt>0</asrwt>
<pdfrwt beam="1">  1        2 0.36299535E+00 0.13404247E+04</pdfrwt>
<pdfrwt beam="2">  1       -2 0.29288495E-01 0.13404247E+04</pdfrwt>
<totfact> 0.44090279E+01</totfact>
</mgrwt>
</event>
<event>
12    1  0.1518126E-007  0.1736768E+04  0.7818608E-02  0.8740668E-01
         -2   -1    0    0    0  501 -0.00000000000E+00  0.00000000000E+00  0.66305156218E+03  0.66305156218E+03  0.00000000000E+00 0. -1.
          2   -1    0    0  501    0  0.00000000000E+00 -0.00000000000E+00 -0.11373037218E+04  0.11373037218E+04  0.00000000000E+00 0.  1.
         23    2    1    2    0    0 -0.28244213217E+03  0.53905082005E+03 -0.64202602654E+02  0.61863014309E+03  0.90730012303E+02 0.  0.
        254    2    1    2    0    0  0.28244213217E+03 -0.53905082005E+03 -0.41004955701E+03  0.11817251409E+04  0.92627443280E+03 0.  0.
        -24    2    4    4    0    0 -0.22011175549E+03 -0.52736073459E+03 -0.33451507444E+03  0.66730286895E+03  0.82669550512E+02 0.  0.
         24    2    4    4    0    0  0.50255388766E+03 -0.11690085463E+02 -0.75534482568E+02  0.51442227198E+03  0.78916080406E+02 0.  0.
         13    1    3    3    0    0 -0.25716821906E+03  0.43752258580E+03 -0.29357767816E+02  0.50835360185E+03  0.00000000000E+00 0.  1.
        -13    1    3    3    0    0 -0.25273913109E+02  0.10152823425E+03 -0.34844834838E+02  0.11027654125E+03  0.00000000000E+00 0. -1.
          2    1    6    6  502    0  0.37914110902E+03  0.25147201002E+02 -0.60352590228E+02  0.38473730962E+03  0.00000000000E+00 0. -1.
          1    1    5    5  503    0 -0.21114468858E+03 -0.50103469581E+03 -0.33651163366E+03  0.63941999149E+03  0.00000000000E+00 0. -1.
         -2    1    5    5    0  503 -0.89670669047E+01 -0.26326038779E+02  0.19965592185E+01  0.27882877459E+02  0.00000000000E+00 0.  1.
         -1    1    6    6    0  502  0.12341277864E+03 -0.36837286464E+02 -0.15181892340E+02  0.12968496235E+03  0.00000000000E+00 0.  1.
<mgrwt>
<rscale>  0 0.17367683E+04</rscale>
<asrwt>0</asrwt>
<pdfrwt beam="1">  1        2 0.17496980E+00 0.17367683E+04</pdfrwt>
<pdfrwt beam="2">  1       -2 0.10200793E+00 0.17367683E+04</pdfrwt>
<totfact> 0.15450687E+01</totfact>
</mgrwt>
</event>
<event>
12    1  0.1518126E-007  0.1838424E+04  0.7818608E-02  0.8686129E-01
         -1   -1    0    0    0  501 -0.00000000000E+00  0.00000000000E+00  0.85800822896E+03  0.85800822896E+03  0.00000000000E+00 0.  1.
          1   -1    0    0  501    0  0.00000000000E+00 -0.00000000000E+00 -0.98478120489E+03  0.98478120489E+03  0.00000000000E+00 0. -1.
         23    2    1    2    0    0 -0.64595853607E+03 -0.23742775625E+03 -0.18088293690E+03  0.71476169216E+03  0.67314708328E+02 0.  0.
        254    2    1    2    0    0  0.64595853607E+03  0.23742775625E+03  0.54109960965E+02  0.11280277417E+04  0.89212349392E+03 0.  0.
        -24    2    4    4    0    0  0.32585604566E+03 -0.32307528320E+03 -0.52042670438E+02  0.46881279077E+03  0.80729128193E+02 0.  0.
         24    2    4    4    0    0  0.32010249041E+03  0.56050303945E+03  0.10615263140E+03  0.65921495092E+03  0.81649915874E+02 0.  0.
         11    1    3    3    0    0 -0.20594106118E+03 -0.80596584268E+02 -0.26254703919E+02  0.22270347899E+03  0.00000000000E+00 0.  1.
        -11    1    3    3    0    0 -0.44001747488E+03 -0.15683117198E+03 -0.15462823299E+03  0.49205821317E+03  0.00000000000E+00 0. -1.
          2    1    6    6  502    0  0.12447584126E+03  0.28597224864E+03  0.27776405444E+02  0.31312280458E+03  0.00000000000E+00 0. -1.
          3    1    5    5  503    0  0.88245005922E+01 -0.16641613674E+02  0.13325451000E+02  0.23073421089E+02  0.00000000000E+00 0. -1.
         -4    1    5    5    0  503  0.31703154507E+03 -0.30643366953E+03 -0.65368121438E+02  0.44573936968E+03  0.00000000000E+00 0.  1.
         -1    1    6    6    0  502  0.19562664915E+03  0.27453079081E+03  0.78376225959E+02  0.34609214634E+03  0.00000000000E+00 0.  1.
<mgrwt>
<rscale>  0 0.18384236E+04</rscale>
<asrwt>0</asrwt>
<pdfrwt beam="1">  1        1 0.15150480E+00 0.18384236E+04</pdfrwt>
<pdfrwt beam="2">  1       -1 0.13200126E+00 0.18384236E+04</pdfrwt>
<totfact> 0.71375539E+00</totfact>
</mgrwt>
</event>
<event>
12    1  0.1518126E-007  0.1191110E+04  0.7818608E-02  0.9120674E-01
          2   -1    0    0  501    0  0.00000000000E+00  0.00000000000E+00  0.12508030027E+04  0.12508030027E+04  0.00000000000E+00 0.  1.
         -2   -1    0    0    0  501 -0.00000000000E+00 -0.00000000000E+00 -0.28356631554E+03  0.28356631554E+03  0.00000000000E+00 0. -1.
         23    2    1    2    0    0  0.98343635994E+02  0.18521101592E+03  0.35852111985E+02  0.22985899240E+03  0.87035574890E+02 0.  0.
        254    2    1    2    0    0 -0.98343635994E+02 -0.18521101592E+03  0.93138457518E+03  0.13045103259E+04  0.88898558605E+03 0.  0.
        -24    2    4    4    0    0 -0.18866133027E+03 -0.37604956911E+03  0.98323439538E+03  0.10724577301E+04  0.80058295524E+02 0.  0.
         24    2    4    4    0    0  0.90317694271E+02  0.19083855319E+03 -0.51849820196E+02  0.23205259573E+03  0.81137932242E+02 0.  0.
         13    1    3    3    0    0  0.15531973101E+02  0.23457989349E+02 -0.25592569275E+02  0.38032868085E+02  0.00000000000E+00 0. -1.
        -13    1    3    3    0    0  0.82811662893E+02  0.16175302657E+03  0.61444681260E+02  0.19182612432E+03  0.00000000000E+00 0.  1.
          2    1    6    6  502    0  0.10523869653E+03  0.15497421023E+03 -0.42030993882E+02  0.19198644101E+03  0.00000000000E+00 0. -1.
          1    1    5    5  503    0 -0.91262372641E+02 -0.16741963665E+03  0.34850131585E+03  0.39725473256E+03  0.00000000000E+00 0. -1.
         -2    1    5    5    0  503 -0.97398957624E+02 -0.20862993246E+03  0.63473307953E+03  0.67520299756E+03  0.00000000000E+00 0.  1.
         -1    1    6    6    0  502 -0.14921002256E+02  0.35864342958E+02 -0.98188263142E+01  0.40066154723E+02  0.00000000000E+00 0.  1.
<mgrwt>
<rscale>  0 0.11911097E+04</rscale>
<asrwt>0</asrwt>
<pdfrwt beam="1">  1        2 0.19243123E+00 0.11911097E+04</pdfrwt>
<pdfrwt beam="2">  1       -2 0.43625588E-01 0.11911097E+04</pdfrwt>
<totfact> 0.86869033E+01</totfact>
</mgrwt>
</event>
<event>
12    1  0.1518126E-007  0.1880508E+04  0.7818608E-02  0.8664620E-01
          1   -1    0    0  501    0  0.00000000000E+00  0.00000000000E+00  0.33733513841E+04  0.33733513841E+04  0.00000000000E+00 0. -1.
         -1   -1    0    0    0  501 -0.00000000000E+00 -0.00000000000E+00 -0.26207706666E+03  0.26207706666E+03  0.00000000000E+00 0.  1.
         23    2    1    2    0    0  0.15207559430E+03  0.24345700426E+03  0.24685203280E+04  0.24868694713E+04  0.92351816924E+02 0.  0.
        254    2    1    2    0    0 -0.15207559430E+03 -0.24345700426E+03  0.64275398950E+03  0.11485589795E+04  0.90755536425E+03 0.  0.
        -24    2    4    4    0    0  0.86392270243E+02 -0.31909500123E+03 -0.10513167616E+03  0.35594008875E+03  0.79720971377E+02 0.  0.
         24    2    4    4    0    0 -0.23846786454E+03  0.75637996976E+02  0.74788566566E+03  0.79261889080E+03  0.79521746346E+02 0.  0.
         13    1    3    3    0    0  0.50267336249E+02  0.30842480627E+02  0.31390388269E+03  0.31939585356E+03  0.00000000000E+00 0.  1.
        -13    1    3    3    0    0  0.10180825805E+03  0.21261452363E+03  0.21546164453E+04  0.21674736177E+04  0.00000000000E+00 0. -1.
          2    1    6    6  502    0 -0.17247948993E+02 -0.14130687999E+02  0.43627453023E+02  0.48995129810E+02  0.00000000000E+00 0. -1.
          3    1    5    5  503    0  0.74258789002E+01 -0.56195723274E+02 -0.50790596325E+02  0.76110365042E+02  0.00000000000E+00 0. -1.
         -4    1    5    5    0  503  0.78966391343E+02 -0.26289927796E+03 -0.54341079838E+02  0.27982972371E+03  0.00000000000E+00 0.  1.
         -1    1    6    6    0  502 -0.22121991555E+03  0.89768684975E+02  0.70425821264E+03  0.74362376099E+03  0.00000000000E+00 0.  1.
<mgrwt>
<rscale>  0 0.18805085E+04</rscale>
<asrwt>0</asrwt>
<pdfrwt beam="1">  1        1 0.51897711E+00 0.18805085E+04</pdfrwt>
<pdfrwt beam="2">  1       -1 0.40319551E-01 0.18805085E+04</pdfrwt>
<totfact> 0.17732501E+00</totfact>
</mgrwt>
</event>
<event>
12    1  0.1518126E-007  0.1205580E+04  0.7818608E-02  0.9107986E-01
         -1   -1    0    0    0  501 -0.00000000000E+00  0.00000000000E+00  0.20727888402E+03  0.20727888402E+03  0.00000000000E+00 0.  1.
          1   -1    0    0  501    0  0.00000000000E+00 -0.00000000000E+00 -0.17529805061E+04  0.17529805061E+04  0.00000000000E+00 0. -1.
         23    2    1    2    0    0 -0.11714897271E+03 -0.66637611700E+02  0.47632895300E+01  0.16439065732E+03  0.94006096545E+02 0.  0.
        254    2    1    2    0    0  0.11714897271E+03  0.66637611700E+02 -0.15504649116E+04  0.17958687328E+04  0.89612421585E+03 0.  0.
        -24    2    4    4    0    0 -0.34540538272E+03 -0.14943936624E+03 -0.75344613925E+03  0.84598243321E+03  0.79800939635E+02 0.  0.
         24    2    4    4    0    0  0.46255435543E+03  0.21607697794E+03 -0.79701877237E+03  0.94988629960E+03  0.79995415723E+02 0.  0.
         13    1    3    3    0    0 -0.30269733163E+02 -0.56583357534E+02 -0.29285216565E+02  0.70537628291E+02  0.00000000000E+00 0. -1.
        -13    1    3    3    0    0 -0.86879239548E+02 -0.10054254166E+02  0.34048506095E+02  0.93853029033E+02  0.00000000000E+00 0.  1.
          2    1    6    6  502    0  0.32301611589E+03  0.10939995502E+03 -0.51809291044E+03  0.62026447999E+03  0.00000000000E+00 0. -1.
          1    1    5    5  503    0 -0.15497753583E+03 -0.30481036793E+02 -0.26703478550E+03  0.31024942688E+03  0.00000000000E+00 0. -1.
         -2    1    5    5    0  503 -0.19042784689E+03 -0.11895832945E+03 -0.48641135375E+03  0.53573300633E+03  0.00000000000E+00 0.  1.
         -1    1    6    6    0  502  0.13953823954E+03  0.10667702292E+03 -0.27892586193E+03  0.32962181961E+03  0.00000000000E+00 0.  1.
<mgrwt>
<rscale>  0 0.12055801E+04</rscale>
<asrwt>0</asrwt>
<pdfrwt beam="1">  1        1 0.26968932E+00 0.12055801E+04</pdfrwt>
<pdfrwt beam="2">  1       -1 0.31889058E-01 0.12055801E+04</pdfrwt>
<totfact> 0.39769755E+01</totfact>
</mgrwt>
</event>
<event>
12    1  0.1518126E-007  0.3649656E+04  0.7818608E-02  0.8079211E-01
         -2   -1    0    0    0  501 -0.00000000000E+00  0.00000000000E+00  0.25668799895E+04  0.25668799895E+04  0.00000000000E+00 0.  1.
          2   -1    0    0  501    0  0.00000000000E+00 -0.00000000000E+00 -0.12972935735E+04  0.12972935735E+04  0.00000000000E+00 0. -1.
         23    2    1    2    0    0  0.49918067359E+03 -0.15743527718E+04  0.10748145404E+04  0.19724797721E+04  0.87647931159E+02 0.  0.
        254    2    1    2    0    0 -0.49918067359E+03  0.15743527718E+04  0.19477187556E+03  0.18916937909E+04  0.90155494566E+03 0.  0.
        -24    2    4    4    0    0 -0.32056690011E+00  0.70501750577E+03  0.46797441088E+03  0.84991558891E+03  0.79414563063E+02 0.  0.
         24    2    4    4    0    0 -0.49886010669E+03  0.86933526608E+03 -0.27320253532E+03  0.10417782020E+04  0.77826640749E+02 0.  0.
         13    1    3    3    0    0  0.24860111363E+02 -0.11442414408E+03  0.10070372419E+03  0.15444141268E+03  0.00000000000E+00 0. -1.
        -13    1    3    3    0    0  0.47432056223E+03 -0.14599286278E+04  0.97411081622E+03  0.18180383594E+04  0.00000000000E+00 0.  1.
          2    1    6    6  502    0 -0.10974298943E+03  0.13333823249E+03 -0.52388379855E+02  0.18046370914E+03  0.00000000000E+00 0. -1.
          3    1    5    5  503    0 -0.14185049780E+02  0.82713758496E+02  0.82971828627E+02  0.11801315955E+03  0.00000000000E+00 0. -1.
         -4    1    5    5    0  503  0.13864482880E+02  0.62230374727E+03  0.38500258226E+03  0.73190242935E+03  0.00000000000E+00 0.  1.
         -1    1    6    6    0  502 -0.38911711726E+03  0.73599703359E+03 -0.22081415547E+03  0.86131449289E+03  0.00000000000E+00 0.  1.
<mgrwt>
<rscale>  0 0.36496558E+04</rscale>
<asrwt>0</asrwt>
<pdfrwt beam="1">  1        2 0.19958363E+00 0.36496558E+04</pdfrwt>
<pdfrwt beam="2">  1       -2 0.39490462E+00 0.36496558E+04</pdfrwt>
<totfact> 0.10784705E-01</totfact>
</mgrwt>
</event>
<event>
12    1  0.1518126E-007  0.1445455E+04  0.7818608E-02  0.8921558E-01
         -1   -1    0    0    0  501 -0.00000000000E+00  0.00000000000E+00  0.92558942636E+03  0.92558942636E+03  0.00000000000E+00 0.  1.
          1   -1    0    0  501    0  0.00000000000E+00 -0.00000000000E+00 -0.56432675344E+03  0.56432675344E+03  0.00000000000E+00 0. -1.
         23    2    1    2    0    0  0.19256269600E+03  0.21683158339E+03  0.43357214537E+03  0.52944561608E+03  0.90727767012E+02 0.  0.
        254    2    1    2    0    0 -0.19256269600E+03 -0.21683158339E+03 -0.72309472444E+02  0.96047056373E+03  0.91278623814E+03 0.  0.
        -24    2    4    4    0    0  0.53860823889E+02 -0.40062176915E+03 -0.34907760336E+03  0.53975518957E+03  0.77985262921E+02 0.  0.
         24    2    4    4    0    0 -0.24642351989E+03  0.18379018576E+03  0.27676813091E+03  0.42071537416E+03  0.76794819044E+02 0.  0.
         13    1    3    3    0    0  0.18003754037E+02  0.20740180517E+02  0.66437255208E+01  0.28256491929E+02  0.00000000000E+00 0. -1.
        -13    1    3    3    0    0  0.17455894196E+03  0.19609140287E+03  0.42692841984E+03  0.50118912415E+03  0.00000000000E+00 0.  1.
          4    1    6    6  502    0 -0.11963826062E+02 -0.67207314157E+01  0.58066352075E+01  0.14900281113E+02  0.00000000000E+00 0. -1.
          1    1    5    5  503    0 -0.28003516592E+01 -0.18599400739E+03 -0.19531279914E+03  0.26971967348E+03  0.00000000000E+00 0. -1.
         -2    1    5    5    0  503  0.56661175548E+02 -0.21462776176E+03 -0.15376480422E+03  0.27003551609E+03  0.00000000000E+00 0.  1.
         -3    1    6    6    0  502 -0.23445969382E+03  0.19051091717E+03  0.27096149571E+03  0.40581509305E+03  0.00000000000E+00 0.  1.
<mgrwt>
<rscale>  0 0.14454548E+04</rscale>
<asrwt>0</asrwt>
<pdfrwt beam="1">  1        1 0.86819500E-01 0.14454548E+04</pdfrwt>
<pdfrwt beam="2">  1       -1 0.14239837E+00 0.14454548E+04</pdfrwt>
<totfact> 0.14568061E+01</totfact>
</mgrwt>
</event>
<event>
12    1  0.1518126E-007  0.2022544E+04  0.7818608E-02  0.8596153E-01
          2   -1    0    0  501    0  0.00000000000E+00  0.00000000000E+00  0.14658190426E+04  0.14658190426E+04  0.00000000000E+00 0.  1.
         -2   -1    0    0    0  501 -0.00000000000E+00 -0.00000000000E+00 -0.69767866691E+03  0.69767866691E+03  0.00000000000E+00 0. -1.
         23    2    1    2    0    0  0.75904342181E+03 -0.95363998669E+02  0.52697164144E+03  0.93358451413E+03  0.92950124813E+02 0.  0.
        254    2    1    2    0    0 -0.75904342181E+03  0.95363998669E+02  0.24116873429E+03  0.12299131954E+04  0.93235342089E+03 0.  0.
        -24    2    4    4    0    0  0.54327423012E+02  0.83301439399E+01  0.38385312220E+03  0.39577487579E+03  0.79206519257E+02 0.  0.
         24    2    4    4    0    0 -0.81337084482E+03  0.87033854730E+02 -0.14268438791E+03  0.83413831964E+03  0.79251994690E+02 0.  0.
         13    1    3    3    0    0  0.68581473585E+03 -0.58796806452E+02  0.48061886982E+03  0.83951975223E+03  0.00000000000E+00 0.  1.
        -13    1    3    3    0    0  0.73228685963E+02 -0.36567192217E+02  0.46352771621E+02  0.94064761901E+02  0.00000000000E+00 0. -1.
          4    1    6    6  502    0 -0.36987075152E+03  0.21904836668E+02 -0.28772947700E+02  0.37163433267E+03  0.00000000000E+00 0. -1.
          1    1    5    5  503    0  0.52247342707E+02  0.38825574677E+02  0.23715875543E+03  0.24592983826E+03  0.00000000000E+00 0. -1.
         -2    1    5    5    0  503  0.20800803052E+01 -0.30495430737E+02  0.14669436677E+03  0.14984503753E+03  0.00000000000E+00 0.  1.
         -3    1    6    6    0  502 -0.44350009330E+03  0.65129018061E+02 -0.11391144021E+03  0.46250398697E+03  0.00000000000E+00 0.  1.
<mgrwt>
<rscale>  0 0.20225436E+04</rscale>
<asrwt>0</asrwt>
<pdfrwt beam="1">  1        2 0.22551062E+00 0.20225436E+04</pdfrwt>
<pdfrwt beam="2">  1       -2 0.10733518E+00 0.20225436E+04</pdfrwt>
<totfact> 0.85822901E+00</totfact>
</mgrwt>
</event>
<event>
12    1  0.1518126E-007  0.2088238E+04  0.7818608E-02  0.8566443E-01
         -1   -1    0    0    0  501 -0.00000000000E+00  0.00000000000E+00  0.10098648537E+04  0.10098648537E+04  0.00000000000E+00 0.  1.
          1   -1    0    0  501    0  0.00000000000E+00 -0.00000000000E+00 -0.10795345861E+04  0.10795345861E+04  0.00000000000E+00 0. -1.
         23    2    1    2    0    0 -0.49198220425E+03  0.50062901382E+03  0.44561280164E+03  0.83636480999E+03  0.90881393219E+02 0.  0.
        254    2    1    2    0    0  0.49198220425E+03 -0.50062901382E+03 -0.51528253405E+03  0.12530346297E+04  0.90105704295E+03 0.  0.
        -24    2    4    4    0    0 -0.22730728739E+03 -0.23551064211E+02  0.54161471572E+01  0.24180310629E+03  0.78842577554E+02 0.  0.
         24    2    4    4    0    0  0.71928949164E+03 -0.47707794961E+03 -0.52069868121E+03  0.10112315234E+04  0.80506736425E+02 0.  0.
         13    1    3    3    0    0 -0.24350030588E+03  0.30814648505E+03  0.22883150284E+03  0.45454429037E+03  0.00000000000E+00 0. -1.
        -13    1    3    3    0    0 -0.24848189837E+03  0.19248252877E+03  0.21678129879E+03  0.38182051962E+03  0.00000000000E+00 0.  1.
          4    1    6    6  502    0  0.56991591488E+03 -0.41005423712E+03 -0.40239709893E+03  0.80924165281E+03  0.00000000000E+00 0. -1.
          1    1    5    5  503    0 -0.98229571627E+02 -0.41643767925E+02 -0.21188667817E+02  0.10877597066E+03  0.00000000000E+00 0. -1.
         -2    1    5    5    0  503 -0.12907771577E+03  0.18092703714E+02  0.26604814974E+02  0.13302713563E+03  0.00000000000E+00 0.  1.
         -3    1    6    6    0  502  0.14937357676E+03 -0.67023712489E+02 -0.11830158228E+03  0.20198987064E+03  0.00000000000E+00 0.  1.
<mgrwt>
<rscale>  0 0.20882376E+04</rscale>
<asrwt>0</asrwt>
<pdfrwt beam="1">  1        1 0.16608224E+00 0.20882376E+04</pdfrwt>
<pdfrwt beam="2">  1       -1 0.15536382E+00 0.20882376E+04</pdfrwt>
<totfact> 0.38356260E+00</totfact>
</mgrwt>
</event>
<event>
12    1  0.1518126E-007  0.1273828E+04  0.7818608E-02  0.9050581E-01
         -2   -1    0    0    0  501 -0.00000000000E+00  0.00000000000E+00  0.85070068636E+03  0.85070068636E+03  0.00000000000E+00 0. -1.
          2   -1    0    0  501    0  0.00000000000E+00 -0.00000000000E+00 -0.47685349486E+03  0.47685349486E+03  0.00000000000E+00 0.  1.
         23    2    1    2    0    0  0.22615622426E+02  0.17769778341E+03 -0.16618141400E+03  0.26079817910E+03  0.91167204950E+02 0.  0.
        254    2    1    2    0    0 -0.22615622426E+02 -0.17769778341E+03  0.54002860549E+03  0.10667560021E+04  0.90235774763E+03 0.  0.
        -24    2    4    4    0    0  0.20618895552E+03  0.22749330651E+03  0.50072003568E+03  0.59284077337E+03  0.80452088582E+02 0.  0.
         24    2    4    4    0    0 -0.22880457795E+03 -0.40519108991E+03  0.39308569816E+02  0.47391522875E+03  0.80741105668E+02 0.  0.
         11    1    3    3    0    0  0.18495199207E+02  0.18788053484E+03 -0.14945006523E+03  0.24078307615E+03  0.00000000000E+00 0.  1.
        -11    1    3    3    0    0  0.41204232189E+01 -0.10182751433E+02 -0.16731348776E+02  0.20015102950E+02  0.00000000000E+00 0. -1.
          4    1    6    6  502    0 -0.62786065251E+02 -0.17591101500E+03 -0.78207327602E+01  0.18694367881E+03  0.00000000000E+00 0. -1.
          1    1    5    5  503    0  0.34989357237E+02  0.44652845229E+02  0.16144099706E+03  0.17111787527E+03  0.00000000000E+00 0. -1.
         -2    1    5    5    0  503  0.17119959829E+03  0.18284046128E+03  0.33927903862E+03  0.42172289810E+03  0.00000000000E+00 0.  1.
         -3    1    6    6    0  502 -0.16601851270E+03 -0.22928007491E+03  0.47129302576E+02  0.28697154993E+03  0.00000000000E+00 0.  1.
<mgrwt>
<rscale>  0 0.12738282E+04</rscale>
<asrwt>0</asrwt>
<pdfrwt beam="1">  1        2 0.73362076E-01 0.12738282E+04</pdfrwt>
<pdfrwt beam="2">  1       -2 0.13087703E+00 0.12738282E+04</pdfrwt>
<totfact> 0.27260498E+01</totfact>
</mgrwt>
</event>
<event>
12    1  0.1518126E-007  0.1259095E+04  0.7818608E-02  0.9062647E-01
          2   -1    0    0  501    0  0.00000000000E+00  0.00000000000E+00  0.13774302333E+04  0.13774302333E+04  0.00000000000E+00 0. -1.
         -2   -1    0    0    0  501 -0.00000000000E+00 -0.00000000000E+00 -0.28773165207E+03  0.28773165207E+03  0.00000000000E+00 0.  1.
         23    2    1    2    0    0  0.80092697178E+02  0.27622443422E+03  0.35901304506E+03  0.46962616723E+03  0.94570567424E+02 0.  0.
        254    2    1    2    0    0 -0.80092697178E+02 -0.27622443422E+03  0.73068553616E+03  0.11955357181E+04  0.90149294084E+03 0.  0.
        -24    2    4    4    0    0  0.28627205975E+03 -0.29330321748E+03  0.52756572806E+02  0.42085049453E+03  0.79708300638E+02 0.  0.
         24    2    4    4    0    0 -0.36636475693E+03  0.17078783260E+02  0.67792896335E+03  0.77468522361E+03  0.77683308182E+02 0.  0.
         11    1    3    3    0    0  0.16923289113E+02  0.20791784576E+03  0.22923158174E+03  0.30994087560E+03  0.00000000000E+00 0. -1.
        -11    1    3    3    0    0  0.63169408064E+02  0.68306588463E+02  0.12978146332E+03  0.15968529164E+03  0.00000000000E+00 0.  1.
          4    1    6    6  502    0 -0.33282206453E+03 -0.77462490029E+01  0.59302111933E+03  0.68007689196E+03  0.00000000000E+00 0. -1.
          3    1    5    5  503    0  0.99937025564E+01  0.31263540182E+01  0.79848122194E+01  0.13168348659E+02  0.00000000000E+00 0. -1.
         -4    1    5    5    0  503  0.27627835719E+03 -0.29642957150E+03  0.44771760587E+02  0.40768214587E+03  0.00000000000E+00 0.  1.
         -3    1    6    6    0  502 -0.33542692396E+02  0.24825032263E+02  0.84907844027E+02  0.94608331649E+02  0.00000000000E+00 0.  1.
<mgrwt>
<rscale>  0 0.12590954E+04</rscale>
<asrwt>0</asrwt>
<pdfrwt beam="1">  1        2 0.21191234E+00 0.12590954E+04</pdfrwt>
<pdfrwt beam="2">  1       -2 0.44266409E-01 0.12590954E+04</pdfrwt>
<totfact> 0.70888962E+01</totfact>
</mgrwt>
</event>
<event>
12    1  0.2057092E-007  0.1755509E+04  0.7818608E-02  0.8730324E-01
         -2   -1    0    0    0  501 -0.00000000000E+00  0.00000000000E+00  0.51392578106E+03  0.51392578106E+03  0.00000000000E+00 0. -1.
          2   -1    0    0  501    0  0.00000000000E+00 -0.00000000000E+00 -0.14991528512E+04  0.14991528512E+04  0.00000000000E+00 0.  1.
         23    2    1    2    0    0  0.49758685160E+02 -0.53068895928E+03 -0.78240051271E+03  0.95114115731E+03  0.91718267543E+02 0.  0.
        254    2    1    2    0    0 -0.49758685160E+02  0.53068895928E+03 -0.20282655744E+03  0.10619374750E+04  0.89580460484E+03 0.  0.
        -24    2    4    4    0    0  0.11453726037E+03 -0.20315179438E+03  0.72166191569E+02  0.25767192878E+03  0.82446516603E+02 0.  0.
         24    2    4    4    0    0 -0.16429594553E+03  0.73384075366E+03 -0.27499274901E+03  0.80426554618E+03  0.75542354395E+02 0.  0.
         13    1    3    3    0    0  0.91258553064E+01 -0.48672222204E+01 -0.44117099113E+01  0.11244299514E+02  0.00000000000E+00 0. -1.
        -13    1    3    3    0    0  0.40632829854E+02 -0.52582173706E+03 -0.77798880279E+03  0.93989685780E+03  0.00000000000E+00 0.  1.
          2    1    6    6  502    0 -0.16620135971E+03  0.69351907549E+03 -0.27371319331E+03  0.76387859783E+03  0.00000000000E+00 0. -1.
          1    1    5    5  503    0  0.11919722647E+03 -0.14586333985E+03  0.43000195858E+02  0.19321777753E+03  0.00000000000E+00 0. -1.
         -4    1    5    5    0  503 -0.46599661025E+01 -0.57288454528E+02  0.29165995711E+02  0.64454151240E+02  0.00000000000E+00 0.  1.
         -1    1    6    6    0  502  0.19054141830E+01  0.40321678173E+02 -0.12795557081E+01  0.40386948346E+02  0.00000000000E+00 0.  1.
<mgrwt>
<rscale>  0 0.17555094E+04</rscale>
<asrwt>0</asrwt>
<pdfrwt beam="1">  1        2 0.23063890E+00 0.17555094E+04</pdfrwt>
<pdfrwt beam="2">  1       -2 0.79065506E-01 0.17555094E+04</pdfrwt>
<totfact> 0.17087371E+01</totfact>
</mgrwt>
</event>
<event>
12    1  0.1518126E-007  0.3962148E+04  0.7818608E-02  0.8012226E-01
         -1   -1    0    0    0  501 -0.00000000000E+00  0.00000000000E+00  0.26006394905E+04  0.26006394905E+04  0.00000000000E+00 0.  1.
          1   -1    0    0  501    0  0.00000000000E+00 -0.00000000000E+00 -0.15091111902E+04  0.15091111902E+04  0.00000000000E+00 0. -1.
         23    2    1    2    0    0  0.51311095202E+03  0.45159305105E+03 -0.12958951281E+04  0.14678665120E+04  0.89826394289E+02 0.  0.
        254    2    1    2    0    0 -0.51311095202E+03 -0.45159305105E+03  0.23874234284E+04  0.26418841687E+04  0.90141122779E+03 0.  0.
        -24    2    4    4    0    0 -0.39328155882E+03 -0.29228647541E+03  0.38568662004E+03  0.62865319457E+03  0.79679997160E+02 0.  0.
         24    2    4    4    0    0 -0.11982939321E+03 -0.15930657564E+03  0.20017368084E+04  0.20132309742E+04  0.80068950301E+02 0.  0.
         11    1    3    3    0    0  0.31674208020E+03  0.26297480712E+03 -0.68774326637E+03  0.80154357023E+03  0.00000000000E+00 0. -1.
        -11    1    3    3    0    0  0.19636887182E+03  0.18861824393E+03 -0.60815186178E+03  0.66632294179E+03  0.00000000000E+00 0.  1.
          2    1    6    6  502    0 -0.12583393226E+03 -0.13725967204E+03  0.15911745037E+04  0.16020333009E+04  0.00000000000E+00 0. -1.
          1    1    5    5  503    0 -0.26090331039E+03 -0.22793380570E+03  0.30034934637E+03  0.45851290823E+03  0.00000000000E+00 0. -1.
         -2    1    5    5    0  503 -0.13237824843E+03 -0.64352669708E+02  0.85337273677E+02  0.17014028634E+03  0.00000000000E+00 0.  1.
         -1    1    6    6    0  502  0.60045390532E+01 -0.22046903600E+02  0.41056230473E+03  0.41119767328E+03  0.00000000000E+00 0.  1.
<mgrwt>
<rscale>  0 0.39621480E+04</rscale>
<asrwt>0</asrwt>
<pdfrwt beam="1">  1        1 0.23217095E+00 0.39621480E+04</pdfrwt>
<pdfrwt beam="2">  1       -1 0.40009838E+00 0.39621480E+04</pdfrwt>
<totfact> 0.36126679E-02</totfact>
</mgrwt>
</event>
<event>
12    1  0.1550164E-007  0.2030373E+04  0.7818608E-02  0.8592551E-01
          2   -1    0    0  501    0  0.00000000000E+00  0.00000000000E+00  0.21922966978E+04  0.21922966978E+04  0.00000000000E+00 0.  1.
         -2   -1    0    0    0  501 -0.00000000000E+00 -0.00000000000E+00 -0.47010225580E+03  0.47010225580E+03  0.00000000000E+00 0. -1.
         23    2    1    2    0    0 -0.25155687401E+03  0.68636173156E+03  0.22508181260E+03  0.77012955984E+03  0.89802166796E+02 0.  0.
        254    2    1    2    0    0  0.25155687401E+03 -0.68636173156E+03  0.14971126294E+04  0.18922693938E+04  0.89719782992E+03 0.  0.
        -24    2    4    4    0    0 -0.26144674944E+03 -0.40055771381E+03  0.34067584542E+03  0.59262575250E+03  0.79651528456E+02 0.  0.
         24    2    4    4    0    0  0.51300362345E+03 -0.28580401775E+03  0.11564367840E+04  0.12996436413E+04  0.82890920298E+02 0.  0.
         13    1    3    3    0    0 -0.15216338940E+00  0.11439187988E+02 -0.70278281521E+01  0.13426412181E+02  0.00000000000E+00 0.  1.
        -13    1    3    3    0    0 -0.25140471062E+03  0.67492254358E+03  0.23210964075E+03  0.75670314766E+03  0.00000000000E+00 0. -1.
          2    1    6    6  502    0  0.99100834136E+02 -0.52867259436E+02  0.15640111746E+03  0.19255449096E+03  0.00000000000E+00 0. -1.
          3    1    5    5  503    0 -0.10930499567E+02 -0.66203610326E+02  0.45085204471E+02  0.80839776738E+02  0.00000000000E+00 0. -1.
         -4    1    5    5    0  503 -0.25051624987E+03 -0.33435410349E+03  0.29559064095E+03  0.51178597576E+03  0.00000000000E+00 0.  1.
         -1    1    6    6    0  502  0.41390278931E+03 -0.23293675832E+03  0.10000356666E+04  0.11070891503E+04  0.00000000000E+00 0.  1.
<mgrwt>
<rscale>  0 0.20303730E+04</rscale>
<asrwt>0</asrwt>
<pdfrwt beam="1">  1        2 0.33727641E+00 0.20303730E+04</pdfrwt>
<pdfrwt beam="2">  1       -2 0.72323425E-01 0.20303730E+04</pdfrwt>
<totfact> 0.83641697E+00</totfact>
</mgrwt>
</event>
<event>
12    1  0.1518126E-007  0.2635065E+04  0.7818608E-02  0.8356387E-01
         -2   -1    0    0    0  501 -0.00000000000E+00  0.00000000000E+00  0.60526390465E+03  0.60526390465E+03  0.00000000000E+00 0.  1.
          2   -1    0    0  501    0  0.00000000000E+00 -0.00000000000E+00 -0.28679923691E+04  0.28679923691E+04  0.00000000000E+00 0. -1.
         23    2    1    2    0    0  0.31271582294E+03  0.30931441248E+03  0.41742850357E+03  0.61308591573E+03  0.90339320272E+02 0.  0.
        254    2    1    2    0    0 -0.31271582294E+03 -0.30931441248E+03 -0.26801569680E+04  0.28601703580E+04  0.89658603158E+03 0.  0.
        -24    2    4    4    0    0  0.15848543293E+03 -0.30591557031E+03 -0.41536190497E+03  0.54549725234E+03  0.79622682708E+02 0.  0.
         24    2    4    4    0    0 -0.47120125587E+03 -0.33988421779E+01 -0.22647950630E+04  0.23146731057E+04  0.79829398917E+02 0.  0.
         13    1    3    3    0    0  0.73420067916E+02  0.74761010832E+02  0.50953455359E+02  0.11651596340E+03  0.00000000000E+00 0. -1.
        -13    1    3    3    0    0  0.23929575502E+03  0.23455340165E+03  0.36647504821E+03  0.49656995233E+03  0.00000000000E+00 0.  1.
          4    1    6    6  502    0 -0.41147519794E+02 -0.21109092710E+01 -0.33593516075E+03  0.33845236970E+03  0.00000000000E+00 0. -1.
          3    1    5    5  503    0  0.13813335466E+02 -0.21536011094E+02 -0.56462255810E+01  0.26200913607E+02  0.00000000000E+00 0. -1.
         -4    1    5    5    0  503  0.14467209747E+03 -0.28437955921E+03 -0.40971567939E+03  0.51929633873E+03  0.00000000000E+00 0.  1.
         -3    1    6    6    0  502 -0.43005373608E+03 -0.12879329069E+01 -0.19288599023E+04  0.19762207360E+04  0.00000000000E+00 0.  1.
<mgrwt>
<rscale>  0 0.26350653E+04</rscale>
<asrwt>0</asrwt>
<pdfrwt beam="1">  1        2 0.44122958E+00 0.26350653E+04</pdfrwt>
<pdfrwt beam="2">  1       -2 0.93117527E-01 0.26350653E+04</pdfrwt>
<totfact> 0.18102172E+00</totfact>
</mgrwt>
</event>
<event>
12    1  0.1518126E-007  0.2084934E+04  0.7818608E-02  0.8567909E-01
         -1   -1    0    0    0  501 -0.00000000000E+00  0.00000000000E+00  0.44751437093E+03  0.44751437093E+03  0.00000000000E+00 0.  1.
          1   -1    0    0  501    0  0.00000000000E+00 -0.00000000000E+00 -0.24283860997E+04  0.24283860997E+04  0.00000000000E+00 0. -1.
         23    2    1    2    0    0  0.58243240567E+02  0.65972906733E+03 -0.15349403219E+04  0.16742442840E+04  0.91746463607E+02 0.  0.
        254    2    1    2    0    0 -0.58243240567E+02 -0.65972906733E+03 -0.44593140690E+03  0.12016561866E+04  0.89804679930E+03 0.  0.
        -24    2    4    4    0    0 -0.34952169390E+03 -0.67586509028E+02 -0.39087571318E+03  0.53470160506E+03  0.79928922115E+02 0.  0.
         24    2    4    4    0    0  0.29127845333E+03 -0.59214255830E+03 -0.55055693717E+02  0.66695458153E+03  0.79506840459E+02 0.  0.
         13    1    3    3    0    0 -0.67856026574E+01  0.31184564967E+03 -0.79573198308E+03  0.85468306554E+03  0.00000000000E+00 0. -1.
        -13    1    3    3    0    0  0.65028843224E+02  0.34788341766E+03 -0.73920833878E+03  0.81956121849E+03  0.00000000000E+00 0.  1.
          2    1    6    6  502    0  0.54212224756E+02 -0.70926618816E+02 -0.28622308167E+02  0.93748531159E+02  0.00000000000E+00 0. -1.
          3    1    5    5  503    0 -0.56311888823E+02 -0.39807597841E+02 -0.56845886610E+02  0.89370736224E+02  0.00000000000E+00 0. -1.
         -4    1    5    5    0  503 -0.29320980507E+03 -0.27778911187E+02 -0.33402982657E+03  0.44533086883E+03  0.00000000000E+00 0.  1.
         -1    1    6    6    0  502  0.23706622857E+03 -0.52121593949E+03 -0.26433385550E+02  0.57320605037E+03  0.00000000000E+00 0.  1.
<mgrwt>
<rscale>  0 0.20849342E+04</rscale>
<asrwt>0</asrwt>
<pdfrwt beam="1">  1        1 0.37359786E+00 0.20849342E+04</pdfrwt>
<pdfrwt beam="2">  1       -1 0.68848364E-01 0.20849342E+04</pdfrwt>
<totfact> 0.29858613E+00</totfact>
</mgrwt>
</event>
<event>
12    1  0.1518126E-007  0.4068316E+04  0.7818608E-02  0.7990905E-01
          1   -1    0    0  501    0  0.00000000000E+00  0.00000000000E+00  0.29686586717E+04  0.29686586717E+04  0.00000000000E+00 0. -1.
         -1   -1    0    0    0  501 -0.00000000000E+00 -0.00000000000E+00 -0.13938275062E+04  0.13938275062E+04  0.00000000000E+00 0.  1.
         23    2    1    2    0    0  0.73542302962E+03  0.13253660145E+04  0.20329582788E+04  0.25374650601E+04  0.91473838902E+02 0.  0.
        254    2    1    2    0    0 -0.73542302962E+03 -0.13253660145E+04 -0.45812711325E+03  0.18250211178E+04  0.90740262484E+03 0.  0.
        -24    2    4    4    0    0 -0.90778609038E+02 -0.13177005091E+03  0.23865852421E+03  0.29787629065E+03  0.78538469412E+02 0.  0.
         24    2    4    4    0    0 -0.64464442058E+03 -0.11935959636E+04 -0.69678563747E+03  0.15271448271E+04  0.80145774475E+02 0.  0.
         13    1    3    3    0    0  0.57265814886E+03  0.95178423989E+03  0.15059165487E+04  0.18712603364E+04  0.00000000000E+00 0. -1.
        -13    1    3    3    0    0  0.16276488075E+03  0.37358177459E+03  0.52704173006E+03  0.66620472375E+03  0.00000000000E+00 0.  1.
          2    1    6    6  502    0 -0.46109047717E+03 -0.88133596879E+03 -0.54732475605E+03  0.11353069658E+04  0.00000000000E+00 0. -1.
          1    1    5    5  503    0 -0.97461081630E+02 -0.10059779851E+03  0.22038927184E+03  0.26113217083E+03  0.00000000000E+00 0. -1.
         -2    1    5    5    0  503  0.66824725922E+01 -0.31172252397E+02  0.18269252369E+02  0.36744119823E+02  0.00000000000E+00 0.  1.
         -1    1    6    6    0  502 -0.18355394341E+03 -0.31225999479E+03 -0.14946088141E+03  0.39183786131E+03  0.00000000000E+00 0.  1.
<mgrwt>
<rscale>  0 0.40683157E+04</rscale>
<asrwt>0</asrwt>
<pdfrwt beam="1">  1        1 0.45671672E+00 0.40683157E+04</pdfrwt>
<pdfrwt beam="2">  1       -1 0.21443500E+00 0.40683157E+04</pdfrwt>
<totfact> 0.58798230E-02</totfact>
</mgrwt>
</event>
<event>
12    1  0.1518126E-007  0.2135922E+04  0.7818608E-02  0.8545582E-01
          2   -1    0    0  501    0  0.00000000000E+00  0.00000000000E+00  0.29392720576E+04  0.29392720576E+04  0.00000000000E+00 0. -1.
         -2   -1    0    0    0  501 -0.00000000000E+00 -0.00000000000E+00 -0.38803508322E+03  0.38803508322E+03  0.00000000000E+00 0.  1.
         23    2    1    2    0    0 -0.69075695857E+03  0.52484760359E+03  0.11305103914E+04  0.14277218571E+04  0.87896379314E+02 0.  0.
        254    2    1    2    0    0  0.69075695857E+03 -0.52484760359E+03  0.14207265830E+04  0.18995852837E+04  0.91506832728E+03 0.  0.
        -24    2    4    4    0    0  0.20872154685E+03 -0.48674874641E+02  0.11382403523E+04  0.11610927643E+04  0.81310393595E+02 0.  0.
         24    2    4    4    0    0  0.48203541172E+03 -0.47617272895E+03  0.28248623073E+03  0.73849251944E+03  0.80461946091E+02 0.  0.
         11    1    3    3    0    0 -0.85310379659E+02  0.33481072574E+02  0.13547214505E+03  0.16355899603E+03  0.00000000000E+00 0.  1.
        -11    1    3    3    0    0 -0.60544657891E+03  0.49136653102E+03  0.99503824633E+03  0.12641628611E+04  0.00000000000E+00 0. -1.
          2    1    6    6  502    0  0.24515687601E+03 -0.22172718378E+03  0.17830883179E+03  0.37557805763E+03  0.00000000000E+00 0. -1.
          3    1    5    5  503    0  0.44111534072E+02 -0.37238298285E+02  0.43155852734E+03  0.43540243548E+03  0.00000000000E+00 0. -1.
         -4    1    5    5    0  503  0.16461001278E+03 -0.11436576356E+02  0.70668182497E+03  0.72569032881E+03  0.00000000000E+00 0.  1.
         -1    1    6    6    0  502  0.23687853571E+03 -0.25444554518E+03  0.10417739894E+03  0.36291446181E+03  0.00000000000E+00 0.  1.
<mgrwt>
<rscale>  0 0.21359220E+04</rscale>
<asrwt>0</asrwt>
<pdfrwt beam="1">  1        2 0.45219569E+00 0.21359220E+04</pdfrwt>
<pdfrwt beam="2">  1       -2 0.59697707E-01 0.21359220E+04</pdfrwt>
<totfact> 0.45759843E+00</totfact>
</mgrwt>
</event>
<event>
12    1  0.1615589E-007  0.1430283E+04  0.7818608E-02  0.8932185E-01
          2   -1    0    0  501    0  0.00000000000E+00  0.00000000000E+00  0.14155076566E+04  0.14155076566E+04  0.00000000000E+00 0. -1.
         -2   -1    0    0    0  501 -0.00000000000E+00 -0.00000000000E+00 -0.36130313301E+03  0.36130313301E+03  0.00000000000E+00 0.  1.
         23    2    1    2    0    0  0.24542973511E+03 -0.34480033314E+03  0.47184855843E+03  0.64088300400E+03  0.94693918035E+02 0.  0.
        254    2    1    2    0    0 -0.24542973511E+03  0.34480033314E+03  0.58235596517E+03  0.11359277856E+04  0.87867538906E+03 0.  0.
        -24    2    4    4    0    0 -0.47027047681E+03 -0.15662683934E+02  0.10034070848E+03  0.48845641187E+03  0.84390565170E+02 0.  0.
         24    2    4    4    0    0  0.22484074170E+03  0.36046301708E+03  0.48201525669E+03  0.64747137375E+03  0.79959529312E+02 0.  0.
         13    1    3    3    0    0  0.22287551365E+03 -0.32164091401E+03  0.38819440087E+03  0.55119984127E+03  0.00000000000E+00 0. -1.
        -13    1    3    3    0    0  0.22554221455E+02 -0.23159419133E+02  0.83654157555E+02  0.89683162724E+02  0.00000000000E+00 0.  1.
          4    1    6    6  502    0  0.21931215339E+03  0.36220933511E+03  0.46224404289E+03  0.62686759228E+03  0.00000000000E+00 0. -1.
          1    1    5    5  503    0 -0.46188322594E+03 -0.27572382114E+01  0.92051320438E+02  0.47097469397E+03  0.00000000000E+00 0. -1.
         -2    1    5    5    0  503 -0.83872508673E+01 -0.12905445723E+02  0.82893880417E+01  0.17481717894E+02  0.00000000000E+00 0.  1.
         -3    1    6    6    0  502  0.55285883062E+01 -0.17463180333E+01  0.19771213805E+02  0.20603781465E+02  0.00000000000E+00 0.  1.
<mgrwt>
<rscale>  0 0.14302830E+04</rscale>
<asrwt>0</asrwt>
<pdfrwt beam="1">  1        2 0.21777040E+00 0.14302830E+04</pdfrwt>
<pdfrwt beam="2">  1       -2 0.55585098E-01 0.14302830E+04</pdfrwt>
<totfact> 0.41867923E+01</totfact>
</mgrwt>
</event>
<event>
12    1  0.1518126E-007  0.1255240E+04  0.7818608E-02  0.9065833E-01
         -2   -1    0    0    0  501 -0.00000000000E+00  0.00000000000E+00  0.42391465396E+03  0.42391465396E+03  0.00000000000E+00 0.  1.
          2   -1    0    0  501    0  0.00000000000E+00 -0.00000000000E+00 -0.92921281380E+03  0.92921281380E+03  0.00000000000E+00 0. -1.
         23    2    1    2    0    0 -0.18334875742E+02 -0.12757509188E+03 -0.40937930056E+03  0.43821788632E+03  0.88498205776E+02 0.  0.
        254    2    1    2    0    0  0.18334875742E+02  0.12757509188E+03 -0.95918859275E+02  0.91490958144E+03  0.90069281274E+03 0.  0.
        -24    2    4    4    0    0 -0.28339332060E+03 -0.14005561359E+03 -0.31134939893E+03  0.45063906228E+03  0.78802075979E+02 0.  0.
         24    2    4    4    0    0  0.30172819634E+03  0.26763070547E+03  0.21543053966E+03  0.46427051916E+03  0.80440652498E+02 0.  0.
         11    1    3    3    0    0  0.12787318743E+02 -0.11084286734E+03 -0.23305434263E+03  0.25838727403E+03  0.00000000000E+00 0. -1.
        -11    1    3    3    0    0 -0.31122194485E+02 -0.16732224537E+02 -0.17632495793E+03  0.17983061229E+03  0.00000000000E+00 0.  1.
          4    1    6    6  502    0  0.26741629775E+02  0.35503388200E+02  0.53775887598E+02  0.69767122798E+02  0.00000000000E+00 0. -1.
          1    1    5    5  503    0 -0.21764440751E+02  0.31901629543E+01 -0.47764528505E+02  0.52586292931E+02  0.00000000000E+00 0. -1.
         -2    1    5    5    0  503 -0.26162887985E+03 -0.14324577654E+03 -0.26358487043E+03  0.39805276935E+03  0.00000000000E+00 0.  1.
         -3    1    6    6    0  502  0.27498656656E+03  0.23212731727E+03  0.16165465206E+03  0.39450339637E+03  0.00000000000E+00 0.  1.
<mgrwt>
<rscale>  0 0.12552401E+04</rscale>
<asrwt>0</asrwt>
<pdfrwt beam="1">  1        2 0.14295582E+00 0.12552401E+04</pdfrwt>
<pdfrwt beam="2">  1       -2 0.65217639E-01 0.12552401E+04</pdfrwt>
<totfact> 0.59737492E+01</totfact>
</mgrwt>
</event>
<event>
12    1  0.1518126E-007  0.1422125E+04  0.7818608E-02  0.8937957E-01
         -2   -1    0    0    0  501 -0.00000000000E+00  0.00000000000E+00  0.75785800709E+03  0.75785800709E+03  0.00000000000E+00 0.  1.
          2   -1    0    0  501    0  0.00000000000E+00 -0.00000000000E+00 -0.66715674187E+03  0.66715674187E+03  0.00000000000E+00 0. -1.
         23    2    1    2    0    0 -0.19927801002E+03  0.24944429265E+03  0.22560016364E+02  0.33215570743E+03  0.88793463849E+02 0.  0.
        254    2    1    2    0    0  0.19927801002E+03 -0.24944429265E+03  0.68141248856E+02  0.10928590415E+04  0.10429589994E+04 0.  0.
        -24    2    4    4    0    0  0.42452332274E+03  0.32922113679E+02 -0.33365089766E+03  0.54665358048E+03  0.78761020935E+02 0.  0.
         24    2    4    4    0    0 -0.22524531272E+03 -0.28236640633E+03  0.40179214652E+03  0.54620546106E+03  0.80232402157E+02 0.  0.
         11    1    3    3    0    0 -0.15165576992E+03  0.22878253339E+03  0.40023490421E+02  0.27738565197E+03  0.00000000000E+00 0. -1.
        -11    1    3    3    0    0 -0.47622240106E+02  0.20661759261E+02 -0.17463474057E+02  0.54770055456E+02  0.00000000000E+00 0.  1.
          4    1    6    6  502    0 -0.11889200834E+03 -0.20111649746E+03  0.28544767886E+03  0.36886790666E+03  0.00000000000E+00 0. -1.
          1    1    5    5  503    0  0.40534300467E+03  0.47633563521E+02 -0.32177046381E+03  0.51971928883E+03  0.00000000000E+00 0. -1.
         -2    1    5    5    0  503  0.19180318078E+02 -0.14711449842E+02 -0.11880433856E+02  0.26934291649E+02  0.00000000000E+00 0.  1.
         -3    1    6    6    0  502 -0.10635330438E+03 -0.81249908873E+02  0.11634446766E+03  0.17733755439E+03  0.00000000000E+00 0.  1.
<mgrwt>
<rscale>  0 0.14221253E+04</rscale>
<asrwt>0</asrwt>
<pdfrwt beam="1">  1        2 0.10263950E+00 0.14221253E+04</pdfrwt>
<pdfrwt beam="2">  1       -2 0.11659354E+00 0.14221253E+04</pdfrwt>
<totfact> 0.24113206E+01</totfact>
</mgrwt>
</event>
<event>
12    1  0.1518126E-007  0.1247239E+04  0.7818608E-02  0.9072484E-01
          1   -1    0    0  501    0  0.00000000000E+00  0.00000000000E+00  0.51522548579E+03  0.51522548579E+03  0.00000000000E+00 0. -1.
         -1   -1    0    0    0  501 -0.00000000000E+00 -0.00000000000E+00 -0.75481817282E+03  0.75481817282E+03  0.00000000000E+00 0.  1.
         23    2    1    2    0    0  0.20724808712E+03 -0.18747114222E+03 -0.11838272514E+03  0.31650965428E+03  0.89814769728E+02 0.  0.
        254    2    1    2    0    0 -0.20724808712E+03  0.18747114222E+03 -0.12120996190E+03  0.95353400433E+03  0.90356961203E+03 0.  0.
        -24    2    4    4    0    0 -0.45650817308E+03  0.31117218902E+03 -0.27798361756E+03  0.62352392295E+03  0.79242334318E+02 0.  0.
         24    2    4    4    0    0  0.24926008596E+03 -0.12370104680E+03  0.15677365566E+03  0.33001008139E+03  0.83042972441E+02 0.  0.
         11    1    3    3    0    0  0.40663169185E+02 -0.48253699157E+02 -0.69695843261E+02  0.94018207696E+02  0.00000000000E+00 0.  1.
        -11    1    3    3    0    0  0.16658491793E+03 -0.13921744306E+03 -0.48686881878E+02  0.22249144658E+03  0.00000000000E+00 0. -1.
          4    1    6    6  502    0  0.39022220583E+02 -0.55219374020E+02  0.52182765636E+02  0.85410502842E+02  0.00000000000E+00 0. -1.
          3    1    5    5  503    0 -0.12760763255E+03  0.12983807771E+03 -0.78422944231E+02  0.19822157423E+03  0.00000000000E+00 0. -1.
         -4    1    5    5    0  503 -0.32890054053E+03  0.18133411131E+03 -0.19956067333E+03  0.42530234872E+03  0.00000000000E+00 0.  1.
         -3    1    6    6    0  502  0.21023786538E+03 -0.68481672780E+02  0.10459089003E+03  0.24459957854E+03  0.00000000000E+00 0.  1.
<mgrwt>
<rscale>  0 0.12472394E+04</rscale>
<asrwt>0</asrwt>
<pdfrwt beam="1">  1        1 0.79265459E-01 0.12472394E+04</pdfrwt>
<pdfrwt beam="2">  1       -1 0.11612587E+00 0.12472394E+04</pdfrwt>
<totfact> 0.28129160E+01</totfact>
</mgrwt>
</event>
<event>
12    1  0.1518126E-007  0.2806852E+04  0.7818608E-02  0.8301144E-01
          2   -1    0    0  501    0  0.00000000000E+00  0.00000000000E+00  0.27082394604E+04  0.27082394604E+04  0.00000000000E+00 0. -1.
         -2   -1    0    0    0  501 -0.00000000000E+00 -0.00000000000E+00 -0.72726379066E+03  0.72726379066E+03  0.00000000000E+00 0.  1.
         23    2    1    2    0    0  0.91575680046E+03 -0.86054917554E+03  0.80951136012E+03  0.14966377283E+04  0.73894835047E+02 0.  0.
        254    2    1    2    0    0 -0.91575680046E+03  0.86054917554E+03  0.11714643096E+04  0.19388655227E+04  0.89872992903E+03 0.  0.
        -24    2    4    4    0    0 -0.31936900389E+02 -0.13406381169E+03  0.32077691190E+03  0.35796959055E+03  0.79065348554E+02 0.  0.
         24    2    4    4    0    0 -0.88381990007E+03  0.99461298722E+03  0.85068739770E+03  0.15808959321E+04  0.71904725496E+02 0.  0.
         13    1    3    3    0    0  0.83083796679E+03 -0.78154962101E+03  0.70815387453E+03  0.13426069593E+04  0.00000000000E+00 0. -1.
        -13    1    3    3    0    0  0.84918833678E+02 -0.78999554522E+02  0.10135748559E+03  0.15403076904E+03  0.00000000000E+00 0.  1.
          2    1    6    6  502    0 -0.52964291883E+03  0.58703680936E+03  0.46396512727E+03  0.91673195446E+03  0.00000000000E+00 0. -1.
          1    1    5    5  503    0 -0.52716744569E+01 -0.17186415927E+01  0.93174980810E+02  0.93339816421E+02  0.00000000000E+00 0. -1.
         -2    1    5    5    0  503 -0.26665225932E+02 -0.13234517009E+03  0.22760193109E+03  0.26462977413E+03  0.00000000000E+00 0.  1.
         -1    1    6    6    0  502 -0.35417698125E+03  0.40757617786E+03  0.38672227043E+03  0.66416397769E+03  0.00000000000E+00 0.  1.
<mgrwt>
<rscale>  0 0.28068520E+04</rscale>
<asrwt>0</asrwt>
<pdfrwt beam="1">  1        2 0.41665222E+00 0.28068520E+04</pdfrwt>
<pdfrwt beam="2">  1       -2 0.11188674E+00 0.28068520E+04</pdfrwt>
<totfact> 0.14390773E+00</totfact>
</mgrwt>
</event>
<event>
12    1  0.1518126E-007  0.2613288E+04  0.7818608E-02  0.8363702E-01
         -1   -1    0    0    0  501 -0.00000000000E+00  0.00000000000E+00  0.76232386078E+03  0.76232386078E+03  0.00000000000E+00 0.  1.
          1   -1    0    0  501    0  0.00000000000E+00 -0.00000000000E+00 -0.22396236454E+04  0.22396236454E+04  0.00000000000E+00 0. -1.
         23    2    1    2    0    0 -0.49967541015E+03 -0.68332826749E+01  0.52878853688E+03  0.73355520014E+03  0.93614665810E+02 0.  0.
        254    2    1    2    0    0  0.49967541015E+03  0.68332826749E+01 -0.20060883215E+04  0.22683923061E+04  0.93353687191E+03 0.  0.
        -24    2    4    4    0    0 -0.18887075400E+03 -0.23838422710E+03 -0.72715950745E+03  0.79283279404E+03  0.85578552073E+02 0.  0.
         24    2    4    4    0    0  0.68854616415E+03  0.24521750978E+03 -0.12789288141E+04  0.14755595120E+04  0.85962287116E+02 0.  0.
         11    1    3    3    0    0 -0.21243323738E+03 -0.42109959268E+02  0.26228023908E+03  0.34013534486E+03  0.00000000000E+00 0. -1.
        -11    1    3    3    0    0 -0.28724217277E+03  0.35276676593E+02  0.26650829780E+03  0.39341985528E+03  0.00000000000E+00 0.  1.
          4    1    6    6  502    0  0.34461182598E+03  0.13553990221E+03 -0.73020544893E+03  0.81873583856E+03  0.00000000000E+00 0. -1.
          1    1    5    5  503    0 -0.15320291496E+03 -0.18801958807E+03 -0.47631264174E+03  0.53450559523E+03  0.00000000000E+00 0. -1.
         -2    1    5    5    0  503 -0.35667839044E+02 -0.50364639036E+02 -0.25084686571E+03  0.25832719881E+03  0.00000000000E+00 0.  1.
         -3    1    6    6    0  502  0.34393433818E+03  0.10967760757E+03 -0.54872336515E+03  0.65682367347E+03  0.00000000000E+00 0.  1.
<mgrwt>
<rscale>  0 0.26132880E+04</rscale>
<asrwt>0</asrwt>
<pdfrwt beam="1">  1        1 0.34455748E+00 0.26132880E+04</pdfrwt>
<pdfrwt beam="2">  1       -1 0.11728060E+00 0.26132880E+04</pdfrwt>
<totfact> 0.11785475E+00</totfact>
</mgrwt>
</event>
<event>
12    1  0.1518126E-007  0.2399018E+04  0.7818608E-02  0.8439871E-01
         -1   -1    0    0    0  501 -0.00000000000E+00  0.00000000000E+00  0.62736515956E+03  0.62736515956E+03  0.00000000000E+00 0.  1.
          1   -1    0    0  501    0  0.00000000000E+00 -0.00000000000E+00 -0.22934361209E+04  0.22934361209E+04  0.00000000000E+00 0. -1.
         23    2    1    2    0    0  0.18866985290E+03 -0.74443900760E+03  0.11550905364E+03  0.78189530508E+03  0.90731346282E+02 0.  0.
        254    2    1    2    0    0 -0.18866985290E+03  0.74443900760E+03 -0.17815800150E+04  0.21389059754E+04  0.90061405291E+03 0.  0.
        -24    2    4    4    0    0 -0.18154767218E+03 -0.17101878063E+03 -0.45507797190E+03  0.52507932703E+03  0.80033484046E+02 0.  0.
         24    2    4    4    0    0 -0.71221807246E+01  0.91545778824E+03 -0.13265020431E+04  0.16138266484E+04  0.81945671712E+02 0.  0.
         11    1    3    3    0    0  0.18502773193E+03 -0.74429893635E+03  0.11981377957E+03  0.77625479709E+03  0.00000000000E+00 0.  1.
        -11    1    3    3    0    0  0.36421209684E+01 -0.14007125685E+00 -0.43047259247E+01  0.56405079906E+01  0.00000000000E+00 0. -1.
          2    1    6    6  502    0 -0.44129941369E+02  0.51904043854E+03 -0.76312134007E+03  0.92396136728E+03  0.00000000000E+00 0. -1.
          3    1    5    5  503    0  0.78405541240E+01 -0.80343983030E+01 -0.29627353229E+02  0.31682896086E+02  0.00000000000E+00 0. -1.
         -4    1    5    5    0  503 -0.18938822630E+03 -0.16298438233E+03 -0.42545061867E+03  0.49339643095E+03  0.00000000000E+00 0.  1.
         -1    1    6    6    0  502  0.37007760644E+02  0.39641734970E+03 -0.56338070304E+03  0.68986528108E+03  0.00000000000E+00 0.  1.
<mgrwt>
<rscale>  0 0.23990181E+04</rscale>
<asrwt>0</asrwt>
<pdfrwt beam="1">  1        1 0.35283634E+00 0.23990181E+04</pdfrwt>
<pdfrwt beam="2">  1       -1 0.96517714E-01 0.23990181E+04</pdfrwt>
<totfact> 0.17407757E+00</totfact>
</mgrwt>
</event>
<event>
12    1  0.1518126E-007  0.1471287E+04  0.7818608E-02  0.8903775E-01
         -2   -1    0    0    0  501 -0.00000000000E+00  0.00000000000E+00  0.58019378532E+03  0.58019378532E+03  0.00000000000E+00 0.  1.
          2   -1    0    0  501    0  0.00000000000E+00 -0.00000000000E+00 -0.93274228559E+03  0.93274228559E+03  0.00000000000E+00 0. -1.
         23    2    1    2    0    0 -0.20817163989E+03 -0.18816697422E+03 -0.46901504344E+03  0.55427725400E+03  0.92227552723E+02 0.  0.
        254    2    1    2    0    0  0.20817163989E+03  0.18816697422E+03  0.11646654317E+03  0.95865881691E+03  0.90924145843E+03 0.  0.
        -24    2    4    4    0    0  0.39841164647E+03 -0.17566671498E+03 -0.14483103708E+03  0.46569812621E+03  0.79423426373E+02 0.  0.
         24    2    4    4    0    0 -0.19024000658E+03  0.36383368920E+03  0.26129758025E+03  0.49296069071E+03  0.78534092196E+02 0.  0.
         13    1    3    3    0    0 -0.21698519610E+03 -0.18706845038E+03 -0.45546042310E+03  0.53807190733E+03  0.00000000000E+00 0. -1.
        -13    1    3    3    0    0  0.88135562113E+01 -0.10985238376E+01 -0.13554620345E+02  0.16205346661E+02  0.00000000000E+00 0.  1.
          4    1    6    6  502    0 -0.76996204129E+02  0.22863403042E+03  0.16156342356E+03  0.29035267374E+03  0.00000000000E+00 0. -1.
          3    1    5    5  503    0  0.34633301151E+03 -0.12073820434E+03 -0.12438415155E+03  0.38729276524E+03  0.00000000000E+00 0. -1.
         -4    1    5    5    0  503  0.52078634956E+02 -0.54928510646E+02 -0.20446885529E+02  0.78405360968E+02  0.00000000000E+00 0.  1.
         -3    1    6    6    0  502 -0.11324380245E+03  0.13519965878E+03  0.99734156690E+02  0.20260801696E+03  0.00000000000E+00 0.  1.
<mgrwt>
<rscale>  0 0.14712869E+04</rscale>
<asrwt>0</asrwt>
<pdfrwt beam="1">  1        2 0.14349881E+00 0.14712869E+04</pdfrwt>
<pdfrwt beam="2">  1       -2 0.89260583E-01 0.14712869E+04</pdfrwt>
<totfact> 0.29078587E+01</totfact>
</mgrwt>
</event>
<event>
12    1  0.1585586E-007  0.2101197E+04  0.7818608E-02  0.8560716E-01
         -1   -1    0    0    0  501 -0.00000000000E+00  0.00000000000E+00  0.42501250214E+03  0.42501250214E+03  0.00000000000E+00 0.  1.
          1   -1    0    0  501    0  0.00000000000E+00 -0.00000000000E+00 -0.25969987475E+04  0.25969987475E+04  0.00000000000E+00 0. -1.
         23    2    1    2    0    0  0.14380258158E+03 -0.23693681078E+03  0.27471571155E+03  0.39938799111E+03  0.84993002662E+02 0.  0.
        254    2    1    2    0    0 -0.14380258158E+03  0.23693681078E+03 -0.24467019569E+04  0.26226232585E+04  0.90276467337E+03 0.  0.
        -24    2    4    4    0    0  0.36225186878E+03  0.92123608977E+02 -0.71746097533E+03  0.81324448955E+03  0.83085335081E+02 0.  0.
         24    2    4    4    0    0 -0.50605445036E+03  0.14481320180E+03 -0.17292409816E+04  0.18093787690E+04  0.80716709037E+02 0.  0.
         11    1    3    3    0    0  0.67617631149E+02 -0.52886030016E+02  0.51033316597E+02  0.99867290020E+02  0.00000000000E+00 0. -1.
        -11    1    3    3    0    0  0.76184950435E+02 -0.18405078076E+03  0.22368239495E+03  0.29952070109E+03  0.00000000000E+00 0.  1.
          4    1    6    6  502    0 -0.36823051301E+02  0.25015062140E+02 -0.95382142812E+02  0.10525893600E+03  0.00000000000E+00 0. -1.
          1    1    5    5  503    0  0.61849471781E+02  0.27384730494E+02 -0.20322135340E+03  0.21418263025E+03  0.00000000000E+00 0. -1.
         -2    1    5    5    0  503  0.30040239700E+03  0.64738878484E+02 -0.51423962193E+03  0.59906185930E+03  0.00000000000E+00 0.  1.
         -3    1    6    6    0  502 -0.46923139906E+03  0.11979813966E+03 -0.16338588388E+04  0.17041198330E+04  0.00000000000E+00 0.  1.
<mgrwt>
<rscale>  0 0.21011967E+04</rscale>
<asrwt>0</asrwt>
<pdfrwt beam="1">  1        1 0.39953827E+00 0.21011967E+04</pdfrwt>
<pdfrwt beam="2">  1       -1 0.65386538E-01 0.21011967E+04</pdfrwt>
<totfact> 0.25290608E+00</totfact>
</mgrwt>
</event>
<event>
12    1  0.1518126E-007  0.1577949E+04  0.7818608E-02  0.8834211E-01
          2   -1    0    0  501    0  0.00000000000E+00  0.00000000000E+00  0.27884342237E+04  0.27884342237E+04  0.00000000000E+00 0. -1.
         -2   -1    0    0    0  501 -0.00000000000E+00 -0.00000000000E+00 -0.22323656865E+03  0.22323656865E+03  0.00000000000E+00 0.  1.
         23    2    1    2    0    0  0.33890917546E+02  0.27460655333E+03  0.17321275040E+04  0.17564114100E+04  0.90321636004E+02 0.  0.
        254    2    1    2    0    0 -0.33890917546E+02 -0.27460655333E+03  0.83307015106E+03  0.12552593823E+04  0.89728082940E+03 0.  0.
        -24    2    4    4    0    0  0.12596732756E+03  0.29988543415E+03  0.26009398533E+03  0.42443308934E+03  0.81826187106E+02 0.  0.
         24    2    4    4    0    0 -0.15985824511E+03 -0.57449198747E+03  0.57297616573E+03  0.83082629294E+03  0.79843223593E+02 0.  0.
         13    1    3    3    0    0  0.20850065827E+02  0.22948541407E+03  0.15927628697E+04  0.16093451587E+04  0.00000000000E+00 0. -1.
        -13    1    3    3    0    0  0.13040851719E+02  0.45121139257E+02  0.13936463424E+03  0.14706625139E+03  0.00000000000E+00 0.  1.
          2    1    6    6  502    0 -0.12909042839E+03 -0.34126346777E+03  0.37694011214E+03  0.52460360395E+03  0.00000000000E+00 0. -1.
          1    1    5    5  503    0  0.37097363777E+02  0.83458269345E+02  0.29613312220E+02  0.96012735519E+02  0.00000000000E+00 0. -1.
         -2    1    5    5    0  503  0.88869963788E+02  0.21642716480E+03  0.23048067311E+03  0.32842035382E+03  0.00000000000E+00 0.  1.
         -1    1    6    6    0  502 -0.30767816718E+02 -0.23322851970E+03  0.19603605359E+03  0.30622268900E+03  0.00000000000E+00 0.  1.
<mgrwt>
<rscale>  0 0.15779487E+04</rscale>
<asrwt>0</asrwt>
<pdfrwt beam="1">  1        2 0.42898986E+00 0.15779487E+04</pdfrwt>
<pdfrwt beam="2">  1       -2 0.34344089E-01 0.15779487E+04</pdfrwt>
<totfact> 0.18007204E+01</totfact>
</mgrwt>
</event>
<event>
12    1  0.1518126E-007  0.1760621E+04  0.7818608E-02  0.8727526E-01
         -3   -1    0    0    0  501 -0.00000000000E+00  0.00000000000E+00  0.26742880995E+04  0.26742880995E+04  0.00000000000E+00 0.  1.
          3   -1    0    0  501    0  0.00000000000E+00 -0.00000000000E+00 -0.28977678931E+03  0.28977678931E+03  0.00000000000E+00 0. -1.
         23    2    1    2    0    0 -0.51885602212E+02  0.54928424960E+03  0.14763496595E+04  0.15789636392E+04  0.95459698279E+02 0.  0.
        254    2    1    2    0    0  0.51885602212E+02 -0.54928424960E+03  0.90816165071E+03  0.13851012497E+04  0.88844954024E+03 0.  0.
        -24    2    4    4    0    0 -0.39339433226E+03 -0.11632602232E+03  0.39016487232E+03  0.57183624919E+03  0.80481203844E+02 0.  0.
         24    2    4    4    0    0  0.44527993447E+03 -0.43295822728E+03  0.51799677839E+03  0.81326500052E+03  0.85745274208E+02 0.  0.
         11    1    3    3    0    0 -0.75739767079E+00 -0.18252624019E+01  0.34135133888E+02  0.34192288599E+02  0.00000000000E+00 0. -1.
        -11    1    3    3    0    0 -0.51128204541E+02  0.55110951200E+03  0.14422145256E+04  0.15447713506E+04  0.00000000000E+00 0.  1.
          2    1    6    6  502    0  0.39258788520E+03 -0.34473115135E+03  0.40943196030E+03  0.66377657719E+03  0.00000000000E+00 0. -1.
          1    1    5    5  503    0 -0.30986352188E+03 -0.12457835684E+03  0.31778203923E+03  0.46099955927E+03  0.00000000000E+00 0. -1.
         -2    1    5    5    0  503 -0.83530810376E+02  0.82523345166E+01  0.72382833085E+02  0.11083668992E+03  0.00000000000E+00 0.  1.
         -1    1    6    6    0  502  0.52692049268E+02 -0.88227075931E+02  0.10856481809E+03  0.14948842333E+03  0.00000000000E+00 0.  1.
<mgrwt>
<rscale>  0 0.17606210E+04</rscale>
<asrwt>0</asrwt>
<pdfrwt beam="1">  1        3 0.44581046E-01 0.17606210E+04</pdfrwt>
<pdfrwt beam="2">  1       -3 0.41142892E+00 0.17606210E+04</pdfrwt>
<totfact> 0.11426213E-01</totfact>
</mgrwt>
</event>
<event>
12    1  0.1518126E-007  0.1147742E+04  0.7818608E-02  0.9159869E-01
         -1   -1    0    0    0  501 -0.00000000000E+00  0.00000000000E+00  0.60855846658E+03  0.60855846658E+03  0.00000000000E+00 0.  1.
          1   -1    0    0  501    0  0.00000000000E+00 -0.00000000000E+00 -0.54116089398E+03  0.54116089398E+03  0.00000000000E+00 0. -1.
         23    2    1    2    0    0 -0.13430338106E+03  0.17779504478E+03  0.14539181773E+02  0.23985976663E+03  0.87594769986E+02 0.  0.
        254    2    1    2    0    0  0.13430338106E+03 -0.17779504478E+03  0.52858390833E+02  0.90985959393E+03  0.88056913134E+03 0.  0.
        -24    2    4    4    0    0  0.45054923608E+03 -0.30780060548E+03  0.80764803545E+02  0.55778591940E+03  0.82863451046E+02 0.  0.
         24    2    4    4    0    0 -0.31624585502E+03  0.13000556069E+03 -0.27906412712E+02  0.35207367454E+03  0.79146811680E+02 0.  0.
         13    1    3    3    0    0  0.64360072746E+01 -0.12281095349E+01  0.10168690364E+02  0.12096805628E+02  0.00000000000E+00 0.  1.
        -13    1    3    3    0    0 -0.14073938833E+03  0.17902315432E+03  0.43704914083E+01  0.22776296100E+03  0.00000000000E+00 0. -1.
          4    1    6    6  502    0 -0.98960623812E+02  0.22711063213E+02 -0.40739885290E+02  0.10940171713E+03  0.00000000000E+00 0. -1.
          1    1    5    5  503    0  0.43958709488E+02 -0.12440518781E+02  0.25205458753E+02  0.52177100326E+02  0.00000000000E+00 0. -1.
         -2    1    5    5    0  503  0.40659052659E+03 -0.29536008670E+03  0.55559344792E+02  0.50560881907E+03  0.00000000000E+00 0.  1.
         -3    1    6    6    0  502 -0.21728523121E+03  0.10729449748E+03  0.12833472578E+02  0.24267195741E+03  0.00000000000E+00 0.  1.
<mgrwt>
<rscale>  0 0.11477422E+04</rscale>
<asrwt>0</asrwt>
<pdfrwt beam="1">  1        1 0.83255522E-01 0.11477422E+04</pdfrwt>
<pdfrwt beam="2">  1       -1 0.93624380E-01 0.11477422E+04</pdfrwt>
<totfact> 0.43643295E+01</totfact>
</mgrwt>
</event>
<event>
12    1  0.2451762E-007  0.2073103E+04  0.7818608E-02  0.8573185E-01
          2   -1    0    0  501    0  0.00000000000E+00  0.00000000000E+00  0.19641409236E+04  0.19641409236E+04  0.00000000000E+00 0. -1.
         -2   -1    0    0    0  501 -0.00000000000E+00 -0.00000000000E+00 -0.54702763680E+03  0.54702763680E+03  0.00000000000E+00 0.  1.
         23    2    1    2    0    0  0.63877167025E+03  0.45377594868E+03  0.90722211659E+03  0.12022351691E+04  0.91518166483E+02 0.  0.
        254    2    1    2    0    0 -0.63877167025E+03 -0.45377594868E+03  0.50989117017E+03  0.13089333912E+04  0.91617452427E+03 0.  0.
        -24    2    4    4    0    0  0.21193629273E+03 -0.19510615613E+03  0.21639831169E+03  0.36928856869E+03  0.81008723803E+02 0.  0.
         24    2    4    4    0    0 -0.85070796297E+03 -0.25866979256E+03  0.29349285848E+03  0.93964482253E+03  0.78614468633E+02 0.  0.
         11    1    3    3    0    0  0.57775908912E+03  0.37951611075E+03  0.81952215153E+03  0.10721262054E+04  0.00000000000E+00 0. -1.
        -11    1    3    3    0    0  0.61012581132E+02  0.74259837936E+02  0.87699965055E+02  0.13010896379E+03  0.00000000000E+00 0.  1.
          4    1    6    6  502    0 -0.13574976310E+03 -0.30137105007E+02  0.18586995260E+02  0.14029155239E+03  0.00000000000E+00 0. -1.
          1    1    5    5  503    0  0.32816926355E+02 -0.58899885198E+02  0.85762188464E+02  0.10909307999E+03  0.00000000000E+00 0. -1.
         -2    1    5    5    0  503  0.17911936637E+03 -0.13620627093E+03  0.13063612322E+03  0.26019548870E+03  0.00000000000E+00 0.  1.
         -3    1    6    6    0  502 -0.71495819988E+03 -0.22853268755E+03  0.27490586322E+03  0.79935327014E+03  0.00000000000E+00 0.  1.
<mgrwt>
<rscale>  0 0.20731033E+04</rscale>
<asrwt>0</asrwt>
<pdfrwt beam="1">  1        2 0.30217552E+00 0.20731033E+04</pdfrwt>
<pdfrwt beam="2">  1       -2 0.84158099E-01 0.20731033E+04</pdfrwt>
<totfact> 0.79622071E+00</totfact>
</mgrwt>
</event>
<event>
12    1  0.1518126E-007  0.2135053E+04  0.7818608E-02  0.8545957E-01
         -1   -1    0    0    0  501 -0.00000000000E+00  0.00000000000E+00  0.75786310647E+03  0.75786310647E+03  0.00000000000E+00 0.  1.
          1   -1    0    0  501    0  0.00000000000E+00 -0.00000000000E+00 -0.15037188435E+04  0.15037188435E+04  0.00000000000E+00 0. -1.
         23    2    1    2    0    0 -0.63207913218E+03  0.56438640479E+03 -0.75666699561E+02  0.85571053200E+03  0.91972941098E+02 0.  0.
        254    2    1    2    0    0  0.63207913218E+03 -0.56438640479E+03 -0.67018903748E+03  0.14058714180E+04  0.89959160438E+03 0.  0.
        -24    2    4    4    0    0  0.64041616628E+03 -0.18533288888E+03 -0.75295744054E+03  0.10091928140E+04  0.83929034036E+02 0.  0.
         24    2    4    4    0    0 -0.83370341033E+01 -0.37905351591E+03  0.82768403059E+02  0.39667860402E+03  0.82171967698E+02 0.  0.
         13    1    3    3    0    0 -0.79718586270E+02  0.10896956799E+03  0.61398376191E+01  0.13515590017E+03  0.00000000000E+00 0. -1.
        -13    1    3    3    0    0 -0.55236054591E+03  0.45541683681E+03 -0.81806537180E+02  0.72055463183E+03  0.00000000000E+00 0.  1.
          2    1    6    6  502    0  0.86626204788E+00 -0.13581441720E+03  0.70333469240E+02  0.15294804093E+03  0.00000000000E+00 0. -1.
          3    1    5    5  503    0  0.32807788120E+03 -0.13713281322E+03 -0.41455384493E+03  0.54616425638E+03  0.00000000000E+00 0. -1.
         -4    1    5    5    0  503  0.31233828508E+03 -0.48200075662E+02 -0.33840359561E+03  0.46302855759E+03  0.00000000000E+00 0.  1.
         -1    1    6    6    0  502 -0.92032961511E+01 -0.24323909871E+03  0.12434933820E+02  0.24373056308E+03  0.00000000000E+00 0.  1.
<mgrwt>
<rscale>  0 0.21350532E+04</rscale>
<asrwt>0</asrwt>
<pdfrwt beam="1">  1        1 0.23134136E+00 0.21350532E+04</pdfrwt>
<pdfrwt beam="2">  1       -1 0.11659432E+00 0.21350532E+04</pdfrwt>
<totfact> 0.39591015E+00</totfact>
</mgrwt>
</event>
<event>
12    1  0.1518126E-007  0.1662256E+04  0.7818608E-02  0.8783189E-01
         -2   -1    0    0    0  501 -0.00000000000E+00  0.00000000000E+00  0.22942589548E+03  0.22942589548E+03  0.00000000000E+00 0.  1.
          2   -1    0    0  501    0  0.00000000000E+00 -0.00000000000E+00 -0.30108793181E+04  0.30108793181E+04  0.00000000000E+00 0. -1.
         23    2    1    2    0    0  0.49868011558E+03  0.27210670426E+03 -0.71372687805E+03  0.91630402603E+03  0.86504887147E+02 0.  0.
        254    2    1    2    0    0 -0.49868011558E+03 -0.27210670426E+03 -0.20677265445E+04  0.23240011875E+04  0.89597128324E+03 0.  0.
        -24    2    4    4    0    0 -0.39430978646E+02 -0.22875939373E+03 -0.47304077296E+02  0.24994713766E+03  0.79688352968E+02 0.  0.
         24    2    4    4    0    0 -0.45924913694E+03 -0.43347310534E+02 -0.20204224672E+04  0.20740540498E+04  0.82489371957E+02 0.  0.
         11    1    3    3    0    0  0.41224789842E+03  0.19423472807E+03 -0.60169879943E+03  0.75479593572E+03  0.00000000000E+00 0.  1.
        -11    1    3    3    0    0  0.86432217164E+02  0.77871976189E+02 -0.11202807862E+03  0.16150809032E+03  0.00000000000E+00 0. -1.
          4    1    6    6  502    0 -0.36680674323E+03 -0.35477260633E+02 -0.17429217674E+04  0.17814550542E+04  0.00000000000E+00 0. -1.
          1    1    5    5  503    0 -0.49782748824E+02 -0.22615627647E+03 -0.53409849402E+02  0.23765015354E+03  0.00000000000E+00 0. -1.
         -2    1    5    5    0  503  0.10351770178E+02 -0.26031172601E+01  0.61057721061E+01  0.12296984114E+02  0.00000000000E+00 0.  1.
         -3    1    6    6    0  502 -0.92442393703E+02 -0.78700499010E+01 -0.27750069982E+03  0.29259899562E+03  0.00000000000E+00 0.  1.
<mgrwt>
<rscale>  0 0.16622559E+04</rscale>
<asrwt>0</asrwt>
<pdfrwt beam="1">  1        2 0.46321219E+00 0.16622559E+04</pdfrwt>
<pdfrwt beam="2">  1       -2 0.35296292E-01 0.16622559E+04</pdfrwt>
<totfact> 0.12396293E+01</totfact>
</mgrwt>
</event>
<event>
12    1  0.1518126E-007  0.1564143E+04  0.7818608E-02  0.8842884E-01
          2   -1    0    0  501    0  0.00000000000E+00  0.00000000000E+00  0.33001249551E+04  0.33001249551E+04  0.00000000000E+00 0. -1.
         -2   -1    0    0    0  501 -0.00000000000E+00 -0.00000000000E+00 -0.18533712262E+03  0.18533712262E+03  0.00000000000E+00 0.  1.
         23    2    1    2    0    0  0.34314078034E+03  0.29605993605E+03  0.16268598893E+04  0.16912940757E+04  0.91681351207E+02 0.  0.
        254    2    1    2    0    0 -0.34314078034E+03 -0.29605993605E+03  0.14879279432E+04  0.17941680020E+04  0.89426627722E+03 0.  0.
        -24    2    4    4    0    0 -0.26519554622E+02 -0.56999727708E+03  0.83628793961E+03  0.10154784204E+04  0.78858872639E+02 0.  0.
         24    2    4    4    0    0 -0.31662122572E+03  0.27393734103E+03  0.65164000357E+03  0.77868958160E+03  0.80200391824E+02 0.  0.
         11    1    3    3    0    0  0.13648718551E+03  0.74804185517E+02  0.66198826633E+03  0.68003888326E+03  0.00000000000E+00 0.  1.
        -11    1    3    3    0    0  0.20665359484E+03  0.22125575054E+03  0.96487162301E+03  0.10112551925E+04  0.00000000000E+00 0. -1.
          2    1    6    6  502    0 -0.18655847658E+03  0.14498368171E+03  0.29672074717E+03  0.37929874103E+03  0.00000000000E+00 0. -1.
          1    1    5    5  503    0 -0.14394527740E+02 -0.54466940493E+03  0.81448416014E+03  0.97992673717E+03  0.00000000000E+00 0. -1.
         -2    1    5    5    0  503 -0.12125026882E+02 -0.25327872149E+02  0.21803779463E+02  0.35551683271E+02  0.00000000000E+00 0.  1.
         -1    1    6    6    0  502 -0.13006274915E+03  0.12895365932E+03  0.35491925640E+03  0.39939084057E+03  0.00000000000E+00 0.  1.
<mgrwt>
<rscale>  0 0.15641428E+04</rscale>
<asrwt>0</asrwt>
<pdfrwt beam="1">  1        2 0.50771149E+00 0.15641428E+04</pdfrwt>
<pdfrwt beam="2">  1       -2 0.28513406E-01 0.15641428E+04</pdfrwt>
<totfact> 0.12189662E+01</totfact>
</mgrwt>
</event>
<event>
12    1  0.1518126E-007  0.2310725E+04  0.7818608E-02  0.8473704E-01
          2   -1    0    0  501    0  0.00000000000E+00  0.00000000000E+00  0.50806653265E+03  0.50806653265E+03  0.00000000000E+00 0. -1.
         -2   -1    0    0    0  501 -0.00000000000E+00 -0.00000000000E+00 -0.26273390810E+04  0.26273390810E+04  0.00000000000E+00 0.  1.
         23    2    1    2    0    0 -0.89645791306E+03 -0.19591266850E+03 -0.14295736287E+04  0.17012284482E+04  0.92080994108E+02 0.  0.
        254    2    1    2    0    0  0.89645791306E+03  0.19591266850E+03 -0.68969891969E+03  0.14341771655E+04  0.85974471715E+03 0.  0.
        -24    2    4    4    0    0  0.20845199597E+03  0.16831379577E+03 -0.68647316134E+03  0.74108439903E+03  0.78606086065E+02 0.  0.
         24    2    4    4    0    0  0.68800591709E+03  0.27598872726E+02 -0.32257583450E+01  0.69309276648E+03  0.79078048161E+02 0.  0.
         13    1    3    3    0    0 -0.73499727664E+03 -0.17784782713E+03 -0.11161677269E+04  0.13482140931E+04  0.00000000000E+00 0.  1.
        -13    1    3    3    0    0 -0.16146063642E+03 -0.18064841367E+02 -0.31340590182E+03  0.35301435509E+03  0.00000000000E+00 0. -1.
          2    1    6    6  502    0  0.65290851616E+03  0.40114637921E+02 -0.14048981776E+02  0.65429052304E+03  0.00000000000E+00 0. -1.
          1    1    5    5  503    0  0.17138128785E+03  0.16694561278E+03 -0.55268006058E+03  0.60224383169E+03  0.00000000000E+00 0. -1.
         -2    1    5    5    0  503  0.37070708121E+02  0.13681829886E+01 -0.13379310076E+03  0.13884056733E+03  0.00000000000E+00 0.  1.
         -1    1    6    6    0  502  0.35097400929E+02 -0.12515765195E+02  0.10823223431E+02  0.38802243438E+02  0.00000000000E+00 0.  1.
<mgrwt>
<rscale>  0 0.23107255E+04</rscale>
<asrwt>0</asrwt>
<pdfrwt beam="1">  1        2 0.78164083E-01 0.23107255E+04</pdfrwt>
<pdfrwt beam="2">  1       -2 0.40420601E+00 0.23107255E+04</pdfrwt>
<totfact> 0.38177054E-01</totfact>
</mgrwt>
</event>
<event>
12    1  0.1518126E-007  0.1649038E+04  0.7818608E-02  0.8790976E-01
         -1   -1    0    0    0  501 -0.00000000000E+00  0.00000000000E+00  0.32039534470E+03  0.32039534470E+03  0.00000000000E+00 0.  1.
          1   -1    0    0  501    0  0.00000000000E+00 -0.00000000000E+00 -0.21218521819E+04  0.21218521819E+04  0.00000000000E+00 0. -1.
         23    2    1    2    0    0 -0.23996806528E+03 -0.51592918001E+03 -0.79475212123E+03  0.98187047466E+03  0.93118761105E+02 0.  0.
        254    2    1    2    0    0  0.23996806528E+03  0.51592918001E+03 -0.10067047160E+04  0.14603770520E+04  0.89189638275E+03 0.  0.
        -24    2    4    4    0    0  0.13448197469E+03  0.57938717790E+03 -0.11228090403E+04  0.12731211468E+04  0.79764716802E+02 0.  0.
         24    2    4    4    0    0  0.10548609060E+03 -0.63457997886E+02  0.11610432429E+03  0.18725590517E+03  0.80189320335E+02 0.  0.
         11    1    3    3    0    0 -0.23237147122E+03 -0.43304532992E+03 -0.70586272480E+03  0.86009705537E+03  0.00000000000E+00 0. -1.
        -11    1    3    3    0    0 -0.75965940671E+01 -0.82883850092E+02 -0.88889396434E+02  0.12177341929E+03  0.00000000000E+00 0.  1.
          4    1    6    6  502    0  0.31484253807E+02  0.18443117128E+02  0.30909360657E+02  0.47820449428E+02  0.00000000000E+00 0. -1.
          3    1    5    5  503    0  0.10362885415E+03  0.37040012470E+03 -0.65014277078E+03  0.75539447588E+03  0.00000000000E+00 0. -1.
         -4    1    5    5    0  503  0.30853120533E+02  0.20898705320E+03 -0.47266626952E+03  0.51772667093E+03  0.00000000000E+00 0.  1.
         -3    1    6    6    0  502  0.74001836789E+02 -0.81901115014E+02  0.85194963637E+02  0.13943545574E+03  0.00000000000E+00 0.  1.
<mgrwt>
<rscale>  0 0.16490380E+04</rscale>
<asrwt>0</asrwt>
<pdfrwt beam="1">  1        1 0.32643881E+00 0.16490380E+04</pdfrwt>
<pdfrwt beam="2">  1       -1 0.49291589E-01 0.16490380E+04</pdfrwt>
<totfact> 0.97126648E+00</totfact>
</mgrwt>
</event>
<event>
12    1  0.1518126E-007  0.1435886E+04  0.7818608E-02  0.8928245E-01
         -2   -1    0    0    0  501 -0.00000000000E+00  0.00000000000E+00  0.81501341390E+03  0.81501341390E+03  0.00000000000E+00 0.  1.
          2   -1    0    0  501    0  0.00000000000E+00 -0.00000000000E+00 -0.63243375013E+03  0.63243375013E+03  0.00000000000E+00 0. -1.
         23    2    1    2    0    0 -0.10506396071E+03  0.12668787671E+02  0.47472365464E+03  0.49467284104E+03  0.90220493051E+02 0.  0.
        254    2    1    2    0    0  0.10506396071E+03 -0.12668787671E+02 -0.29214399088E+03  0.95277432299E+03  0.90068410951E+03 0.  0.
        -24    2    4    4    0    0 -0.27845966011E+03  0.28617512916E+03 -0.73753633002E+02  0.41385436870E+03  0.79999082817E+02 0.  0.
         24    2    4    4    0    0  0.38352362082E+03 -0.29884391683E+03 -0.21839035787E+03  0.53891995430E+03  0.79638648760E+02 0.  0.
         11    1    3    3    0    0 -0.18955188134E+02  0.38080829819E+02  0.89063862876E+02  0.98700660724E+02  0.00000000000E+00 0. -1.
        -11    1    3    3    0    0 -0.86108772575E+02 -0.25412042148E+02  0.38565979176E+03  0.39597218031E+03  0.00000000000E+00 0.  1.
          2    1    6    6  502    0  0.74306572007E+02 -0.95292993050E+02 -0.73100660253E+02  0.14123005239E+03  0.00000000000E+00 0. -1.
          3    1    5    5  503    0 -0.19673823255E+03  0.24652471878E+03 -0.45123077632E+02  0.31861647989E+03  0.00000000000E+00 0. -1.
         -4    1    5    5    0  503 -0.81721427554E+02  0.39650410376E+02 -0.28630555369E+02  0.95237888811E+02  0.00000000000E+00 0.  1.
         -3    1    6    6    0  502  0.30921704881E+03 -0.20355092378E+03 -0.14528969762E+03  0.39768990191E+03  0.00000000000E+00 0.  1.
<mgrwt>
<rscale>  0 0.14358858E+04</rscale>
<asrwt>0</asrwt>
<pdfrwt beam="1">  1        2 0.97297500E-01 0.14358858E+04</pdfrwt>
<pdfrwt beam="2">  1       -2 0.12538668E+00 0.14358858E+04</pdfrwt>
<totfact> 0.21475134E+01</totfact>
</mgrwt>
</event>
<event>
12    1  0.1518126E-007  0.2234570E+04  0.7818608E-02  0.8504176E-01
         -2   -1    0    0    0  501 -0.00000000000E+00  0.00000000000E+00  0.10083887237E+04  0.10083887237E+04  0.00000000000E+00 0.  1.
          2   -1    0    0  501    0  0.00000000000E+00 -0.00000000000E+00 -0.12379407617E+04  0.12379407617E+04  0.00000000000E+00 0. -1.
         23    2    1    2    0    0 -0.17063664296E+03 -0.74977379992E+02  0.82284508145E+03  0.84862371799E+03  0.91376776276E+02 0.  0.
        254    2    1    2    0    0  0.17063664296E+03  0.74977379992E+02 -0.10523971194E+04  0.13977057674E+04  0.90072373334E+03 0.  0.
        -24    2    4    4    0    0  0.24640558960E+03 -0.36275307126E+03 -0.67721998968E+03  0.81082397063E+03  0.80641748732E+02 0.  0.
         24    2    4    4    0    0 -0.75768946640E+02  0.43773045126E+03 -0.37517712974E+03  0.58688179675E+03  0.79520333572E+02 0.  0.
         13    1    3    3    0    0 -0.10444128964E+03 -0.48342980637E+02  0.67163711841E+03  0.68142603823E+03  0.00000000000E+00 0.  1.
        -13    1    3    3    0    0 -0.66195353316E+02 -0.26634399355E+02  0.15120796304E+03  0.16719767976E+03  0.00000000000E+00 0. -1.
          2    1    6    6  502    0 -0.18219438060E+02  0.28584509244E+03 -0.26822890365E+03  0.39241063893E+03  0.00000000000E+00 0. -1.
          1    1    5    5  503    0 -0.13834140045E+01 -0.20298167646E+02 -0.54666534761E+02  0.58329747701E+02  0.00000000000E+00 0. -1.
         -2    1    5    5    0  503  0.24778900360E+03 -0.34245490362E+03 -0.62255345492E+03  0.75249422293E+03  0.00000000000E+00 0.  1.
         -1    1    6    6    0  502 -0.57549508580E+02  0.15188535882E+03 -0.10694822609E+03  0.19447115782E+03  0.00000000000E+00 0.  1.
<mgrwt>
<rscale>  0 0.22345698E+04</rscale>
<asrwt>0</asrwt>
<pdfrwt beam="1">  1        2 0.19045242E+00 0.22345698E+04</pdfrwt>
<pdfrwt beam="2">  1       -2 0.15513673E+00 0.22345698E+04</pdfrwt>
<totfact> 0.44888500E+00</totfact>
</mgrwt>
</event>
<event>
12    1  0.1518126E-007  0.1493741E+04  0.7818608E-02  0.8888626E-01
          3   -1    0    0  501    0  0.00000000000E+00  0.00000000000E+00  0.32287644822E+03  0.32287644822E+03  0.00000000000E+00 0. -1.
         -3   -1    0    0    0  501 -0.00000000000E+00 -0.00000000000E+00 -0.17276437465E+04  0.17276437465E+04  0.00000000000E+00 0.  1.
         23    2    1    2    0    0  0.50558290940E+02  0.30872916781E+03  0.37665283241E+02  0.32846043529E+03  0.92724021437E+02 0.  0.
        254    2    1    2    0    0 -0.50558290940E+02 -0.30872916781E+03 -0.14424325815E+04  0.17220597594E+04  0.88713483923E+03 0.  0.
        -24    2    4    4    0    0  0.12051504970E+03 -0.18727371884E+03 -0.14771401706E+04  0.14956135260E+04  0.72948012705E+02 0.  0.
         24    2    4    4    0    0 -0.17107334064E+03 -0.12145544897E+03  0.34707589110E+02  0.22644623341E+03  0.77818801863E+02 0.  0.
         11    1    3    3    0    0  0.31689908080E+02  0.30525850252E+03  0.32650613707E+02  0.30863095472E+03  0.00000000000E+00 0. -1.
        -11    1    3    3    0    0  0.18868382860E+02  0.34706652900E+01  0.50146695335E+01  0.19829480574E+02  0.00000000000E+00 0.  1.
          2    1    6    6  502    0 -0.17434830116E+03 -0.12792057803E+03  0.35566193183E+02  0.21914825689E+03  0.00000000000E+00 0. -1.
          1    1    5    5  503    0  0.93468217184E+02 -0.79117322968E+02 -0.81664139909E+03  0.82577178029E+03  0.00000000000E+00 0. -1.
         -2    1    5    5    0  503  0.27046832512E+02 -0.10815639588E+03 -0.66049877153E+03  0.66984174572E+03  0.00000000000E+00 0.  1.
         -1    1    6    6    0  502  0.32749605272E+01  0.64651290637E+01 -0.85860407330E+00  0.72979765154E+01  0.00000000000E+00 0.  1.
<mgrwt>
<rscale>  0 0.14937409E+04</rscale>
<asrwt>0</asrwt>
<pdfrwt beam="1">  1        3 0.49673300E-01 0.14937409E+04</pdfrwt>
<pdfrwt beam="2">  1       -3 0.26579135E+00 0.14937409E+04</pdfrwt>
<totfact> 0.60550804E-01</totfact>
</mgrwt>
</event>
<event>
12    1  0.1518126E-007  0.2567973E+04  0.7818608E-02  0.8379162E-01
          2   -1    0    0  501    0  0.00000000000E+00  0.00000000000E+00  0.38857131095E+04  0.38857131095E+04  0.00000000000E+00 0. -1.
         -2   -1    0    0    0  501 -0.00000000000E+00 -0.00000000000E+00 -0.42427770993E+03  0.42427770993E+03  0.00000000000E+00 0.  1.
         23    2    1    2    0    0  0.94562292356E+03 -0.58693975974E+03  0.17742692256E+04  0.20963425852E+04  0.88994126419E+02 0.  0.
        254    2    1    2    0    0 -0.94562292356E+03  0.58693975974E+03  0.16871661740E+04  0.22136482342E+04  0.90277783045E+03 0.  0.
        -24    2    4    4    0    0  0.85840892844E+02  0.27904010140E+03  0.64615798060E+03  0.71356446276E+03  0.80137815975E+02 0.  0.
         24    2    4    4    0    0 -0.10314638164E+04  0.30789965834E+03  0.10410081934E+04  0.15000837715E+04  0.88506827870E+02 0.  0.
         11    1    3    3    0    0  0.54048843570E+03 -0.30038982038E+03  0.10453458616E+04  0.12145409683E+04  0.00000000000E+00 0.  1.
        -11    1    3    3    0    0  0.40513448786E+03 -0.28654993936E+03  0.72892336392E+03  0.88180161685E+03  0.00000000000E+00 0. -1.
          2    1    6    6  502    0 -0.11343276383E+03  0.34323609010E+02  0.78664443838E+02  0.14224344192E+03  0.00000000000E+00 0. -1.
          3    1    5    5  503    0  0.93656913771E+02  0.22433588993E+03  0.56807561892E+03  0.61790623708E+03  0.00000000000E+00 0. -1.
         -4    1    5    5    0  503 -0.78160209274E+01  0.54704211465E+02  0.78082361684E+02  0.95658225685E+02  0.00000000000E+00 0.  1.
         -1    1    6    6    0  502 -0.91803105257E+03  0.27357604933E+03  0.96234374956E+03  0.13578403296E+04  0.00000000000E+00 0.  1.
<mgrwt>
<rscale>  0 0.25679731E+04</rscale>
<asrwt>0</asrwt>
<pdfrwt beam="1">  1        2 0.59780199E+00 0.25679731E+04</pdfrwt>
<pdfrwt beam="2">  1       -2 0.65273497E-01 0.25679731E+04</pdfrwt>
<totfact> 0.81115762E-01</totfact>
</mgrwt>
</event>
<event>
12    1  0.1518126E-007  0.2038095E+04  0.7818608E-02  0.8589014E-01
          2   -1    0    0  501    0  0.00000000000E+00  0.00000000000E+00  0.13185260785E+04  0.13185260785E+04  0.00000000000E+00 0. -1.
         -2   -1    0    0    0  501 -0.00000000000E+00 -0.00000000000E+00 -0.78759009687E+03  0.78759009687E+03  0.00000000000E+00 0.  1.
         23    2    1    2    0    0  0.70470728403E+03  0.40696376213E+03  0.13925347563E+03  0.83042008666E+03  0.89297984399E+02 0.  0.
        254    2    1    2    0    0 -0.70470728403E+03 -0.40696376213E+03  0.39168250596E+03  0.12756960887E+04  0.90097362076E+03 0.  0.
        -24    2    4    4    0    0 -0.72220527152E+03 -0.31361699069E+03 -0.72898324030E+02  0.79489212166E+03  0.81260373878E+02 0.  0.
         24    2    4    4    0    0  0.17497987499E+02 -0.93346771435E+02  0.46458082999E+03  0.48080396700E+03  0.79481493344E+02 0.  0.
         11    1    3    3    0    0  0.16147926220E+03  0.87560172439E+02 -0.57529233612E+01  0.18378093494E+03  0.00000000000E+00 0.  1.
        -11    1    3    3    0    0  0.54322802182E+03  0.31940358969E+03  0.14500639899E+03  0.64663915173E+03  0.00000000000E+00 0. -1.
          4    1    6    6  502    0  0.26023294553E+02 -0.70462789511E+02  0.43922117715E+03  0.44559786694E+03  0.00000000000E+00 0. -1.
          3    1    5    5  503    0 -0.57941227320E+03 -0.21529959143E+03 -0.60808343841E+02  0.62110397768E+03  0.00000000000E+00 0. -1.
         -4    1    5    5    0  503 -0.14279299832E+03 -0.98317399263E+02 -0.12089980189E+02  0.17378814398E+03  0.00000000000E+00 0.  1.
         -3    1    6    6    0  502 -0.85253070542E+01 -0.22883981924E+02  0.25359652835E+02  0.35206100054E+02  0.00000000000E+00 0.  1.
<mgrwt>
<rscale>  0 0.20380953E+04</rscale>
<asrwt>0</asrwt>
<pdfrwt beam="1">  1        2 0.20285017E+00 0.20380953E+04</pdfrwt>
<pdfrwt beam="2">  1       -2 0.12116771E+00 0.20380953E+04</pdfrwt>
<totfact> 0.77431185E+00</totfact>
</mgrwt>
</event>
<event>
12    1  0.1518126E-007  0.1703290E+04  0.7818608E-02  0.8759490E-01
          2   -1    0    0  501    0  0.00000000000E+00  0.00000000000E+00  0.21978169974E+04  0.21978169974E+04  0.00000000000E+00 0. -1.
         -2   -1    0    0    0  501 -0.00000000000E+00 -0.00000000000E+00 -0.33000895852E+03  0.33000895852E+03  0.00000000000E+00 0.  1.
         23    2    1    2    0    0 -0.69158937360E+02 -0.52438095111E+03  0.17058663367E+03  0.56290469083E+03  0.89462566866E+02 0.  0.
        254    2    1    2    0    0  0.69158937360E+02  0.52438095111E+03  0.16972214052E+04  0.19649212651E+04  0.83701657045E+03 0.  0.
        -24    2    4    4    0    0  0.37614498987E+03  0.53148018032E+03  0.12936087086E+04  0.14509576138E+04  0.88872213767E+02 0.  0.
         24    2    4    4    0    0 -0.30698605251E+03 -0.70992292181E+01  0.40361269660E+03  0.51396365136E+03  0.83454122522E+02 0.  0.
         13    1    3    3    0    0 -0.47815470987E+02 -0.42277466648E+03  0.99124891145E+02  0.43686437475E+03  0.00000000000E+00 0.  1.
        -13    1    3    3    0    0 -0.21343466372E+02 -0.10160628463E+03  0.71461742521E+02  0.12604031608E+03  0.00000000000E+00 0. -1.
          4    1    6    6  502    0 -0.22210288919E+03  0.25456934874E+02  0.24924642269E+03  0.33481566293E+03  0.00000000000E+00 0. -1.
          1    1    5    5  503    0  0.37957576163E+03  0.53190569794E+03  0.12834010282E+04  0.14401804156E+04  0.00000000000E+00 0. -1.
         -2    1    5    5    0  503 -0.34307717537E+01 -0.42551761654E+00  0.10207680447E+02  0.10777198160E+02  0.00000000000E+00 0.  1.
         -3    1    6    6    0  502 -0.84883163322E+02 -0.32556164093E+02  0.15436627391E+03  0.17914798843E+03  0.00000000000E+00 0.  1.
<mgrwt>
<rscale>  0 0.17032901E+04</rscale>
<asrwt>0</asrwt>
<pdfrwt beam="1">  1        2 0.33812568E+00 0.17032901E+04</pdfrwt>
<pdfrwt beam="2">  1       -2 0.50770610E-01 0.17032901E+04</pdfrwt>
<totfact> 0.18076993E+01</totfact>
</mgrwt>
</event>
<event>
12    1  0.1518126E-007  0.3512746E+04  0.7818608E-02  0.8110776E-01
         -4   -1    0    0    0  501 -0.00000000000E+00  0.00000000000E+00  0.21539154639E+04  0.21539154639E+04  0.00000000000E+00 0.  1.
          4   -1    0    0  501    0  0.00000000000E+00 -0.00000000000E+00 -0.14322039281E+04  0.14322039281E+04  0.00000000000E+00 0. -1.
         23    2    1    2    0    0 -0.24195155654E+03  0.10887989647E+04  0.15604753394E+04  0.19202759310E+04  0.91392697901E+02 0.  0.
        254    2    1    2    0    0  0.24195155654E+03 -0.10887989647E+04 -0.83876380359E+03  0.16658434610E+04  0.90966256232E+03 0.  0.
        -24    2    4    4    0    0  0.12185681739E+03  0.43166514646E+02  0.10356542290E+03  0.18593790289E+03  0.84467005284E+02 0.  0.
         24    2    4    4    0    0  0.12009473916E+03 -0.11319654793E+04 -0.94232922649E+03  0.14799055581E+04  0.79796598826E+02 0.  0.
         11    1    3    3    0    0 -0.10019839062E+03  0.65294421996E+03  0.93826460910E+03  0.11474826136E+04  0.00000000000E+00 0.  1.
        -11    1    3    3    0    0 -0.14175316592E+03  0.43585474472E+03  0.62221073028E+03  0.77279331740E+03  0.00000000000E+00 0. -1.
          4    1    6    6  502    0  0.98690171045E+02 -0.95881814597E+03 -0.75916862124E+03  0.12269510921E+04  0.00000000000E+00 0. -1.
          3    1    5    5  503    0  0.84096200871E+02  0.65539161672E+02  0.91292922772E+02  0.14036363654E+03  0.00000000000E+00 0. -1.
         -2    1    5    5    0  503  0.37760616515E+02 -0.22372647026E+02  0.12272500129E+02  0.45574266356E+02  0.00000000000E+00 0.  1.
         -3    1    6    6    0  502  0.21404568112E+02 -0.17314733336E+03 -0.18316060525E+03  0.25295446606E+03  0.00000000000E+00 0.  1.
<mgrwt>
<rscale>  0 0.35127460E+04</rscale>
<asrwt>0</asrwt>
<pdfrwt beam="1">  1        4 0.22033907E+00 0.35127460E+04</pdfrwt>
<pdfrwt beam="2">  1       -4 0.33137161E+00 0.35127460E+04</pdfrwt>
<totfact> 0.30728855E-03</totfact>
</mgrwt>
</event>
<event>
12    1  0.1518126E-007  0.1338461E+04  0.7818608E-02  0.8999609E-01
         -2   -1    0    0    0  501 -0.00000000000E+00  0.00000000000E+00  0.16655205617E+03  0.16655205617E+03  0.00000000000E+00 0. -1.
          2   -1    0    0  501    0  0.00000000000E+00 -0.00000000000E+00 -0.26890669948E+04  0.26890669948E+04  0.00000000000E+00 0.  1.
         23    2    1    2    0    0 -0.20394036536E+02  0.24485640859E+03 -0.12568437323E+04  0.12837327522E+04  0.89123700010E+02 0.  0.
        254    2    1    2    0    0  0.20394036536E+02 -0.24485640859E+03 -0.12656712063E+04  0.15718862988E+04  0.89918427277E+03 0.  0.
        -24    2    4    4    0    0 -0.33001169105E+03 -0.46672371468E+02 -0.13413641380E+03  0.36819731191E+03  0.80564610755E+02 0.  0.
         24    2    4    4    0    0  0.35040572758E+03 -0.19818403713E+03 -0.11315347925E+04  0.12036889869E+04  0.80219100465E+02 0.  0.
         11    1    3    3    0    0  0.12801186924E+02  0.59105010432E+02 -0.16564359903E+03  0.17633795548E+03  0.00000000000E+00 0. -1.
        -11    1    3    3    0    0 -0.33195223460E+02  0.18575139816E+03 -0.10912001333E+04  0.11073947967E+04  0.00000000000E+00 0.  1.
          4    1    6    6  502    0  0.21508306509E+03 -0.15016283142E+03 -0.81337055423E+03  0.85462346055E+03  0.00000000000E+00 0. -1.
          1    1    5    5  503    0 -0.19112980286E+03 -0.18508354955E+01 -0.42278288441E+02  0.19575873112E+03  0.00000000000E+00 0. -1.
         -2    1    5    5    0  503 -0.13888188818E+03 -0.44821535973E+02 -0.91858125361E+02  0.17243858080E+03  0.00000000000E+00 0.  1.
         -3    1    6    6    0  502  0.13532266249E+03 -0.48021205704E+02 -0.31816423824E+03  0.34906552633E+03  0.00000000000E+00 0.  1.
<mgrwt>
<rscale>  0 0.13384613E+04</rscale>
<asrwt>0</asrwt>
<pdfrwt beam="1">  1        2 0.41370258E+00 0.13384613E+04</pdfrwt>
<pdfrwt beam="2">  1       -2 0.25623396E-01 0.13384613E+04</pdfrwt>
<totfact> 0.36377885E+01</totfact>
</mgrwt>
</event>
<event>
12    1  0.1518126E-007  0.2847360E+04  0.7818608E-02  0.8288714E-01
          2   -1    0    0  501    0  0.00000000000E+00  0.00000000000E+00  0.14400557065E+04  0.14400557065E+04  0.00000000000E+00 0. -1.
         -2   -1    0    0    0  501 -0.00000000000E+00 -0.00000000000E+00 -0.14074904487E+04  0.14074904487E+04  0.00000000000E+00 0.  1.
         23    2    1    2    0    0  0.11304381828E+04 -0.57477367537E+03 -0.85011530623E+02  0.12744235350E+04  0.93129604069E+02 0.  0.
        254    2    1    2    0    0 -0.11304381828E+04  0.57477367537E+03  0.11757678837E+03  0.15731226202E+04  0.92338248521E+03 0.  0.
        -24    2    4    4    0    0 -0.99806465722E+03  0.56016641704E+02 -0.56828795126E+02  0.10040946438E+04  0.75535539284E+02 0.  0.
         24    2    4    4    0    0 -0.13237352559E+03  0.51875703366E+03  0.17440558350E+03  0.56902797636E+03  0.82121374064E+02 0.  0.
         13    1    3    3    0    0  0.67113924121E+02 -0.37015601422E+02 -0.27624387050E+02  0.81471101131E+02  0.00000000000E+00 0.  1.
        -13    1    3    3    0    0  0.10633242587E+04 -0.53775807395E+03 -0.57387143573E+02  0.11929524339E+04  0.00000000000E+00 0. -1.
          2    1    6    6  502    0 -0.58432486992E+02  0.16103891774E+03  0.20078274129E+02  0.17248485631E+03  0.00000000000E+00 0. -1.
          1    1    5    5  503    0 -0.45902836039E+03  0.43768077639E+02  0.69310039976E+01  0.46116235653E+03  0.00000000000E+00 0. -1.
         -2    1    5    5    0  503 -0.53903629683E+03  0.12248564065E+02 -0.63759799124E+02  0.54293228732E+03  0.00000000000E+00 0.  1.
         -1    1    6    6    0  502 -0.73941038598E+02  0.35771811592E+03  0.15432730937E+03  0.39654312005E+03  0.00000000000E+00 0.  1.
<mgrwt>
<rscale>  0 0.28473599E+04</rscale>
<asrwt>0</asrwt>
<pdfrwt beam="1">  1        2 0.22154703E+00 0.28473599E+04</pdfrwt>
<pdfrwt beam="2">  1       -2 0.21653699E+00 0.28473599E+04</pdfrwt>
<totfact> 0.12373007E+00</totfact>
</mgrwt>
</event>
<event>
12    1  0.1518126E-007  0.1588728E+04  0.7818608E-02  0.8827503E-01
          1   -1    0    0  501    0  0.00000000000E+00  0.00000000000E+00  0.17438261307E+04  0.17438261307E+04  0.00000000000E+00 0. -1.
         -1   -1    0    0    0  501 -0.00000000000E+00 -0.00000000000E+00 -0.36185633161E+03  0.36185633161E+03  0.00000000000E+00 0.  1.
         23    2    1    2    0    0  0.50996512732E+03  0.16333760949E+03  0.60421503956E+03  0.81276616422E+03  0.93645170226E+02 0.  0.
        254    2    1    2    0    0 -0.50996512732E+03 -0.16333760949E+03  0.77775475949E+03  0.12929162981E+04  0.88316843361E+03 0.  0.
        -24    2    4    4    0    0  0.11196653113E+03  0.22684968463E+03  0.34942318951E+03  0.43886993983E+03  0.80703006157E+02 0.  0.
         24    2    4    4    0    0 -0.62193165846E+03 -0.39018729412E+03  0.42833156998E+03  0.85404635824E+03  0.82958639658E+02 0.  0.
         11    1    3    3    0    0  0.49869128038E+03  0.14044122998E+03  0.57571819620E+03  0.77451157101E+03  0.00000000000E+00 0. -1.
        -11    1    3    3    0    0  0.11273846946E+02  0.22896379506E+02  0.28496843363E+02  0.38254593202E+02  0.00000000000E+00 0.  1.
          4    1    6    6  502    0 -0.37719434198E+03 -0.27208783935E+03  0.23946274347E+03  0.52311544562E+03  0.00000000000E+00 0. -1.
          3    1    5    5  503    0  0.66140122000E+02  0.17299578330E+03  0.30011637554E+03  0.35266399823E+03  0.00000000000E+00 0. -1.
         -4    1    5    5    0  503  0.45826409135E+02  0.53853901335E+02  0.49306813967E+02  0.86205941598E+02  0.00000000000E+00 0.  1.
         -3    1    6    6    0  502 -0.24473731648E+03 -0.11809945477E+03  0.18886882651E+03  0.33093091261E+03  0.00000000000E+00 0.  1.
<mgrwt>
<rscale>  0 0.15887285E+04</rscale>
<asrwt>0</asrwt>
<pdfrwt beam="1">  1        1 0.26828094E+00 0.15887285E+04</pdfrwt>
<pdfrwt beam="2">  1       -1 0.55670206E-01 0.15887285E+04</pdfrwt>
<totfact> 0.13944330E+01</totfact>
</mgrwt>
</event>
<event>
12    1  0.1518126E-007  0.2463317E+04  0.7818608E-02  0.8416172E-01
          2   -1    0    0  501    0  0.00000000000E+00  0.00000000000E+00  0.20728570350E+04  0.20728570350E+04  0.00000000000E+00 0.  1.
         -2   -1    0    0    0  501 -0.00000000000E+00 -0.00000000000E+00 -0.73183187782E+03  0.73183187782E+03  0.00000000000E+00 0. -1.
         23    2    1    2    0    0 -0.29452393091E+03 -0.72346820018E+03  0.14187208005E+04  0.16220899153E+04  0.90864739642E+02 0.  0.
        254    2    1    2    0    0  0.29452393091E+03  0.72346820018E+03 -0.77695643304E+02  0.11825989976E+04  0.88450731680E+03 0.  0.
        -24    2    4    4    0    0 -0.43124424076E+02  0.29073136359E+03  0.36347421831E+03  0.47284279915E+03  0.71290697867E+02 0.  0.
         24    2    4    4    0    0  0.33764835498E+03  0.43273683659E+03 -0.44116986161E+03  0.70975619841E+03  0.88630880706E+02 0.  0.
         11    1    3    3    0    0 -0.37384620469E+02 -0.41798178718E+02  0.13217363956E+03  0.14357774405E+03  0.00000000000E+00 0. -1.
        -11    1    3    3    0    0 -0.25713931044E+03 -0.68167002146E+03  0.12865471609E+04  0.14785121712E+04  0.00000000000E+00 0.  1.
          2    1    6    6  502    0  0.28070031030E+03  0.40464387874E+03 -0.39244738310E+03  0.62971762029E+03  0.00000000000E+00 0. -1.
          1    1    5    5  503    0  0.18775484849E+00  0.17886592028E+03  0.18098502325E+03  0.25445752363E+03  0.00000000000E+00 0. -1.
         -2    1    5    5    0  503 -0.43312178925E+02  0.11186544331E+03  0.18248919506E+03  0.21838527552E+03  0.00000000000E+00 0.  1.
         -1    1    6    6    0  502  0.56948044683E+02  0.28092957850E+02 -0.48722478510E+02  0.80038578112E+02  0.00000000000E+00 0.  1.
<mgrwt>
<rscale>  0 0.24633172E+04</rscale>
<asrwt>0</asrwt>
<pdfrwt beam="1">  1        2 0.31890108E+00 0.24633172E+04</pdfrwt>
<pdfrwt beam="2">  1       -2 0.11258952E+00 0.24633172E+04</pdfrwt>
<totfact> 0.33795759E+00</totfact>
</mgrwt>
</event>
<event>
12    1  0.1518126E-007  0.1315886E+04  0.7818608E-02  0.9017062E-01
          1   -1    0    0  501    0  0.00000000000E+00  0.00000000000E+00  0.15673130861E+04  0.15673130861E+04  0.00000000000E+00 0. -1.
         -1   -1    0    0    0  501 -0.00000000000E+00 -0.00000000000E+00 -0.27619808524E+03  0.27619808524E+03  0.00000000000E+00 0.  1.
         23    2    1    2    0    0 -0.29614081105E+02  0.11608660533E+03  0.79686931666E+03  0.81099036456E+03  0.91386923772E+02 0.  0.
        254    2    1    2    0    0  0.29614081105E+02 -0.11608660533E+03  0.49424568425E+03  0.10325208068E+04  0.89859185751E+03 0.  0.
        -24    2    4    4    0    0  0.26396436234E+03  0.22066885577E+03 -0.38284875026E+02  0.35544020776E+03  0.80623080713E+02 0.  0.
         24    2    4    4    0    0 -0.23435028123E+03 -0.33675546110E+03  0.53253055927E+03  0.67708059907E+03  0.80777757948E+02 0.  0.
         11    1    3    3    0    0 -0.45927491582E+02  0.79522367667E+02  0.70252678278E+03  0.70850336765E+03  0.00000000000E+00 0. -1.
        -11    1    3    3    0    0  0.16313410477E+02  0.36564237665E+02  0.94342533878E+02  0.10248699691E+03  0.00000000000E+00 0.  1.
          4    1    6    6  502    0 -0.89949004420E+01 -0.61959506449E+02  0.73286464293E+02  0.96388767613E+02  0.00000000000E+00 0. -1.
          3    1    5    5  503    0  0.20099325212E+02  0.50772250366E+02 -0.18164657288E+02  0.57547884893E+02  0.00000000000E+00 0. -1.
         -4    1    5    5    0  503  0.24386503712E+03  0.16989660540E+03 -0.20120217737E+02  0.29789232286E+03  0.00000000000E+00 0.  1.
         -3    1    6    6    0  502 -0.22535538079E+03 -0.27479595465E+03  0.45924409498E+03  0.58069183145E+03  0.00000000000E+00 0.  1.
<mgrwt>
<rscale>  0 0.13158858E+04</rscale>
<asrwt>0</asrwt>
<pdfrwt beam="1">  1        1 0.24112508E+00 0.13158858E+04</pdfrwt>
<pdfrwt beam="2">  1       -1 0.42492014E-01 0.13158858E+04</pdfrwt>
<totfact> 0.31424039E+01</totfact>
</mgrwt>
</event>
<event>
12    1  0.1518126E-007  0.2009865E+04  0.7818608E-02  0.8602023E-01
         -2   -1    0    0    0  501 -0.00000000000E+00  0.00000000000E+00  0.96585617508E+03  0.96585617508E+03  0.00000000000E+00 0.  1.
          2   -1    0    0  501    0  0.00000000000E+00 -0.00000000000E+00 -0.10455892955E+04  0.10455892955E+04  0.00000000000E+00 0. -1.
         23    2    1    2    0    0 -0.35307355893E+03  0.50618156647E+03 -0.54376004431E+03  0.82518322405E+03  0.66118463601E+02 0.  0.
        254    2    1    2    0    0  0.35307355893E+03 -0.50618156647E+03  0.46402692387E+03  0.11862622465E+04  0.90056449811E+03 0.  0.
        -24    2    4    4    0    0  0.85596346314E+02  0.22867112183E+03  0.27730998124E+03  0.37831232417E+03  0.81253753506E+02 0.  0.
         24    2    4    4    0    0  0.26747721261E+03 -0.73485268830E+03  0.18671694263E+03  0.80794992238E+03  0.79795536503E+02 0.  0.
         11    1    3    3    0    0 -0.19947202098E+03  0.30608580239E+03 -0.36158742600E+03  0.51402633417E+03  0.00000000000E+00 0. -1.
        -11    1    3    3    0    0 -0.15360153794E+03  0.20009576408E+03 -0.18217261831E+03  0.31115688989E+03  0.00000000000E+00 0.  1.
          4    1    6    6  502    0  0.87366512280E+02 -0.27707748642E+03  0.32112406126E+02  0.29229445355E+03  0.00000000000E+00 0. -1.
          3    1    5    5  503    0  0.50696420693E+02  0.52548747300E+02  0.11530796735E+03  0.13648232577E+03  0.00000000000E+00 0. -1.
         -4    1    5    5    0  503  0.34899925620E+02  0.17612237453E+03  0.16200201389E+03  0.24182999839E+03  0.00000000000E+00 0.  1.
         -1    1    6    6    0  502  0.18011070033E+03 -0.45777520188E+03  0.15460453650E+03  0.51565546883E+03  0.00000000000E+00 0.  1.
<mgrwt>
<rscale>  0 0.20098646E+04</rscale>
<asrwt>0</asrwt>
<pdfrwt beam="1">  1        2 0.16085989E+00 0.20098646E+04</pdfrwt>
<pdfrwt beam="2">  1       -2 0.14859326E+00 0.20098646E+04</pdfrwt>
<totfact> 0.67180194E+00</totfact>
</mgrwt>
</event>
<event>
12    1  0.1518126E-007  0.2037057E+04  0.7818608E-02  0.8589489E-01
         -2   -1    0    0    0  501 -0.00000000000E+00  0.00000000000E+00  0.82626797635E+03  0.82626797635E+03  0.00000000000E+00 0.  1.
          2   -1    0    0  501    0  0.00000000000E+00 -0.00000000000E+00 -0.12555249089E+04  0.12555249089E+04  0.00000000000E+00 0. -1.
         23    2    1    2    0    0 -0.47276328550E+03  0.32486210976E+03  0.42133856134E+03  0.71751667214E+03  0.90903669128E+02 0.  0.
        254    2    1    2    0    0  0.47276328550E+03 -0.32486210976E+03 -0.85059549384E+03  0.13642762131E+04  0.89927547331E+03 0.  0.
        -24    2    4    4    0    0 -0.13854453940E+03 -0.13715458044E+03  0.86382324442E+02  0.22704447929E+03  0.77982826745E+02 0.  0.
         24    2    4    4    0    0  0.61130782490E+03 -0.18770752932E+03 -0.93697781828E+03  0.11372317338E+04  0.80232231582E+02 0.  0.
         13    1    3    3    0    0 -0.46115934238E+03  0.32985522721E+03  0.40459012639E+03  0.69653828348E+03  0.00000000000E+00 0.  1.
        -13    1    3    3    0    0 -0.11603943118E+02 -0.49931174469E+01  0.16748434950E+02  0.20978388665E+02  0.00000000000E+00 0. -1.
          2    1    6    6  502    0  0.93227646759E+02 -0.39338490942E+02 -0.20114260708E+03  0.22516051912E+03  0.00000000000E+00 0. -1.
          3    1    5    5  503    0 -0.26857056602E+02  0.62872471650E+01  0.57825278594E+01  0.28182771238E+02  0.00000000000E+00 0. -1.
         -4    1    5    5    0  503 -0.11168748280E+03 -0.14344182760E+03  0.80599796582E+02  0.19886170805E+03  0.00000000000E+00 0.  1.
         -1    1    6    6    0  502  0.51808017814E+03 -0.14836903838E+03 -0.73583521120E+03  0.91207121464E+03  0.00000000000E+00 0.  1.
<mgrwt>
<rscale>  0 0.20370567E+04</rscale>
<asrwt>0</asrwt>
<pdfrwt beam="1">  1        2 0.19315768E+00 0.20370567E+04</pdfrwt>
<pdfrwt beam="2">  1       -2 0.12711815E+00 0.20370567E+04</pdfrwt>
<totfact> 0.74752649E+00</totfact>
</mgrwt>
</event>
<event>
12    1  0.1518126E-007  0.1952211E+04  0.7818608E-02  0.8629295E-01
         -1   -1    0    0    0  501 -0.00000000000E+00  0.00000000000E+00  0.34312281620E+03  0.34312281620E+03  0.00000000000E+00 0. -1.
          1   -1    0    0  501    0  0.00000000000E+00 -0.00000000000E+00 -0.27767967683E+04  0.27767967683E+04  0.00000000000E+00 0.  1.
         23    2    1    2    0    0 -0.72107690934E+03  0.26649390530E+03 -0.99334705994E+03  0.12594743166E+04  0.92554102899E+02 0.  0.
        254    2    1    2    0    0  0.72107690934E+03 -0.26649390530E+03 -0.14403268921E+04  0.18604452679E+04  0.89204491352E+03 0.  0.
        -24    2    4    4    0    0  0.91447041797E+03 -0.20340743924E+03 -0.12760591485E+04  0.15849888370E+04  0.78942581483E+02 0.  0.
         24    2    4    4    0    0 -0.19339350863E+03 -0.63086466067E+02 -0.16426774364E+03  0.27545643089E+03  0.86668346798E+02 0.  0.
         11    1    3    3    0    0 -0.34894227446E+03  0.16395891764E+03 -0.54943615074E+03  0.67121034059E+03  0.00000000000E+00 0.  1.
        -11    1    3    3    0    0 -0.37213463489E+03  0.10253498766E+03 -0.44391090919E+03  0.58826397602E+03  0.00000000000E+00 0. -1.
          2    1    6    6  502    0 -0.10637644785E+02 -0.21120911199E+02 -0.51442306094E+02  0.56617693636E+02  0.00000000000E+00 0. -1.
          3    1    5    5  503    0  0.82365678971E+02 -0.79633794626E+00 -0.89349016753E+02  0.12152360273E+03  0.00000000000E+00 0. -1.
         -4    1    5    5    0  503  0.83210473900E+03 -0.20261110129E+03 -0.11867101317E+04  0.14634652342E+04  0.00000000000E+00 0.  1.
         -1    1    6    6    0  502 -0.18275586385E+03 -0.41965554869E+02 -0.11282543755E+03  0.21883873726E+03  0.00000000000E+00 0.  1.
<mgrwt>
<rscale>  0 0.19522114E+04</rscale>
<asrwt>0</asrwt>
<pdfrwt beam="1">  1        1 0.42719949E+00 0.19522114E+04</pdfrwt>
<pdfrwt beam="2">  1       -1 0.52788127E-01 0.19522114E+04</pdfrwt>
<totfact> 0.29209256E+00</totfact>
</mgrwt>
</event>
<event>
12    1  0.1518126E-007  0.1793926E+04  0.7818608E-02  0.8709536E-01
         -2   -1    0    0    0  501 -0.00000000000E+00  0.00000000000E+00  0.37408512155E+03  0.37408512155E+03  0.00000000000E+00 0.  1.
          2   -1    0    0  501    0  0.00000000000E+00 -0.00000000000E+00 -0.21506936252E+04  0.21506936252E+04  0.00000000000E+00 0. -1.
         23    2    1    2    0    0 -0.33809484495E+03 -0.34532440049E+03 -0.13362924985E+04  0.14241011239E+04  0.93964374410E+02 0.  0.
        254    2    1    2    0    0  0.33809484495E+03  0.34532440049E+03 -0.44031600517E+03  0.11006776229E+04  0.88546935544E+03 0.  0.
        -24    2    4    4    0    0 -0.12918248683E+03 -0.15597928244E+03 -0.33942774515E+03  0.40335269045E+03  0.80402408294E+02 0.  0.
         24    2    4    4    0    0  0.46727733178E+03  0.50130368293E+03 -0.10088826002E+03  0.69732493247E+03  0.80188110854E+02 0.  0.
         11    1    3    3    0    0 -0.30664491072E+03 -0.33962065622E+03 -0.12044158683E+04  0.12884063316E+04  0.00000000000E+00 0. -1.
        -11    1    3    3    0    0 -0.31449934238E+02 -0.57037442722E+01 -0.13187663020E+03  0.13569479229E+03  0.00000000000E+00 0.  1.
          2    1    6    6  502    0  0.10309161529E+03  0.65972862163E+02 -0.19748586946E+02  0.12397703970E+03  0.00000000000E+00 0. -1.
          1    1    5    5  503    0 -0.13033246371E+03 -0.11296654650E+03 -0.24541193891E+03  0.29995834959E+03  0.00000000000E+00 0. -1.
         -2    1    5    5    0  503  0.11499768814E+01 -0.43012735938E+02 -0.94015806241E+02  0.10339434086E+03  0.00000000000E+00 0.  1.
         -1    1    6    6    0  502  0.36418571649E+03  0.43533082077E+03 -0.81139673074E+02  0.57334789277E+03  0.00000000000E+00 0.  1.
<mgrwt>
<rscale>  0 0.17939258E+04</rscale>
<asrwt>0</asrwt>
<pdfrwt beam="1">  1        2 0.33087593E+00 0.17939258E+04</pdfrwt>
<pdfrwt beam="2">  1       -2 0.57551559E-01 0.17939258E+04</pdfrwt>
<totfact> 0.14703545E+01</totfact>
</mgrwt>
</event>
<event>
12    1  0.1518126E-007  0.3038335E+04  0.7818608E-02  0.8232868E-01
          2   -1    0    0  501    0  0.00000000000E+00  0.00000000000E+00  0.21582342462E+04  0.21582342462E+04  0.00000000000E+00 0. -1.
         -2   -1    0    0    0  501 -0.00000000000E+00 -0.00000000000E+00 -0.10693321020E+04  0.10693321020E+04  0.00000000000E+00 0.  1.
         23    2    1    2    0    0  0.21869376720E+03  0.59379019363E+03  0.18348278222E+04  0.19431903030E+04  0.94771612410E+02 0.  0.
        254    2    1    2    0    0 -0.21869376720E+03 -0.59379019363E+03 -0.74592567792E+03  0.12843760452E+04  0.83234785440E+03 0.  0.
        -24    2    4    4    0    0 -0.39383235735E+03 -0.68655708522E+03 -0.70705091269E+03  0.10645417967E+04  0.82847371356E+02 0.  0.
         24    2    4    4    0    0  0.17513859015E+03  0.92766891591E+02 -0.38874765230E+02  0.21983424848E+03  0.86813751789E+02 0.  0.
         13    1    3    3    0    0  0.16190872252E+03  0.51369448452E+03  0.14771403446E+04  0.15722722587E+04  0.00000000000E+00 0. -1.
        -13    1    3    3    0    0  0.56785044682E+02  0.80095709103E+02  0.35768747759E+03  0.37091804424E+03  0.00000000000E+00 0.  1.
          2    1    6    6  502    0  0.13886381539E+03  0.28272398785E+02 -0.33656440589E+02  0.14565453564E+03  0.00000000000E+00 0. -1.
          1    1    5    5  503    0 -0.23852091309E+02 -0.13313209709E+02 -0.19225559224E+02  0.33403382165E+02  0.00000000000E+00 0. -1.
         -2    1    5    5    0  503 -0.36998026604E+03 -0.67324387551E+03 -0.68782535346E+03  0.10311384146E+04  0.00000000000E+00 0.  1.
         -1    1    6    6    0  502  0.36274774756E+02  0.64494492806E+02 -0.52183246410E+01  0.74179712846E+02  0.00000000000E+00 0.  1.
<mgrwt>
<rscale>  0 0.30383345E+04</rscale>
<asrwt>0</asrwt>
<pdfrwt beam="1">  1        2 0.33203604E+00 0.30383345E+04</pdfrwt>
<pdfrwt beam="2">  1       -2 0.16451263E+00 0.30383345E+04</pdfrwt>
<totfact> 0.10856555E+00</totfact>
</mgrwt>
</event>
<event>
12    1  0.1518126E-007  0.2055915E+04  0.7818608E-02  0.8580916E-01
         -2   -1    0    0    0  501 -0.00000000000E+00  0.00000000000E+00  0.59700881385E+03  0.59700881385E+03  0.00000000000E+00 0.  1.
          2   -1    0    0  501    0  0.00000000000E+00 -0.00000000000E+00 -0.17699842937E+04  0.17699842937E+04  0.00000000000E+00 0. -1.
         23    2    1    2    0    0 -0.43761811718E+03  0.52798070050E+03 -0.10152619687E+04  0.12281957125E+04  0.86224164814E+02 0.  0.
        254    2    1    2    0    0  0.43761811718E+03 -0.52798070050E+03 -0.15771351119E+03  0.11387973951E+04  0.89538411802E+03 0.  0.
        -24    2    4    4    0    0  0.33895717234E+03  0.57111254282E+02 -0.36221195778E+03  0.50588499052E+03  0.81046043883E+02 0.  0.
         24    2    4    4    0    0  0.98660944846E+02 -0.58509195478E+03  0.20449844659E+03  0.63291240455E+03  0.81804153830E+02 0.  0.
         11    1    3    3    0    0 -0.27077949389E+03  0.25954547581E+03 -0.54570131957E+03  0.66217468881E+03  0.00000000000E+00 0. -1.
        -11    1    3    3    0    0 -0.16683862329E+03  0.26843522469E+03 -0.46956064912E+03  0.56602102371E+03  0.00000000000E+00 0.  1.
          2    1    6    6  502    0  0.52807218646E+02 -0.11925823807E+03  0.34490295311E+02  0.13491000763E+03  0.00000000000E+00 0. -1.
          3    1    5    5  503    0  0.21438934304E+03  0.75356230126E+02 -0.23538273349E+03  0.32717943556E+03  0.00000000000E+00 0. -1.
         -4    1    5    5    0  503  0.12456782929E+03 -0.18244975844E+02 -0.12682922429E+03  0.17870555496E+03  0.00000000000E+00 0.  1.
         -3    1    6    6    0  502  0.45853726200E+02 -0.46583371671E+03  0.17000815127E+03  0.49800239691E+03  0.00000000000E+00 0.  1.
<mgrwt>
<rscale>  0 0.20559146E+04</rscale>
<asrwt>0</asrwt>
<pdfrwt beam="1">  1        2 0.27230528E+00 0.20559146E+04</pdfrwt>
<pdfrwt beam="2">  1       -2 0.91847510E-01 0.20559146E+04</pdfrwt>
<totfact> 0.83609194E+00</totfact>
</mgrwt>
</event>
<event>
12    1  0.1518126E-007  0.1952990E+04  0.7818608E-02  0.8628920E-01
          2   -1    0    0  501    0  0.00000000000E+00  0.00000000000E+00  0.25920424749E+04  0.25920424749E+04  0.00000000000E+00 0.  1.
         -2   -1    0    0    0  501 -0.00000000000E+00 -0.00000000000E+00 -0.36787312710E+03  0.36787312710E+03  0.00000000000E+00 0. -1.
         23    2    1    2    0    0 -0.14112349215E+03 -0.77108352207E+02  0.20132367601E+04  0.20217013118E+04  0.91062636637E+02 0.  0.
        254    2    1    2    0    0  0.14112349215E+03  0.77108352207E+02  0.21093258767E+03  0.93821429020E+03  0.89993997566E+03 0.  0.
        -24    2    4    4    0    0 -0.14940189059E+02 -0.35821379056E+03 -0.92231548185E+02  0.37845650919E+03  0.78627869586E+02 0.  0.
         24    2    4    4    0    0  0.15606368120E+03  0.43532214276E+03  0.30316413586E+03  0.55975778101E+03  0.86942737239E+02 0.  0.
         11    1    3    3    0    0  0.98129248996E+01 -0.62082630921E+01  0.33468427355E+03  0.33488565061E+03  0.00000000000E+00 0. -1.
        -11    1    3    3    0    0 -0.15093641705E+03 -0.70900089115E+02  0.16785524866E+04  0.16868156612E+04  0.00000000000E+00 0.  1.
          2    1    6    6  502    0  0.15545189689E+03  0.41990231952E+03  0.30814628876E+03  0.54354152138E+03  0.00000000000E+00 0. -1.
          3    1    5    5  503    0  0.20435223155E+02 -0.27350568039E+03 -0.80968845828E+02  0.28597012003E+03  0.00000000000E+00 0. -1.
         -4    1    5    5    0  503 -0.35375412214E+02 -0.84708110163E+02 -0.11262702357E+02  0.92486389167E+02  0.00000000000E+00 0.  1.
         -1    1    6    6    0  502  0.61178431387E+00  0.15419823246E+02 -0.49821529011E+01  0.16216259634E+02  0.00000000000E+00 0.  1.
<mgrwt>
<rscale>  0 0.19529903E+04</rscale>
<asrwt>0</asrwt>
<pdfrwt beam="1">  1        2 0.39877575E+00 0.19529903E+04</pdfrwt>
<pdfrwt beam="2">  1       -2 0.56595867E-01 0.19529903E+04</pdfrwt>
<totfact> 0.84100617E+00</totfact>
</mgrwt>
</event>
<event>
12    1  0.1518126E-007  0.1921869E+04  0.7818608E-02  0.8644047E-01
          1   -1    0    0  501    0  0.00000000000E+00  0.00000000000E+00  0.17234518043E+04  0.17234518043E+04  0.00000000000E+00 0. -1.
         -1   -1    0    0    0  501 -0.00000000000E+00 -0.00000000000E+00 -0.53578253981E+03  0.53578253981E+03  0.00000000000E+00 0.  1.
         23    2    1    2    0    0 -0.55392939291E+03  0.24560650737E+03 -0.46128854445E+02  0.61587132329E+03  0.10004642344E+03 0.  0.
        254    2    1    2    0    0  0.55392939291E+03 -0.24560650737E+03  0.12337981190E+04  0.16433630209E+04  0.90067968286E+03 0.  0.
        -24    2    4    4    0    0 -0.22691033247E+03 -0.95013126237E+02  0.15870653288E+03  0.30371064939E+03  0.80849253777E+02 0.  0.
         24    2    4    4    0    0  0.78083972539E+03 -0.15059338113E+03  0.10750915861E+04  0.13396523715E+04  0.80358662731E+02 0.  0.
         11    1    3    3    0    0 -0.38847086325E+03  0.12285619899E+03 -0.16868597698E+02  0.40778401981E+03  0.00000000000E+00 0.  1.
        -11    1    3    3    0    0 -0.16545852967E+03  0.12275030837E+03 -0.29260256747E+02  0.20808730348E+03  0.00000000000E+00 0. -1.
          4    1    6    6  502    0  0.77475759507E+03 -0.15677607746E+03  0.10605757606E+04  0.13227429885E+04  0.00000000000E+00 0. -1.
          1    1    5    5  503    0 -0.17335985101E+03 -0.98125396728E+02  0.95810728600E+02  0.22104734140E+03  0.00000000000E+00 0. -1.
         -2    1    5    5    0  503 -0.53550481463E+02  0.31122704909E+01  0.62895804280E+02  0.82663307994E+02  0.00000000000E+00 0.  1.
         -3    1    6    6    0  502  0.60821303202E+01  0.61826963332E+01  0.14515825481E+02  0.16909382974E+02  0.00000000000E+00 0.  1.
<mgrwt>
<rscale>  0 0.19218693E+04</rscale>
<asrwt>0</asrwt>
<pdfrwt beam="1">  1        1 0.26514643E+00 0.19218693E+04</pdfrwt>
<pdfrwt beam="2">  1       -1 0.82428084E-01 0.19218693E+04</pdfrwt>
<totfact> 0.62758908E+00</totfact>
</mgrwt>
</event>
<event>
12    1  0.1518126E-007  0.2229324E+04  0.7818608E-02  0.8506321E-01
         -1   -1    0    0    0  501 -0.00000000000E+00  0.00000000000E+00  0.68045740933E+03  0.68045740933E+03  0.00000000000E+00 0.  1.
          1   -1    0    0  501    0  0.00000000000E+00 -0.00000000000E+00 -0.18259353473E+04  0.18259353473E+04  0.00000000000E+00 0. -1.
         23    2    1    2    0    0 -0.93640997125E+03  0.18014068078E+03 -0.67121744201E+03  0.11696911689E+04  0.91270351194E+02 0.  0.
        254    2    1    2    0    0  0.93640997125E+03 -0.18014068078E+03 -0.47426049596E+03  0.13367015877E+04  0.80779565330E+03 0.  0.
        -24    2    4    4    0    0  0.20411991164E+03 -0.41690699596E+03 -0.11823191878E+03  0.48452540130E+03  0.72867662816E+02 0.  0.
         24    2    4    4    0    0  0.73229005962E+03  0.23676631518E+03 -0.35602857718E+03  0.85217618643E+03  0.84503760507E+02 0.  0.
         11    1    3    3    0    0 -0.11856494488E+03  0.43966738809E+02 -0.11804806972E+03  0.17299152303E+03  0.00000000000E+00 0.  1.
        -11    1    3    3    0    0 -0.81784502637E+03  0.13617394197E+03 -0.55316937230E+03  0.99669964587E+03  0.00000000000E+00 0. -1.
          4    1    6    6  502    0  0.30152095785E+03  0.13167950624E+03 -0.12291555603E+03  0.35123014435E+03  0.00000000000E+00 0. -1.
          1    1    5    5  503    0  0.25796004293E+02 -0.27843541252E+02 -0.27914424763E+02  0.47115939307E+02  0.00000000000E+00 0. -1.
         -2    1    5    5    0  503  0.17832390734E+03 -0.38906345470E+03 -0.90317494017E+02  0.43740946199E+03  0.00000000000E+00 0.  1.
         -3    1    6    6    0  502  0.43076910177E+03  0.10508680894E+03 -0.23311302115E+03  0.50094604208E+03  0.00000000000E+00 0.  1.
<mgrwt>
<rscale>  0 0.22293239E+04</rscale>
<asrwt>0</asrwt>
<pdfrwt beam="1">  1        1 0.28091313E+00 0.22293239E+04</pdfrwt>
<pdfrwt beam="2">  1       -1 0.10468575E+00 0.22293239E+04</pdfrwt>
<totfact> 0.30495424E+00</totfact>
</mgrwt>
</event>
<event>
12    1  0.1518126E-007  0.2121584E+04  0.7818608E-02  0.8551795E-01
          2   -1    0    0  501    0  0.00000000000E+00  0.00000000000E+00  0.21907618253E+04  0.21907618253E+04  0.00000000000E+00 0.  1.
         -2   -1    0    0    0  501 -0.00000000000E+00 -0.00000000000E+00 -0.51364744049E+03  0.51364744049E+03  0.00000000000E+00 0. -1.
         23    2    1    2    0    0 -0.26192085259E+03 -0.62001474594E+03  0.13919017997E+04  0.15488297899E+04  0.91990651025E+02 0.  0.
        254    2    1    2    0    0  0.26192085259E+03  0.62001474594E+03  0.28521258514E+03  0.11555794759E+04  0.89498429497E+03 0.  0.
        -24    2    4    4    0    0 -0.22225365266E+03  0.49753965041E+03 -0.45088534376E+02  0.55250674370E+03  0.79299029350E+02 0.  0.
         24    2    4    4    0    0  0.48417450525E+03  0.12247509553E+03  0.33030111951E+03  0.60307273222E+03  0.71922112287E+02 0.  0.
         11    1    3    3    0    0 -0.11802393021E+03 -0.36033501823E+03  0.85518547818E+03  0.93547483961E+03  0.00000000000E+00 0.  1.
        -11    1    3    3    0    0 -0.14389692239E+03 -0.25967972771E+03  0.53671632153E+03  0.61335495030E+03  0.00000000000E+00 0. -1.
          2    1    6    6  502    0  0.46363716181E+03  0.13153078300E+03  0.31199090920E+03  0.57410634216E+03  0.00000000000E+00 0. -1.
          3    1    5    5  503    0 -0.17502061002E+03  0.39287747417E+03 -0.67930810913E+02  0.43543026848E+03  0.00000000000E+00 0. -1.
         -4    1    5    5    0  503 -0.47233042638E+02  0.10466217624E+03  0.22842276537E+02  0.11707647522E+03  0.00000000000E+00 0.  1.
         -1    1    6    6    0  502  0.20537343444E+02 -0.90556874739E+01  0.18310210311E+02  0.28966390059E+02  0.00000000000E+00 0.  1.
<mgrwt>
<rscale>  0 0.21215836E+04</rscale>
<asrwt>0</asrwt>
<pdfrwt beam="1">  1        2 0.33704028E+00 0.21215836E+04</pdfrwt>
<pdfrwt beam="2">  1       -2 0.79022684E-01 0.21215836E+04</pdfrwt>
<totfact> 0.68311411E+00</totfact>
</mgrwt>
</event>
<event>
12    1  0.1518126E-007  0.1122612E+04  0.7818608E-02  0.9183428E-01
          1   -1    0    0  501    0  0.00000000000E+00  0.00000000000E+00  0.14061380608E+04  0.14061380608E+04  0.00000000000E+00 0. -1.
         -1   -1    0    0    0  501 -0.00000000000E+00 -0.00000000000E+00 -0.22406384776E+03  0.22406384776E+03  0.00000000000E+00 0.  1.
         23    2    1    2    0    0 -0.49214971823E+01  0.12210368630E+02 -0.24136093701E+02  0.94766245128E+02  0.90690550555E+02 0.  0.
        254    2    1    2    0    0  0.49214971823E+01 -0.12210368630E+02  0.12062103067E+04  0.15354356634E+04  0.94997160916E+03 0.  0.
        -24    2    4    4    0    0 -0.33324110190E+03  0.15178367407E+03  0.13734884939E+03  0.39960388916E+03  0.82040514904E+02 0.  0.
         24    2    4    4    0    0  0.33816259908E+03 -0.16399404270E+03  0.10688614573E+04  0.11358317742E+04  0.80006343486E+02 0.  0.
         11    1    3    3    0    0  0.12418834449E+02 -0.32039890546E+02 -0.31568436283E+02  0.46662063870E+02  0.00000000000E+00 0.  1.
        -11    1    3    3    0    0 -0.17340331631E+02  0.44250259176E+02  0.74323425813E+01  0.48104181258E+02  0.00000000000E+00 0. -1.
          4    1    6    6  502    0  0.22450270447E+03 -0.77554661761E+02  0.58625849863E+03  0.63254661258E+03  0.00000000000E+00 0. -1.
          3    1    5    5  503    0 -0.15911164049E+03  0.74827977598E+02  0.10966525303E+03  0.20722501802E+03  0.00000000000E+00 0. -1.
         -4    1    5    5    0  503 -0.17412946141E+03  0.76955696475E+02  0.27683596363E+02  0.19237887113E+03  0.00000000000E+00 0.  1.
         -1    1    6    6    0  502  0.11365989462E+03 -0.86439380942E+02  0.48260295868E+03  0.50328516166E+03  0.00000000000E+00 0.  1.
<mgrwt>
<rscale>  0 0.11226125E+04</rscale>
<asrwt>0</asrwt>
<pdfrwt beam="1">  1        1 0.21632893E+00 0.11226125E+04</pdfrwt>
<pdfrwt beam="2">  1       -1 0.34471362E-01 0.11226125E+04</pdfrwt>
<totfact> 0.60329281E+01</totfact>
</mgrwt>
</event>
<event>
12    1  0.1518126E-007  0.1413248E+04  0.7818608E-02  0.8944284E-01
         -2   -1    0    0    0  501 -0.00000000000E+00  0.00000000000E+00  0.39096926680E+03  0.39096926680E+03  0.00000000000E+00 0.  1.
          2   -1    0    0  501    0  0.00000000000E+00 -0.00000000000E+00 -0.12771279261E+04  0.12771279261E+04  0.00000000000E+00 0. -1.
         23    2    1    2    0    0 -0.44876915611E+02 -0.40301170418E+03 -0.19545911532E+03  0.45940449680E+03  0.91737967368E+02 0.  0.
        254    2    1    2    0    0  0.44876915611E+02  0.40301170418E+03 -0.69069954401E+03  0.12086926961E+04  0.90522914355E+03 0.  0.
        -24    2    4    4    0    0 -0.17938179756E+03  0.51180798072E+02 -0.75291172286E+03  0.77969600078E+03  0.79072674325E+02 0.  0.
         24    2    4    4    0    0  0.22425871317E+03  0.35183090611E+03  0.62212178852E+02  0.42899669535E+03  0.78043913911E+02 0.  0.
         13    1    3    3    0    0 -0.47124823355E+02 -0.26181911315E+03 -0.17058233221E+03  0.31601950739E+03  0.00000000000E+00 0. -1.
        -13    1    3    3    0    0  0.22479077439E+01 -0.14119259103E+03 -0.24876783109E+02  0.14338498941E+03  0.00000000000E+00 0.  1.
          2    1    6    6  502    0  0.54581009790E+02  0.15224213216E+03  0.36284026626E+02  0.16575066825E+03  0.00000000000E+00 0. -1.
          1    1    5    5  503    0 -0.76173881130E+02  0.16995656901E+02 -0.47327925639E+03  0.47967131147E+03  0.00000000000E+00 0. -1.
         -2    1    5    5    0  503 -0.10320791643E+03  0.34185141171E+02 -0.27963246648E+03  0.30002468931E+03  0.00000000000E+00 0.  1.
         -1    1    6    6    0  502  0.16967770338E+03  0.19958877394E+03  0.25928152225E+02  0.26324602711E+03  0.00000000000E+00 0.  1.
<mgrwt>
<rscale>  0 0.14132484E+04</rscale>
<asrwt>0</asrwt>
<pdfrwt beam="1">  1        2 0.19648122E+00 0.14132484E+04</pdfrwt>
<pdfrwt beam="2">  1       -2 0.60149119E-01 0.14132484E+04</pdfrwt>
<totfact> 0.42708939E+01</totfact>
</mgrwt>
</event>
<event>
12    1  0.1518126E-007  0.1374933E+04  0.7818608E-02  0.8972166E-01
          2   -1    0    0  501    0  0.00000000000E+00  0.00000000000E+00  0.12573898095E+04  0.12573898095E+04  0.00000000000E+00 0. -1.
         -2   -1    0    0    0  501 -0.00000000000E+00 -0.00000000000E+00 -0.37586612525E+03  0.37586612525E+03  0.00000000000E+00 0.  1.
         23    2    1    2    0    0 -0.30539220883E+03  0.88601233581E+02  0.50006902981E+03  0.60163264991E+03  0.10381825976E+03 0.  0.
        254    2    1    2    0    0  0.30539220883E+03 -0.88601233581E+02  0.38145465440E+03  0.10316232848E+04  0.90422583936E+03 0.  0.
        -24    2    4    4    0    0  0.57874509024E+02  0.17064961752E+03 -0.23942719243E+03  0.31010993877E+03  0.79825076837E+02 0.  0.
         24    2    4    4    0    0  0.24751769981E+03 -0.25925085110E+03  0.62088184683E+03  0.72151334603E+03  0.81309441435E+02 0.  0.
         11    1    3    3    0    0 -0.20999624181E+03  0.97821916286E+02  0.29348646525E+03  0.37390086141E+03  0.00000000000E+00 0.  1.
        -11    1    3    3    0    0 -0.95395967024E+02 -0.92206827056E+01  0.20658256456E+03  0.22773178850E+03  0.00000000000E+00 0. -1.
          4    1    6    6  502    0  0.88227287544E+01 -0.42777526968E+02  0.98331295765E+02  0.10759554397E+03  0.00000000000E+00 0. -1.
          1    1    5    5  503    0  0.66688362396E+02  0.12503028229E+03 -0.13457129212E+03  0.19542093498E+03  0.00000000000E+00 0. -1.
         -2    1    5    5    0  503 -0.88138533713E+01  0.45619335237E+02 -0.10485590031E+03  0.11468900378E+03  0.00000000000E+00 0.  1.
         -3    1    6    6    0  502  0.23869497105E+03 -0.21647332414E+03  0.52255055106E+03  0.61391780206E+03  0.00000000000E+00 0.  1.
<mgrwt>
<rscale>  0 0.13749331E+04</rscale>
<asrwt>0</asrwt>
<pdfrwt beam="1">  1        2 0.19344458E+00 0.13749331E+04</pdfrwt>
<pdfrwt beam="2">  1       -2 0.57825559E-01 0.13749331E+04</pdfrwt>
<totfact> 0.47798015E+01</totfact>
</mgrwt>
</event>
<event>
12    1  0.1518126E-007  0.1768286E+04  0.7818608E-02  0.8723349E-01
         -2   -1    0    0    0  501 -0.00000000000E+00  0.00000000000E+00  0.21846818163E+03  0.21846818163E+03  0.00000000000E+00 0.  1.
          2   -1    0    0  501    0  0.00000000000E+00 -0.00000000000E+00 -0.35781339592E+04  0.35781339592E+04  0.00000000000E+00 0. -1.
         23    2    1    2    0    0  0.95563240841E+02  0.57341527738E+03 -0.18597458955E+04  0.19508672976E+04  0.96389852433E+02 0.  0.
        254    2    1    2    0    0 -0.95563240841E+02 -0.57341527738E+03 -0.14999198821E+04  0.18457348433E+04  0.90500831245E+03 0.  0.
        -24    2    4    4    0    0  0.59380456681E+02  0.21454005459E+03 -0.55602167816E+03  0.60411092686E+03  0.78971081458E+02 0.  0.
         24    2    4    4    0    0 -0.15494369752E+03 -0.78795533197E+03 -0.94389820394E+03  0.12416239164E+04  0.76190391912E+02 0.  0.
         11    1    3    3    0    0  0.30122239946E+02  0.18415158702E+03 -0.45660095956E+03  0.49325813993E+03  0.00000000000E+00 0.  1.
        -11    1    3    3    0    0  0.65441000896E+02  0.38926369036E+03 -0.14031449360E+04  0.14576091577E+04  0.00000000000E+00 0. -1.
          2    1    6    6  502    0 -0.14504563973E+03 -0.68430811158E+03 -0.85520971741E+03  0.11048527006E+04  0.00000000000E+00 0. -1.
          3    1    5    5  503    0  0.32317836300E+02  0.12408598188E+03 -0.41534588121E+03  0.43468836478E+03  0.00000000000E+00 0. -1.
         -4    1    5    5    0  503  0.27062620381E+02  0.90454072710E+02 -0.14067579695E+03  0.16942256207E+03  0.00000000000E+00 0.  1.
         -1    1    6    6    0  502 -0.98980577946E+01 -0.10364722039E+03 -0.88688486531E+02  0.13677121586E+03  0.00000000000E+00 0.  1.
<mgrwt>
<rscale>  0 0.17682855E+04</rscale>
<asrwt>0</asrwt>
<pdfrwt beam="1">  1        2 0.55048214E+00 0.17682855E+04</pdfrwt>
<pdfrwt beam="2">  1       -2 0.33610490E-01 0.17682855E+04</pdfrwt>
<totfact> 0.56616166E+00</totfact>
</mgrwt>
</event>
<event>
12    1  0.1518126E-007  0.2784483E+04  0.7818608E-02  0.8308102E-01
         -1   -1    0    0    0  501 -0.00000000000E+00  0.00000000000E+00  0.10749201867E+04  0.10749201867E+04  0.00000000000E+00 0.  1.
          1   -1    0    0  501    0  0.00000000000E+00 -0.00000000000E+00 -0.18032377852E+04  0.18032377852E+04  0.00000000000E+00 0. -1.
         23    2    1    2    0    0  0.13402885520E+03 -0.15783539250E+03 -0.15957377206E+04  0.16117019294E+04  0.91260566347E+02 0.  0.
        254    2    1    2    0    0 -0.13402885520E+03  0.15783539250E+03  0.86742012219E+03  0.12664560426E+04  0.89923161321E+03 0.  0.
        -24    2    4    4    0    0 -0.14233200909E+03 -0.33004283773E+03  0.60122193101E+03  0.70488258668E+03  0.78771664566E+02 0.  0.
         24    2    4    4    0    0  0.83031538856E+01  0.48787823023E+03  0.26619819118E+03  0.56157345587E+03  0.80057226139E+02 0.  0.
         11    1    3    3    0    0  0.96763463781E+01 -0.60002548137E+02 -0.64835429368E+03  0.65119676565E+03  0.00000000000E+00 0.  1.
        -11    1    3    3    0    0  0.12435250882E+03 -0.97832844361E+02 -0.94738342694E+03  0.96050516372E+03  0.00000000000E+00 0. -1.
          2    1    6    6  502    0  0.69893923092E+01  0.32563090244E+03  0.13364342836E+03  0.35205809489E+03  0.00000000000E+00 0. -1.
          1    1    5    5  503    0 -0.10317969836E+02 -0.20905129937E+02  0.11289667439E+02  0.25902539453E+02  0.00000000000E+00 0. -1.
         -2    1    5    5    0  503 -0.13201403925E+03 -0.30913770779E+03  0.58993226357E+03  0.67898004723E+03  0.00000000000E+00 0.  1.
         -1    1    6    6    0  502  0.13137615764E+01  0.16224732778E+03  0.13255476282E+03  0.20951536098E+03  0.00000000000E+00 0.  1.
<mgrwt>
<rscale>  0 0.27844832E+04</rscale>
<asrwt>0</asrwt>
<pdfrwt beam="1">  1        1 0.27742120E+00 0.27844832E+04</pdfrwt>
<pdfrwt beam="2">  1       -1 0.16537234E+00 0.27844832E+04</pdfrwt>
<totfact> 0.93564532E-01</totfact>
</mgrwt>
</event>
<event>
12    1  0.1518126E-007  0.1431328E+04  0.7818608E-02  0.8931449E-01
         -2   -1    0    0    0  501 -0.00000000000E+00  0.00000000000E+00  0.34271689454E+03  0.34271689454E+03  0.00000000000E+00 0.  1.
          2   -1    0    0  501    0  0.00000000000E+00 -0.00000000000E+00 -0.14944551757E+04  0.14944551757E+04  0.00000000000E+00 0. -1.
         23    2    1    2    0    0  0.10812243077E+03 -0.11520814346E+03  0.15019937106E+03  0.24274222477E+03  0.10677340617E+03 0.  0.
        254    2    1    2    0    0 -0.10812243077E+03  0.11520814346E+03 -0.13019376522E+04  0.15944298455E+04  0.90675327708E+03 0.  0.
        -24    2    4    4    0    0  0.27789444682E+03  0.90566096644E+02 -0.84498137766E+02  0.31459434220E+03  0.80013270281E+02 0.  0.
         24    2    4    4    0    0 -0.38601687759E+03  0.24642046813E+02 -0.12174395144E+04  0.12798355033E+04  0.78763467556E+02 0.  0.
         13    1    3    3    0    0  0.12758338111E+03 -0.84343184498E+02  0.10961426998E+03  0.18816636280E+03  0.00000000000E+00 0.  1.
        -13    1    3    3    0    0 -0.19460950340E+02 -0.30864958959E+02  0.40585101085E+02  0.54575861970E+02  0.00000000000E+00 0. -1.
          2    1    6    6  502    0 -0.32507840732E+03  0.15130304659E+01 -0.93261733766E+03  0.98765042331E+03  0.00000000000E+00 0. -1.
          3    1    5    5  503    0  0.14129890214E+03  0.46882551260E+02 -0.84501635844E+02  0.17118376038E+03  0.00000000000E+00 0. -1.
         -4    1    5    5    0  503  0.13659554468E+03  0.43683545384E+02  0.34980772845E-02  0.14341058181E+03  0.00000000000E+00 0.  1.
         -1    1    6    6    0  502 -0.60938470274E+02  0.23129016347E+02 -0.28482217679E+03  0.29218507995E+03  0.00000000000E+00 0.  1.
<mgrwt>
<rscale>  0 0.14313281E+04</rscale>
<asrwt>0</asrwt>
<pdfrwt beam="1">  1        2 0.22991618E+00 0.14313281E+04</pdfrwt>
<pdfrwt beam="2">  1       -2 0.52725676E-01 0.14313281E+04</pdfrwt>
<totfact> 0.42125488E+01</totfact>
</mgrwt>
</event>
<event>
12    1  0.1518126E-007  0.1730792E+04  0.7818608E-02  0.8743995E-01
         -2   -1    0    0    0  501 -0.00000000000E+00  0.00000000000E+00  0.42249042982E+03  0.42249042982E+03  0.00000000000E+00 0.  1.
          2   -1    0    0  501    0  0.00000000000E+00 -0.00000000000E+00 -0.17726095020E+04  0.17726095020E+04  0.00000000000E+00 0. -1.
         23    2    1    2    0    0 -0.12117521598E+03  0.46671327308E+03  0.61318467787E+01  0.49122945287E+03  0.93616577473E+02 0.  0.
        254    2    1    2    0    0  0.12117521598E+03 -0.46671327308E+03 -0.13562509189E+04  0.17038704789E+04  0.91173095903E+03 0.  0.
        -24    2    4    4    0    0  0.25547551951E+03 -0.23497452079E+03 -0.40004761665E+02  0.35831323904E+03  0.79418069893E+02 0.  0.
         24    2    4    4    0    0 -0.13430030353E+03 -0.23173875229E+03 -0.13162461573E+04  0.13455572399E+04  0.79252245844E+02 0.  0.
         13    1    3    3    0    0 -0.13164734820E+02  0.75667125557E+02 -0.33131387042E+02  0.83645160890E+02  0.00000000000E+00 0.  1.
        -13    1    3    3    0    0 -0.10801048116E+03  0.39104614753E+03  0.39263233821E+02  0.40758429198E+03  0.00000000000E+00 0. -1.
          2    1    6    6  502    0 -0.56951298853E+02 -0.17091047867E+03 -0.80247481787E+03  0.82244736942E+03  0.00000000000E+00 0. -1.
          1    1    5    5  503    0  0.17888789002E+03 -0.14404716742E+03 -0.60888668181E+02  0.23760869839E+03  0.00000000000E+00 0. -1.
         -2    1    5    5    0  503  0.76587629485E+02 -0.90927353375E+02  0.20883906517E+02  0.12070454065E+03  0.00000000000E+00 0.  1.
         -3    1    6    6    0  502 -0.77349004678E+02 -0.60828273624E+02 -0.51377133941E+03  0.52310987048E+03  0.00000000000E+00 0.  1.
<mgrwt>
<rscale>  0 0.17307924E+04</rscale>
<asrwt>0</asrwt>
<pdfrwt beam="1">  1        2 0.27270915E+00 0.17307924E+04</pdfrwt>
<pdfrwt beam="2">  1       -2 0.64998530E-01 0.17307924E+04</pdfrwt>
<totfact> 0.18518439E+01</totfact>
</mgrwt>
</event>
<event>
12    1  0.1518126E-007  0.1727262E+04  0.7818608E-02  0.8745967E-01
         -2   -1    0    0    0  501 -0.00000000000E+00  0.00000000000E+00  0.54946729948E+03  0.54946729948E+03  0.00000000000E+00 0. -1.
          2   -1    0    0  501    0  0.00000000000E+00 -0.00000000000E+00 -0.13574209507E+04  0.13574209507E+04  0.00000000000E+00 0.  1.
         23    2    1    2    0    0 -0.33505518805E+03 -0.24228413653E+03 -0.84311303222E+03  0.94283175275E+03  0.84430723331E+02 0.  0.
        254    2    1    2    0    0  0.33505518805E+03  0.24228413653E+03  0.35159381043E+02  0.96405649738E+03  0.87017536521E+03 0.  0.
        -24    2    4    4    0    0  0.33742181110E+03  0.37142784618E+03 -0.30508090729E+03  0.59186444491E+03  0.73600527372E+02 0.  0.
         24    2    4    4    0    0 -0.23666230563E+01 -0.12914370964E+03  0.34024028833E+03  0.37219205248E+03  0.77972889365E+02 0.  0.
         11    1    3    3    0    0 -0.32004402443E+03 -0.20569947778E+03 -0.78760348888E+03  0.87467691660E+03  0.00000000000E+00 0.  1.
        -11    1    3    3    0    0 -0.15011163618E+02 -0.36584658754E+02 -0.55509543343E+02  0.68154836156E+02  0.00000000000E+00 0. -1.
          2    1    6    6  502    0  0.12443487527E+02 -0.12932550605E+03  0.26065615130E+03  0.29124140521E+03  0.00000000000E+00 0. -1.
          1    1    5    5  503    0  0.31683635210E+03  0.34048372071E+03 -0.25793777185E+03  0.53183299280E+03  0.00000000000E+00 0. -1.
         -2    1    5    5    0  503  0.20585459002E+02  0.30944125462E+02 -0.47143135441E+02  0.60031452108E+02  0.00000000000E+00 0.  1.
         -1    1    6    6    0  502 -0.14810110584E+02  0.18179641230E+00  0.79584137031E+02  0.80950647264E+02  0.00000000000E+00 0.  1.
<mgrwt>
<rscale>  0 0.17272619E+04</rscale>
<asrwt>0</asrwt>
<pdfrwt beam="1">  1        2 0.20883399E+00 0.17272619E+04</pdfrwt>
<pdfrwt beam="2">  1       -2 0.84533432E-01 0.17272619E+04</pdfrwt>
<totfact> 0.17738284E+01</totfact>
</mgrwt>
</event>
<event>
12    1  0.1518126E-007  0.1795721E+04  0.7818608E-02  0.8708578E-01
          3   -1    0    0  501    0  0.00000000000E+00  0.00000000000E+00  0.20074212823E+04  0.20074212823E+04  0.00000000000E+00 0. -1.
         -3   -1    0    0    0  501 -0.00000000000E+00 -0.00000000000E+00 -0.40158678034E+03  0.40158678034E+03  0.00000000000E+00 0.  1.
         23    2    1    2    0    0 -0.55786913155E+03 -0.94776020702E+02  0.23377852497E+03  0.61855471473E+03  0.88074254756E+02 0.  0.
        254    2    1    2    0    0  0.55786913155E+03  0.94776020702E+02  0.13720559770E+04  0.17904533479E+04  0.10014914503E+04 0.  0.
        -24    2    4    4    0    0  0.69291619458E+03 -0.90216338522E+02  0.44513957275E+03  0.83225866403E+03  0.78951910523E+02 0.  0.
         24    2    4    4    0    0 -0.13504706304E+03  0.18499235922E+03  0.92691640423E+03  0.95819468385E+03  0.80642107699E+02 0.  0.
         13    1    3    3    0    0 -0.40485280067E+03 -0.28385408193E+02  0.16276976007E+03  0.43727052999E+03  0.00000000000E+00 0.  1.
        -13    1    3    3    0    0 -0.15301633088E+03 -0.66390612509E+02  0.71008764894E+02  0.18128418474E+03  0.00000000000E+00 0. -1.
          4    1    6    6  502    0 -0.11010893180E+03  0.84043787121E+02  0.55367679260E+03  0.57074103206E+03  0.00000000000E+00 0. -1.
          1    1    5    5  503    0  0.63496573106E+03 -0.71841714520E+02  0.42795528775E+03  0.76908285632E+03  0.00000000000E+00 0. -1.
         -2    1    5    5    0  503  0.57950463518E+02 -0.18374624001E+02  0.17184285004E+02  0.63175807713E+02  0.00000000000E+00 0.  1.
         -3    1    6    6    0  502 -0.24938131240E+02  0.10094857210E+03  0.37323961163E+03  0.38745365180E+03  0.00000000000E+00 0.  1.
<mgrwt>
<rscale>  0 0.17957214E+04</rscale>
<asrwt>0</asrwt>
<pdfrwt beam="1">  1        3 0.30883404E+00 0.17957214E+04</pdfrwt>
<pdfrwt beam="2">  1       -3 0.61782583E-01 0.17957214E+04</pdfrwt>
<totfact> 0.21857462E-01</totfact>
</mgrwt>
</event>
<event>
12    1  0.1518126E-007  0.1139443E+04  0.7818608E-02  0.9167579E-01
         -3   -1    0    0    0  501 -0.00000000000E+00  0.00000000000E+00  0.49918145546E+03  0.49918145546E+03  0.00000000000E+00 0.  1.
          3   -1    0    0  501    0  0.00000000000E+00 -0.00000000000E+00 -0.65022924969E+03  0.65022924969E+03  0.00000000000E+00 0. -1.
         23    2    1    2    0    0 -0.17602430522E+03  0.72101321851E+02 -0.18542040418E+02  0.21782792638E+03  0.10450857194E+03 0.  0.
        254    2    1    2    0    0  0.17602430522E+03 -0.72101321851E+02 -0.13250575381E+03  0.93158277877E+03  0.90227797395E+03 0.  0.
        -24    2    4    4    0    0  0.40847831282E+03 -0.26568198006E+03 -0.29852302569E+03  0.57702054895E+03  0.79970434978E+02 0.  0.
         24    2    4    4    0    0 -0.23245400760E+03  0.19358065821E+03  0.16601727188E+03  0.35456222982E+03  0.81512596404E+02 0.  0.
         13    1    3    3    0    0 -0.39562314501E+02 -0.18294922187E+02 -0.31274420706E+02  0.53646717486E+02  0.00000000000E+00 0. -1.
        -13    1    3    3    0    0 -0.13646199072E+03  0.90396244038E+02  0.12732380289E+02  0.16418120890E+03  0.00000000000E+00 0.  1.
          2    1    6    6  502    0 -0.11002224258E+03  0.40493795254E+02  0.64603709608E+02  0.13385918203E+03  0.00000000000E+00 0. -1.
          3    1    5    5  503    0  0.16427845451E+03 -0.68255419744E+02 -0.84087593455E+02  0.19676619708E+03  0.00000000000E+00 0. -1.
         -4    1    5    5    0  503  0.24419985830E+03 -0.19742656032E+03 -0.21443543223E+03  0.38025435186E+03  0.00000000000E+00 0.  1.
         -1    1    6    6    0  502 -0.12243176502E+03  0.15308686296E+03  0.10141356227E+03  0.22070304780E+03  0.00000000000E+00 0.  1.
<mgrwt>
<rscale>  0 0.11394426E+04</rscale>
<asrwt>0</asrwt>
<pdfrwt beam="1">  1        3 0.10003527E+00 0.11394426E+04</pdfrwt>
<pdfrwt beam="2">  1       -3 0.76797147E-01 0.11394426E+04</pdfrwt>
<totfact> 0.36146796E+00</totfact>
</mgrwt>
</event>
<event>
12    1  0.1518126E-007  0.1594174E+04  0.7818608E-02  0.8824135E-01
          2   -1    0    0  501    0  0.00000000000E+00  0.00000000000E+00  0.20793717838E+04  0.20793717838E+04  0.00000000000E+00 0. -1.
         -2   -1    0    0    0  501 -0.00000000000E+00 -0.00000000000E+00 -0.30554807958E+03  0.30554807958E+03  0.00000000000E+00 0.  1.
         23    2    1    2    0    0 -0.17898743996E+03 -0.27927791355E+02 -0.15739027904E+03  0.25691027367E+03  0.91731802487E+02 0.  0.
        254    2    1    2    0    0  0.17898743996E+03  0.27927791355E+02  0.19312139832E+04  0.21280095897E+04  0.87522619908E+03 0.  0.
        -24    2    4    4    0    0  0.16161597232E+03  0.36894788442E+03  0.15790868391E+04  0.16311543988E+04  0.70051148297E+02 0.  0.
         24    2    4    4    0    0  0.17371467640E+02 -0.34102009307E+03  0.35212714412E+03  0.49685519087E+03  0.79215423397E+02 0.  0.
         11    1    3    3    0    0  0.87454145172E-01  0.16167523455E+02 -0.31113108941E+01  0.16464407623E+02  0.00000000000E+00 0. -1.
        -11    1    3    3    0    0 -0.17907489410E+03 -0.44095314810E+02 -0.15427896815E+03  0.24044586605E+03  0.00000000000E+00 0.  1.
          2    1    6    6  502    0  0.87697060714E+01 -0.27884426326E+03  0.32543396655E+03  0.42864705468E+03  0.00000000000E+00 0. -1.
          1    1    5    5  503    0  0.14196825154E+03  0.32570153630E+03  0.14671122879E+04  0.15095214276E+04  0.00000000000E+00 0. -1.
         -2    1    5    5    0  503  0.19647720779E+02  0.43246348126E+02  0.11197455126E+03  0.12163297122E+03  0.00000000000E+00 0.  1.
         -1    1    6    6    0  502  0.86017615682E+01 -0.62175829805E+02  0.26693177570E+02  0.68208136192E+02  0.00000000000E+00 0.  1.
<mgrwt>
<rscale>  0 0.15941745E+04</rscale>
<asrwt>0</asrwt>
<pdfrwt beam="1">  1        2 0.31990334E+00 0.15941745E+04</pdfrwt>
<pdfrwt beam="2">  1       -2 0.47007398E-01 0.15941745E+04</pdfrwt>
<totfact> 0.24842042E+01</totfact>
</mgrwt>
</event>
<event>
12    1  0.1518126E-007  0.1785236E+04  0.7818608E-02  0.8714191E-01
          2   -1    0    0  501    0  0.00000000000E+00  0.00000000000E+00  0.27087210076E+04  0.27087210076E+04  0.00000000000E+00 0. -1.
         -2   -1    0    0    0  501 -0.00000000000E+00 -0.00000000000E+00 -0.29414862180E+03  0.29414862180E+03  0.00000000000E+00 0.  1.
         23    2    1    2    0    0 -0.18459620776E+03 -0.20993015195E+03 -0.10553910591E+03  0.31248989553E+03  0.91460392075E+02 0.  0.
        254    2    1    2    0    0  0.18459620776E+03  0.20993015195E+03  0.25201114917E+04  0.26903797339E+04  0.89946359190E+03 0.  0.
        -24    2    4    4    0    0 -0.31155849919E+03 -0.11708233095E+03  0.87820608245E+03  0.94250722380E+03  0.79353468866E+02 0.  0.
         24    2    4    4    0    0  0.49615470695E+03  0.32701248290E+03  0.16419054093E+04  0.17478725101E+04  0.78091493125E+02 0.  0.
         13    1    3    3    0    0 -0.41843946868E+02 -0.41126635265E+01 -0.40776494108E+01  0.42242835079E+02  0.00000000000E+00 0. -1.
        -13    1    3    3    0    0 -0.14275226089E+03 -0.20581748842E+03 -0.10146145650E+03  0.27024706045E+03  0.00000000000E+00 0.  1.
          4    1    6    6  502    0  0.53698356318E+02  0.27912851867E+02  0.24474924132E+03  0.25212066932E+03  0.00000000000E+00 0. -1.
          3    1    5    5  503    0 -0.12387683229E+03 -0.71002325185E+01  0.29372136878E+03  0.31885439523E+03  0.00000000000E+00 0. -1.
         -4    1    5    5    0  503 -0.18768166690E+03 -0.10998209843E+03  0.58448471368E+03  0.62365282858E+03  0.00000000000E+00 0.  1.
         -3    1    6    6    0  502  0.44245635063E+03  0.29909963103E+03  0.13971561679E+04  0.14957518408E+04  0.00000000000E+00 0.  1.
<mgrwt>
<rscale>  0 0.17852356E+04</rscale>
<asrwt>0</asrwt>
<pdfrwt beam="1">  1        2 0.41672629E+00 0.17852356E+04</pdfrwt>
<pdfrwt beam="2">  1       -2 0.45253636E-01 0.17852356E+04</pdfrwt>
<totfact> 0.11509715E+01</totfact>
</mgrwt>
</event>
<event>
12    1  0.1518126E-007  0.5316897E+04  0.7818608E-02  0.7781399E-01
          2   -1    0    0  501    0  0.00000000000E+00  0.00000000000E+00  0.22864638342E+04  0.22864638342E+04  0.00000000000E+00 0. -1.
         -2   -1    0    0    0  501 -0.00000000000E+00 -0.00000000000E+00 -0.30909511415E+04  0.30909511415E+04  0.00000000000E+00 0.  1.
         23    2    1    2    0    0  0.22704211002E+04 -0.53699297394E+03 -0.15091784218E+04  0.27801152440E+04  0.90817589101E+02 0.  0.
        254    2    1    2    0    0 -0.22704211002E+04  0.53699297394E+03  0.70469111455E+03  0.25972997317E+04  0.89788802380E+03 0.  0.
        -24    2    4    4    0    0 -0.18646506195E+04  0.22899680990E+03  0.84602775210E+03  0.20618944927E+04  0.79274648191E+02 0.  0.
         24    2    4    4    0    0 -0.40577048073E+03  0.30799616404E+03 -0.14133663756E+03  0.53540523909E+03  0.84684147501E+02 0.  0.
         11    1    3    3    0    0  0.58607273450E+03 -0.14286380600E+03 -0.34365244961E+03  0.69425378883E+03  0.00000000000E+00 0.  1.
        -11    1    3    3    0    0  0.16843483657E+04 -0.39412916794E+03 -0.11655259722E+04  0.20858614551E+04  0.00000000000E+00 0. -1.
          4    1    6    6  502    0 -0.33223055172E+03  0.24666413327E+03 -0.14789098232E+03  0.43942243546E+03  0.00000000000E+00 0. -1.
          3    1    5    5  503    0 -0.66932804666E+03  0.12053700633E+03  0.30782909879E+03  0.74651721882E+03  0.00000000000E+00 0. -1.
         -4    1    5    5    0  503 -0.11953225728E+04  0.10845980357E+03  0.53819865332E+03  0.13153772738E+04  0.00000000000E+00 0.  1.
         -3    1    6    6    0  502 -0.73539929007E+02  0.61332030775E+02  0.65543447637E+01  0.95982803630E+02  0.00000000000E+00 0.  1.
<mgrwt>
<rscale>  0 0.53168968E+04</rscale>
<asrwt>0</asrwt>
<pdfrwt beam="1">  1        2 0.35176366E+00 0.53168968E+04</pdfrwt>
<pdfrwt beam="2">  1       -2 0.47553095E+00 0.53168968E+04</pdfrwt>
<totfact> 0.77774816E-03</totfact>
</mgrwt>
</event>
<event>
12    1  0.1518126E-007  0.1250119E+04  0.7818608E-02  0.9070084E-01
         -4   -1    0    0    0  501 -0.00000000000E+00  0.00000000000E+00  0.67498275173E+03  0.67498275173E+03  0.00000000000E+00 0.  1.
          4   -1    0    0  501    0  0.00000000000E+00 -0.00000000000E+00 -0.57882847328E+03  0.57882847328E+03  0.00000000000E+00 0. -1.
         23    2    1    2    0    0  0.17966586375E+02 -0.14446742422E+03  0.63678495526E+02  0.18359369620E+03  0.91967709573E+02 0.  0.
        254    2    1    2    0    0 -0.17966586375E+02  0.14446742422E+03  0.32475782919E+02  0.10702175288E+04  0.10597722622E+04 0.  0.
        -24    2    4    4    0    0 -0.28554699410E+03  0.35045671381E+02 -0.42737103235E+03  0.52126171876E+03  0.79388256297E+02 0.  0.
         24    2    4    4    0    0  0.26758040773E+03  0.10942175284E+03  0.45984681526E+03  0.54895581005E+03  0.79504674649E+02 0.  0.
         11    1    3    3    0    0  0.35878103666E+02 -0.82257336697E+02 -0.41406461178E+01  0.89836811572E+02  0.00000000000E+00 0. -1.
        -11    1    3    3    0    0 -0.17911517291E+02 -0.62210087521E+02  0.67819141644E+02  0.93756884624E+02  0.00000000000E+00 0.  1.
          4    1    6    6  502    0  0.22618295096E+03  0.57502358982E+02  0.36173418039E+03  0.43048445484E+03  0.00000000000E+00 0. -1.
          3    1    5    5  503    0 -0.19471283317E+03  0.57900473127E+02 -0.31700514821E+03  0.37650739193E+03  0.00000000000E+00 0. -1.
         -4    1    5    5    0  503 -0.90834160930E+02 -0.22854801747E+02 -0.11036588414E+03  0.14475432683E+03  0.00000000000E+00 0.  1.
         -3    1    6    6    0  502  0.41397456762E+02  0.51919393856E+02  0.98112634877E+02  0.11847135522E+03  0.00000000000E+00 0.  1.
<mgrwt>
<rscale>  0 0.12501188E+04</rscale>
<asrwt>0</asrwt>
<pdfrwt beam="1">  1        4 0.89050535E-01 0.12501188E+04</pdfrwt>
<pdfrwt beam="2">  1       -4 0.10384350E+00 0.12501188E+04</pdfrwt>
<totfact> 0.16054225E+00</totfact>
</mgrwt>
</event>
<event>
12    1  0.2234328E-007  0.2416917E+04  0.7818608E-02  0.8433197E-01
          2   -1    0    0  501    0  0.00000000000E+00  0.00000000000E+00  0.16847108588E+04  0.16847108588E+04  0.00000000000E+00 0.  1.
         -2   -1    0    0    0  501 -0.00000000000E+00 -0.00000000000E+00 -0.86683814027E+03  0.86683814027E+03  0.00000000000E+00 0. -1.
         23    2    1    2    0    0  0.23574192497E+03  0.30817551957E+02 -0.71532211781E+03  0.75899639125E+03  0.88689418760E+02 0.  0.
        254    2    1    2    0    0 -0.23574192497E+03 -0.30817551957E+02  0.15331948363E+04  0.17925526078E+04  0.89779422417E+03 0.  0.
        -24    2    4    4    0    0  0.19432277221E+03 -0.33152448138E+03  0.74980316532E+03  0.84629526633E+03  0.79630832817E+02 0.  0.
         24    2    4    4    0    0 -0.43006469719E+03  0.30070692943E+03  0.78339167102E+03  0.94625734149E+03  0.79499339239E+02 0.  0.
         13    1    3    3    0    0  0.18656196085E+03  0.36970811013E+02 -0.64840751429E+03  0.67572517393E+03  0.00000000000E+00 0. -1.
        -13    1    3    3    0    0  0.49179964127E+02 -0.61532590562E+01 -0.66914603523E+02  0.83271217316E+02  0.00000000000E+00 0.  1.
          4    1    6    6  502    0 -0.67161186031E+02  0.22121448632E+02  0.13927663513E+03  0.15619847788E+03  0.00000000000E+00 0. -1.
          3    1    5    5  503    0  0.16502026238E+02 -0.22154215743E+01  0.50049653067E+02  0.52746495001E+02  0.00000000000E+00 0. -1.
         -4    1    5    5    0  503  0.17782074597E+03 -0.32930905981E+03  0.69975351225E+03  0.79354877133E+03  0.00000000000E+00 0.  1.
         -3    1    6    6    0  502 -0.36290351115E+03  0.27858548079E+03  0.64411503588E+03  0.79005886361E+03  0.00000000000E+00 0.  1.
<mgrwt>
<rscale>  0 0.24169167E+04</rscale>
<asrwt>0</asrwt>
<pdfrwt beam="1">  1        2 0.25918628E+00 0.24169167E+04</pdfrwt>
<pdfrwt beam="2">  1       -2 0.13335971E+00 0.24169167E+04</pdfrwt>
<totfact> 0.36559472E+00</totfact>
</mgrwt>
</event>
<event>
12    1  0.1518126E-007  0.1516472E+04  0.7818608E-02  0.8873572E-01
         -1   -1    0    0    0  501 -0.00000000000E+00  0.00000000000E+00  0.43259916084E+03  0.43259916084E+03  0.00000000000E+00 0.  1.
          1   -1    0    0  501    0  0.00000000000E+00 -0.00000000000E+00 -0.13289945376E+04  0.13289945376E+04  0.00000000000E+00 0. -1.
         23    2    1    2    0    0 -0.27358589495E+03  0.32821877453E+03 -0.22829955350E+02  0.43708740173E+03  0.89148101641E+02 0.  0.
        254    2    1    2    0    0  0.27358589495E+03 -0.32821877453E+03 -0.87356542139E+03  0.13245062967E+04  0.89923499635E+03 0.  0.
        -24    2    4    4    0    0  0.53266100778E+03 -0.32506915577E+03 -0.84287787433E+03  0.10517040604E+04  0.78997558965E+02 0.  0.
         24    2    4    4    0    0 -0.25907511283E+03 -0.31496187621E+01 -0.30687547059E+02  0.27280223633E+03  0.79683752493E+02 0.  0.
         11    1    3    3    0    0 -0.26563314620E+02  0.87377164681E+02  0.11105546424E+00  0.91325740756E+02  0.00000000000E+00 0. -1.
        -11    1    3    3    0    0 -0.24702258032E+03  0.24084160985E+03 -0.22941010815E+02  0.34576166098E+03  0.00000000000E+00 0.  1.
          2    1    6    6  502    0 -0.11962664798E+03  0.37732464250E+02 -0.76455262501E+01  0.12566912046E+03  0.00000000000E+00 0. -1.
          1    1    5    5  503    0  0.52217280157E+03 -0.32696176140E+03 -0.81359219756E+03  0.10205394123E+04  0.00000000000E+00 0. -1.
         -2    1    5    5    0  503  0.10488206205E+02  0.18926056369E+01 -0.29285676769E+02  0.31164648070E+02  0.00000000000E+00 0.  1.
         -1    1    6    6    0  502 -0.13944846486E+03 -0.40882083012E+02 -0.23042020809E+02  0.14713311587E+03  0.00000000000E+00 0.  1.
<mgrwt>
<rscale>  0 0.15164721E+04</rscale>
<asrwt>0</asrwt>
<pdfrwt beam="1">  1        1 0.20446070E+00 0.15164721E+04</pdfrwt>
<pdfrwt beam="2">  1       -1 0.66553717E-01 0.15164721E+04</pdfrwt>
<totfact> 0.19059605E+01</totfact>
</mgrwt>
</event>
<event>
12    1  0.1518126E-007  0.1449207E+04  0.7818608E-02  0.8918951E-01
         -2   -1    0    0    0  501 -0.00000000000E+00  0.00000000000E+00  0.80556621392E+03  0.80556621392E+03  0.00000000000E+00 0.  1.
          2   -1    0    0  501    0  0.00000000000E+00 -0.00000000000E+00 -0.65177779040E+03  0.65177779040E+03  0.00000000000E+00 0. -1.
         23    2    1    2    0    0  0.23101701966E+03 -0.34208435726E+03 -0.10653890424E+03  0.43571837997E+03  0.90052194118E+02 0.  0.
        254    2    1    2    0    0 -0.23101701966E+03  0.34208435726E+03  0.26032732777E+03  0.10216256244E+04  0.89752884516E+03 0.  0.
        -24    2    4    4    0    0  0.18417329529E+03  0.49799633601E+03  0.13365205269E+03  0.55319296691E+03  0.78990088437E+02 0.  0.
         24    2    4    4    0    0 -0.41519031495E+03 -0.15591197875E+03  0.12667527508E+03  0.46843265745E+03  0.81798450483E+02 0.  0.
         13    1    3    3    0    0  0.19763400214E+02 -0.65154707362E+02 -0.46051477402E+02  0.82197727769E+02  0.00000000000E+00 0.  1.
        -13    1    3    3    0    0  0.21125361945E+03 -0.27692964990E+03 -0.60487426841E+02  0.35352065220E+03  0.00000000000E+00 0. -1.
          2    1    6    6  502    0 -0.28488830226E+03 -0.83769774148E+02  0.11703822233E+03  0.31918124211E+03  0.00000000000E+00 0. -1.
          3    1    5    5  503    0  0.15061800615E+03  0.44759658984E+03  0.96076433053E+02  0.48193274635E+03  0.00000000000E+00 0. -1.
         -4    1    5    5    0  503  0.33555289139E+02  0.50399746170E+02  0.37575619640E+02  0.71260220562E+02  0.00000000000E+00 0.  1.
         -1    1    6    6    0  502 -0.13030201269E+03 -0.72142204598E+02  0.96370527419E+01  0.14925141534E+03  0.00000000000E+00 0.  1.
<mgrwt>
<rscale>  0 0.14492069E+04</rscale>
<asrwt>0</asrwt>
<pdfrwt beam="1">  1        2 0.10027351E+00 0.14492069E+04</pdfrwt>
<pdfrwt beam="2">  1       -2 0.12393326E+00 0.14492069E+04</pdfrwt>
<totfact> 0.21285568E+01</totfact>
</mgrwt>
</event>
<event>
12    1  0.1518126E-007  0.2170464E+04  0.7818608E-02  0.8530823E-01
         -2   -1    0    0    0  501 -0.00000000000E+00  0.00000000000E+00  0.36146860978E+03  0.36146860978E+03  0.00000000000E+00 0.  1.
          2   -1    0    0  501    0  0.00000000000E+00 -0.00000000000E+00 -0.32581763151E+04  0.32581763151E+04  0.00000000000E+00 0. -1.
         23    2    1    2    0    0 -0.23270536791E+03 -0.79078657940E+03 -0.17937414421E+04  0.19761863256E+04  0.91152782134E+02 0.  0.
        254    2    1    2    0    0  0.23270536791E+03  0.79078657940E+03 -0.11029662632E+04  0.16434585993E+04  0.89717689870E+03 0.  0.
        -24    2    4    4    0    0  0.94080116246E+02  0.56712600448E+03 -0.82138851823E+02  0.58631767789E+03  0.80861951479E+02 0.  0.
         24    2    4    4    0    0  0.13862525166E+03  0.22366057492E+03 -0.10208274114E+04  0.10571409214E+04  0.78849925842E+02 0.  0.
         11    1    3    3    0    0 -0.15763497303E+03 -0.61973016094E+03 -0.14557621812E+04  0.15900181714E+04  0.00000000000E+00 0.  1.
        -11    1    3    3    0    0 -0.75070394882E+02 -0.17105641847E+03 -0.33797926097E+03  0.38616815422E+03  0.00000000000E+00 0. -1.
          4    1    6    6  502    0  0.52051105856E+02  0.31396267276E+02 -0.16884588269E+03  0.17945466090E+03  0.00000000000E+00 0. -1.
          1    1    5    5  503    0 -0.84611896938E+01  0.35665787792E+02 -0.19282502557E+02  0.41418052281E+02  0.00000000000E+00 0. -1.
         -2    1    5    5    0  503  0.10254130594E+03  0.53146021669E+03 -0.62856349266E+02  0.54489962561E+03  0.00000000000E+00 0.  1.
         -3    1    6    6    0  502  0.86574145805E+02  0.19226430764E+03 -0.85198152869E+03  0.87768626055E+03  0.00000000000E+00 0.  1.
<mgrwt>
<rscale>  0 0.21704640E+04</rscale>
<asrwt>0</asrwt>
<pdfrwt beam="1">  1        2 0.50125789E+00 0.21704640E+04</pdfrwt>
<pdfrwt beam="2">  1       -2 0.55610556E-01 0.21704640E+04</pdfrwt>
<totfact> 0.33139368E+00</totfact>
</mgrwt>
</event>
<event>
12    1  0.1518126E-007  0.1322320E+04  0.7818608E-02  0.9012050E-01
         -1   -1    0    0    0  501 -0.00000000000E+00  0.00000000000E+00  0.14373228782E+04  0.14373228782E+04  0.00000000000E+00 0.  1.
          1   -1    0    0  501    0  0.00000000000E+00 -0.00000000000E+00 -0.30412964801E+03  0.30412964801E+03  0.00000000000E+00 0. -1.
         23    2    1    2    0    0  0.34015154254E+03  0.31227766856E+02  0.30539758861E+03  0.46722692328E+03  0.91406046815E+02 0.  0.
        254    2    1    2    0    0 -0.34015154254E+03 -0.31227766856E+02  0.82779564158E+03  0.12742256029E+04  0.90649159822E+03 0.  0.
        -24    2    4    4    0    0 -0.36556363320E+03  0.33737448971E+02  0.10021192649E+04  0.10703009586E+04  0.80784500989E+02 0.  0.
         24    2    4    4    0    0  0.25412090661E+02 -0.64965215827E+02 -0.17432362331E+03  0.20392464430E+03  0.79563064857E+02 0.  0.
         11    1    3    3    0    0  0.25828735835E+03  0.76048329996E+01  0.27346391107E+03  0.37623490484E+03  0.00000000000E+00 0. -1.
        -11    1    3    3    0    0  0.81864184193E+02  0.23622933856E+02  0.31933677539E+02  0.90992018434E+02  0.00000000000E+00 0.  1.
          2    1    6    6  502    0 -0.69924262436E+01 -0.66489824478E+02 -0.14707963269E+03  0.16156178117E+03  0.00000000000E+00 0. -1.
          1    1    5    5  503    0 -0.24700225072E+02  0.98950963320E+01  0.14791774125E+03  0.15029195663E+03  0.00000000000E+00 0. -1.
         -4    1    5    5    0  503 -0.34086340813E+03  0.23842352639E+02  0.85420152364E+03  0.92000900201E+03  0.00000000000E+00 0.  1.
         -1    1    6    6    0  502  0.32404516904E+02  0.15246086512E+01 -0.27243990625E+02  0.42362863130E+02  0.00000000000E+00 0.  1.
<mgrwt>
<rscale>  0 0.13223199E+04</rscale>
<asrwt>0</asrwt>
<pdfrwt beam="1">  1        1 0.46789177E-01 0.13223199E+04</pdfrwt>
<pdfrwt beam="2">  1       -1 0.22112659E+00 0.13223199E+04</pdfrwt>
<totfact> 0.91401062E+00</totfact>
</mgrwt>
</event>
<event>
12    1  0.1518126E-007  0.1464113E+04  0.7818608E-02  0.8908675E-01
          2   -1    0    0  501    0  0.00000000000E+00  0.00000000000E+00  0.17115127585E+04  0.17115127585E+04  0.00000000000E+00 0. -1.
         -2   -1    0    0    0  501 -0.00000000000E+00 -0.00000000000E+00 -0.31311863615E+03  0.31311863615E+03  0.00000000000E+00 0.  1.
         23    2    1    2    0    0 -0.22500578467E+03  0.28172183905E+03  0.54264978557E+02  0.37544145683E+03  0.89536595161E+02 0.  0.
        254    2    1    2    0    0  0.22500578467E+03 -0.28172183905E+03  0.13441291438E+04  0.16491899378E+04  0.88495734251E+03 0.  0.
        -24    2    4    4    0    0 -0.23101369966E+03 -0.23079104011E+03  0.10405629129E+04  0.10934062284E+04  0.78320948033E+02 0.  0.
         24    2    4    4    0    0  0.45601948433E+03 -0.50930798949E+02  0.30356623089E+03  0.55578370944E+03  0.78710601425E+02 0.  0.
         13    1    3    3    0    0 -0.10716892030E+03  0.73579164299E+02 -0.80886262389E+00  0.12999894291E+03  0.00000000000E+00 0.  1.
        -13    1    3    3    0    0 -0.11783686436E+03  0.20814267476E+03  0.55073841181E+02  0.24544251392E+03  0.00000000000E+00 0. -1.
          2    1    6    6  502    0  0.20628664112E+03 -0.49201452721E+02  0.10454097907E+03  0.23643979690E+03  0.00000000000E+00 0. -1.
          3    1    5    5  503    0 -0.15289339843E+03 -0.11060603793E+03  0.67058288509E+03  0.69662866198E+03  0.00000000000E+00 0. -1.
         -4    1    5    5    0  503 -0.78120301238E+02 -0.12018500217E+03  0.36998002782E+03  0.39677756640E+03  0.00000000000E+00 0.  1.
         -3    1    6    6    0  502  0.24973284321E+03 -0.17293462279E+01  0.19902525181E+03  0.31934391254E+03  0.00000000000E+00 0.  1.
<mgrwt>
<rscale>  0 0.14641128E+04</rscale>
<asrwt>0</asrwt>
<pdfrwt beam="1">  1        2 0.26330965E+00 0.14641128E+04</pdfrwt>
<pdfrwt beam="2">  1       -2 0.48172099E-01 0.14641128E+04</pdfrwt>
<totfact> 0.38212585E+01</totfact>
</mgrwt>
</event>
<event>
12    1  0.1518126E-007  0.2553687E+04  0.7818608E-02  0.8384105E-01
          2   -1    0    0  501    0  0.00000000000E+00  0.00000000000E+00  0.14788552316E+04  0.14788552316E+04  0.00000000000E+00 0. -1.
         -2   -1    0    0    0  501 -0.00000000000E+00 -0.00000000000E+00 -0.11024261946E+04  0.11024261946E+04  0.00000000000E+00 0.  1.
         23    2    1    2    0    0  0.10214583872E+03 -0.81959184050E+03  0.89681437348E+03  0.12227033276E+04  0.92535665951E+02 0.  0.
        254    2    1    2    0    0 -0.10214583872E+03  0.81959184050E+03 -0.52038533647E+03  0.13585780985E+04  0.94486453739E+03 0.  0.
        -24    2    4    4    0    0 -0.40901653968E+03  0.39018096445E+03 -0.58928194572E+03  0.82049736364E+03  0.80168556373E+02 0.  0.
         24    2    4    4    0    0  0.30687070097E+03  0.42941087605E+03  0.68896609254E+02  0.53808073489E+03  0.78872092126E+02 0.  0.
         13    1    3    3    0    0  0.72555266517E+02 -0.53531505567E+03  0.64906206259E+03  0.84445724381E+03  0.00000000000E+00 0. -1.
        -13    1    3    3    0    0  0.29590572198E+02 -0.28427678482E+03  0.24775231089E+03  0.37824608379E+03  0.00000000000E+00 0.  1.
          2    1    6    6  502    0  0.44745697133E+02  0.89730790082E+02 -0.13524166975E+02  0.10117655456E+03  0.00000000000E+00 0. -1.
          1    1    5    5  503    0 -0.23457618981E+03  0.19178555303E+03 -0.26767536231E+03  0.40429913031E+03  0.00000000000E+00 0. -1.
         -4    1    5    5    0  503 -0.17444034987E+03  0.19839541142E+03 -0.32160658342E+03  0.41619823333E+03  0.00000000000E+00 0.  1.
         -1    1    6    6    0  502  0.26212500383E+03  0.33968008596E+03  0.82420776229E+02  0.43690418033E+03  0.00000000000E+00 0.  1.
<mgrwt>
<rscale>  0 0.25536865E+04</rscale>
<asrwt>0</asrwt>
<pdfrwt beam="1">  1        2 0.22751619E+00 0.25536865E+04</pdfrwt>
<pdfrwt beam="2">  1       -2 0.16960403E+00 0.25536865E+04</pdfrwt>
<totfact> 0.24858975E+00</totfact>
</mgrwt>
</event>
<event>
12    1  0.1518126E-007  0.2603215E+04  0.7818608E-02  0.8367110E-01
          1   -1    0    0  501    0  0.00000000000E+00  0.00000000000E+00  0.14041691488E+04  0.14041691488E+04  0.00000000000E+00 0. -1.
         -1   -1    0    0    0  501 -0.00000000000E+00 -0.00000000000E+00 -0.12065373229E+04  0.12065373229E+04  0.00000000000E+00 0.  1.
         23    2    1    2    0    0  0.21019150746E+03  0.55807577326E+03  0.10635413680E+04  0.12229431003E+04  0.94024180101E+02 0.  0.
        254    2    1    2    0    0 -0.21019150746E+03 -0.55807577326E+03 -0.86590954215E+03  0.13877633714E+04  0.90579180900E+03 0.  0.
        -24    2    4    4    0    0 -0.14263544799E+03 -0.42426515364E+03 -0.10462367055E+04  0.11407754132E+04  0.80071891505E+02 0.  0.
         24    2    4    4    0    0 -0.67556059478E+02 -0.13381061962E+03  0.18032716337E+03  0.24698795816E+03  0.77563280805E+02 0.  0.
         13    1    3    3    0    0  0.17807462932E+03  0.53566712876E+03  0.99018072261E+03  0.11397840628E+04  0.00000000000E+00 0. -1.
        -13    1    3    3    0    0  0.32116878141E+02  0.22408644497E+02  0.73360645430E+02  0.83159037438E+02  0.00000000000E+00 0.  1.
          2    1    6    6  502    0 -0.16067650225E+02 -0.79949446155E+02  0.46654909746E+02  0.93950859111E+02  0.00000000000E+00 0. -1.
          3    1    5    5  503    0 -0.98177319875E+02 -0.17777898681E+03 -0.50917149284E+03  0.54817858715E+03  0.00000000000E+00 0. -1.
         -4    1    5    5    0  503 -0.44458128110E+02 -0.24648616684E+03 -0.53706521269E+03  0.59259682608E+03  0.00000000000E+00 0.  1.
         -1    1    6    6    0  502 -0.51488409254E+02 -0.53861173461E+02  0.13367225363E+03  0.15303709905E+03  0.00000000000E+00 0.  1.
<mgrwt>
<rscale>  0 0.26032153E+04</rscale>
<asrwt>0</asrwt>
<pdfrwt beam="1">  1        1 0.21602602E+00 0.26032153E+04</pdfrwt>
<pdfrwt beam="2">  1       -1 0.18562113E+00 0.26032153E+04</pdfrwt>
<totfact> 0.12749477E+00</totfact>
</mgrwt>
</event>
<event>
12    1  0.1518126E-007  0.1685025E+04  0.7818608E-02  0.8769952E-01
          1   -1    0    0  501    0  0.00000000000E+00  0.00000000000E+00  0.79972905084E+03  0.79972905084E+03  0.00000000000E+00 0. -1.
         -1   -1    0    0    0  501 -0.00000000000E+00 -0.00000000000E+00 -0.88758475291E+03  0.88758475291E+03  0.00000000000E+00 0.  1.
         23    2    1    2    0    0  0.19776554709E+03  0.39862343006E+03 -0.43903124589E+03  0.63187814049E+03  0.92248029558E+02 0.  0.
        254    2    1    2    0    0 -0.19776554709E+03 -0.39862343006E+03  0.35117554381E+03  0.10554356633E+04  0.89028553067E+03 0.  0.
        -24    2    4    4    0    0  0.27622880720E+03 -0.17743545316E+02  0.33588084267E+03  0.44206286631E+03  0.77372152440E+02 0.  0.
         24    2    4    4    0    0 -0.47399435429E+03 -0.38087988474E+03  0.15294701144E+02  0.61337279695E+03  0.79070384239E+02 0.  0.
         11    1    3    3    0    0  0.15133353232E+02  0.50418805704E+01 -0.20626831527E+01  0.16083954785E+02  0.00000000000E+00 0. -1.
        -11    1    3    3    0    0  0.18263219386E+03  0.39358154949E+03 -0.43696856273E+03  0.61579418570E+03  0.00000000000E+00 0.  1.
          2    1    6    6  502    0 -0.96999340412E+02 -0.80064150830E+02 -0.28894671377E+02  0.12905054174E+03  0.00000000000E+00 0. -1.
          3    1    5    5  503    0  0.20462390963E+02  0.17464122470E+02  0.50563803969E+02  0.57274805014E+02  0.00000000000E+00 0. -1.
         -4    1    5    5    0  503  0.25576641623E+03 -0.35207667786E+02  0.28531703870E+03  0.38478806130E+03  0.00000000000E+00 0.  1.
         -1    1    6    6    0  502 -0.37699501388E+03 -0.30081573391E+03  0.44189372521E+02  0.48432225522E+03  0.00000000000E+00 0.  1.
<mgrwt>
<rscale>  0 0.16850250E+04</rscale>
<asrwt>0</asrwt>
<pdfrwt beam="1">  1        1 0.12303524E+00 0.16850250E+04</pdfrwt>
<pdfrwt beam="2">  1       -1 0.13655150E+00 0.16850250E+04</pdfrwt>
<totfact> 0.94292984E+00</totfact>
</mgrwt>
</event>
<event>
12    1  0.1518126E-007  0.1157989E+04  0.7818608E-02  0.9150445E-01
         -1   -1    0    0    0  501 -0.00000000000E+00  0.00000000000E+00  0.18086222663E+03  0.18086222663E+03  0.00000000000E+00 0.  1.
          1   -1    0    0  501    0  0.00000000000E+00 -0.00000000000E+00 -0.18535346334E+04  0.18535346334E+04  0.00000000000E+00 0. -1.
         23    2    1    2    0    0  0.18633863703E+03  0.87495995320E+02 -0.22990092060E+03  0.32364476477E+03  0.97539036405E+02 0.  0.
        254    2    1    2    0    0 -0.18633863703E+03 -0.87495995320E+02 -0.14427714862E+04  0.17107520953E+04  0.89593835349E+03 0.  0.
        -24    2    4    4    0    0 -0.41199623804E+03  0.24615964049E+03 -0.59275764279E+03  0.76683328384E+03  0.79600209495E+02 0.  0.
         24    2    4    4    0    0  0.22565760101E+03 -0.33365563581E+03 -0.85001384340E+03  0.94391881143E+03  0.78814671209E+02 0.  0.
         13    1    3    3    0    0  0.11107541221E+02 -0.17372193664E+02 -0.81088815699E+01  0.22156817123E+02  0.00000000000E+00 0.  1.
        -13    1    3    3    0    0  0.17523109581E+03  0.10486818898E+03 -0.22179203903E+03  0.30148794765E+03  0.00000000000E+00 0. -1.
          4    1    6    6  502    0  0.19938215669E+03 -0.24582757581E+03 -0.61532576751E+03  0.69196115613E+03  0.00000000000E+00 0. -1.
          3    1    5    5  503    0 -0.38295249983E+03  0.24695682612E+03 -0.57100006672E+03  0.73053498704E+03  0.00000000000E+00 0. -1.
         -4    1    5    5    0  503 -0.29043738211E+02 -0.79718562981E+00 -0.21757576071E+02  0.36298296802E+02  0.00000000000E+00 0.  1.
         -3    1    6    6    0  502  0.26275444319E+02 -0.87828060001E+02 -0.23468807589E+03  0.25195765530E+03  0.00000000000E+00 0.  1.
<mgrwt>
<rscale>  0 0.11579886E+04</rscale>
<asrwt>0</asrwt>
<pdfrwt beam="1">  1        1 0.28515918E+00 0.11579886E+04</pdfrwt>
<pdfrwt beam="2">  1       -1 0.27824958E-01 0.11579886E+04</pdfrwt>
<totfact> 0.43343725E+01</totfact>
</mgrwt>
</event>
<event>
12    1  0.1518126E-007  0.1986747E+04  0.7818608E-02  0.8612842E-01
         -2   -1    0    0    0  501 -0.00000000000E+00  0.00000000000E+00  0.44797426712E+03  0.44797426712E+03  0.00000000000E+00 0.  1.
          2   -1    0    0  501    0  0.00000000000E+00 -0.00000000000E+00 -0.22027843696E+04  0.22027843696E+04  0.00000000000E+00 0. -1.
         23    2    1    2    0    0 -0.45448126361E+03 -0.48191946046E+03 -0.15061834655E+03  0.68560985972E+03  0.92603499321E+02 0.  0.
        254    2    1    2    0    0  0.45448126361E+03  0.48191946046E+03 -0.16041917559E+04  0.19651487770E+04  0.92172606592E+03 0.  0.
        -24    2    4    4    0    0 -0.34366732057E+02  0.32824671713E+03 -0.13417735501E+04  0.13839080459E+04  0.76930099162E+02 0.  0.
         24    2    4    4    0    0  0.48884799567E+03  0.15367274333E+03 -0.26241820584E+03  0.58124073112E+03  0.79936211105E+02 0.  0.
         11    1    3    3    0    0 -0.42858226232E+03 -0.47847455155E+03 -0.14913549113E+03  0.65944070755E+03  0.00000000000E+00 0.  1.
        -11    1    3    3    0    0 -0.25899001286E+02 -0.34449089066E+01 -0.14828554181E+01  0.26169152168E+02  0.00000000000E+00 0. -1.
          4    1    6    6  502    0  0.12986031031E+03  0.31849139473E+02 -0.10809554886E+03  0.17193811550E+03  0.00000000000E+00 0. -1.
          3    1    5    5  503    0 -0.38881675320E+02  0.84757305475E+02 -0.30618084643E+03  0.32006608103E+03  0.00000000000E+00 0. -1.
         -2    1    5    5    0  503  0.45149432633E+01  0.24348941166E+03 -0.10355927036E+04  0.10638419648E+04  0.00000000000E+00 0.  1.
         -3    1    6    6    0  502  0.35898768536E+03  0.12182360385E+03 -0.15432265698E+03  0.40930261562E+03  0.00000000000E+00 0.  1.
<mgrwt>
<rscale>  0 0.19867468E+04</rscale>
<asrwt>0</asrwt>
<pdfrwt beam="1">  1        2 0.33888990E+00 0.19867468E+04</pdfrwt>
<pdfrwt beam="2">  1       -2 0.68919119E-01 0.19867468E+04</pdfrwt>
<totfact> 0.92033236E+00</totfact>
</mgrwt>
</event>
<event>
12    1  0.1518126E-007  0.1909333E+04  0.7818608E-02  0.8650224E-01
         -2   -1    0    0    0  501 -0.00000000000E+00  0.00000000000E+00  0.43011586869E+03  0.43011586869E+03  0.00000000000E+00 0.  1.
          2   -1    0    0  501    0  0.00000000000E+00 -0.00000000000E+00 -0.21189370380E+04  0.21189370380E+04  0.00000000000E+00 0. -1.
         23    2    1    2    0    0 -0.61783076388E+03 -0.40529506561E+03 -0.71569384809E+03  0.10330150469E+04  0.94464066659E+02 0.  0.
        254    2    1    2    0    0  0.61783076388E+03  0.40529506561E+03 -0.97312732121E+03  0.15160378598E+04  0.89744919971E+03 0.  0.
        -24    2    4    4    0    0 -0.18939849287E+03  0.11511930099E+01 -0.38130931320E+03  0.43354493093E+03  0.81800369500E+02 0.  0.
         24    2    4    4    0    0  0.80722925674E+03  0.40414387260E+03 -0.59181800801E+03  0.10824929289E+04  0.81185243500E+02 0.  0.
         13    1    3    3    0    0 -0.21248818758E+03 -0.13650786574E+03 -0.18433565499E+03  0.31267436890E+03  0.00000000000E+00 0. -1.
        -13    1    3    3    0    0 -0.40534257630E+03 -0.26878719987E+03 -0.53135819310E+03  0.72034067798E+03  0.00000000000E+00 0.  1.
          2    1    6    6  502    0  0.59753482923E+03  0.26400160817E+03 -0.44856069510E+03  0.79243385746E+03  0.00000000000E+00 0. -1.
          3    1    5    5  503    0 -0.10915227951E+03  0.30532713893E+02 -0.15805134135E+03  0.19449085645E+03  0.00000000000E+00 0. -1.
         -4    1    5    5    0  503 -0.80246213354E+02 -0.29381520883E+02 -0.22325797185E+03  0.23905407448E+03  0.00000000000E+00 0.  1.
         -1    1    6    6    0  502  0.20969442751E+03  0.14014226443E+03 -0.14325731290E+03  0.29005907141E+03  0.00000000000E+00 0.  1.
<mgrwt>
<rscale>  0 0.19093333E+04</rscale>
<asrwt>0</asrwt>
<pdfrwt beam="1">  1        2 0.32599031E+00 0.19093333E+04</pdfrwt>
<pdfrwt beam="2">  1       -2 0.66171673E-01 0.19093333E+04</pdfrwt>
<totfact> 0.11273308E+01</totfact>
</mgrwt>
</event>
<event>
12    1  0.1518126E-007  0.1849650E+04  0.7818608E-02  0.8680333E-01
         -1   -1    0    0    0  501 -0.00000000000E+00  0.00000000000E+00  0.39043379110E+03  0.39043379110E+03  0.00000000000E+00 0.  1.
          1   -1    0    0  501    0  0.00000000000E+00 -0.00000000000E+00 -0.21906443542E+04  0.21906443542E+04  0.00000000000E+00 0. -1.
         23    2    1    2    0    0  0.27267067722E+03 -0.37805081176E+03 -0.14271745148E+04  0.15040360733E+04  0.89586268716E+02 0.  0.
        254    2    1    2    0    0 -0.27267067722E+03  0.37805081176E+03 -0.37303604836E+03  0.10770420721E+04  0.89643294070E+03 0.  0.
        -24    2    4    4    0    0  0.20959982678E+03  0.46234417805E+03 -0.20147706263E+03  0.55185714315E+03  0.79114305382E+02 0.  0.
         24    2    4    4    0    0 -0.48227050400E+03 -0.84293366298E+02 -0.17155898573E+03  0.52518492893E+03  0.81832226905E+02 0.  0.
         13    1    3    3    0    0  0.12044337199E+03 -0.20333173061E+03 -0.84532425971E+03  0.87773771856E+03  0.00000000000E+00 0. -1.
        -13    1    3    3    0    0  0.15222730523E+03 -0.17471908115E+03 -0.58185025508E+03  0.62629835471E+03  0.00000000000E+00 0.  1.
          4    1    6    6  502    0 -0.44837535161E+03 -0.86657417662E+02 -0.13713935355E+03  0.47681984675E+03  0.00000000000E+00 0. -1.
          1    1    5    5  503    0  0.76537635409E+02  0.20137838045E+03 -0.12514639933E+03  0.24914430158E+03  0.00000000000E+00 0. -1.
         -2    1    5    5    0  503  0.13306219137E+03  0.26096579761E+03 -0.76330663309E+02  0.30271284157E+03  0.00000000000E+00 0.  1.
         -3    1    6    6    0  502 -0.33895152387E+02  0.23640513638E+01 -0.34419632178E+02  0.48365082171E+02  0.00000000000E+00 0.  1.
<mgrwt>
<rscale>  0 0.18496503E+04</rscale>
<asrwt>0</asrwt>
<pdfrwt beam="1">  1        1 0.33702221E+00 0.18496503E+04</pdfrwt>
<pdfrwt beam="2">  1       -1 0.60066737E-01 0.18496503E+04</pdfrwt>
<totfact> 0.58394969E+00</totfact>
</mgrwt>
</event>
<event>
12    1  0.1518126E-007  0.1341421E+04  0.7818608E-02  0.8997348E-01
          1   -1    0    0  501    0  0.00000000000E+00  0.00000000000E+00  0.69168035713E+03  0.69168035713E+03  0.00000000000E+00 0. -1.
         -1   -1    0    0    0  501 -0.00000000000E+00 -0.00000000000E+00 -0.65037595689E+03  0.65037595689E+03  0.00000000000E+00 0.  1.
         23    2    1    2    0    0  0.21151903100E+03  0.54471596720E+02  0.30878070307E+03  0.38905280764E+03  0.91154315422E+02 0.  0.
        254    2    1    2    0    0 -0.21151903100E+03 -0.54471596720E+02 -0.26747630283E+03  0.95300350638E+03  0.88823682387E+03 0.  0.
        -24    2    4    4    0    0  0.56597154289E+02  0.11217439821E+03 -0.51982257888E+03  0.54105036977E+03  0.82058854615E+02 0.  0.
         24    2    4    4    0    0 -0.26811618529E+03 -0.16664599493E+03  0.25234627605E+03  0.41195313661E+03  0.79809568897E+02 0.  0.
         13    1    3    3    0    0  0.35742529351E+02 -0.20898242731E+02  0.30664246211E+02  0.51522431516E+02  0.00000000000E+00 0.  1.
        -13    1    3    3    0    0  0.17577650165E+03  0.75369839451E+02  0.27811645686E+03  0.33753037612E+03  0.00000000000E+00 0. -1.
          2    1    6    6  502    0 -0.15777365256E+03 -0.14250649163E+03  0.16857349826E+03  0.27132572660E+03  0.00000000000E+00 0. -1.
          3    1    5    5  503    0  0.73376024830E+02  0.11124084856E+03 -0.46205894507E+03  0.48089191730E+03  0.00000000000E+00 0. -1.
         -4    1    5    5    0  503 -0.16778870541E+02  0.93354965251E+00 -0.57763633814E+02  0.60158452465E+02  0.00000000000E+00 0.  1.
         -1    1    6    6    0  502 -0.11034253272E+03 -0.24139503303E+02  0.83772777788E+02  0.14062741001E+03  0.00000000000E+00 0.  1.
<mgrwt>
<rscale>  0 0.13414206E+04</rscale>
<asrwt>0</asrwt>
<pdfrwt beam="1">  1        1 0.10641236E+00 0.13414206E+04</pdfrwt>
<pdfrwt beam="2">  1       -1 0.10005784E+00 0.13414206E+04</pdfrwt>
<totfact> 0.25878567E+01</totfact>
</mgrwt>
</event>
<event>
12    1  0.1518126E-007  0.1314302E+04  0.7818608E-02  0.9018300E-01
         -2   -1    0    0    0  501 -0.00000000000E+00  0.00000000000E+00  0.26783421535E+03  0.26783421535E+03  0.00000000000E+00 0. -1.
          2   -1    0    0  501    0  0.00000000000E+00 -0.00000000000E+00 -0.16123689819E+04  0.16123689819E+04  0.00000000000E+00 0.  1.
         23    2    1    2    0    0  0.77170337916E+02 -0.33150382448E+03 -0.44905470986E+03  0.57050557345E+03  0.89310862703E+02 0.  0.
        254    2    1    2    0    0 -0.77170337916E+02  0.33150382448E+03 -0.89548005664E+03  0.13096976238E+04  0.89306958695E+03 0.  0.
        -24    2    4    4    0    0 -0.49186854103E+02  0.54478176872E+03 -0.92558169107E+03  0.10780732240E+04  0.79585723349E+02 0.  0.
         24    2    4    4    0    0 -0.27983483812E+02 -0.21327794424E+03  0.30101634426E+02  0.23162439974E+03  0.80456182426E+02 0.  0.
         13    1    3    3    0    0  0.46425863357E+02 -0.21526813645E+03 -0.35541792716E+03  0.41811198775E+03  0.00000000000E+00 0.  1.
        -13    1    3    3    0    0  0.30744474559E+02 -0.11623568803E+03 -0.93636782701E+02  0.15239358570E+03  0.00000000000E+00 0. -1.
          4    1    6    6  502    0 -0.17998842622E+02 -0.20619431225E+03  0.45532136692E+02  0.21192741260E+03  0.00000000000E+00 0. -1.
          3    1    5    5  503    0 -0.92383387239E+01  0.23536047021E+03 -0.32615471550E+03  0.40231430037E+03  0.00000000000E+00 0. -1.
         -4    1    5    5    0  503 -0.39948515380E+02  0.30942129852E+03 -0.59942697557E+03  0.67575892365E+03  0.00000000000E+00 0.  1.
         -3    1    6    6    0  502 -0.99846411908E+01 -0.70836319910E+01 -0.15430502266E+02  0.19696987132E+02  0.00000000000E+00 0.  1.
<mgrwt>
<rscale>  0 0.13143022E+04</rscale>
<asrwt>0</asrwt>
<pdfrwt beam="1">  1        2 0.24805676E+00 0.13143022E+04</pdfrwt>
<pdfrwt beam="2">  1       -2 0.41205264E-01 0.13143022E+04</pdfrwt>
<totfact> 0.59942765E+01</totfact>
</mgrwt>
</event>
<event>
12    1  0.1518126E-007  0.1701859E+04  0.7818608E-02  0.8760305E-01
         -2   -1    0    0    0  501 -0.00000000000E+00  0.00000000000E+00  0.33532857471E+03  0.33532857471E+03  0.00000000000E+00 0.  1.
          2   -1    0    0  501    0  0.00000000000E+00 -0.00000000000E+00 -0.21593174082E+04  0.21593174082E+04  0.00000000000E+00 0. -1.
         23    2    1    2    0    0 -0.59208235495E+03 -0.55702229933E+02 -0.44957985392E+03  0.75085789609E+03  0.89449883135E+02 0.  0.
        254    2    1    2    0    0  0.59208235495E+03  0.55702229933E+02 -0.13744089795E+04  0.17437880868E+04  0.89338267004E+03 0.  0.
        -24    2    4    4    0    0 -0.24641481202E+02  0.33955302682E+03 -0.26373000089E+03  0.43958982020E+03  0.88216982688E+02 0.  0.
         24    2    4    4    0    0  0.61672383616E+03 -0.28385079688E+03 -0.11106789786E+04  0.13041982666E+04  0.80035991938E+02 0.  0.
         11    1    3    3    0    0 -0.87177023927E+02  0.23465374398E+02 -0.64735771961E+02  0.11109085231E+03  0.00000000000E+00 0. -1.
        -11    1    3    3    0    0 -0.50490533103E+03 -0.79167604331E+02 -0.38484408196E+03  0.63976704377E+03  0.00000000000E+00 0.  1.
          2    1    6    6  502    0  0.24431982423E+03 -0.15321875939E+03 -0.44274279095E+03  0.52838370876E+03  0.00000000000E+00 0. -1.
          1    1    5    5  503    0 -0.35210410408E+02  0.66218362403E+02 -0.82329494815E+02  0.11136781509E+03  0.00000000000E+00 0. -1.
         -4    1    5    5    0  503  0.10568929206E+02  0.27333466441E+03 -0.18140050607E+03  0.32822200511E+03  0.00000000000E+00 0.  1.
         -1    1    6    6    0  502  0.37240401193E+03 -0.13063203749E+03 -0.66793618768E+03  0.77581455783E+03  0.00000000000E+00 0.  1.
<mgrwt>
<rscale>  0 0.17018588E+04</rscale>
<asrwt>0</asrwt>
<pdfrwt beam="1">  1        2 0.33220267E+00 0.17018588E+04</pdfrwt>
<pdfrwt beam="2">  1       -2 0.51589012E-01 0.17018588E+04</pdfrwt>
<totfact> 0.18387414E+01</totfact>
</mgrwt>
</event>
<event>
12    1  0.1518126E-007  0.1585983E+04  0.7818608E-02  0.8829206E-01
         -1   -1    0    0    0  501 -0.00000000000E+00  0.00000000000E+00  0.18826582545E+04  0.18826582545E+04  0.00000000000E+00 0.  1.
          1   -1    0    0  501    0  0.00000000000E+00 -0.00000000000E+00 -0.33401467346E+03  0.33401467346E+03  0.00000000000E+00 0. -1.
         23    2    1    2    0    0  0.19839457859E+03  0.31674047535E+01  0.12132077287E+04  0.12326618701E+04  0.90619267990E+02 0.  0.
        254    2    1    2    0    0 -0.19839457859E+03 -0.31674047535E+01  0.33543585229E+03  0.98401105783E+03  0.90354308678E+03 0.  0.
        -24    2    4    4    0    0  0.20540651805E+03 -0.28534206933E+03  0.32388797501E+03  0.48485961042E+03  0.81077045288E+02 0.  0.
         24    2    4    4    0    0 -0.40380109664E+03  0.28217466458E+03  0.11547877277E+02  0.49915144741E+03  0.79630063410E+02 0.  0.
         13    1    3    3    0    0  0.14027040142E+03  0.27247528100E+02  0.10064711006E+04  0.10165639624E+04  0.00000000000E+00 0.  1.
        -13    1    3    3    0    0  0.58124177165E+02 -0.24080123346E+02  0.20673662815E+03  0.21609790774E+03  0.00000000000E+00 0. -1.
          2    1    6    6  502    0 -0.60998625269E+01  0.15459146044E+01  0.10693563745E+02  0.12407678283E+02  0.00000000000E+00 0. -1.
          3    1    5    5  503    0  0.94028023019E+01 -0.10578368661E+02  0.44560455920E+02  0.46754131438E+02  0.00000000000E+00 0. -1.
         -4    1    5    5    0  503  0.19600371575E+03 -0.27476370067E+03  0.27932751909E+03  0.43810547898E+03  0.00000000000E+00 0.  1.
         -1    1    6    6    0  502 -0.39770123411E+03  0.28062874998E+03  0.85431353240E+00  0.48674376912E+03  0.00000000000E+00 0.  1.
<mgrwt>
<rscale>  0 0.15859830E+04</rscale>
<asrwt>0</asrwt>
<pdfrwt beam="1">  1        1 0.51386874E-01 0.15859830E+04</pdfrwt>
<pdfrwt beam="2">  1       -1 0.28963973E+00 0.15859830E+04</pdfrwt>
<totfact> 0.28250094E+00</totfact>
</mgrwt>
</event>
<event>
12    1  0.1518126E-007  0.3336499E+04  0.7818608E-02  0.8153670E-01
          2   -1    0    0  501    0  0.00000000000E+00  0.00000000000E+00  0.18792937536E+04  0.18792937536E+04  0.00000000000E+00 0. -1.
         -2   -1    0    0    0  501 -0.00000000000E+00 -0.00000000000E+00 -0.14809052638E+04  0.14809052638E+04  0.00000000000E+00 0.  1.
         23    2    1    2    0    0 -0.41970214097E+03 -0.14624725294E+04  0.44554801369E+03  0.15880446601E+04  0.91635274125E+02 0.  0.
        254    2    1    2    0    0  0.41970214097E+03  0.14624725294E+04 -0.47159523845E+02  0.17721543573E+04  0.90737602958E+03 0.  0.
        -24    2    4    4    0    0  0.24462068312E+03  0.10036780576E+04 -0.45212641775E+03  0.11306220573E+04  0.81725251370E+02 0.  0.
         24    2    4    4    0    0  0.17508145785E+03  0.45879447178E+03  0.40496689390E+03  0.64153230008E+03  0.80122547841E+02 0.  0.
         13    1    3    3    0    0 -0.19186696981E+02 -0.39351850499E+02 -0.60768493128E+00  0.43784320935E+02  0.00000000000E+00 0.  1.
        -13    1    3    3    0    0 -0.40051544399E+03 -0.14231206789E+04  0.44615569862E+03  0.15442603392E+04  0.00000000000E+00 0. -1.
          2    1    6    6  502    0  0.38106309223E+02  0.46529490366E+02  0.74230938049E+02  0.95536989905E+02  0.00000000000E+00 0. -1.
          1    1    5    5  503    0  0.46482280100E+02  0.94168846275E+02 -0.55801187702E+02  0.11892075732E+03  0.00000000000E+00 0. -1.
         -2    1    5    5    0  503  0.19813840302E+03  0.90950921137E+03 -0.39632523004E+03  0.10117012999E+04  0.00000000000E+00 0.  1.
         -1    1    6    6    0  502  0.13697514862E+03  0.41226498141E+03  0.33073595585E+03  0.54599531018E+03  0.00000000000E+00 0.  1.
<mgrwt>
<rscale>  0 0.33364988E+04</rscale>
<asrwt>0</asrwt>
<pdfrwt beam="1">  1        2 0.28912212E+00 0.33364988E+04</pdfrwt>
<pdfrwt beam="2">  1       -2 0.22783158E+00 0.33364988E+04</pdfrwt>
<totfact> 0.57282678E-01</totfact>
</mgrwt>
</event>
<event>
12    1  0.1518126E-007  0.1413537E+04  0.7818608E-02  0.8944078E-01
         -2   -1    0    0    0  501 -0.00000000000E+00  0.00000000000E+00  0.38798042964E+03  0.38798042964E+03  0.00000000000E+00 0.  1.
          2   -1    0    0  501    0  0.00000000000E+00 -0.00000000000E+00 -0.12874913562E+04  0.12874913562E+04  0.00000000000E+00 0. -1.
         23    2    1    2    0    0  0.20246008397E+03  0.25750351576E+03 -0.44861915227E+03  0.56285166827E+03  0.90800388058E+02 0.  0.
        254    2    1    2    0    0 -0.20246008397E+03 -0.25750351576E+03 -0.45089177426E+03  0.11126201175E+04  0.96297559034E+03 0.  0.
        -24    2    4    4    0    0  0.22309118661E+03  0.25368017829E+03 -0.16287370843E+03  0.38335877283E+03  0.79453089337E+02 0.  0.
         24    2    4    4    0    0 -0.42555127058E+03 -0.51118369405E+03 -0.28801806582E+03  0.72926134469E+03  0.80405532571E+02 0.  0.
         13    1    3    3    0    0  0.13142297029E+03  0.22079756926E+03 -0.30819260562E+03  0.40125583593E+03  0.00000000000E+00 0. -1.
        -13    1    3    3    0    0  0.71037113678E+02  0.36705946503E+02 -0.14042654664E+03  0.16159583234E+03  0.00000000000E+00 0.  1.
          2    1    6    6  502    0 -0.41460686401E+03 -0.50597672647E+03 -0.29219472758E+03  0.71644194338E+03  0.00000000000E+00 0. -1.
          3    1    5    5  503    0  0.15287011346E+03  0.21984432217E+03 -0.13979978633E+03  0.30206750543E+03  0.00000000000E+00 0. -1.
         -4    1    5    5    0  503  0.70221073154E+02  0.33835856122E+02 -0.23073922105E+02  0.81291267401E+02  0.00000000000E+00 0.  1.
         -1    1    6    6    0  502 -0.10944406567E+02 -0.52069675744E+01  0.41766617533E+01  0.12819401305E+02  0.00000000000E+00 0.  1.
<mgrwt>
<rscale>  0 0.14135366E+04</rscale>
<asrwt>0</asrwt>
<pdfrwt beam="1">  1        2 0.19807559E+00 0.14135366E+04</pdfrwt>
<pdfrwt beam="2">  1       -2 0.59689297E-01 0.14135366E+04</pdfrwt>
<totfact> 0.42803965E+01</totfact>
</mgrwt>
</event>
<event>
12    1  0.1518126E-007  0.2238817E+04  0.7818608E-02  0.8502443E-01
         -1   -1    0    0    0  501 -0.00000000000E+00  0.00000000000E+00  0.12966924708E+04  0.12966924708E+04  0.00000000000E+00 0.  1.
          1   -1    0    0  501    0  0.00000000000E+00 -0.00000000000E+00 -0.96636244536E+03  0.96636244536E+03  0.00000000000E+00 0. -1.
         23    2    1    2    0    0  0.75426244978E+03  0.51155707967E+02  0.69584750183E+03  0.10313647262E+04  0.89334780214E+02 0.  0.
        254    2    1    2    0    0 -0.75426244978E+03 -0.51155707967E+02 -0.36551747638E+03  0.12316901900E+04  0.90107100109E+03 0.  0.
        -24    2    4    4    0    0 -0.80227672179E+03 -0.24048441740E+03 -0.38182909779E+02  0.84211336923E+03  0.78843507640E+02 0.  0.
         24    2    4    4    0    0  0.48014272003E+02  0.18932870944E+03 -0.32733456660E+03  0.38957682078E+03  0.80445324688E+02 0.  0.
         13    1    3    3    0    0  0.44150990497E+03  0.14739417586E+02  0.46158162074E+03  0.63890988350E+03  0.00000000000E+00 0. -1.
        -13    1    3    3    0    0  0.31275254481E+03  0.36416290381E+02  0.23426588108E+03  0.39245484266E+03  0.00000000000E+00 0.  1.
          2    1    6    6  502    0 -0.44655830202E+01  0.46137084979E+01 -0.60446684117E+02  0.60786753151E+02  0.00000000000E+00 0. -1.
          1    1    5    5  503    0 -0.33819352683E+03 -0.14212915426E+03 -0.18758262356E+02  0.36732469355E+03  0.00000000000E+00 0. -1.
         -2    1    5    5    0  503 -0.46408319495E+03 -0.98355263140E+02 -0.19424647423E+02  0.47478867568E+03  0.00000000000E+00 0.  1.
         -1    1    6    6    0  502  0.52479855023E+02  0.18471500094E+03 -0.26688788249E+03  0.32879006763E+03  0.00000000000E+00 0.  1.
<mgrwt>
<rscale>  0 0.22388166E+04</rscale>
<asrwt>0</asrwt>
<pdfrwt beam="1">  1        1 0.14867115E+00 0.22388166E+04</pdfrwt>
<pdfrwt beam="2">  1       -1 0.19949115E+00 0.22388166E+04</pdfrwt>
<totfact> 0.22174055E+00</totfact>
</mgrwt>
</event>
<event>
12    1  0.1518126E-007  0.1540258E+04  0.7818608E-02  0.8858114E-01
          2   -1    0    0  501    0  0.00000000000E+00  0.00000000000E+00  0.16943073395E+04  0.16943073395E+04  0.00000000000E+00 0.  1.
         -2   -1    0    0    0  501 -0.00000000000E+00 -0.00000000000E+00 -0.35005378010E+03  0.35005378010E+03  0.00000000000E+00 0. -1.
         23    2    1    2    0    0 -0.33861727460E+03  0.27446724153E+03  0.99266774698E+02  0.45658840608E+03  0.92871710857E+02 0.  0.
        254    2    1    2    0    0  0.33861727460E+03 -0.27446724153E+03  0.12449867847E+04  0.15877727135E+04  0.88376250790E+03 0.  0.
        -24    2    4    4    0    0  0.28800970069E+03 -0.16168107368E+03  0.13592305337E+04  0.14010135758E+04  0.79000244279E+02 0.  0.
         24    2    4    4    0    0  0.50607573911E+02 -0.11278616784E+03 -0.11424374906E+03  0.18675913765E+03  0.80904234146E+02 0.  0.
         13    1    3    3    0    0 -0.10141195968E+03  0.38231716087E+02  0.45419198611E+02  0.11751150277E+03  0.00000000000E+00 0.  1.
        -13    1    3    3    0    0 -0.23720531492E+03  0.23623552544E+03  0.53847576087E+02  0.33907690331E+03  0.00000000000E+00 0. -1.
          4    1    6    6  502    0 -0.57991113427E+01 -0.25493270248E+02  0.70008466777E+01  0.27065630872E+02  0.00000000000E+00 0. -1.
          1    1    5    5  503    0  0.82376907801E+02 -0.31198688202E+02  0.24161525974E+03  0.25717162912E+03  0.00000000000E+00 0. -1.
         -2    1    5    5    0  503  0.20563279289E+03 -0.13048238548E+03  0.11176152740E+04  0.11438419467E+04  0.00000000000E+00 0.  1.
         -3    1    6    6    0  502  0.56406685254E+02 -0.87292897596E+02 -0.12124459573E+03  0.15969350678E+03  0.00000000000E+00 0.  1.
<mgrwt>
<rscale>  0 0.15402580E+04</rscale>
<asrwt>0</asrwt>
<pdfrwt beam="1">  1        2 0.26066266E+00 0.15402580E+04</pdfrwt>
<pdfrwt beam="2">  1       -2 0.53854429E-01 0.15402580E+04</pdfrwt>
<totfact> 0.30903308E+01</totfact>
</mgrwt>
</event>
<event>
12    1  0.1518126E-007  0.1656259E+04  0.7818608E-02  0.8786712E-01
          2   -1    0    0  501    0  0.00000000000E+00  0.00000000000E+00  0.68231022241E+03  0.68231022241E+03  0.00000000000E+00 0. -1.
         -2   -1    0    0    0  501 -0.00000000000E+00 -0.00000000000E+00 -0.10051125875E+04  0.10051125875E+04  0.00000000000E+00 0.  1.
         23    2    1    2    0    0 -0.71489714386E+02  0.46808151367E+03 -0.46025901325E+03  0.66658998817E+03  0.91064649295E+02 0.  0.
        254    2    1    2    0    0  0.71489714386E+02 -0.46808151367E+03  0.13745664821E+03  0.10208328217E+04  0.89386477557E+03 0.  0.
        -24    2    4    4    0    0  0.40478881004E+03 -0.52112837669E+03  0.88659084807E+02  0.67072052876E+03  0.81097648854E+02 0.  0.
         24    2    4    4    0    0 -0.33329909566E+03  0.53046863020E+02  0.48797563401E+02  0.35011229293E+03  0.79342035694E+02 0.  0.
         11    1    3    3    0    0 -0.60545502897E+02  0.37370087835E+03 -0.31236386455E+03  0.49080473538E+03  0.00000000000E+00 0.  1.
        -11    1    3    3    0    0 -0.10944211489E+02  0.94380635322E+02 -0.14789514870E+03  0.17578525279E+03  0.00000000000E+00 0. -1.
          4    1    6    6  502    0 -0.33619668856E+03  0.56864492586E+02  0.51126678552E+02  0.34478358600E+03  0.00000000000E+00 0. -1.
          3    1    5    5  503    0  0.39035933241E+03 -0.46996842989E+03  0.90068148285E+02  0.61754595361E+03  0.00000000000E+00 0. -1.
         -4    1    5    5    0  503  0.14429477631E+02 -0.51159946803E+02 -0.14090634779E+01  0.53174575142E+02  0.00000000000E+00 0.  1.
         -1    1    6    6    0  502  0.28975929074E+01 -0.38176295655E+01 -0.23291151511E+01  0.53287069298E+01  0.00000000000E+00 0.  1.
<mgrwt>
<rscale>  0 0.16562592E+04</rscale>
<asrwt>0</asrwt>
<pdfrwt beam="1">  1        2 0.10497080E+00 0.16562592E+04</pdfrwt>
<pdfrwt beam="2">  1       -2 0.15463271E+00 0.16562592E+04</pdfrwt>
<totfact> 0.11156224E+01</totfact>
</mgrwt>
</event>
<event>
12    1  0.1518126E-007  0.1840220E+04  0.7818608E-02  0.8685198E-01
         -1   -1    0    0    0  501 -0.00000000000E+00  0.00000000000E+00  0.28383138916E+04  0.28383138916E+04  0.00000000000E+00 0.  1.
          1   -1    0    0  501    0  0.00000000000E+00 -0.00000000000E+00 -0.29827667290E+03  0.29827667290E+03  0.00000000000E+00 0. -1.
         23    2    1    2    0    0  0.42692259581E+03  0.16121719831E+03  0.18580261110E+04  0.19154641963E+04  0.92131266708E+02 0.  0.
        254    2    1    2    0    0 -0.42692259581E+03 -0.16121719831E+03  0.68201110772E+03  0.12211263682E+04  0.90429893745E+03 0.  0.
        -24    2    4    4    0    0 -0.39285921750E+03 -0.51271490912E+03  0.42849739373E+03  0.77916516631E+03  0.79204779852E+02 0.  0.
         24    2    4    4    0    0 -0.34063378310E+02  0.35149771081E+03  0.25351371399E+03  0.44196120191E+03  0.79684040854E+02 0.  0.
         11    1    3    3    0    0  0.12163976127E+03  0.22657531184E+02  0.65567906340E+03  0.66725154884E+03  0.00000000000E+00 0. -1.
        -11    1    3    3    0    0  0.30528283454E+03  0.13855966713E+03  0.12023470476E+04  0.12482126474E+04  0.00000000000E+00 0.  1.
          4    1    6    6  502    0 -0.46066479037E+02  0.33871983944E+03  0.22760716804E+03  0.41068025648E+03  0.00000000000E+00 0. -1.
          1    1    5    5  503    0 -0.31676331626E+03 -0.44902714257E+03  0.38415909839E+03  0.67047937042E+03  0.00000000000E+00 0. -1.
         -2    1    5    5    0  503 -0.76095901237E+02 -0.63687766553E+02  0.44338295343E+02  0.10868579589E+03  0.00000000000E+00 0.  1.
         -3    1    6    6    0  502  0.12003100727E+02  0.12777871368E+02  0.25906545949E+02  0.31280945427E+02  0.00000000000E+00 0.  1.
<mgrwt>
<rscale>  0 0.18402204E+04</rscale>
<asrwt>0</asrwt>
<pdfrwt beam="1">  1        1 0.45888721E-01 0.18402204E+04</pdfrwt>
<pdfrwt beam="2">  1       -1 0.43666366E+00 0.18402204E+04</pdfrwt>
<totfact> 0.33303508E-01</totfact>
</mgrwt>
</event>
<event>
12    1  0.1518126E-007  0.1566321E+04  0.7818608E-02  0.8841509E-01
          1   -1    0    0  501    0  0.00000000000E+00  0.00000000000E+00  0.20154265480E+04  0.20154265480E+04  0.00000000000E+00 0. -1.
         -1   -1    0    0    0  501 -0.00000000000E+00 -0.00000000000E+00 -0.30432298611E+03  0.30432298611E+03  0.00000000000E+00 0.  1.
         23    2    1    2    0    0 -0.14392512606E+03 -0.10204855513E+03  0.13076678990E+04  0.13226008815E+04  0.90274073751E+02 0.  0.
        254    2    1    2    0    0  0.14392512606E+03  0.10204855513E+03  0.40343566298E+03  0.99714865261E+03  0.89466013196E+03 0.  0.
        -24    2    4    4    0    0  0.41119285019E+03  0.33134376407E+03  0.33196472747E+03  0.62884163450E+03  0.79830889807E+02 0.  0.
         24    2    4    4    0    0 -0.26726772412E+03 -0.22929520894E+03  0.71470935514E+02  0.36830701810E+03  0.80830908436E+02 0.  0.
         13    1    3    3    0    0 -0.74313644775E+02 -0.32841896395E+00  0.54322137517E+03  0.54828103022E+03  0.00000000000E+00 0. -1.
        -13    1    3    3    0    0 -0.69611481289E+02 -0.10172013616E+03  0.76444652379E+03  0.77431985133E+03  0.00000000000E+00 0.  1.
          2    1    6    6  502    0 -0.17273422898E+03 -0.95446783976E+02  0.43132408712E+02  0.20200892830E+03  0.00000000000E+00 0. -1.
          3    1    5    5  503    0  0.42057118650E+02  0.10676983313E+02  0.41860899056E+02  0.60292073042E+02  0.00000000000E+00 0. -1.
         -4    1    5    5    0  503  0.36913573154E+03  0.32066678076E+03  0.29010382841E+03  0.56854956146E+03  0.00000000000E+00 0.  1.
         -1    1    6    6    0  502 -0.94533495146E+02 -0.13384842497E+03  0.28338526803E+02  0.16629808980E+03  0.00000000000E+00 0.  1.
<mgrwt>
<rscale>  0 0.15663213E+04</rscale>
<asrwt>0</asrwt>
<pdfrwt beam="1">  1        1 0.31006561E+00 0.15663213E+04</pdfrwt>
<pdfrwt beam="2">  1       -1 0.46818922E-01 0.15663213E+04</pdfrwt>
<totfact> 0.12731807E+01</totfact>
</mgrwt>
</event>
<event>
12    1  0.1518126E-007  0.1498173E+04  0.7818608E-02  0.8885669E-01
          1   -1    0    0  501    0  0.00000000000E+00  0.00000000000E+00  0.99666649540E+03  0.99666649540E+03  0.00000000000E+00 0. -1.
         -1   -1    0    0    0  501 -0.00000000000E+00 -0.00000000000E+00 -0.56300725186E+03  0.56300725186E+03  0.00000000000E+00 0.  1.
         23    2    1    2    0    0 -0.46872396823E+03 -0.15330449837E+02  0.17388270757E+03  0.50838547437E+03  0.91013259850E+02 0.  0.
        254    2    1    2    0    0  0.46872396823E+03  0.15330449837E+02  0.25977653598E+03  0.10512882729E+04  0.90431521219E+03 0.  0.
        -24    2    4    4    0    0  0.16644469699E+03  0.21768469886E+03  0.52317716264E+03  0.59523676999E+03  0.74175491654E+02 0.  0.
         24    2    4    4    0    0  0.30227927124E+03 -0.20235424902E+03 -0.26340062666E+03  0.45605150291E+03  0.79265902238E+02 0.  0.
         11    1    3    3    0    0 -0.14246442478E+03  0.23590205703E+02  0.86740449606E+02  0.16845330430E+03  0.00000000000E+00 0. -1.
        -11    1    3    3    0    0 -0.32625954345E+03 -0.38920655541E+02  0.87142257966E+02  0.33993217006E+03  0.00000000000E+00 0.  1.
          4    1    6    6  502    0  0.45740214701E+01  0.18028012860E+01 -0.20193802338E+02  0.20783681526E+02  0.00000000000E+00 0. -1.
          3    1    5    5  503    0  0.70690171377E+02  0.64297677730E+02  0.24995772045E+03  0.26760073562E+03  0.00000000000E+00 0. -1.
         -4    1    5    5    0  503  0.95754525613E+02  0.15338702113E+03  0.27321944219E+03  0.32763603437E+03  0.00000000000E+00 0.  1.
         -3    1    6    6    0  502  0.29770524977E+03 -0.20415705031E+03 -0.24320682433E+03  0.43526782138E+03  0.00000000000E+00 0.  1.
<mgrwt>
<rscale>  0 0.14981728E+04</rscale>
<asrwt>0</asrwt>
<pdfrwt beam="1">  1        1 0.15333331E+00 0.14981728E+04</pdfrwt>
<pdfrwt beam="2">  1       -1 0.86616500E-01 0.14981728E+04</pdfrwt>
<totfact> 0.19357427E+01</totfact>
</mgrwt>
</event>
<event>
12    1  0.1518126E-007  0.1632871E+04  0.7818608E-02  0.8800605E-01
         -1   -1    0    0    0  501 -0.00000000000E+00  0.00000000000E+00  0.43377532300E+03  0.43377532300E+03  0.00000000000E+00 0.  1.
          1   -1    0    0  501    0  0.00000000000E+00 -0.00000000000E+00 -0.15366645302E+04  0.15366645302E+04  0.00000000000E+00 0. -1.
         23    2    1    2    0    0 -0.14725703878E+03  0.42186767171E+03  0.22406241015E+02  0.45650216251E+03  0.90748095500E+02 0.  0.
        254    2    1    2    0    0  0.14725703878E+03 -0.42186767171E+03 -0.11252954482E+04  0.15139376907E+04  0.90887871447E+03 0.  0.
        -24    2    4    4    0    0  0.45864188355E+03 -0.49097107217E+03 -0.66704437406E+03  0.95004122049E+03  0.78899636255E+02 0.  0.
         24    2    4    4    0    0 -0.31138484478E+03  0.69103400462E+02 -0.45825107414E+03  0.56389647019E+03  0.79053024206E+02 0.  0.
         11    1    3    3    0    0 -0.15937803054E+02  0.34476026977E+01 -0.51328062888E+01  0.17095181513E+02  0.00000000000E+00 0. -1.
        -11    1    3    3    0    0 -0.13131923572E+03  0.41842006901E+03  0.27539047303E+02  0.43940698100E+03  0.00000000000E+00 0.  1.
          4    1    6    6  502    0 -0.23376498809E+03  0.23186514250E+02 -0.36588115819E+03  0.43480191584E+03  0.00000000000E+00 0. -1.
          1    1    5    5  503    0  0.39946461355E+03 -0.38618119934E+03 -0.56226363950E+03  0.79047346351E+03  0.00000000000E+00 0. -1.
         -2    1    5    5    0  503  0.59177269998E+02 -0.10478987283E+03 -0.10478073456E+03  0.15956775698E+03  0.00000000000E+00 0.  1.
         -3    1    6    6    0  502 -0.77619856689E+02  0.45916886213E+02 -0.92369915950E+02  0.12909455436E+03  0.00000000000E+00 0.  1.
<mgrwt>
<rscale>  0 0.16328713E+04</rscale>
<asrwt>0</asrwt>
<pdfrwt beam="1">  1        1 0.23640992E+00 0.16328713E+04</pdfrwt>
<pdfrwt beam="2">  1       -1 0.66734667E-01 0.16328713E+04</pdfrwt>
<totfact> 0.13431874E+01</totfact>
</mgrwt>
</event>
<event>
12    1  0.1518126E-007  0.1190506E+04  0.7818608E-02  0.9121207E-01
          2   -1    0    0  501    0  0.00000000000E+00  0.00000000000E+00  0.26941183215E+03  0.26941183215E+03  0.00000000000E+00 0. -1.
         -2   -1    0    0    0  501 -0.00000000000E+00 -0.00000000000E+00 -0.13151849193E+04  0.13151849193E+04  0.00000000000E+00 0.  1.
         23    2    1    2    0    0  0.48805473933E+01 -0.22553706429E+03 -0.11667422114E+03  0.27028122281E+03  0.92456900291E+02 0.  0.
        254    2    1    2    0    0 -0.48805473933E+01  0.22553706429E+03 -0.92909886598E+03  0.13143155286E+04  0.90183691368E+03 0.  0.
        -24    2    4    4    0    0 -0.39863432969E+03  0.24077719001E+03 -0.71837826852E+03  0.86003360361E+03  0.81899197974E+02 0.  0.
         24    2    4    4    0    0  0.39375378229E+03 -0.15240125716E+02 -0.21072059746E+03  0.45428192500E+03  0.81820502843E+02 0.  0.
         11    1    3    3    0    0  0.90783573606E+00 -0.25736290237E+02  0.16084308584E+02  0.30362572083E+02  0.00000000000E+00 0. -1.
        -11    1    3    3    0    0  0.39727116572E+01 -0.19980077406E+03 -0.13275852973E+03  0.23991865073E+03  0.00000000000E+00 0.  1.
          4    1    6    6  502    0  0.22326740615E+02  0.18320159424E+02 -0.22032708777E+02  0.36325636180E+02  0.00000000000E+00 0. -1.
          1    1    5    5  503    0 -0.97991454030E+02  0.25961835870E+02 -0.18873805182E+03  0.21423910519E+03  0.00000000000E+00 0. -1.
         -2    1    5    5    0  503 -0.30064287566E+03  0.21481535414E+03 -0.52964021670E+03  0.64579449843E+03  0.00000000000E+00 0.  1.
         -3    1    6    6    0  502  0.37142704168E+03 -0.33560285140E+02 -0.18868788868E+03  0.41795628882E+03  0.00000000000E+00 0.  1.
<mgrwt>
<rscale>  0 0.11905064E+04</rscale>
<asrwt>0</asrwt>
<pdfrwt beam="1">  1        2 0.41447975E-01 0.11905064E+04</pdfrwt>
<pdfrwt beam="2">  1       -2 0.20233614E+00 0.11905064E+04</pdfrwt>
<totfact> 0.15686397E+01</totfact>
</mgrwt>
</event>
<event>
12    1  0.1518126E-007  0.1123242E+04  0.7818608E-02  0.9182830E-01
         -2   -1    0    0    0  501 -0.00000000000E+00  0.00000000000E+00  0.11564489555E+03  0.11564489555E+03  0.00000000000E+00 0.  1.
          2   -1    0    0  501    0  0.00000000000E+00 -0.00000000000E+00 -0.27274736937E+04  0.27274736937E+04  0.00000000000E+00 0. -1.
         23    2    1    2    0    0 -0.10053352131E+03 -0.30968685574E+02 -0.58834302427E+03  0.60429192173E+03  0.89191726476E+02 0.  0.
        254    2    1    2    0    0  0.10053352131E+03  0.30968685574E+02 -0.20234857738E+04  0.22388266675E+04  0.95225213137E+03 0.  0.
        -24    2    4    4    0    0  0.24939892466E+03  0.32144990550E+03 -0.38287186561E+03  0.56415153587E+03  0.78397860867E+02 0.  0.
         24    2    4    4    0    0 -0.14886540335E+03 -0.29048121992E+03 -0.16406139082E+04  0.16746751316E+04  0.79890882447E+02 0.  0.
         13    1    3    3    0    0 -0.85765803102E+02 -0.60459318468E+02 -0.44623175603E+03  0.45840362374E+03  0.00000000000E+00 0. -1.
        -13    1    3    3    0    0 -0.14767718205E+02  0.29490632894E+02 -0.14211126824E+03  0.14588829799E+03  0.00000000000E+00 0.  1.
          2    1    6    6  502    0 -0.11123195916E+03 -0.15546683765E+03 -0.80485703936E+03  0.82724684355E+03  0.00000000000E+00 0. -1.
          3    1    5    5  503    0  0.19621664916E+03  0.21181201080E+03 -0.30250522780E+03  0.41818024125E+03  0.00000000000E+00 0. -1.
         -4    1    5    5    0  503  0.53182275500E+02  0.10963789470E+03 -0.80366637810E+02  0.14597129463E+03  0.00000000000E+00 0.  1.
         -1    1    6    6    0  502 -0.37633444190E+02 -0.13501438228E+03 -0.83575686887E+03  0.84742828806E+03  0.00000000000E+00 0.  1.
<mgrwt>
<rscale>  0 0.11232425E+04</rscale>
<asrwt>0</asrwt>
<pdfrwt beam="1">  1        2 0.41961132E+00 0.11232425E+04</pdfrwt>
<pdfrwt beam="2">  1       -2 0.17791523E-01 0.11232425E+04</pdfrwt>
<totfact> 0.67274775E+01</totfact>
</mgrwt>
</event>
<event>
12    1  0.1518126E-007  0.2683110E+04  0.7818608E-02  0.8340506E-01
          1   -1    0    0  501    0  0.00000000000E+00  0.00000000000E+00  0.26838371876E+04  0.26838371876E+04  0.00000000000E+00 0. -1.
         -1   -1    0    0    0  501 -0.00000000000E+00 -0.00000000000E+00 -0.67059561420E+03  0.67059561420E+03  0.00000000000E+00 0.  1.
         23    2    1    2    0    0 -0.63643396779E+02  0.10324156490E+04  0.16144622240E+04  0.19191068464E+04  0.80933683868E+02 0.  0.
        254    2    1    2    0    0  0.63643396779E+02 -0.10324156490E+04  0.39877934943E+03  0.14353259554E+04  0.91170339173E+03 0.  0.
        -24    2    4    4    0    0  0.13027369787E+03 -0.32183863953E+02 -0.20854203823E+03  0.26053494989E+03  0.79885173535E+02 0.  0.
         24    2    4    4    0    0 -0.66630301088E+02 -0.10002317850E+04  0.60732138765E+03  0.11747910055E+04  0.79946344012E+02 0.  0.
         13    1    3    3    0    0  0.20144768033E+01  0.21466999469E+03  0.28327311537E+03  0.35543061577E+03  0.00000000000E+00 0.  1.
        -13    1    3    3    0    0 -0.65657873582E+02  0.81774565427E+03  0.13311891086E+04  0.15636762307E+04  0.00000000000E+00 0. -1.
          4    1    6    6  502    0 -0.50479188855E+02 -0.46473648818E+03  0.24244108188E+03  0.52659835752E+03  0.00000000000E+00 0. -1.
          3    1    5    5  503    0  0.25337903812E+02 -0.43047402874E+02 -0.79043146965E+02  0.93503515153E+02  0.00000000000E+00 0. -1.
         -4    1    5    5    0  503  0.10493579405E+03  0.10863538921E+02 -0.12949889126E+03  0.16703143474E+03  0.00000000000E+00 0.  1.
         -3    1    6    6    0  502 -0.16151112232E+02 -0.53549529682E+03  0.36488030577E+03  0.64819264797E+03  0.00000000000E+00 0.  1.
<mgrwt>
<rscale>  0 0.26831097E+04</rscale>
<asrwt>0</asrwt>
<pdfrwt beam="1">  1        1 0.41289802E+00 0.26831097E+04</pdfrwt>
<pdfrwt beam="2">  1       -1 0.10316856E+00 0.26831097E+04</pdfrwt>
<totfact> 0.78098769E-01</totfact>
</mgrwt>
</event>
<event>
12    1  0.1518126E-007  0.1183194E+04  0.7818608E-02  0.9127695E-01
          2   -1    0    0  501    0  0.00000000000E+00  0.00000000000E+00  0.10927428311E+04  0.10927428311E+04  0.00000000000E+00 0. -1.
         -2   -1    0    0    0  501 -0.00000000000E+00 -0.00000000000E+00 -0.32028299314E+03  0.32028299314E+03  0.00000000000E+00 0.  1.
         23    2    1    2    0    0  0.22854355544E+03 -0.57922613234E+01  0.88848700315E+02  0.26128628790E+03  0.90059567368E+02 0.  0.
        254    2    1    2    0    0 -0.22854355544E+03  0.57922613234E+01  0.68361113769E+03  0.11517395364E+04  0.89828395571E+03 0.  0.
        -24    2    4    4    0    0  0.16555886506E+03 -0.34348461147E+03  0.24261205271E+03  0.45943722608E+03  0.82647083866E+02 0.  0.
         24    2    4    4    0    0 -0.39410242049E+03  0.34927687279E+03  0.44099908498E+03  0.69230231031E+03  0.86551974052E+02 0.  0.
         11    1    3    3    0    0  0.10476243023E+03  0.24665849764E+02  0.78852691207E+02  0.13342157937E+03  0.00000000000E+00 0. -1.
        -11    1    3    3    0    0  0.12378112521E+03 -0.30458111087E+02  0.99960091079E+01  0.12786470853E+03  0.00000000000E+00 0.  1.
          2    1    6    6  502    0 -0.25326191889E+03  0.17510124452E+03  0.28291433365E+03  0.41814180080E+03  0.00000000000E+00 0. -1.
          1    1    5    5  503    0  0.98125027451E+02 -0.28136990503E+03  0.19509254635E+03  0.35617221412E+03  0.00000000000E+00 0. -1.
         -2    1    5    5    0  503  0.67433837608E+02 -0.62114706437E+02  0.47519506364E+02  0.10326501196E+03  0.00000000000E+00 0.  1.
         -1    1    6    6    0  502 -0.14084050160E+03  0.17417562827E+03  0.15808475133E+03  0.27416050951E+03  0.00000000000E+00 0.  1.
<mgrwt>
<rscale>  0 0.11831939E+04</rscale>
<asrwt>0</asrwt>
<pdfrwt beam="1">  1        2 0.16811428E+00 0.11831939E+04</pdfrwt>
<pdfrwt beam="2">  1       -2 0.49274307E-01 0.11831939E+04</pdfrwt>
<totfact> 0.84754524E+01</totfact>
</mgrwt>
</event>
<event>
12    1  0.1518126E-007  0.2665475E+04  0.7818608E-02  0.8346295E-01
         -1   -1    0    0    0  501 -0.00000000000E+00  0.00000000000E+00  0.21278191827E+04  0.21278191827E+04  0.00000000000E+00 0.  1.
          1   -1    0    0  501    0  0.00000000000E+00 -0.00000000000E+00 -0.83474609295E+03  0.83474609295E+03  0.00000000000E+00 0. -1.
         23    2    1    2    0    0 -0.78378818939E+03  0.83480631528E+02 -0.39790520572E+03  0.88768682265E+03  0.91468030986E+02 0.  0.
        254    2    1    2    0    0  0.78378818939E+03 -0.83480631528E+02  0.16909782955E+04  0.20748784530E+04  0.90797580216E+03 0.  0.
        -24    2    4    4    0    0 -0.19525606416E+03  0.15828329858E+01  0.36174562634E+03  0.41988829939E+03  0.85550276623E+02 0.  0.
         24    2    4    4    0    0  0.97904425356E+03 -0.85063464513E+02  0.13292326691E+04  0.16549901536E+04  0.79808999918E+02 0.  0.
         11    1    3    3    0    0 -0.46147597903E+03  0.42987005704E+02 -0.18357666783E+03  0.49850612319E+03  0.00000000000E+00 0. -1.
        -11    1    3    3    0    0 -0.32231221036E+03  0.40493625823E+02 -0.21432853789E+03  0.38918069946E+03  0.00000000000E+00 0.  1.
          2    1    6    6  502    0  0.61886314164E+03 -0.25983874525E+02  0.79080653885E+03  0.10045106927E+04  0.00000000000E+00 0. -1.
          1    1    5    5  503    0 -0.16735694018E+03 -0.24731219503E+02  0.25099421792E+03  0.30268478004E+03  0.00000000000E+00 0. -1.
         -2    1    5    5    0  503 -0.27899123989E+02  0.26314052488E+02  0.11075140843E+03  0.11720351934E+03  0.00000000000E+00 0.  1.
         -1    1    6    6    0  502  0.36018111192E+03 -0.59079589988E+02  0.53842613029E+03  0.65047946094E+03  0.00000000000E+00 0.  1.
<mgrwt>
<rscale>  0 0.26654746E+04</rscale>
<asrwt>0</asrwt>
<pdfrwt beam="1">  1        1 0.12842248E+00 0.26654746E+04</pdfrwt>
<pdfrwt beam="2">  1       -1 0.32735679E+00 0.26654746E+04</pdfrwt>
<totfact> 0.39590093E-01</totfact>
</mgrwt>
</event>
<event>
12    1  0.1518126E-007  0.1712440E+04  0.7818608E-02  0.8754301E-01
          1   -1    0    0  501    0  0.00000000000E+00  0.00000000000E+00  0.31854552805E+03  0.31854552805E+03  0.00000000000E+00 0. -1.
         -1   -1    0    0    0  501 -0.00000000000E+00 -0.00000000000E+00 -0.23014383210E+04  0.23014383210E+04  0.00000000000E+00 0.  1.
         23    2    1    2    0    0  0.55215692326E+03  0.97700658197E+02 -0.36267150778E+03  0.67409918086E+03  0.91958667705E+02 0.  0.
        254    2    1    2    0    0 -0.55215692326E+03 -0.97700658197E+02 -0.16202212851E+04  0.19458846682E+04  0.92028660889E+03 0.  0.
        -24    2    4    4    0    0  0.25056709405E+03 -0.36039613479E+01 -0.45488152003E+03  0.52547326931E+03  0.80050623572E+02 0.  0.
         24    2    4    4    0    0 -0.80272401730E+03 -0.94096696849E+02 -0.11653397651E+04  0.14204113989E+04  0.79572216101E+02 0.  0.
         13    1    3    3    0    0  0.26814377327E+03  0.56308342071E+02 -0.12369262058E+03  0.30061865697E+03  0.00000000000E+00 0. -1.
        -13    1    3    3    0    0  0.28401314999E+03  0.41392316127E+02 -0.23897888720E+03  0.37348052389E+03  0.00000000000E+00 0.  1.
          2    1    6    6  502    0 -0.13665476297E+03 -0.28868351256E+02 -0.25197483376E+03  0.28809585696E+03  0.00000000000E+00 0. -1.
          1    1    5    5  503    0  0.10392312850E+02 -0.28906143183E+00  0.73112966878E+00  0.10422009091E+02  0.00000000000E+00 0. -1.
         -2    1    5    5    0  503  0.24017478120E+03 -0.33148999161E+01 -0.45561264970E+03  0.51505126022E+03  0.00000000000E+00 0.  1.
         -3    1    6    6    0  502 -0.66606925433E+03 -0.65228345594E+02 -0.91336493136E+03  0.11323155419E+04  0.00000000000E+00 0.  1.
<mgrwt>
<rscale>  0 0.17124402E+04</rscale>
<asrwt>0</asrwt>
<pdfrwt beam="1">  1        1 0.49007006E-01 0.17124402E+04</pdfrwt>
<pdfrwt beam="2">  1       -1 0.35406742E+00 0.17124402E+04</pdfrwt>
<totfact> 0.11286410E+00</totfact>
</mgrwt>
</event>
<event>
12    1  0.1518126E-007  0.1318312E+04  0.7818608E-02  0.9015169E-01
          1   -1    0    0  501    0  0.00000000000E+00  0.00000000000E+00  0.12820038978E+04  0.12820038978E+04  0.00000000000E+00 0. -1.
         -1   -1    0    0    0  501 -0.00000000000E+00 -0.00000000000E+00 -0.33891197557E+03  0.33891197557E+03  0.00000000000E+00 0.  1.
         23    2    1    2    0    0 -0.13608876778E+03 -0.11097767454E+03  0.62823226839E+03  0.65870845266E+03  0.91568802594E+02 0.  0.
        254    2    1    2    0    0  0.13608876778E+03  0.11097767454E+03  0.31485965382E+03  0.96220742068E+03  0.89211564377E+03 0.  0.
        -24    2    4    4    0    0  0.42739114879E+03  0.26946057581E+03  0.20326722443E+02  0.51178190136E+03  0.78964187683E+02 0.  0.
         24    2    4    4    0    0 -0.29130238100E+03 -0.15848290127E+03  0.29453293137E+03  0.45042551932E+03  0.78483078563E+02 0.  0.
         11    1    3    3    0    0 -0.36218051876E+02 -0.56646293267E+02  0.37699611459E+03  0.38294466994E+03  0.00000000000E+00 0. -1.
        -11    1    3    3    0    0 -0.99870715907E+02 -0.54331381268E+02  0.25123615380E+03  0.27576378272E+03  0.00000000000E+00 0.  1.
          4    1    6    6  502    0 -0.25445501595E+03 -0.16490589697E+03  0.26643186446E+03  0.40364247595E+03  0.00000000000E+00 0. -1.
          3    1    5    5  503    0  0.38356446560E+03  0.21846974482E+03  0.35532251319E+02  0.44284677887E+03  0.00000000000E+00 0. -1.
         -4    1    5    5    0  503  0.43826683189E+02  0.50990830988E+02 -0.15205528876E+02  0.68935122489E+02  0.00000000000E+00 0.  1.
         -3    1    6    6    0  502 -0.36847365058E+02  0.64229956925E+01  0.28101066914E+02  0.46783043372E+02  0.00000000000E+00 0.  1.
<mgrwt>
<rscale>  0 0.13183118E+04</rscale>
<asrwt>0</asrwt>
<pdfrwt beam="1">  1        1 0.19723137E+00 0.13183118E+04</pdfrwt>
<pdfrwt beam="2">  1       -1 0.52140304E-01 0.13183118E+04</pdfrwt>
<totfact> 0.33863226E+01</totfact>
</mgrwt>
</event>
<event>
12    1  0.1518126E-007  0.1435213E+04  0.7818608E-02  0.8928717E-01
          2   -1    0    0  501    0  0.00000000000E+00  0.00000000000E+00  0.26409586672E+04  0.26409586672E+04  0.00000000000E+00 0. -1.
         -2   -1    0    0    0  501 -0.00000000000E+00 -0.00000000000E+00 -0.19498946765E+03  0.19498946765E+03  0.00000000000E+00 0.  1.
         23    2    1    2    0    0  0.10398108749E+03  0.38867361428E+03  0.82242257047E+03  0.92013725455E+03  0.91621164532E+02 0.  0.
        254    2    1    2    0    0 -0.10398108749E+03 -0.38867361428E+03  0.16235466290E+04  0.19158108803E+04  0.93410300677E+03 0.  0.
        -24    2    4    4    0    0 -0.33877648888E+03 -0.51889666722E+03  0.14669121174E+04  0.15944482902E+04  0.80068278354E+02 0.  0.
         24    2    4    4    0    0  0.23479540140E+03  0.13022305294E+03  0.15663451159E+03  0.32136259004E+03  0.81563594958E+02 0.  0.
         11    1    3    3    0    0  0.34478021309E+02  0.20438837863E+03  0.51366892212E+03  0.55391254257E+03  0.00000000000E+00 0. -1.
        -11    1    3    3    0    0  0.69503066179E+02  0.18428523565E+03  0.30875364836E+03  0.36622471197E+03  0.00000000000E+00 0.  1.
          4    1    6    6  502    0  0.17344329717E+03  0.11092942078E+03  0.78929520000E+02  0.22049440550E+03  0.00000000000E+00 0. -1.
          3    1    5    5  503    0 -0.29118631887E+03 -0.43794397280E+03  0.13094047222E+04  0.14110723306E+04  0.00000000000E+00 0. -1.
         -4    1    5    5    0  503 -0.47590170009E+02 -0.80952694416E+02  0.15750739522E+03  0.18337595961E+03  0.00000000000E+00 0.  1.
         -3    1    6    6    0  502  0.61352104224E+02  0.19293632159E+02  0.77704991592E+02  0.10086818454E+03  0.00000000000E+00 0.  1.
<mgrwt>
<rscale>  0 0.14352130E+04</rscale>
<asrwt>0</asrwt>
<pdfrwt beam="1">  1        2 0.40630131E+00 0.14352130E+04</pdfrwt>
<pdfrwt beam="2">  1       -2 0.29998382E-01 0.14352130E+04</pdfrwt>
<totfact> 0.28792073E+01</totfact>
</mgrwt>
</event>
<event>
12    1  0.1518126E-007  0.1333938E+04  0.7818608E-02  0.9003077E-01
         -3   -1    0    0    0  501 -0.00000000000E+00  0.00000000000E+00  0.10565501933E+04  0.10565501933E+04  0.00000000000E+00 0.  1.
          3   -1    0    0  501    0  0.00000000000E+00 -0.00000000000E+00 -0.42103772584E+03  0.42103772584E+03  0.00000000000E+00 0. -1.
         23    2    1    2    0    0  0.32223292956E+02 -0.71577807372E+02  0.55768195696E+03  0.57066880663E+03  0.92152040841E+02 0.  0.
        254    2    1    2    0    0 -0.32223292956E+02  0.71577807372E+02  0.77830510541E+02  0.90691911254E+03  0.90015718916E+03 0.  0.
        -24    2    4    4    0    0  0.71682647135E+02 -0.39382738274E+03  0.11010030436E+03  0.42265752616E+03  0.79239498358E+02 0.  0.
         24    2    4    4    0    0 -0.10390594009E+03  0.46540519012E+03 -0.32269793816E+02  0.48426158638E+03  0.77907054087E+02 0.  0.
         11    1    3    3    0    0 -0.18704360593E+02 -0.27012490730E+02  0.36447336174E+03  0.36595130711E+03  0.00000000000E+00 0.  1.
        -11    1    3    3    0    0  0.50927653549E+02 -0.44565316642E+02  0.19320859522E+03  0.20471749952E+03  0.00000000000E+00 0. -1.
          4    1    6    6  502    0 -0.85830416009E+02  0.36891374573E+03  0.62151692450E+01  0.37881768758E+03  0.00000000000E+00 0. -1.
          1    1    5    5  503    0  0.37407062906E+02 -0.11110616977E+03 -0.24966364789E+00  0.11723451560E+03  0.00000000000E+00 0. -1.
         -2    1    5    5    0  503  0.34275584229E+02 -0.28272121298E+03  0.11034996800E+03  0.30542301056E+03  0.00000000000E+00 0.  1.
         -3    1    6    6    0  502 -0.18075524082E+02  0.96491444391E+02 -0.38484963061E+02  0.10544389880E+03  0.00000000000E+00 0.  1.
<mgrwt>
<rscale>  0 0.13339378E+04</rscale>
<asrwt>0</asrwt>
<pdfrwt beam="1">  1        3 0.64775035E-01 0.13339378E+04</pdfrwt>
<pdfrwt beam="2">  1       -3 0.16254618E+00 0.13339378E+04</pdfrwt>
<totfact> 0.15431481E+00</totfact>
</mgrwt>
</event>
<event>
12    1  0.1518126E-007  0.1633336E+04  0.7818608E-02  0.8800326E-01
          1   -1    0    0  501    0  0.00000000000E+00  0.00000000000E+00  0.14187289500E+04  0.14187289500E+04  0.00000000000E+00 0. -1.
         -1   -1    0    0    0  501 -0.00000000000E+00 -0.00000000000E+00 -0.47010167083E+03  0.47010167083E+03  0.00000000000E+00 0.  1.
         23    2    1    2    0    0  0.35894714120E+03  0.16270583303E+03 -0.12477920383E+03  0.42363597833E+03  0.92635598680E+02 0.  0.
        254    2    1    2    0    0 -0.35894714120E+03 -0.16270583303E+03  0.10734064830E+04  0.14651946425E+04  0.91612096600E+03 0.  0.
        -24    2    4    4    0    0  0.29782930816E+03  0.25522295295E+02  0.33184244641E+03  0.45355066620E+03  0.78962733068E+02 0.  0.
         24    2    4    4    0    0 -0.65677644937E+03 -0.18822812833E+03  0.74156403657E+03  0.10116439763E+04  0.81982813223E+02 0.  0.
         11    1    3    3    0    0  0.33383060904E+03  0.16724354938E+03 -0.96718936352E+02  0.38570433364E+03  0.00000000000E+00 0.  1.
        -11    1    3    3    0    0  0.25116532165E+02 -0.45377163444E+01 -0.28060267480E+02  0.37931644687E+02  0.00000000000E+00 0. -1.
          4    1    6    6  502    0 -0.50317581542E+03 -0.10836322885E+03  0.56735736826E+03  0.76604365014E+03  0.00000000000E+00 0. -1.
          1    1    5    5  503    0  0.27362567695E+03  0.93517210264E+00  0.30562934933E+03  0.41022089758E+03  0.00000000000E+00 0. -1.
         -2    1    5    5    0  503  0.24203631210E+02  0.24587123192E+02  0.26213097075E+02  0.43329768622E+02  0.00000000000E+00 0.  1.
         -3    1    6    6    0  502 -0.15360063394E+03 -0.79864899477E+02  0.17420666830E+03  0.24560032614E+03  0.00000000000E+00 0.  1.
<mgrwt>
<rscale>  0 0.16333363E+04</rscale>
<asrwt>0</asrwt>
<pdfrwt beam="1">  1        1 0.21826599E+00 0.16333363E+04</pdfrwt>
<pdfrwt beam="2">  1       -1 0.72323335E-01 0.16333363E+04</pdfrwt>
<totfact> 0.13755570E+01</totfact>
</mgrwt>
</event>
<event>
12    1  0.1518126E-007  0.1664719E+04  0.7818608E-02  0.8781746E-01
         -1   -1    0    0    0  501 -0.00000000000E+00  0.00000000000E+00  0.21004942603E+04  0.21004942603E+04  0.00000000000E+00 0.  1.
          1   -1    0    0  501    0  0.00000000000E+00 -0.00000000000E+00 -0.32983791747E+03  0.32983791747E+03  0.00000000000E+00 0. -1.
         23    2    1    2    0    0 -0.28832869122E+02 -0.35848992487E+03  0.13210777168E+04  0.13723057647E+04  0.92900039359E+02 0.  0.
        254    2    1    2    0    0  0.28832869122E+02  0.35848992487E+03  0.44957862605E+03  0.10580264131E+04  0.88766693603E+03 0.  0.
        -24    2    4    4    0    0 -0.78757337064E+02 -0.51461249546E+02 -0.22533424455E+03  0.25701810780E+03  0.80198551251E+02 0.  0.
         24    2    4    4    0    0  0.10759020619E+03  0.40995117441E+03  0.67491287060E+03  0.80100830534E+03  0.80444418355E+02 0.  0.
         13    1    3    3    0    0  0.22097295783E+02 -0.17860136141E+03  0.54143782714E+03  0.57056257977E+03  0.00000000000E+00 0. -1.
        -13    1    3    3    0    0 -0.50930164905E+02 -0.17988856346E+03  0.77963988967E+03  0.80174318490E+03  0.00000000000E+00 0.  1.
          2    1    6    6  502    0  0.11608962795E+03  0.30891809999E+03  0.51591589799E+03  0.61243481940E+03  0.00000000000E+00 0. -1.
          1    1    5    5  503    0 -0.11437157621E+01 -0.18670833843E+02 -0.12321547467E+03  0.12462728963E+03  0.00000000000E+00 0. -1.
         -2    1    5    5    0  503 -0.77613621302E+02 -0.32790415703E+02 -0.10211876988E+03  0.13239081817E+03  0.00000000000E+00 0.  1.
         -1    1    6    6    0  502 -0.84994217595E+01  0.10103307442E+03  0.15899697262E+03  0.18857348594E+03  0.00000000000E+00 0.  1.
<mgrwt>
<rscale>  0 0.16647194E+04</rscale>
<asrwt>0</asrwt>
<pdfrwt beam="1">  1        1 0.50744296E-01 0.16647194E+04</pdfrwt>
<pdfrwt beam="2">  1       -1 0.32315296E+00 0.16647194E+04</pdfrwt>
<totfact> 0.17293538E+00</totfact>
</mgrwt>
</event>
<event>
12    1  0.1518126E-007  0.1901720E+04  0.7818608E-02  0.8654001E-01
         -2   -1    0    0    0  501 -0.00000000000E+00  0.00000000000E+00  0.72208574940E+03  0.72208574940E+03  0.00000000000E+00 0.  1.
          2   -1    0    0  501    0  0.00000000000E+00 -0.00000000000E+00 -0.12521158640E+04  0.12521158640E+04  0.00000000000E+00 0. -1.
         23    2    1    2    0    0  0.53121096248E+02 -0.96296055303E+02  0.54568821902E+03  0.56423545538E+03  0.92147900688E+02 0.  0.
        254    2    1    2    0    0 -0.53121096248E+02  0.96296055303E+02 -0.10757183336E+04  0.14099661580E+04  0.90484244615E+03 0.  0.
        -24    2    4    4    0    0 -0.16162115314E+03 -0.36017811084E+03 -0.68600831863E+03  0.79542270830E+03  0.78994955457E+02 0.  0.
         24    2    4    4    0    0  0.10850005689E+03  0.45647416614E+03 -0.38971001501E+03  0.61454344974E+03  0.75158692860E+02 0.  0.
         13    1    3    3    0    0  0.77173490428E+02 -0.67372053645E+02  0.44777951193E+03  0.45934870473E+03  0.00000000000E+00 0.  1.
        -13    1    3    3    0    0 -0.24052394179E+02 -0.28924001658E+02  0.97908707091E+02  0.10488675065E+03  0.00000000000E+00 0. -1.
          4    1    6    6  502    0 -0.18841579066E+01  0.20743927356E+00 -0.11655602979E+02  0.11808732483E+02  0.00000000000E+00 0. -1.
          3    1    5    5  503    0 -0.68657807899E+02 -0.14879045178E+03 -0.36384989683E+03  0.39904791761E+03  0.00000000000E+00 0. -1.
         -4    1    5    5    0  503 -0.92963345238E+02 -0.21138765906E+03 -0.32215842179E+03  0.39637479069E+03  0.00000000000E+00 0.  1.
         -3    1    6    6    0  502  0.11038421480E+03  0.45626672687E+03 -0.37805441203E+03  0.60273471725E+03  0.00000000000E+00 0.  1.
<mgrwt>
<rscale>  0 0.19017203E+04</rscale>
<asrwt>0</asrwt>
<pdfrwt beam="1">  1        2 0.19263321E+00 0.19017203E+04</pdfrwt>
<pdfrwt beam="2">  1       -2 0.11109012E+00 0.19017203E+04</pdfrwt>
<totfact> 0.10596545E+01</totfact>
</mgrwt>
</event>
<event>
12    1  0.1518126E-007  0.1487722E+04  0.7818608E-02  0.8892659E-01
          2   -1    0    0  501    0  0.00000000000E+00  0.00000000000E+00  0.18180680614E+04  0.18180680614E+04  0.00000000000E+00 0. -1.
         -2   -1    0    0    0  501 -0.00000000000E+00 -0.00000000000E+00 -0.30435012688E+03  0.30435012688E+03  0.00000000000E+00 0.  1.
         23    2    1    2    0    0 -0.18183910783E+03 -0.24161663792E+03  0.98466427922E+03  0.10340620526E+04  0.90975408775E+02 0.  0.
        254    2    1    2    0    0  0.18183910783E+03  0.24161663792E+03  0.52905365531E+03  0.10883561357E+04  0.90176340967E+03 0.  0.
        -24    2    4    4    0    0  0.19912269887E+03 -0.27885859130E+03  0.14976017093E+02  0.35231282321E+03  0.80548626101E+02 0.  0.
         24    2    4    4    0    0 -0.17283591041E+02  0.52047522921E+03  0.51407763821E+03  0.73604331246E+03  0.79314267107E+02 0.  0.
         13    1    3    3    0    0 -0.15064967907E+03 -0.20704765335E+03  0.69476036451E+03  0.74044312452E+03  0.00000000000E+00 0. -1.
        -13    1    3    3    0    0 -0.31189428756E+02 -0.34568984572E+02  0.28990391471E+03  0.29361892808E+03  0.00000000000E+00 0.  1.
          2    1    6    6  502    0  0.21570604595E+02  0.74880277798E+02  0.57184012080E+02  0.96655875265E+02  0.00000000000E+00 0. -1.
          1    1    5    5  503    0  0.14292331203E+02 -0.52260791787E+02  0.25115670308E+02  0.59718154563E+02  0.00000000000E+00 0. -1.
         -2    1    5    5    0  503  0.18483036767E+03 -0.22659779951E+03 -0.10139653215E+02  0.29259466865E+03  0.00000000000E+00 0.  1.
         -1    1    6    6    0  502 -0.38854195636E+02  0.44559495142E+03  0.45689362613E+03  0.63938743720E+03  0.00000000000E+00 0.  1.
<mgrwt>
<rscale>  0 0.14877221E+04</rscale>
<asrwt>0</asrwt>
<pdfrwt beam="1">  1        2 0.27970277E+00 0.14877221E+04</pdfrwt>
<pdfrwt beam="2">  1       -2 0.46823098E-01 0.14877221E+04</pdfrwt>
<totfact> 0.35257522E+01</totfact>
</mgrwt>
</event>
<event>
12    1  0.1816584E-007  0.3058162E+04  0.7818608E-02  0.8227315E-01
          2   -1    0    0  501    0  0.00000000000E+00  0.00000000000E+00  0.16826994535E+04  0.16826994535E+04  0.00000000000E+00 0. -1.
         -2   -1    0    0    0  501 -0.00000000000E+00 -0.00000000000E+00 -0.13894868804E+04  0.13894868804E+04  0.00000000000E+00 0.  1.
         23    2    1    2    0    0 -0.46434970942E+03 -0.77278807655E+03  0.12036443817E+04  0.15066649686E+04  0.91964483308E+02 0.  0.
        254    2    1    2    0    0  0.46434970942E+03  0.77278807655E+03 -0.91043180863E+03  0.15655213653E+04  0.89952709976E+03 0.  0.
        -24    2    4    4    0    0  0.13170516031E+02 -0.12444192943E+03 -0.41782934139E+03  0.44343990623E+03  0.79989596941E+02 0.  0.
         24    2    4    4    0    0  0.45117919339E+03  0.89723000597E+03 -0.49260246724E+03  0.11220814591E+04  0.88460510562E+02 0.  0.
         11    1    3    3    0    0 -0.37986387964E+03 -0.65820061876E+03  0.10614482027E+04  0.13054489299E+04  0.00000000000E+00 0. -1.
        -11    1    3    3    0    0 -0.84485829775E+02 -0.11458745779E+03  0.14219617906E+03  0.20121603876E+03  0.00000000000E+00 0.  1.
          2    1    6    6  502    0  0.43122836230E+03  0.87959124983E+03 -0.46735098413E+03  0.10853827019E+04  0.00000000000E+00 0. -1.
          3    1    5    5  503    0  0.12931400405E+02 -0.13482927605E+03 -0.40427226327E+03  0.42635925890E+03  0.00000000000E+00 0. -1.
         -4    1    5    5    0  503  0.23911562646E+00  0.10387346625E+02 -0.13557078119E+02  0.17080647333E+02  0.00000000000E+00 0.  1.
         -3    1    6    6    0  502  0.19950831082E+02  0.17638756141E+02 -0.25251483107E+02  0.36698757175E+02  0.00000000000E+00 0.  1.
<mgrwt>
<rscale>  0 0.30581621E+04</rscale>
<asrwt>0</asrwt>
<pdfrwt beam="1">  1        2 0.25887684E+00 0.30581621E+04</pdfrwt>
<pdfrwt beam="2">  1       -2 0.21376721E+00 0.30581621E+04</pdfrwt>
<totfact> 0.92522503E-01</totfact>
</mgrwt>
</event>
<event>
12    1  0.1518126E-007  0.1676344E+04  0.7818608E-02  0.8774972E-01
         -2   -1    0    0    0  501 -0.00000000000E+00  0.00000000000E+00  0.15110599000E+04  0.15110599000E+04  0.00000000000E+00 0.  1.
          2   -1    0    0  501    0  0.00000000000E+00 -0.00000000000E+00 -0.46492707944E+03  0.46492707944E+03  0.00000000000E+00 0. -1.
         23    2    1    2    0    0 -0.91123653748E+02  0.57932408791E+03  0.26082222990E+03  0.64861201183E+03  0.93538158945E+02 0.  0.
        254    2    1    2    0    0  0.91123653748E+02 -0.57932408791E+03  0.78531059069E+03  0.13273749676E+04  0.89514896064E+03 0.  0.
        -24    2    4    4    0    0  0.38287414365E+03 -0.16121990634E+03  0.46234306187E+02  0.42599664290E+03  0.82164838090E+02 0.  0.
         24    2    4    4    0    0 -0.29175048990E+03 -0.41810418157E+03  0.73907628450E+03  0.90137832473E+03  0.79496383387E+02 0.  0.
         13    1    3    3    0    0  0.57571299057E+01  0.25382497921E+03  0.10044903036E+03  0.27303895751E+03  0.00000000000E+00 0.  1.
        -13    1    3    3    0    0 -0.96880783653E+02  0.32549910870E+03  0.16037319953E+03  0.37557305432E+03  0.00000000000E+00 0. -1.
          4    1    6    6  502    0 -0.22967453567E+01 -0.69297694445E+01 -0.19543848477E+00  0.73030774327E+01  0.00000000000E+00 0. -1.
          3    1    5    5  503    0  0.16593800430E+03 -0.78897827119E+02  0.60723916837E+02  0.19351403688E+03  0.00000000000E+00 0. -1.
         -4    1    5    5    0  503  0.21693613935E+03 -0.82322079216E+02 -0.14489610651E+02  0.23248260602E+03  0.00000000000E+00 0.  1.
         -3    1    6    6    0  502 -0.28945374455E+03 -0.41117441213E+03  0.73927172299E+03  0.89407524730E+03  0.00000000000E+00 0.  1.
<mgrwt>
<rscale>  0 0.16763444E+04</rscale>
<asrwt>0</asrwt>
<pdfrwt beam="1">  1        2 0.71527244E-01 0.16763444E+04</pdfrwt>
<pdfrwt beam="2">  1       -2 0.23247075E+00 0.16763444E+04</pdfrwt>
<totfact> 0.52670112E+00</totfact>
</mgrwt>
</event>
<event>
12    1  0.1518126E-007  0.1220421E+04  0.7818608E-02  0.9095168E-01
         -2   -1    0    0    0  501 -0.00000000000E+00  0.00000000000E+00  0.14135620058E+03  0.14135620058E+03  0.00000000000E+00 0.  1.
          2   -1    0    0  501    0  0.00000000000E+00 -0.00000000000E+00 -0.26341736407E+04  0.26341736407E+04  0.00000000000E+00 0. -1.
         23    2    1    2    0    0 -0.11967692138E+03  0.24142526750E+02 -0.10837021969E+04  0.10944696878E+04  0.92455496475E+02 0.  0.
        254    2    1    2    0    0  0.11967692138E+03 -0.24142526750E+02 -0.14091152432E+04  0.16810601534E+04  0.90854391409E+03 0.  0.
        -24    2    4    4    0    0 -0.21125652483E+03  0.20110036725E+03 -0.11685319530E+04  0.12070492890E+04  0.80189675117E+02 0.  0.
         24    2    4    4    0    0  0.33093344621E+03 -0.22524289400E+03 -0.24058329018E+03  0.47401086441E+03  0.80960934723E+02 0.  0.
         11    1    3    3    0    0 -0.69734289245E+02  0.36510532168E+02 -0.90755212485E+03  0.91095924682E+03  0.00000000000E+00 0. -1.
        -11    1    3    3    0    0 -0.49942632133E+02 -0.12368005418E+02 -0.17615007209E+03  0.18351044101E+03  0.00000000000E+00 0.  1.
          4    1    6    6  502    0  0.54567660172E+02 -0.22963967193E+02 -0.69104659886E+02  0.90996853483E+02  0.00000000000E+00 0. -1.
          3    1    5    5  503    0 -0.10898757597E+03  0.49709245633E+02 -0.46641942712E+03  0.48155620940E+03  0.00000000000E+00 0. -1.
         -4    1    5    5    0  503 -0.10226894886E+03  0.15139112161E+03 -0.70211252587E+03  0.72549307963E+03  0.00000000000E+00 0.  1.
         -3    1    6    6    0  502  0.27636578603E+03 -0.20227892680E+03 -0.17147863030E+03  0.38301401093E+03  0.00000000000E+00 0.  1.
<mgrwt>
<rscale>  0 0.12204209E+04</rscale>
<asrwt>0</asrwt>
<pdfrwt beam="1">  1        2 0.40525750E+00 0.12204209E+04</pdfrwt>
<pdfrwt beam="2">  1       -2 0.21747107E-01 0.12204209E+04</pdfrwt>
<totfact> 0.53183848E+01</totfact>
</mgrwt>
</event>
<event>
12    1  0.1518126E-007  0.1234892E+04  0.7818608E-02  0.9082852E-01
         -2   -1    0    0    0  501 -0.00000000000E+00  0.00000000000E+00  0.58162694565E+03  0.58162694565E+03  0.00000000000E+00 0.  1.
          2   -1    0    0  501    0  0.00000000000E+00 -0.00000000000E+00 -0.65547110495E+03  0.65547110495E+03  0.00000000000E+00 0. -1.
         23    2    1    2    0    0  0.96431081102E+02 -0.25879836514E+03  0.30170800491E+02  0.29225618383E+03  0.90707511174E+02 0.  0.
        254    2    1    2    0    0 -0.96431081102E+02  0.25879836514E+03 -0.10401495979E+03  0.94484186678E+03  0.89756977119E+03 0.  0.
        -24    2    4    4    0    0  0.38373703092E+03  0.18765445358E+03  0.25578474934E+02  0.43544954078E+03  0.80583753577E+02 0.  0.
         24    2    4    4    0    0 -0.48016811202E+03  0.71143911560E+02 -0.12959343473E+03  0.50939232600E+03  0.84042914683E+02 0.  0.
         11    1    3    3    0    0  0.19054246186E+01 -0.10883750946E+03 -0.13504538514E+02  0.10968868068E+03  0.00000000000E+00 0. -1.
        -11    1    3    3    0    0  0.94525656484E+02 -0.14996085568E+03  0.43675339005E+02  0.18256750315E+03  0.00000000000E+00 0.  1.
          4    1    6    6  502    0 -0.44307474233E+03  0.79247695657E+02 -0.99569564266E+02  0.46098755155E+03  0.00000000000E+00 0. -1.
          3    1    5    5  503    0  0.26256459840E+03  0.13109864289E+03 -0.20049796573E+02  0.29415814937E+03  0.00000000000E+00 0. -1.
         -4    1    5    5    0  503  0.12117243252E+03  0.56555810689E+02  0.45628271507E+02  0.14129139141E+03  0.00000000000E+00 0.  1.
         -3    1    6    6    0  502 -0.37093369686E+02 -0.81037840972E+01 -0.30023870461E+02  0.48404774442E+02  0.00000000000E+00 0.  1.
<mgrwt>
<rscale>  0 0.12348922E+04</rscale>
<asrwt>0</asrwt>
<pdfrwt beam="1">  1        2 0.10084171E+00 0.12348922E+04</pdfrwt>
<pdfrwt beam="2">  1       -2 0.89481068E-01 0.12348922E+04</pdfrwt>
<totfact> 0.46937696E+01</totfact>
</mgrwt>
</event>
<event>
12    1  0.1518126E-007  0.2371588E+04  0.7818608E-02  0.8450218E-01
         -1   -1    0    0    0  501 -0.00000000000E+00  0.00000000000E+00  0.63457459932E+03  0.63457459932E+03  0.00000000000E+00 0.  1.
          1   -1    0    0  501    0  0.00000000000E+00 -0.00000000000E+00 -0.22158268402E+04  0.22158268402E+04  0.00000000000E+00 0. -1.
         23    2    1    2    0    0 -0.85061322647E+03  0.18357820057E+03 -0.12930564620E+04  0.15612753673E+04  0.91334231050E+02 0.  0.
        254    2    1    2    0    0  0.85061322647E+03 -0.18357820057E+03 -0.28819577891E+03  0.12891260723E+04  0.90639142013E+03 0.  0.
        -24    2    4    4    0    0  0.82186977378E+03  0.35761851768E+01 -0.52270476097E+03  0.97713085000E+03  0.77985362262E+02 0.  0.
         24    2    4    4    0    0  0.28743452689E+02 -0.18715438575E+03  0.23450898206E+03  0.31199522228E+03  0.80582913073E+02 0.  0.
         11    1    3    3    0    0 -0.65832043793E+03  0.14933766506E+03 -0.93218012297E+03  0.11509332382E+04  0.00000000000E+00 0.  1.
        -11    1    3    3    0    0 -0.19229278854E+03  0.34240535515E+02 -0.36087633901E+03  0.41034212903E+03  0.00000000000E+00 0. -1.
          2    1    6    6  502    0  0.46439089082E+02 -0.13269733488E+03  0.12367941510E+03  0.18724788223E+03  0.00000000000E+00 0. -1.
          1    1    5    5  503    0  0.29857747211E+02 -0.92410782129E+01 -0.34954117403E+02  0.46890008727E+02  0.00000000000E+00 0. -1.
         -2    1    5    5    0  503  0.79201202657E+03  0.12817263390E+02 -0.48775064357E+03  0.93024084128E+03  0.00000000000E+00 0.  1.
         -1    1    6    6    0  502 -0.17695636393E+02 -0.54457050867E+02  0.11082956696E+03  0.12474734005E+03  0.00000000000E+00 0.  1.
<mgrwt>
<rscale>  0 0.23715880E+04</rscale>
<asrwt>0</asrwt>
<pdfrwt beam="1">  1        1 0.34089644E+00 0.23715880E+04</pdfrwt>
<pdfrwt beam="2">  1       -1 0.97626861E-01 0.23715880E+04</pdfrwt>
<totfact> 0.19214001E+00</totfact>
</mgrwt>
</event>
<event>
12    1  0.1518126E-007  0.2160829E+04  0.7818608E-02  0.8534911E-01
         -2   -1    0    0    0  501 -0.00000000000E+00  0.00000000000E+00  0.38696446295E+03  0.38696446295E+03  0.00000000000E+00 0.  1.
          2   -1    0    0  501    0  0.00000000000E+00 -0.00000000000E+00 -0.30165454405E+04  0.30165454405E+04  0.00000000000E+00 0. -1.
         23    2    1    2    0    0  0.49265802394E+03 -0.68202603184E+03 -0.15431932206E+04  0.17600187671E+04  0.91374546600E+02 0.  0.
        254    2    1    2    0    0 -0.49265802394E+03  0.68202603184E+03 -0.10863877570E+04  0.16434911364E+04  0.90163924059E+03 0.  0.
        -24    2    4    4    0    0 -0.57509555475E+03  0.60175900923E+02 -0.65802109328E+03  0.87969875792E+03  0.80759577348E+02 0.  0.
         24    2    4    4    0    0  0.82437530810E+02  0.62185013092E+03 -0.42836666372E+03  0.76379237848E+03  0.79920379269E+02 0.  0.
         13    1    3    3    0    0  0.44108313742E+03 -0.55600546084E+03 -0.13145646949E+04  0.14939132316E+04  0.00000000000E+00 0. -1.
        -13    1    3    3    0    0  0.51574886515E+02 -0.12602057100E+03 -0.22862852565E+03  0.26610553541E+03  0.00000000000E+00 0.  1.
          4    1    6    6  502    0 -0.62737429478E+00 -0.23081046777E+01 -0.31834262030E+00  0.24129417177E+01  0.00000000000E+00 0. -1.
          1    1    5    5  503    0 -0.42387958861E+02 -0.27707286763E+01 -0.83520897536E+02  0.93702488329E+02  0.00000000000E+00 0. -1.
         -2    1    5    5    0  503 -0.53270759589E+03  0.62946629599E+02 -0.57450019574E+03  0.78599626959E+03  0.00000000000E+00 0.  1.
         -3    1    6    6    0  502  0.83064905104E+02  0.62415823560E+03 -0.42804832110E+03  0.76137943676E+03  0.00000000000E+00 0.  1.
<mgrwt>
<rscale>  0 0.21608294E+04</rscale>
<asrwt>0</asrwt>
<pdfrwt beam="1">  1        2 0.46408392E+00 0.21608294E+04</pdfrwt>
<pdfrwt beam="2">  1       -2 0.59532993E-01 0.21608294E+04</pdfrwt>
<totfact> 0.41107754E+00</totfact>
</mgrwt>
</event>
<event>
12    1  0.1518126E-007  0.1898823E+04  0.7818608E-02  0.8655442E-01
          2   -1    0    0  501    0  0.00000000000E+00  0.00000000000E+00  0.18450153017E+04  0.18450153017E+04  0.00000000000E+00 0. -1.
         -2   -1    0    0    0  501 -0.00000000000E+00 -0.00000000000E+00 -0.48855021279E+03  0.48855021279E+03  0.00000000000E+00 0.  1.
         23    2    1    2    0    0 -0.18772591656E+03 -0.58391379170E+02  0.13981974886E+04  0.14149281346E+04  0.91732415454E+02 0.  0.
        254    2    1    2    0    0  0.18772591656E+03  0.58391379170E+02 -0.41732399775E+02  0.91863737980E+03  0.89638299262E+03 0.  0.
        -24    2    4    4    0    0  0.15703438596E+03  0.44703869032E+03  0.10965820370E+03  0.49254338422E+03  0.77914534487E+02 0.  0.
         24    2    4    4    0    0  0.30691530594E+02 -0.38864731115E+03 -0.15139060348E+03  0.42609399557E+03  0.81536959257E+02 0.  0.
         11    1    3    3    0    0 -0.89320108334E+02  0.19176366270E+02  0.62589307114E+03  0.63252505980E+03  0.00000000000E+00 0. -1.
        -11    1    3    3    0    0 -0.98405808222E+02 -0.77567745440E+02  0.77230441750E+03  0.78240307484E+03  0.00000000000E+00 0.  1.
          4    1    6    6  502    0  0.25006586933E+02 -0.23607368464E+03 -0.13353430316E+03  0.27237386822E+03  0.00000000000E+00 0. -1.
          3    1    5    5  503    0  0.12707772475E+03  0.26201013886E+03  0.85895788498E+02  0.30360524941E+03  0.00000000000E+00 0. -1.
         -4    1    5    5    0  503  0.29956661213E+02  0.18502855147E+03  0.23762415203E+02  0.18893813481E+03  0.00000000000E+00 0.  1.
         -3    1    6    6    0  502  0.56849436614E+01 -0.15257362652E+03 -0.17856300319E+02  0.15372012736E+03  0.00000000000E+00 0.  1.
<mgrwt>
<rscale>  0 0.18988234E+04</rscale>
<asrwt>0</asrwt>
<pdfrwt beam="1">  1        2 0.28384851E+00 0.18988234E+04</pdfrwt>
<pdfrwt beam="2">  1       -2 0.75161572E-01 0.18988234E+04</pdfrwt>
<totfact> 0.12124822E+01</totfact>
</mgrwt>
</event>
<event>
12    1  0.1518126E-007  0.1249211E+04  0.7818608E-02  0.9070840E-01
         -1   -1    0    0    0  501 -0.00000000000E+00  0.00000000000E+00  0.42116057881E+03  0.42116057881E+03  0.00000000000E+00 0.  1.
          1   -1    0    0  501    0  0.00000000000E+00 -0.00000000000E+00 -0.92632665001E+03  0.92632665001E+03  0.00000000000E+00 0. -1.
         23    2    1    2    0    0 -0.99416832701E+02 -0.17000155051E+03 -0.33532442353E+03  0.39906984525E+03  0.89610482470E+02 0.  0.
        254    2    1    2    0    0  0.99416832701E+02  0.17000155051E+03 -0.16984164766E+03  0.94841738357E+03  0.91206639801E+03 0.  0.
        -24    2    4    4    0    0  0.85213404620E+02 -0.28963002589E+03 -0.32989135556E+03  0.45484765264E+03  0.83133653933E+02 0.  0.
         24    2    4    4    0    0  0.14203428081E+02  0.45963157640E+03  0.16004970790E+03  0.49356973093E+03  0.80822316840E+02 0.  0.
         13    1    3    3    0    0 -0.12667607319E+02 -0.10726561018E+03 -0.14657426459E+03  0.18207249776E+03  0.00000000000E+00 0. -1.
        -13    1    3    3    0    0 -0.86749225382E+02 -0.62735940331E+02 -0.18875015895E+03  0.21699734749E+03  0.00000000000E+00 0.  1.
          4    1    6    6  502    0 -0.33536821733E+02  0.21598166941E+03  0.71448955713E+02  0.22995163232E+03  0.00000000000E+00 0. -1.
          1    1    5    5  503    0  0.88582659470E+02 -0.15661189538E+03 -0.18258709972E+03  0.25634395315E+03  0.00000000000E+00 0. -1.
         -2    1    5    5    0  503 -0.33692548497E+01 -0.13301813050E+03 -0.14730425585E+03  0.19850369949E+03  0.00000000000E+00 0.  1.
         -3    1    6    6    0  502  0.47740249814E+02  0.24364990699E+03  0.88600752189E+02  0.26361809861E+03  0.00000000000E+00 0.  1.
<mgrwt>
<rscale>  0 0.12492114E+04</rscale>
<asrwt>0</asrwt>
<pdfrwt beam="1">  1        1 0.14251179E+00 0.12492114E+04</pdfrwt>
<pdfrwt beam="2">  1       -1 0.64793936E-01 0.12492114E+04</pdfrwt>
<totfact> 0.41255776E+01</totfact>
</mgrwt>
</event>
<event>
12    1  0.1518126E-007  0.2854137E+04  0.7818608E-02  0.8286655E-01
          1   -1    0    0  501    0  0.00000000000E+00  0.00000000000E+00  0.72956188291E+03  0.72956188291E+03  0.00000000000E+00 0. -1.
         -1   -1    0    0    0  501 -0.00000000000E+00 -0.00000000000E+00 -0.27914347997E+04  0.27914347997E+04  0.00000000000E+00 0.  1.
         23    2    1    2    0    0 -0.32209150139E+03  0.77242516564E+03  0.26673871277E+03  0.88308494361E+03  0.91136737753E+02 0.  0.
        254    2    1    2    0    0  0.32209150139E+03 -0.77242516564E+03 -0.23286116296E+04  0.26379117390E+04  0.91420055220E+03 0.  0.
        -24    2    4    4    0    0 -0.11888401970E+03 -0.54507622092E+03 -0.18851320352E+04  0.19676053221E+04  0.80662360628E+02 0.  0.
         24    2    4    4    0    0  0.44097552109E+03 -0.22734894472E+03 -0.44347959432E+03  0.67030641692E+03  0.80557986109E+02 0.  0.
         11    1    3    3    0    0 -0.89478204498E+02  0.21206752100E+03  0.31323846293E+02  0.23229327560E+03  0.00000000000E+00 0.  1.
        -11    1    3    3    0    0 -0.23261329689E+03  0.56035764464E+03  0.23541486648E+03  0.65079166801E+03  0.00000000000E+00 0. -1.
          4    1    6    6  502    0  0.33449977675E+03 -0.19463204591E+03 -0.37862054902E+03  0.54141043033E+03  0.00000000000E+00 0. -1.
          3    1    5    5  503    0 -0.11785305817E+03 -0.47911098501E+03 -0.17310862623E+04  0.18000267572E+04  0.00000000000E+00 0. -1.
         -4    1    5    5    0  503 -0.10309615287E+01 -0.65965235911E+02 -0.15404577297E+03  0.16757856486E+03  0.00000000000E+00 0.  1.
         -3    1    6    6    0  502  0.10647574434E+03 -0.32716898812E+02 -0.64859045306E+02  0.12889598659E+03  0.00000000000E+00 0.  1.
<mgrwt>
<rscale>  0 0.28541369E+04</rscale>
<asrwt>0</asrwt>
<pdfrwt beam="1">  1        1 0.11224029E+00 0.28541369E+04</pdfrwt>
<pdfrwt beam="2">  1       -1 0.42945151E+00 0.28541369E+04</pdfrwt>
<totfact> 0.98769727E-02</totfact>
</mgrwt>
</event>
<event>
12    1  0.1518126E-007  0.1483794E+04  0.7818608E-02  0.8895302E-01
         -2   -1    0    0    0  501 -0.00000000000E+00  0.00000000000E+00  0.85772163091E+03  0.85772163091E+03  0.00000000000E+00 0. -1.
          2   -1    0    0  501    0  0.00000000000E+00 -0.00000000000E+00 -0.64171289490E+03  0.64171289490E+03  0.00000000000E+00 0.  1.
         23    2    1    2    0    0  0.78437405170E+02 -0.10805227313E+03  0.51753041722E+03  0.54207151329E+03  0.90421637408E+02 0.  0.
        254    2    1    2    0    0 -0.78437405170E+02  0.10805227313E+03 -0.30152168121E+03  0.95736301252E+03  0.89877744367E+03 0.  0.
        -24    2    4    4    0    0 -0.25570317459E+03  0.38989447225E+03  0.38451173035E+02  0.47479207021E+03  0.80914796205E+02 0.  0.
         24    2    4    4    0    0  0.17726576942E+03 -0.28184219912E+03 -0.33997285424E+03  0.48257094230E+03  0.80218417596E+02 0.  0.
         11    1    3    3    0    0  0.77199913199E+02 -0.61097901574E+02  0.44426025694E+03  0.45503841164E+03  0.00000000000E+00 0. -1.
        -11    1    3    3    0    0  0.12374919708E+01 -0.46954371552E+02  0.73270160282E+02  0.87033101645E+02  0.00000000000E+00 0.  1.
          4    1    6    6  502    0  0.32888865385E+02 -0.11256699695E+03 -0.14708746423E+03  0.18811626299E+03  0.00000000000E+00 0. -1.
          1    1    5    5  503    0 -0.19441586057E+03  0.32773317230E+03  0.57694469537E+02  0.38540266071E+03  0.00000000000E+00 0. -1.
         -2    1    5    5    0  503 -0.61287314020E+02  0.62161299943E+02 -0.19243296502E+02  0.89389409500E+02  0.00000000000E+00 0.  1.
         -3    1    6    6    0  502  0.14437690404E+03 -0.16927520217E+03 -0.19288539002E+03  0.29445467931E+03  0.00000000000E+00 0.  1.
<mgrwt>
<rscale>  0 0.14837938E+04</rscale>
<asrwt>0</asrwt>
<pdfrwt beam="1">  1        2 0.98725062E-01 0.14837938E+04</pdfrwt>
<pdfrwt beam="2">  1       -2 0.13195717E+00 0.14837938E+04</pdfrwt>
<totfact> 0.18470350E+01</totfact>
</mgrwt>
</event>
<event>
12    1  0.1518126E-007  0.1123693E+04  0.7818608E-02  0.9182402E-01
          2   -1    0    0  501    0  0.00000000000E+00  0.00000000000E+00  0.15494907439E+04  0.15494907439E+04  0.00000000000E+00 0. -1.
         -2   -1    0    0    0  501 -0.00000000000E+00 -0.00000000000E+00 -0.20372580193E+03  0.20372580193E+03  0.00000000000E+00 0.  1.
         23    2    1    2    0    0 -0.12354382551E+03 -0.12750057067E+03  0.34892705613E+03  0.40171119191E+03  0.90012881677E+02 0.  0.
        254    2    1    2    0    0  0.12354382551E+03  0.12750057067E+03  0.99683788579E+03  0.13515053539E+04  0.89518795716E+03 0.  0.
        -24    2    4    4    0    0  0.16397823230E+03 -0.41194494594E+02  0.11129357302E+04  0.11285834862E+04  0.80553699728E+02 0.  0.
         24    2    4    4    0    0 -0.40434406791E+02  0.16869506527E+03 -0.11609784444E+03  0.22292186771E+03  0.78246299091E+02 0.  0.
         11    1    3    3    0    0 -0.84894302642E+02 -0.52922417172E+02  0.11118176084E+03  0.14956339393E+03  0.00000000000E+00 0.  1.
        -11    1    3    3    0    0 -0.38649522871E+02 -0.74578153501E+02  0.23774529528E+03  0.25214779798E+03  0.00000000000E+00 0. -1.
          2    1    6    6  502    0 -0.43720623453E+02  0.17142966744E+03 -0.12252533368E+03  0.21520241910E+03  0.00000000000E+00 0. -1.
          3    1    5    5  503    0  0.14610137868E+03 -0.38414855765E+02  0.10838708069E+04  0.10943478606E+04  0.00000000000E+00 0. -1.
         -4    1    5    5    0  503  0.17876853627E+02 -0.27796388294E+01  0.29064923353E+02  0.34235625555E+02  0.00000000000E+00 0.  1.
         -1    1    6    6    0  502  0.32862166622E+01 -0.27346021731E+01  0.64274892345E+01  0.77194486109E+01  0.00000000000E+00 0.  1.
<mgrwt>
<rscale>  0 0.11236926E+04</rscale>
<asrwt>0</asrwt>
<pdfrwt beam="1">  1        2 0.23838318E+00 0.11236926E+04</pdfrwt>
<pdfrwt beam="2">  1       -2 0.31342432E-01 0.11236926E+04</pdfrwt>
<totfact> 0.11142281E+02</totfact>
</mgrwt>
</event>
<event>
12    1  0.1518126E-007  0.1680982E+04  0.7818608E-02  0.8772286E-01
         -2   -1    0    0    0  501 -0.00000000000E+00  0.00000000000E+00  0.19033852008E+03  0.19033852008E+03  0.00000000000E+00 0. -1.
          2   -1    0    0  501    0  0.00000000000E+00 -0.00000000000E+00 -0.37114127172E+04  0.37114127172E+04  0.00000000000E+00 0.  1.
         23    2    1    2    0    0  0.18565342798E+03 -0.56331677647E+03 -0.11783191004E+04  0.13223779155E+04  0.91948153688E+02 0.  0.
        254    2    1    2    0    0 -0.18565342798E+03  0.56331677647E+03 -0.23427550967E+04  0.25793733218E+04  0.90159431236E+03 0.  0.
        -24    2    4    4    0    0 -0.11795747491E+03  0.57853921987E+03 -0.23900624466E+04  0.24632362349E+04  0.80701024904E+02 0.  0.
         24    2    4    4    0    0 -0.67695953063E+02 -0.15222443400E+02  0.47307349924E+02  0.11613708688E+03  0.80220775034E+02 0.  0.
         11    1    3    3    0    0  0.32865699133E+02 -0.70907720677E+02 -0.98065535407E+02  0.12539899627E+03  0.00000000000E+00 0.  1.
        -11    1    3    3    0    0  0.15278772884E+03 -0.49240905580E+03 -0.10802535650E+04  0.11969789192E+04  0.00000000000E+00 0. -1.
          4    1    6    6  502    0 -0.38216659262E+02 -0.43443962567E+01 -0.18897016340E+02  0.42854218585E+02  0.00000000000E+00 0. -1.
          1    1    5    5  503    0  0.27346505613E+00  0.21902576993E+02 -0.16989221107E+03  0.17129845605E+03  0.00000000000E+00 0. -1.
         -4    1    5    5    0  503 -0.11823093997E+03  0.55663664288E+03 -0.22201702356E+04  0.22919377789E+04  0.00000000000E+00 0.  1.
         -3    1    6    6    0  502 -0.29479293801E+02 -0.10878047144E+02  0.66204366263E+02  0.73282868291E+02  0.00000000000E+00 0.  1.
<mgrwt>
<rscale>  0 0.16809816E+04</rscale>
<asrwt>0</asrwt>
<pdfrwt beam="1">  1        2 0.57098657E+00 0.16809816E+04</pdfrwt>
<pdfrwt beam="2">  1       -2 0.29282849E-01 0.16809816E+04</pdfrwt>
<totfact> 0.59298879E+00</totfact>
</mgrwt>
</event>
<event>
12    1  0.1518126E-007  0.1525568E+04  0.7818608E-02  0.8867626E-01
          1   -1    0    0  501    0  0.00000000000E+00  0.00000000000E+00  0.67764289681E+03  0.67764289681E+03  0.00000000000E+00 0. -1.
         -1   -1    0    0    0  501 -0.00000000000E+00 -0.00000000000E+00 -0.85862275750E+03  0.85862275750E+03  0.00000000000E+00 0.  1.
         23    2    1    2    0    0  0.12175434911E+03 -0.10081830441E+03 -0.52871818910E+03  0.55965427018E+03  0.93174710129E+02 0.  0.
        254    2    1    2    0    0 -0.12175434911E+03  0.10081830441E+03  0.34773832842E+03  0.97661138414E+03  0.89880999023E+03 0.  0.
        -24    2    4    4    0    0 -0.32319835364E+03  0.31650536897E+03 -0.63978729495E+02  0.46386596535E+03  0.80284068135E+02 0.  0.
         24    2    4    4    0    0  0.20144400453E+03 -0.21568706456E+03  0.41171705791E+03  0.51274541879E+03  0.79349429326E+02 0.  0.
         11    1    3    3    0    0  0.14515125548E+02 -0.41449164331E+02 -0.55259301346E+02  0.70585497651E+02  0.00000000000E+00 0. -1.
        -11    1    3    3    0    0  0.10723922356E+03 -0.59369140081E+02 -0.47345888776E+03  0.48906877253E+03  0.00000000000E+00 0.  1.
          2    1    6    6  502    0  0.10069168867E+02 -0.29307792658E+02  0.86479048697E+02  0.91863816248E+02  0.00000000000E+00 0. -1.
          1    1    5    5  503    0 -0.95577509987E+02  0.13454888657E+03  0.21192467625E+01  0.16505439860E+03  0.00000000000E+00 0. -1.
         -2    1    5    5    0  503 -0.22762084365E+03  0.18195648241E+03 -0.66097976257E+02  0.29881156674E+03  0.00000000000E+00 0.  1.
         -1    1    6    6    0  502  0.19137483566E+03 -0.18637927191E+03  0.32523800921E+03  0.42088160254E+03  0.00000000000E+00 0.  1.
<mgrwt>
<rscale>  0 0.15255682E+04</rscale>
<asrwt>0</asrwt>
<pdfrwt beam="1">  1        1 0.10425275E+00 0.15255682E+04</pdfrwt>
<pdfrwt beam="2">  1       -1 0.13209581E+00 0.15255682E+04</pdfrwt>
<totfact> 0.13456010E+01</totfact>
</mgrwt>
</event>
<event>
12    1  0.1518126E-007  0.1930275E+04  0.7818608E-02  0.8639932E-01
          2   -1    0    0  501    0  0.00000000000E+00  0.00000000000E+00  0.16275679226E+04  0.16275679226E+04  0.00000000000E+00 0. -1.
         -2   -1    0    0    0  501 -0.00000000000E+00 -0.00000000000E+00 -0.57232053153E+03  0.57232053153E+03  0.00000000000E+00 0.  1.
         23    2    1    2    0    0 -0.65427934680E+03  0.34913368244E+03  0.28997382165E+03  0.80137916298E+03  0.90266016588E+02 0.  0.
        254    2    1    2    0    0  0.65427934680E+03 -0.34913368244E+03  0.76527356944E+03  0.13985092912E+04  0.90565380224E+03 0.  0.
        -24    2    4    4    0    0 -0.83034149103E+01  0.25376985409E+03  0.12651311016E+03  0.29555714314E+03  0.82948009480E+02 0.  0.
         24    2    4    4    0    0  0.66258276171E+03 -0.60290353653E+03  0.63876045928E+03  0.11029521480E+04  0.77329981214E+02 0.  0.
         11    1    3    3    0    0 -0.76340856527E+02  0.10025699979E+02  0.29606031889E+02  0.82492170292E+02  0.00000000000E+00 0.  1.
        -11    1    3    3    0    0 -0.57793849028E+03  0.33910798247E+03  0.26036778976E+03  0.71888699269E+03  0.00000000000E+00 0. -1.
          2    1    6    6  502    0  0.30035526702E+03 -0.30026488281E+03  0.26206423890E+03  0.49904904727E+03  0.00000000000E+00 0. -1.
          1    1    5    5  503    0  0.41321985667E+01 -0.43604179632E+01  0.10899059476E+02  0.12444991252E+02  0.00000000000E+00 0. -1.
         -2    1    5    5    0  503 -0.12435613477E+02  0.25813027205E+03  0.11561405068E+03  0.28311215189E+03  0.00000000000E+00 0.  1.
         -1    1    6    6    0  502  0.36222749470E+03 -0.30263865372E+03  0.37669622038E+03  0.60390310074E+03  0.00000000000E+00 0.  1.
<mgrwt>
<rscale>  0 0.19302751E+04</rscale>
<asrwt>0</asrwt>
<pdfrwt beam="1">  1        2 0.25039506E+00 0.19302751E+04</pdfrwt>
<pdfrwt beam="2">  1       -2 0.88049313E-01 0.19302751E+04</pdfrwt>
<totfact> 0.11177189E+01</totfact>
</mgrwt>
</event>
<event>
12    1  0.1518126E-007  0.3087939E+04  0.7818608E-02  0.8219056E-01
          2   -1    0    0  501    0  0.00000000000E+00  0.00000000000E+00  0.14934040784E+04  0.14934040784E+04  0.00000000000E+00 0. -1.
         -2   -1    0    0    0  501 -0.00000000000E+00 -0.00000000000E+00 -0.15962469015E+04  0.15962469015E+04  0.00000000000E+00 0.  1.
         23    2    1    2    0    0  0.86030482418E+03 -0.97652474644E+03 -0.59596065852E+03  0.14342798803E+04  0.90910381536E+02 0.  0.
        254    2    1    2    0    0 -0.86030482418E+03  0.97652474644E+03  0.49311783546E+03  0.16553710997E+04  0.89630536487E+03 0.  0.
        -24    2    4    4    0    0 -0.10025078814E+04  0.97537752596E+03  0.51039951995E+03  0.14908885004E+04  0.76534177478E+02 0.  0.
         24    2    4    4    0    0  0.14220305720E+03  0.11472204855E+01 -0.17281684492E+02  0.16448259927E+03  0.80826006029E+02 0.  0.
         13    1    3    3    0    0  0.41263983945E+03 -0.48323169887E+03 -0.33976500534E+03  0.72057252983E+03  0.00000000000E+00 0. -1.
        -13    1    3    3    0    0  0.44766498473E+03 -0.49329304757E+03 -0.25619565318E+03  0.71370735042E+03  0.00000000000E+00 0.  1.
          2    1    6    6  502    0 -0.29103265843E+01  0.13793515892E+02  0.86349814049E+01  0.16531605649E+02  0.00000000000E+00 0. -1.
          3    1    5    5  503    0 -0.17418697085E+03  0.15922862237E+03  0.57061599271E+02  0.24279802534E+03  0.00000000000E+00 0. -1.
         -4    1    5    5    0  503 -0.82832091054E+03  0.81614890359E+03  0.45333792068E+03  0.12480904751E+04  0.00000000000E+00 0.  1.
         -1    1    6    6    0  502  0.14511338379E+03 -0.12646295406E+02 -0.25916665897E+02  0.14795099362E+03  0.00000000000E+00 0.  1.
<mgrwt>
<rscale>  0 0.30879389E+04</rscale>
<asrwt>0</asrwt>
<pdfrwt beam="1">  1        2 0.22975448E+00 0.30879389E+04</pdfrwt>
<pdfrwt beam="2">  1       -2 0.24557644E+00 0.30879389E+04</pdfrwt>
<totfact> 0.74454963E-01</totfact>
</mgrwt>
</event>
<event>
12    1  0.1518126E-007  0.1250672E+04  0.7818608E-02  0.9069624E-01
         -2   -1    0    0    0  501 -0.00000000000E+00  0.00000000000E+00  0.24800455518E+03  0.24800455518E+03  0.00000000000E+00 0.  1.
          2   -1    0    0  501    0  0.00000000000E+00 -0.00000000000E+00 -0.15767648771E+04  0.15767648771E+04  0.00000000000E+00 0. -1.
         23    2    1    2    0    0  0.20459774531E+03  0.74658363506E+02 -0.62887660526E+03  0.67198086776E+03  0.92942957602E+02 0.  0.
        254    2    1    2    0    0 -0.20459774531E+03 -0.74658363506E+02 -0.69988371669E+03  0.11527885646E+04  0.88974723886E+03 0.  0.
        -24    2    4    4    0    0 -0.45117151140E+03 -0.11056832719E+03 -0.78470676845E+02  0.47787199639E+03  0.80143060438E+02 0.  0.
         24    2    4    4    0    0  0.24657376609E+03  0.35909963679E+02 -0.62141303985E+03  0.67491656817E+03  0.85264648451E+02 0.  0.
         13    1    3    3    0    0  0.18961498222E+03  0.86686149418E+02 -0.61153571807E+03  0.64609926827E+03  0.00000000000E+00 0. -1.
        -13    1    3    3    0    0  0.14982763090E+02 -0.12027785912E+02 -0.17340887190E+02  0.25881599493E+02  0.00000000000E+00 0.  1.
          4    1    6    6  502    0  0.21069514409E+03  0.21944095479E+01 -0.54155013846E+03  0.58109707592E+03  0.00000000000E+00 0. -1.
          1    1    5    5  503    0 -0.39850598281E+03 -0.11450231818E+03 -0.49330882363E+02  0.41755399071E+03  0.00000000000E+00 0. -1.
         -2    1    5    5    0  503 -0.52665528589E+02  0.39339909984E+01 -0.29139794482E+02  0.60318005680E+02  0.00000000000E+00 0.  1.
         -3    1    6    6    0  502  0.35878622004E+02  0.33715554131E+02 -0.79862901383E+02  0.93819492243E+02  0.00000000000E+00 0.  1.
<mgrwt>
<rscale>  0 0.12506716E+04</rscale>
<asrwt>0</asrwt>
<pdfrwt beam="1">  1        2 0.24257922E+00 0.12506716E+04</pdfrwt>
<pdfrwt beam="2">  1       -2 0.38154546E-01 0.12506716E+04</pdfrwt>
<totfact> 0.73265778E+01</totfact>
</mgrwt>
</event>
<event>
12    1  0.1518126E-007  0.1070054E+04  0.7818608E-02  0.9234881E-01
         -1   -1    0    0    0  501 -0.00000000000E+00  0.00000000000E+00  0.16528943228E+03  0.16528943228E+03  0.00000000000E+00 0.  1.
          1   -1    0    0  501    0  0.00000000000E+00 -0.00000000000E+00 -0.17318355877E+04  0.17318355877E+04  0.00000000000E+00 0. -1.
         23    2    1    2    0    0  0.10712952158E+03  0.47379419053E+02 -0.12911469075E+03  0.19663670131E+03  0.90960679359E+02 0.  0.
        254    2    1    2    0    0 -0.10712952158E+03 -0.47379419053E+02 -0.14374314647E+04  0.17004883187E+04  0.90096046669E+03 0.  0.
        -24    2    4    4    0    0 -0.38568191235E+03  0.20657323864E+03 -0.11078431864E+04  0.11939195715E+04  0.81880260573E+02 0.  0.
         24    2    4    4    0    0  0.27855239076E+03 -0.25395265769E+03 -0.32958827821E+03  0.50656874713E+03  0.76811950168E+02 0.  0.
         13    1    3    3    0    0  0.23053574931E+02  0.26969347207E+02 -0.98774195016E+02  0.10495310670E+03  0.00000000000E+00 0. -1.
        -13    1    3    3    0    0  0.84075946653E+02  0.20410071846E+02 -0.30340495738E+02  0.91683594606E+02  0.00000000000E+00 0.  1.
          2    1    6    6  502    0  0.16649940264E+03 -0.17621814433E+03 -0.16714845745E+03  0.29447154752E+03  0.00000000000E+00 0. -1.
          1    1    5    5  503    0 -0.18246710496E+03  0.10491599964E+03 -0.64184320731E+03  0.67547340003E+03  0.00000000000E+00 0. -1.
         -2    1    5    5    0  503 -0.20321480739E+03  0.10165723900E+03 -0.46599997913E+03  0.51844617149E+03  0.00000000000E+00 0.  1.
         -1    1    6    6    0  502  0.11205298813E+03 -0.77734513359E+02 -0.16243982076E+03  0.21209719961E+03  0.00000000000E+00 0.  1.
<mgrwt>
<rscale>  0 0.10700544E+04</rscale>
<asrwt>0</asrwt>
<pdfrwt beam="1">  1        1 0.26643625E+00 0.10700544E+04</pdfrwt>
<pdfrwt beam="2">  1       -1 0.25429143E-01 0.10700544E+04</pdfrwt>
<totfact> 0.61635050E+01</totfact>
</mgrwt>
</event>
<event>
12    1  0.1518126E-007  0.2773569E+04  0.7818608E-02  0.8311521E-01
          1   -1    0    0  501    0  0.00000000000E+00  0.00000000000E+00  0.17104953152E+04  0.17104953152E+04  0.00000000000E+00 0. -1.
         -1   -1    0    0    0  501 -0.00000000000E+00 -0.00000000000E+00 -0.11243360314E+04  0.11243360314E+04  0.00000000000E+00 0.  1.
         23    2    1    2    0    0  0.30859141935E+03  0.19906878618E+03  0.14928015452E+04  0.15401920670E+04  0.94223692504E+02 0.  0.
        254    2    1    2    0    0 -0.30859141935E+03 -0.19906878618E+03 -0.90664226135E+03  0.12946392797E+04  0.84807642853E+03 0.  0.
        -24    2    4    4    0    0 -0.31750141895E+03 -0.41456331730E+03 -0.92430401201E+03  0.10645228222E+04  0.78746665667E+02 0.  0.
         24    2    4    4    0    0  0.89099996035E+01  0.21549453112E+03  0.17661750662E+02  0.23011645742E+03  0.78258325435E+02 0.  0.
         13    1    3    3    0    0  0.15272482710E+02  0.76810766232E+01  0.19957447009E+02  0.26278267777E+02  0.00000000000E+00 0.  1.
        -13    1    3    3    0    0  0.29331893664E+03  0.19138770955E+03  0.14728440982E+04  0.15139137992E+04  0.00000000000E+00 0. -1.
          4    1    6    6  502    0  0.29247653968E+02  0.53435614475E+02  0.26756313156E+02  0.66533378470E+02  0.00000000000E+00 0. -1.
          1    1    5    5  503    0 -0.32401589135E+02 -0.29105393064E+02 -0.12598964645E+03  0.13330558089E+03  0.00000000000E+00 0. -1.
         -2    1    5    5    0  503 -0.28509982982E+03 -0.38545792424E+03 -0.79831436556E+03  0.93121724135E+03  0.00000000000E+00 0.  1.
         -3    1    6    6    0  502 -0.20337654364E+02  0.16205891665E+03 -0.90945624938E+01  0.16358307895E+03  0.00000000000E+00 0.  1.
<mgrwt>
<rscale>  0 0.27735692E+04</rscale>
<asrwt>0</asrwt>
<pdfrwt beam="1">  1        1 0.26315312E+00 0.27735692E+04</pdfrwt>
<pdfrwt beam="2">  1       -1 0.17297478E+00 0.27735692E+04</pdfrwt>
<totfact> 0.95193536E-01</totfact>
</mgrwt>
</event>
<event>
12    1  0.2342983E-007  0.2193237E+04  0.7818608E-02  0.8521248E-01
          1   -1    0    0  501    0  0.00000000000E+00  0.00000000000E+00  0.12149875908E+04  0.12149875908E+04  0.00000000000E+00 0. -1.
         -1   -1    0    0    0  501 -0.00000000000E+00 -0.00000000000E+00 -0.98978158355E+03  0.98978158355E+03  0.00000000000E+00 0.  1.
         23    2    1    2    0    0  0.17564153962E+03 -0.26395416962E+03  0.95186812445E+03  0.10062217569E+04  0.76860546560E+02 0.  0.
        254    2    1    2    0    0 -0.17564153962E+03  0.26395416962E+03 -0.72666211724E+03  0.11985474174E+04  0.89886390797E+03 0.  0.
        -24    2    4    4    0    0  0.46024774228E+02 -0.26232102309E+03 -0.92075512011E+01  0.27810269597E+03  0.79534467398E+02 0.  0.
         24    2    4    4    0    0 -0.22166631384E+03  0.52627519271E+03 -0.71745456604E+03  0.92044472145E+03  0.79849218862E+02 0.  0.
         13    1    3    3    0    0  0.17721215774E+03 -0.26833722830E+03  0.93900938690E+03  0.99254604207E+03  0.00000000000E+00 0. -1.
        -13    1    3    3    0    0 -0.15706181231E+01  0.43830586841E+01  0.12858737544E+02  0.13675714824E+02  0.00000000000E+00 0.  1.
          4    1    6    6  502    0 -0.51972741147E+02  0.13436322353E+03 -0.23943654770E+03  0.27943604283E+03  0.00000000000E+00 0. -1.
          1    1    5    5  503    0  0.47844583072E+01 -0.22369540969E+02  0.23086791599E+02  0.32500574623E+02  0.00000000000E+00 0. -1.
         -2    1    5    5    0  503  0.41240315921E+02 -0.23995148213E+03 -0.32294342800E+02  0.24560212134E+03  0.00000000000E+00 0.  1.
         -3    1    6    6    0  502 -0.16969357270E+03  0.39191196918E+03 -0.47801801834E+03  0.64100867861E+03  0.00000000000E+00 0.  1.
<mgrwt>
<rscale>  0 0.21932372E+04</rscale>
<asrwt>0</asrwt>
<pdfrwt beam="1">  1        1 0.18692117E+00 0.21932372E+04</pdfrwt>
<pdfrwt beam="2">  1       -1 0.15227409E+00 0.21932372E+04</pdfrwt>
<totfact> 0.31841892E+00</totfact>
</mgrwt>
</event>
<event>
12    1  0.1518126E-007  0.1341969E+04  0.7818608E-02  0.8996930E-01
          1   -1    0    0  501    0  0.00000000000E+00  0.00000000000E+00  0.52781901640E+03  0.52781901640E+03  0.00000000000E+00 0. -1.
         -1   -1    0    0    0  501 -0.00000000000E+00 -0.00000000000E+00 -0.85298219423E+03  0.85298219423E+03  0.00000000000E+00 0.  1.
         23    2    1    2    0    0  0.16141872391E+02  0.16302356616E+02  0.27499542812E+03  0.28889664581E+03  0.85512920656E+02 0.  0.
        254    2    1    2    0    0 -0.16141872391E+02 -0.16302356616E+02 -0.60015860595E+03  0.10919045648E+04  0.91188754762E+03 0.  0.
        -24    2    4    4    0    0 -0.25824580999E+03  0.21689230739E+03  0.55208321680E+02  0.35100342373E+03  0.80139087253E+02 0.  0.
         24    2    4    4    0    0  0.24210393760E+03 -0.23319466400E+03 -0.65536692763E+03  0.74090114109E+03  0.80216102621E+02 0.  0.
         11    1    3    3    0    0 -0.35365270003E+02  0.81152887719E+01  0.10617069478E+03  0.11219971776E+03  0.00000000000E+00 0.  1.
        -11    1    3    3    0    0  0.51507142394E+02  0.81870678442E+01  0.16882473334E+03  0.17669692805E+03  0.00000000000E+00 0. -1.
          2    1    6    6  502    0  0.19134398591E+03 -0.19977396768E+03 -0.46492104359E+03  0.54099328636E+03  0.00000000000E+00 0. -1.
          3    1    5    5  503    0 -0.19498493992E+03  0.20344993652E+03  0.40710268050E+02  0.28472500661E+03  0.00000000000E+00 0. -1.
         -4    1    5    5    0  503 -0.63260870064E+02  0.13442370866E+02  0.14498053631E+02  0.66278417112E+02  0.00000000000E+00 0.  1.
         -1    1    6    6    0  502  0.50759951684E+02 -0.33420696320E+02 -0.19044588403E+03  0.19990785473E+03  0.00000000000E+00 0.  1.
<mgrwt>
<rscale>  0 0.13419690E+04</rscale>
<asrwt>0</asrwt>
<pdfrwt beam="1">  1        1 0.81202925E-01 0.13419690E+04</pdfrwt>
<pdfrwt beam="2">  1       -1 0.13122803E+00 0.13419690E+04</pdfrwt>
<totfact> 0.19941897E+01</totfact>
</mgrwt>
</event>
<event>
12    1  0.1518126E-007  0.3120038E+04  0.7818608E-02  0.8210260E-01
         -2   -1    0    0    0  501 -0.00000000000E+00  0.00000000000E+00  0.15031629869E+04  0.15031629869E+04  0.00000000000E+00 0.  1.
          2   -1    0    0  501    0  0.00000000000E+00 -0.00000000000E+00 -0.16190260177E+04  0.16190260177E+04  0.00000000000E+00 0. -1.
         23    2    1    2    0    0 -0.52635059278E+03  0.10450230245E+04 -0.87326814374E+03  0.14628701978E+04  0.90960960836E+02 0.  0.
        254    2    1    2    0    0  0.52635059278E+03 -0.10450230245E+04  0.75740511297E+03  0.16593188069E+04  0.90031012957E+03 0.  0.
        -24    2    4    4    0    0 -0.19049236941E+03 -0.10993923281E+03  0.32756426367E+03  0.40255013181E+03  0.79839113667E+02 0.  0.
         24    2    4    4    0    0  0.71684296219E+03 -0.93508379170E+03  0.42984084930E+03  0.12567686751E+04  0.80366765182E+02 0.  0.
         13    1    3    3    0    0 -0.33499097167E+03  0.75719490864E+03 -0.61517434280E+03  0.10315049941E+04  0.00000000000E+00 0. -1.
        -13    1    3    3    0    0 -0.19135962112E+03  0.28782811587E+03 -0.25809380095E+03  0.43136520370E+03  0.00000000000E+00 0.  1.
          2    1    6    6  502    0  0.20708261884E+03 -0.29996774446E+03  0.98700434919E+02  0.37763161228E+03  0.00000000000E+00 0. -1.
          3    1    5    5  503    0  0.13651825802E+01  0.64679951837E+01  0.15905303832E+01  0.67991523055E+01  0.00000000000E+00 0. -1.
         -4    1    5    5    0  503 -0.19185755199E+03 -0.11640722799E+03  0.32597373329E+03  0.39575097950E+03  0.00000000000E+00 0.  1.
         -1    1    6    6    0  502  0.50976034335E+03 -0.63511604724E+03  0.33114041438E+03  0.87913706278E+03  0.00000000000E+00 0.  1.
<mgrwt>
<rscale>  0 0.31200385E+04</rscale>
<asrwt>0</asrwt>
<pdfrwt beam="1">  1        2 0.24908093E+00 0.31200385E+04</pdfrwt>
<pdfrwt beam="2">  1       -2 0.23125584E+00 0.31200385E+04</pdfrwt>
<totfact> 0.77451876E-01</totfact>
</mgrwt>
</event>
<event>
12    1  0.1518126E-007  0.2495913E+04  0.7818608E-02  0.8404443E-01
          1   -1    0    0  501    0  0.00000000000E+00  0.00000000000E+00  0.13740082027E+04  0.13740082027E+04  0.00000000000E+00 0. -1.
         -1   -1    0    0    0  501 -0.00000000000E+00 -0.00000000000E+00 -0.11334692081E+04  0.11334692081E+04  0.00000000000E+00 0.  1.
         23    2    1    2    0    0 -0.11284768080E+02  0.74725243674E+03 -0.68258236836E+03  0.10162610182E+04  0.91401407843E+02 0.  0.
        254    2    1    2    0    0  0.11284768080E+02 -0.74725243674E+03  0.92312136295E+03  0.14912163927E+04  0.90169824709E+03 0.  0.
        -24    2    4    4    0    0  0.23927333288E+03  0.94692182961E+02  0.36091353151E+03  0.45056734718E+03  0.80833283844E+02 0.  0.
         24    2    4    4    0    0 -0.22798856480E+03 -0.84194461970E+03  0.56220783144E+03  0.10406490455E+04  0.77609675993E+02 0.  0.
         11    1    3    3    0    0 -0.30971857376E+02  0.24681186240E+03 -0.18254005617E+03  0.30853885246E+03  0.00000000000E+00 0. -1.
        -11    1    3    3    0    0  0.19687089296E+02  0.50044057434E+03 -0.50004231218E+03  0.70772216576E+03  0.00000000000E+00 0.  1.
          2    1    6    6  502    0 -0.12128776856E+03 -0.52637754932E+03  0.38497689195E+03  0.66331836592E+03  0.00000000000E+00 0. -1.
          3    1    5    5  503    0  0.20940342478E+03  0.10706227883E+03  0.33403453852E+03  0.40852319247E+03  0.00000000000E+00 0. -1.
         -4    1    5    5    0  503  0.29869908097E+02 -0.12370095866E+02  0.26878992986E+02  0.42044154712E+02  0.00000000000E+00 0.  1.
         -1    1    6    6    0  502 -0.10670079624E+03 -0.31556707038E+03  0.17723093950E+03  0.37733067956E+03  0.00000000000E+00 0.  1.
<mgrwt>
<rscale>  0 0.24959135E+04</rscale>
<asrwt>0</asrwt>
<pdfrwt beam="1">  1        1 0.21138588E+00 0.24959135E+04</pdfrwt>
<pdfrwt beam="2">  1       -1 0.17437988E+00 0.24959135E+04</pdfrwt>
<totfact> 0.16278604E+00</totfact>
</mgrwt>
</event>
<event>
12    1  0.1518126E-007  0.1716387E+04  0.7818608E-02  0.8752073E-01
          2   -1    0    0  501    0  0.00000000000E+00  0.00000000000E+00  0.17823602783E+04  0.17823602783E+04  0.00000000000E+00 0. -1.
         -2   -1    0    0    0  501 -0.00000000000E+00 -0.00000000000E+00 -0.41321380940E+03  0.41321380940E+03  0.00000000000E+00 0.  1.
         23    2    1    2    0    0  0.58701619082E+03  0.17787973401E+03  0.59139805660E+03  0.85696835968E+03  0.91727313754E+02 0.  0.
        254    2    1    2    0    0 -0.58701619082E+03 -0.17787973401E+03  0.77774841227E+03  0.13386057280E+04  0.90041295757E+03 0.  0.
        -24    2    4    4    0    0  0.13806032378E+03 -0.30912295908E+03  0.23438219616E+03  0.41937868322E+03  0.79534956029E+02 0.  0.
         24    2    4    4    0    0 -0.72507651460E+03  0.13124322507E+03  0.54336621612E+03  0.91922704477E+03  0.82284742669E+02 0.  0.
         13    1    3    3    0    0  0.10639542265E+03 -0.27989405693E+01  0.11184898203E+03  0.15439564376E+03  0.00000000000E+00 0.  1.
        -13    1    3    3    0    0  0.48062076816E+03  0.18067867458E+03  0.47954907457E+03  0.70257271592E+03  0.00000000000E+00 0. -1.
          2    1    6    6  502    0 -0.27142864351E+03  0.79144149477E+02  0.24156195574E+03  0.37187293982E+03  0.00000000000E+00 0. -1.
          1    1    5    5  503    0  0.44216036003E+02 -0.16038594348E+03  0.15128083295E+03  0.22486573577E+03  0.00000000000E+00 0. -1.
         -2    1    5    5    0  503  0.93844287778E+02 -0.14873701559E+03  0.83101363204E+02  0.19451294744E+03  0.00000000000E+00 0.  1.
         -1    1    6    6    0  502 -0.45364787109E+03  0.52099075592E+02  0.30180426038E+03  0.54735410495E+03  0.00000000000E+00 0.  1.
<mgrwt>
<rscale>  0 0.17163868E+04</rscale>
<asrwt>0</asrwt>
<pdfrwt beam="1">  1        2 0.27420927E+00 0.17163868E+04</pdfrwt>
<pdfrwt beam="2">  1       -2 0.63571357E-01 0.17163868E+04</pdfrwt>
<totfact> 0.19203857E+01</totfact>
</mgrwt>
</event>
<event>
12    1  0.1518126E-007  0.3324763E+04  0.7818608E-02  0.8156623E-01
         -2   -1    0    0    0  501 -0.00000000000E+00  0.00000000000E+00  0.10628626931E+04  0.10628626931E+04  0.00000000000E+00 0.  1.
          2   -1    0    0  501    0  0.00000000000E+00 -0.00000000000E+00 -0.26000658471E+04  0.26000658471E+04  0.00000000000E+00 0. -1.
         23    2    1    2    0    0 -0.13350440060E+04  0.75602031160E+03 -0.56268017901E+03  0.16366479469E+04  0.89990604312E+02 0.  0.
        254    2    1    2    0    0  0.13350440060E+04 -0.75602031160E+03 -0.97452297506E+03  0.20262805932E+04  0.89566109886E+03 0.  0.
        -24    2    4    4    0    0  0.39486166063E+03 -0.47352713074E+03  0.27529054987E+02  0.62126343418E+03  0.71180974997E+02 0.  0.
         24    2    4    4    0    0  0.94018234538E+03 -0.28249318086E+03 -0.10020520300E+04  0.14050171590E+04  0.78865115773E+02 0.  0.
         11    1    3    3    0    0 -0.17047569746E+02  0.18486331616E+01 -0.13685001878E+02  0.21938923292E+02  0.00000000000E+00 0. -1.
        -11    1    3    3    0    0 -0.13179964363E+04  0.75417167844E+03 -0.54899517713E+03  0.16147090237E+04  0.00000000000E+00 0.  1.
          4    1    6    6  502    0  0.85717213002E+03 -0.27754165415E+03 -0.90174610335E+03  0.12747232897E+04  0.00000000000E+00 0. -1.
          1    1    5    5  503    0  0.27085318872E+03 -0.28689692815E+03  0.41656872600E+02  0.39674499651E+03  0.00000000000E+00 0. -1.
         -2    1    5    5    0  503  0.12400847191E+03 -0.18663020258E+03 -0.14127817613E+02  0.22451843767E+03  0.00000000000E+00 0.  1.
         -3    1    6    6    0  502  0.83010215363E+02 -0.49515267152E+01 -0.10030592669E+03  0.13029386939E+03  0.00000000000E+00 0.  1.
<mgrwt>
<rscale>  0 0.33247634E+04</rscale>
<asrwt>0</asrwt>
<pdfrwt beam="1">  1        2 0.40001012E+00 0.33247634E+04</pdfrwt>
<pdfrwt beam="2">  1       -2 0.16351734E+00 0.33247634E+04</pdfrwt>
<totfact> 0.60183577E-01</totfact>
</mgrwt>
</event>
<event>
12    1  0.1518126E-007  0.1682559E+04  0.7818608E-02  0.8771374E-01
          2   -1    0    0  501    0  0.00000000000E+00  0.00000000000E+00  0.83238671102E+03  0.83238671102E+03  0.00000000000E+00 0.  1.
         -2   -1    0    0    0  501 -0.00000000000E+00 -0.00000000000E+00 -0.85026769038E+03  0.85026769038E+03  0.00000000000E+00 0. -1.
         23    2    1    2    0    0 -0.81062171083E+02 -0.55875213231E+03 -0.14523622605E+03  0.58941543436E+03  0.86844527573E+02 0.  0.
        254    2    1    2    0    0  0.81062171083E+02  0.55875213231E+03  0.12735524670E+03  0.10932389670E+04  0.92745730858E+03 0.  0.
        -24    2    4    4    0    0 -0.16392338443E+03 -0.16837462520E+03 -0.13061283030E+03  0.27996130770E+03  0.78087976000E+02 0.  0.
         24    2    4    4    0    0  0.24498555552E+03  0.72712675750E+03  0.25796807700E+03  0.81327765933E+03  0.78369499995E+02 0.  0.
         11    1    3    3    0    0 -0.46071530719E+02 -0.21846259857E+03 -0.16380854829E+02  0.22386787470E+03  0.00000000000E+00 0.  1.
        -11    1    3    3    0    0 -0.34990640363E+02 -0.34028953374E+03 -0.12885537123E+03  0.36554755967E+03  0.00000000000E+00 0. -1.
          4    1    6    6  502    0  0.10366771930E+03  0.21321299542E+03  0.58543350062E+02  0.24420094446E+03  0.00000000000E+00 0. -1.
          3    1    5    5  503    0 -0.76253663058E+02 -0.12575684233E+03 -0.99775472732E+02  0.17772042505E+03  0.00000000000E+00 0. -1.
         -4    1    5    5    0  503 -0.87669721375E+02 -0.42617782866E+02 -0.30837357573E+02  0.10224088265E+03  0.00000000000E+00 0.  1.
         -1    1    6    6    0  502  0.14131783622E+03  0.51391376208E+03  0.19942472694E+03  0.56907671487E+03  0.00000000000E+00 0.  1.
<mgrwt>
<rscale>  0 0.16825594E+04</rscale>
<asrwt>0</asrwt>
<pdfrwt beam="1">  1        2 0.12805949E+00 0.16825594E+04</pdfrwt>
<pdfrwt beam="2">  1       -2 0.13081041E+00 0.16825594E+04</pdfrwt>
<totfact> 0.13300560E+01</totfact>
</mgrwt>
</event>
<event>
12    1  0.1518126E-007  0.1960307E+04  0.7818608E-02  0.8625406E-01
          1   -1    0    0  501    0  0.00000000000E+00  0.00000000000E+00  0.17016492268E+04  0.17016492268E+04  0.00000000000E+00 0. -1.
         -1   -1    0    0    0  501 -0.00000000000E+00 -0.00000000000E+00 -0.56457071700E+03  0.56457071700E+03  0.00000000000E+00 0.  1.
         23    2    1    2    0    0 -0.20232632508E+02  0.15428427044E+03 -0.40138583861E+03  0.44486505307E+03  0.11216652125E+03 0.  0.
        254    2    1    2    0    0  0.20232632508E+02 -0.15428427044E+03  0.15384643484E+04  0.18213548907E+04  0.96241783603E+03 0.  0.
        -24    2    4    4    0    0 -0.37264041992E+03 -0.24921757647E+03  0.38428615646E+03  0.59590304416E+03  0.80338689416E+02 0.  0.
         24    2    4    4    0    0  0.39287305243E+03  0.94933306031E+02  0.11541781919E+04  0.12254518465E+04  0.79014945107E+02 0.  0.
         11    1    3    3    0    0 -0.25621211071E+01  0.93730459423E+02 -0.10054362477E+03  0.13748084947E+03  0.00000000000E+00 0. -1.
        -11    1    3    3    0    0 -0.17670511401E+02  0.60553811017E+02 -0.30084221383E+03  0.30738420361E+03  0.00000000000E+00 0.  1.
          2    1    6    6  502    0  0.10280758168E+03  0.56788027328E+00  0.22232263775E+03  0.24494300683E+03  0.00000000000E+00 0. -1.
          3    1    5    5  503    0 -0.81218490651E+02 -0.92251562687E+02  0.82987187767E+02  0.14830262093E+03  0.00000000000E+00 0. -1.
         -4    1    5    5    0  503 -0.29142192927E+03 -0.15696601378E+03  0.30129896869E+03  0.44760042323E+03  0.00000000000E+00 0.  1.
         -1    1    6    6    0  502  0.29006547075E+03  0.94365425758E+02  0.93185555419E+03  0.98050883972E+03  0.00000000000E+00 0.  1.
<mgrwt>
<rscale>  0 0.19603074E+04</rscale>
<asrwt>0</asrwt>
<pdfrwt beam="1">  1        1 0.26179219E+00 0.19603074E+04</pdfrwt>
<pdfrwt beam="2">  1       -1 0.86857034E-01 0.19603074E+04</pdfrwt>
<totfact> 0.57786680E+00</totfact>
</mgrwt>
</event>
<event>
12    1  0.1518126E-007  0.1638546E+04  0.7818608E-02  0.8797211E-01
         -2   -1    0    0    0  501 -0.00000000000E+00  0.00000000000E+00  0.19037177184E+03  0.19037177184E+03  0.00000000000E+00 0.  1.
          2   -1    0    0  501    0  0.00000000000E+00 -0.00000000000E+00 -0.35257771336E+04  0.35257771336E+04  0.00000000000E+00 0. -1.
         23    2    1    2    0    0  0.25945091111E+03  0.28096053528E+03 -0.21713895291E+03  0.44918548792E+03  0.91458624675E+02 0.  0.
        254    2    1    2    0    0 -0.25945091111E+03 -0.28096053528E+03 -0.31182664088E+04  0.32669634175E+04  0.89622038431E+03 0.  0.
        -24    2    4    4    0    0  0.92506077235E+02  0.28088098003E+03 -0.10275082596E+04  0.10722044124E+04  0.79984867962E+02 0.  0.
         24    2    4    4    0    0 -0.35195698834E+03 -0.56184151531E+03 -0.20907581492E+04  0.21947590051E+04  0.78471919053E+02 0.  0.
         11    1    3    3    0    0  0.23004589620E+03  0.20554514300E+03 -0.14547921612E+03  0.34107788332E+03  0.00000000000E+00 0.  1.
        -11    1    3    3    0    0  0.29405014908E+02  0.75415392284E+02 -0.71659736795E+02  0.10810760460E+03  0.00000000000E+00 0. -1.
          2    1    6    6  502    0 -0.13783909187E+03 -0.17500675341E+03 -0.61023344025E+03  0.64962437653E+03  0.00000000000E+00 0. -1.
          1    1    5    5  503    0  0.66488767861E+02  0.88750149374E+02 -0.32310712956E+03  0.34160732199E+03  0.00000000000E+00 0. -1.
         -2    1    5    5    0  503  0.26017309373E+02  0.19213083066E+03 -0.70440113007E+03  0.73059709041E+03  0.00000000000E+00 0.  1.
         -1    1    6    6    0  502 -0.21411789647E+03 -0.38683476190E+03 -0.14805247089E+04  0.15451346286E+04  0.00000000000E+00 0.  1.
<mgrwt>
<rscale>  0 0.16385462E+04</rscale>
<asrwt>0</asrwt>
<pdfrwt beam="1">  1        2 0.54242726E+00 0.16385462E+04</pdfrwt>
<pdfrwt beam="2">  1       -2 0.29287964E-01 0.16385462E+04</pdfrwt>
<totfact> 0.80872948E+00</totfact>
</mgrwt>
</event>
<event>
12    1  0.1518126E-007  0.1769842E+04  0.7818608E-02  0.8722504E-01
         -1   -1    0    0    0  501 -0.00000000000E+00  0.00000000000E+00  0.13574528185E+04  0.13574528185E+04  0.00000000000E+00 0.  1.
          1   -1    0    0  501    0  0.00000000000E+00 -0.00000000000E+00 -0.57687825865E+03  0.57687825865E+03  0.00000000000E+00 0. -1.
         23    2    1    2    0    0 -0.11138371929E+03 -0.19973020802E+03 -0.38277336125E+03  0.45499329594E+03  0.90581258255E+02 0.  0.
        254    2    1    2    0    0  0.11138371929E+03  0.19973020802E+03  0.11633479211E+04  0.14793377813E+04  0.88473916863E+03 0.  0.
        -24    2    4    4    0    0 -0.35907791516E+03 -0.53606027581E+00  0.67109398116E+03  0.76504255265E+03  0.77367559770E+02 0.  0.
         24    2    4    4    0    0  0.47046163445E+03  0.20026626830E+03  0.49225393998E+03  0.71429522860E+03  0.80392813518E+02 0.  0.
         11    1    3    3    0    0 -0.70924559075E+02 -0.18208012429E+03 -0.26526549578E+03  0.32946812895E+03  0.00000000000E+00 0. -1.
        -11    1    3    3    0    0 -0.40459160218E+02 -0.17650083738E+02 -0.11750786547E+03  0.12552516700E+03  0.00000000000E+00 0.  1.
          4    1    6    6  502    0  0.10928430275E+03  0.16720153596E+02  0.81431504112E+02  0.13730882064E+03  0.00000000000E+00 0. -1.
          1    1    5    5  503    0 -0.20929615143E+03  0.31779798808E+02  0.34555153841E+03  0.40524153330E+03  0.00000000000E+00 0. -1.
         -2    1    5    5    0  503 -0.14978176373E+03 -0.32315859083E+02  0.32554244275E+03  0.35980101935E+03  0.00000000000E+00 0.  1.
         -3    1    6    6    0  502  0.36117733171E+03  0.18354611470E+03  0.41082243587E+03  0.57698640797E+03  0.00000000000E+00 0.  1.
<mgrwt>
<rscale>  0 0.17698418E+04</rscale>
<asrwt>0</asrwt>
<pdfrwt beam="1">  1        1 0.88750501E-01 0.17698418E+04</pdfrwt>
<pdfrwt beam="2">  1       -1 0.20883890E+00 0.17698418E+04</pdfrwt>
<totfact> 0.44879290E+00</totfact>
</mgrwt>
</event>
<event>
12    1  0.1518126E-007  0.1451620E+04  0.7818608E-02  0.8917278E-01
          2   -1    0    0  501    0  0.00000000000E+00  0.00000000000E+00  0.14320697641E+04  0.14320697641E+04  0.00000000000E+00 0. -1.
         -2   -1    0    0    0  501 -0.00000000000E+00 -0.00000000000E+00 -0.36785950823E+03  0.36785950823E+03  0.00000000000E+00 0.  1.
         23    2    1    2    0    0 -0.32570892592E+03 -0.27388278314E+03  0.18077533149E+03  0.47108635533E+03  0.90247162721E+02 0.  0.
        254    2    1    2    0    0  0.32570892592E+03  0.27388278314E+03  0.88343492440E+03  0.13288429170E+04  0.89680998496E+03 0.  0.
        -24    2    4    4    0    0 -0.19863855460E+03  0.38161140505E+03  0.28984624670E+03  0.52476083894E+03  0.79237311381E+02 0.  0.
         24    2    4    4    0    0  0.52434748052E+03 -0.10772862191E+03  0.59358867770E+03  0.80408207808E+03  0.87491334903E+02 0.  0.
         13    1    3    3    0    0 -0.19634822527E+03 -0.15621401664E+03  0.58307238529E+02  0.25759498952E+03  0.00000000000E+00 0.  1.
        -13    1    3    3    0    0 -0.12936070065E+03 -0.11766876650E+03  0.12246809296E+03  0.21349136581E+03  0.00000000000E+00 0. -1.
          4    1    6    6  502    0  0.47672259239E+03 -0.73201089731E+02  0.51080726516E+03  0.70252892594E+03  0.00000000000E+00 0. -1.
          3    1    5    5  503    0 -0.52749881676E+02  0.18636454091E+03  0.12511822223E+03  0.23058374110E+03  0.00000000000E+00 0. -1.
         -4    1    5    5    0  503 -0.14588867293E+03  0.19524686414E+03  0.16472802447E+03  0.29417709784E+03  0.00000000000E+00 0.  1.
         -3    1    6    6    0  502  0.47624888128E+02 -0.34527532183E+02  0.82781412538E+02  0.10155315214E+03  0.00000000000E+00 0.  1.
<mgrwt>
<rscale>  0 0.14516204E+04</rscale>
<asrwt>0</asrwt>
<pdfrwt beam="1">  1        2 0.22031842E+00 0.14516204E+04</pdfrwt>
<pdfrwt beam="2">  1       -2 0.56593771E-01 0.14516204E+04</pdfrwt>
<totfact> 0.39393959E+01</totfact>
</mgrwt>
</event>
<event>
12    1  0.1518126E-007  0.1095790E+04  0.7818608E-02  0.9209305E-01
         -2   -1    0    0    0  501 -0.00000000000E+00  0.00000000000E+00  0.27180341432E+03  0.27180341432E+03  0.00000000000E+00 0.  1.
          2   -1    0    0  501    0  0.00000000000E+00 -0.00000000000E+00 -0.11044335317E+04  0.11044335317E+04  0.00000000000E+00 0. -1.
         23    2    1    2    0    0  0.10325224818E+03  0.71114669801E+01 -0.14966215329E+02  0.13847240893E+03  0.90769051540E+02 0.  0.
        254    2    1    2    0    0 -0.10325224818E+03 -0.71114669801E+01 -0.81766390202E+03  0.12377645371E+04  0.92345827888E+03 0.  0.
        -24    2    4    4    0    0 -0.47888345812E+03  0.15714813149E+03 -0.41394159872E+03  0.65697200681E+03  0.78991574802E+02 0.  0.
         24    2    4    4    0    0  0.37563120995E+03 -0.16425959847E+03 -0.40372230330E+03  0.58079253025E+03  0.79045831246E+02 0.  0.
         11    1    3    3    0    0  0.42170080024E+02  0.39219130750E+02  0.20191282225E+02  0.61025762952E+02  0.00000000000E+00 0.  1.
        -11    1    3    3    0    0  0.61082168153E+02 -0.32107663770E+02 -0.35157497554E+02  0.77446645978E+02  0.00000000000E+00 0. -1.
          2    1    6    6  502    0  0.21015784731E+03 -0.13298543043E+03 -0.22780240066E+03  0.33726158874E+03  0.00000000000E+00 0. -1.
          1    1    5    5  503    0 -0.23896370486E+03  0.11924580404E+03 -0.22600615028E+03  0.34985996340E+03  0.00000000000E+00 0. -1.
         -2    1    5    5    0  503 -0.23991975327E+03  0.37902327451E+02 -0.18793544844E+03  0.30711204342E+03  0.00000000000E+00 0.  1.
         -1    1    6    6    0  502  0.16547336264E+03 -0.31274168046E+02 -0.17591990263E+03  0.24353094151E+03  0.00000000000E+00 0.  1.
<mgrwt>
<rscale>  0 0.10957898E+04</rscale>
<asrwt>0</asrwt>
<pdfrwt beam="1">  1        2 0.16991285E+00 0.10957898E+04</pdfrwt>
<pdfrwt beam="2">  1       -2 0.41815910E-01 0.10957898E+04</pdfrwt>
<totfact> 0.11643654E+02</totfact>
</mgrwt>
</event>
<event>
12    1  0.1518126E-007  0.1723048E+04  0.7818608E-02  0.8748327E-01
         -2   -1    0    0    0  501 -0.00000000000E+00  0.00000000000E+00  0.56872837296E+03  0.56872837296E+03  0.00000000000E+00 0.  1.
          2   -1    0    0  501    0  0.00000000000E+00 -0.00000000000E+00 -0.13050578575E+04  0.13050578575E+04  0.00000000000E+00 0. -1.
         23    2    1    2    0    0 -0.55780200215E+03  0.15116841147E+03 -0.55636760217E+03  0.80736828355E+03  0.91124498910E+02 0.  0.
        254    2    1    2    0    0  0.55780200215E+03 -0.15116841147E+03 -0.17996188237E+03  0.10664179469E+04  0.87798974719E+03 0.  0.
        -24    2    4    4    0    0  0.41414987751E+03  0.24877393774E+03  0.16116210337E+03  0.51560359234E+03  0.80406764239E+02 0.  0.
         24    2    4    4    0    0  0.14365212464E+03 -0.39994234921E+03 -0.34112398573E+03  0.55081435458E+03  0.80256239413E+02 0.  0.
         11    1    3    3    0    0  0.27495529771E+01 -0.13327259520E+01 -0.77636593803E+01  0.83432971307E+01  0.00000000000E+00 0.  1.
        -11    1    3    3    0    0 -0.56055155513E+03  0.15250113742E+03 -0.54860394279E+03  0.79902498642E+03  0.00000000000E+00 0. -1.
          2    1    6    6  502    0 -0.30891057539E+00  0.34903583762E+01 -0.59982769277E+01  0.69467512867E+01  0.00000000000E+00 0. -1.
          1    1    5    5  503    0  0.72112107659E+02  0.49210749580E+02  0.62879592550E+02  0.10759041363E+03  0.00000000000E+00 0. -1.
         -2    1    5    5    0  503  0.34203776985E+03  0.19956318815E+03  0.98282510815E+02  0.40801317871E+03  0.00000000000E+00 0.  1.
         -3    1    6    6    0  502  0.14396103522E+03 -0.40343270758E+03 -0.33512570881E+03  0.54386760329E+03  0.00000000000E+00 0.  1.
<mgrwt>
<rscale>  0 0.17230478E+04</rscale>
<asrwt>0</asrwt>
<pdfrwt beam="1">  1        2 0.20077813E+00 0.17230478E+04</pdfrwt>
<pdfrwt beam="2">  1       -2 0.87496674E-01 0.17230478E+04</pdfrwt>
<totfact> 0.17589502E+01</totfact>
</mgrwt>
</event>
<event>
12    1  0.1518126E-007  0.2241904E+04  0.7818608E-02  0.8501186E-01
         -2   -1    0    0    0  501 -0.00000000000E+00  0.00000000000E+00  0.52869000404E+03  0.52869000404E+03  0.00000000000E+00 0.  1.
          2   -1    0    0  501    0  0.00000000000E+00 -0.00000000000E+00 -0.23766917340E+04  0.23766917340E+04  0.00000000000E+00 0. -1.
         23    2    1    2    0    0 -0.11371426661E+03  0.66479276605E+03 -0.15780152924E+04  0.17185358996E+04  0.91394852621E+02 0.  0.
        254    2    1    2    0    0  0.11371426661E+03 -0.66479276605E+03 -0.26998643761E+03  0.11868458384E+04  0.93852544532E+03 0.  0.
        -24    2    4    4    0    0 -0.18594036082E+02 -0.11596126981E+03 -0.53841826961E+03  0.55660516025E+03  0.78245236885E+02 0.  0.
         24    2    4    4    0    0  0.13230830269E+03 -0.54883149625E+03  0.26843183200E+03  0.63024067820E+03  0.80163369379E+02 0.  0.
         11    1    3    3    0    0 -0.10017997827E+03  0.43534123107E+03 -0.11275660394E+04  0.12128327126E+04  0.00000000000E+00 0.  1.
        -11    1    3    3    0    0 -0.13534288338E+02  0.22945153498E+03 -0.45044925294E+03  0.50570318700E+03  0.00000000000E+00 0. -1.
          2    1    6    6  502    0  0.81543300248E+02 -0.40500519930E+03  0.23045090832E+03  0.47306040039E+03  0.00000000000E+00 0. -1.
          1    1    5    5  503    0 -0.14010398586E+01 -0.76640222850E+02 -0.46727320956E+03  0.47351867866E+03  0.00000000000E+00 0. -1.
         -2    1    5    5    0  503 -0.17192996224E+02 -0.39321046958E+02 -0.71145060048E+02  0.83086481586E+02  0.00000000000E+00 0.  1.
         -3    1    6    6    0  502  0.50765002441E+02 -0.14382629695E+03  0.37980923676E+02  0.15718027780E+03  0.00000000000E+00 0.  1.
<mgrwt>
<rscale>  0 0.22419038E+04</rscale>
<asrwt>0</asrwt>
<pdfrwt beam="1">  1        2 0.36564488E+00 0.22419038E+04</pdfrwt>
<pdfrwt beam="2">  1       -2 0.81336924E-01 0.22419038E+04</pdfrwt>
<totfact> 0.49723089E+00</totfact>
</mgrwt>
</event>
<event>
12    1  0.1518126E-007  0.1359018E+04  0.7818608E-02  0.8984030E-01
          2   -1    0    0  501    0  0.00000000000E+00  0.00000000000E+00  0.94512013058E+03  0.94512013058E+03  0.00000000000E+00 0. -1.
         -2   -1    0    0    0  501 -0.00000000000E+00 -0.00000000000E+00 -0.48854342514E+03  0.48854342514E+03  0.00000000000E+00 0.  1.
         23    2    1    2    0    0  0.32255830176E+02 -0.13659109556E+03  0.50451774638E+03  0.53155412134E+03  0.91181475820E+02 0.  0.
        254    2    1    2    0    0 -0.32255830176E+02  0.13659109556E+03 -0.47941040936E+02  0.90210943438E+03  0.88983454767E+03 0.  0.
        -24    2    4    4    0    0 -0.43545483981E+03 -0.29493022127E+02 -0.10266097350E+03  0.45542892188E+03  0.79909145510E+02 0.  0.
         24    2    4    4    0    0  0.40319900964E+03  0.16608411769E+03  0.54719932561E+02  0.44668051250E+03  0.79848817840E+02 0.  0.
         13    1    3    3    0    0  0.50236486665E+02 -0.14028123813E+03  0.45059929366E+03  0.47459693827E+03  0.00000000000E+00 0. -1.
        -13    1    3    3    0    0 -0.17980656490E+02  0.36901425680E+01  0.53918452715E+02  0.56957183069E+02  0.00000000000E+00 0.  1.
          4    1    6    6  502    0  0.35792903493E+03  0.16971221507E+03  0.61132366831E+02  0.40081491522E+03  0.00000000000E+00 0. -1.
          3    1    5    5  503    0 -0.35656067932E+03 -0.40606272416E+02 -0.11018875056E+03  0.37540104974E+03  0.00000000000E+00 0. -1.
         -4    1    5    5    0  503 -0.78894160488E+02  0.11113250289E+02  0.75277770628E+01  0.80027872136E+02  0.00000000000E+00 0.  1.
         -3    1    6    6    0  502  0.45269974708E+02 -0.36280973851E+01 -0.64124342703E+01  0.45865597281E+02  0.00000000000E+00 0.  1.
<mgrwt>
<rscale>  0 0.13590176E+04</rscale>
<asrwt>0</asrwt>
<pdfrwt beam="1">  1        2 0.14540310E+00 0.13590176E+04</pdfrwt>
<pdfrwt beam="2">  1       -2 0.75160527E-01 0.13590176E+04</pdfrwt>
<totfact> 0.42445526E+01</totfact>
</mgrwt>
</event>
<event>
12    1  0.1518126E-007  0.2488088E+04  0.7818608E-02  0.8407241E-01
          2   -1    0    0  501    0  0.00000000000E+00  0.00000000000E+00  0.31784479092E+04  0.31784479092E+04  0.00000000000E+00 0. -1.
         -2   -1    0    0    0  501 -0.00000000000E+00 -0.00000000000E+00 -0.48691878163E+03  0.48691878163E+03  0.00000000000E+00 0.  1.
         23    2    1    2    0    0 -0.10370327901E+04 -0.16972588077E+03  0.15163889692E+04  0.18471845657E+04  0.91713858405E+02 0.  0.
        254    2    1    2    0    0  0.10370327901E+04  0.16972588077E+03  0.11751401584E+04  0.18181821250E+04  0.90586310539E+03 0.  0.
        -24    2    4    4    0    0  0.11444095885E+04  0.18573401493E+01  0.84820079747E+03  0.14269983446E+04  0.84870057487E+02 0.  0.
         24    2    4    4    0    0 -0.10737679843E+03  0.16786854062E+03  0.32693936090E+03  0.39118378046E+03  0.80160966884E+02 0.  0.
         11    1    3    3    0    0 -0.38230673938E+03 -0.46920624052E+02  0.48438855775E+03  0.61886368678E+03  0.00000000000E+00 0.  1.
        -11    1    3    3    0    0 -0.65472605070E+03 -0.12280525672E+03  0.10320004114E+04  0.12283208790E+04  0.00000000000E+00 0. -1.
          2    1    6    6  502    0 -0.10363080295E+03  0.12134152977E+03  0.29243179722E+03  0.33313580743E+03  0.00000000000E+00 0. -1.
          3    1    5    5  503    0  0.40187034699E+03  0.16020303792E+02  0.25193671284E+03  0.47458248303E+03  0.00000000000E+00 0. -1.
         -4    1    5    5    0  503  0.74253924152E+03 -0.14162963643E+02  0.59626408463E+03  0.95241586156E+03  0.00000000000E+00 0.  1.
         -1    1    6    6    0  502 -0.37459954786E+01  0.46527010855E+02  0.34507563688E+02  0.58047973030E+02  0.00000000000E+00 0.  1.
<mgrwt>
<rscale>  0 0.24880884E+04</rscale>
<asrwt>0</asrwt>
<pdfrwt beam="1">  1        2 0.48899197E+00 0.24880884E+04</pdfrwt>
<pdfrwt beam="2">  1       -2 0.74910584E-01 0.24880884E+04</pdfrwt>
<totfact> 0.19154148E+00</totfact>
</mgrwt>
</event>
<event>
12    1  0.1518126E-007  0.2257973E+04  0.7818608E-02  0.8494679E-01
          2   -1    0    0  501    0  0.00000000000E+00  0.00000000000E+00  0.15015902299E+04  0.15015902299E+04  0.00000000000E+00 0. -1.
         -2   -1    0    0    0  501 -0.00000000000E+00 -0.00000000000E+00 -0.84884024012E+03  0.84884024012E+03  0.00000000000E+00 0.  1.
         23    2    1    2    0    0  0.47705917580E+03 -0.38650583395E+03  0.10024401538E+04  0.11791175529E+04  0.91976762488E+02 0.  0.
        254    2    1    2    0    0 -0.47705917580E+03  0.38650583395E+03 -0.34969016401E+03  0.11713129171E+04  0.93419404944E+03 0.  0.
        -24    2    4    4    0    0  0.24773688459E+03  0.27507181568E+03 -0.93131424288E+02  0.39011818749E+03  0.80502610227E+02 0.  0.
         24    2    4    4    0    0 -0.72479606039E+03  0.11143401827E+03 -0.25655873972E+03  0.78119472959E+03  0.81828778734E+02 0.  0.
         11    1    3    3    0    0  0.41118674057E+03 -0.36866631705E+03  0.90377290634E+03  0.10591481743E+04  0.00000000000E+00 0. -1.
        -11    1    3    3    0    0  0.65872435227E+02 -0.17839516903E+02  0.98667247437E+02  0.11996937860E+03  0.00000000000E+00 0.  1.
          2    1    6    6  502    0 -0.42016946560E+02  0.70143583401E+01  0.43993086432E+01  0.42824980300E+02  0.00000000000E+00 0. -1.
          1    1    5    5  503    0  0.37276182862E+02  0.84013620425E+02 -0.31425081332E+01  0.91965632619E+02  0.00000000000E+00 0. -1.
         -2    1    5    5    0  503  0.21046070173E+03  0.19105819526E+03 -0.89988916154E+02  0.29815255487E+03  0.00000000000E+00 0.  1.
         -1    1    6    6    0  502 -0.68277911383E+03  0.10441965993E+03 -0.26095804836E+03  0.73836974929E+03  0.00000000000E+00 0.  1.
<mgrwt>
<rscale>  0 0.22579727E+04</rscale>
<asrwt>0</asrwt>
<pdfrwt beam="1">  1        2 0.23101388E+00 0.22579727E+04</pdfrwt>
<pdfrwt beam="2">  1       -2 0.13059081E+00 0.22579727E+04</pdfrwt>
<totfact> 0.49485412E+00</totfact>
</mgrwt>
</event>
<event>
12    1  0.1518126E-007  0.1356063E+04  0.7818608E-02  0.8986251E-01
          2   -1    0    0  501    0  0.00000000000E+00  0.00000000000E+00  0.26704618489E+04  0.26704618489E+04  0.00000000000E+00 0. -1.
         -2   -1    0    0    0  501 -0.00000000000E+00 -0.00000000000E+00 -0.17215259010E+03  0.17215259010E+03  0.00000000000E+00 0.  1.
         23    2    1    2    0    0  0.38436543903E+03 -0.22711893451E+01  0.84512050223E+03  0.93290633283E+03  0.91343382512E+02 0.  0.
        254    2    1    2    0    0 -0.38436543903E+03  0.22711893451E+01  0.16531887566E+04  0.19097081062E+04  0.87533424294E+03 0.  0.
        -24    2    4    4    0    0 -0.10446927305E+03 -0.40862947522E+03  0.97247191423E+03  0.10629830976E+04  0.79621384043E+02 0.  0.
         24    2    4    4    0    0 -0.27989616599E+03  0.41090066457E+03  0.68071684234E+03  0.84672500855E+03  0.79916211060E+02 0.  0.
         11    1    3    3    0    0  0.30645017217E+03 -0.16710505091E+02  0.57996616752E+03  0.65616438830E+03  0.00000000000E+00 0. -1.
        -11    1    3    3    0    0  0.77915266860E+02  0.14439315745E+02  0.26515433471E+03  0.27674194454E+03  0.00000000000E+00 0.  1.
          4    1    6    6  502    0 -0.10295503652E+03  0.21371099888E+03  0.35317519745E+03  0.42544664845E+03  0.00000000000E+00 0. -1.
          3    1    5    5  503    0 -0.10447122552E+03 -0.26325718751E+03  0.66923871721E+03  0.72670423444E+03  0.00000000000E+00 0. -1.
         -4    1    5    5    0  503  0.19524672672E-02 -0.14537228771E+03  0.30323319702E+03  0.33627886317E+03  0.00000000000E+00 0.  1.
         -3    1    6    6    0  502 -0.17694112947E+03  0.19718966569E+03  0.32754164489E+03  0.42127836010E+03  0.00000000000E+00 0.  1.
<mgrwt>
<rscale>  0 0.13560633E+04</rscale>
<asrwt>0</asrwt>
<pdfrwt beam="1">  1        2 0.41084025E+00 0.13560633E+04</pdfrwt>
<pdfrwt beam="2">  1       -2 0.26485016E-01 0.13560633E+04</pdfrwt>
<totfact> 0.35068062E+01</totfact>
</mgrwt>
</event>
<event>
12    1  0.1518126E-007  0.1398937E+04  0.7818608E-02  0.8954588E-01
          1   -1    0    0  501    0  0.00000000000E+00  0.00000000000E+00  0.14974654718E+04  0.14974654718E+04  0.00000000000E+00 0. -1.
         -1   -1    0    0    0  501 -0.00000000000E+00 -0.00000000000E+00 -0.32672286548E+03  0.32672286548E+03  0.00000000000E+00 0.  1.
         23    2    1    2    0    0 -0.74847010994E+02  0.15998402642E+03 -0.12754369614E+03  0.23614717357E+03  0.91110533946E+02 0.  0.
        254    2    1    2    0    0  0.74847010994E+02 -0.15998402642E+03  0.12982863025E+04  0.15880411637E+04  0.89729061664E+03 0.  0.
        -24    2    4    4    0    0 -0.38735226509E+03 -0.19782530108E+03  0.68497543535E+03  0.81518062462E+03  0.78431350307E+02 0.  0.
         24    2    4    4    0    0  0.46219927608E+03  0.37841274656E+02  0.61331086711E+03  0.77286053908E+03  0.78122085765E+02 0.  0.
         11    1    3    3    0    0 -0.84145494450E+02  0.13038427149E+03 -0.13332456640E+03  0.20458729798E+03  0.00000000000E+00 0.  1.
        -11    1    3    3    0    0  0.92984834556E+01  0.29599754931E+02  0.57808702583E+01  0.31559875594E+02  0.00000000000E+00 0. -1.
          4    1    6    6  502    0  0.12962416711E+03  0.13210143565E+02  0.23372645798E+03  0.26759108683E+03  0.00000000000E+00 0. -1.
          1    1    5    5  503    0 -0.54318934861E+02 -0.55383517368E+01  0.11888885427E+03  0.13082728957E+03  0.00000000000E+00 0. -1.
         -2    1    5    5    0  503 -0.33303333023E+03 -0.19228694934E+03  0.56608658107E+03  0.68435333505E+03  0.00000000000E+00 0.  1.
         -3    1    6    6    0  502  0.33257510897E+03  0.24631131091E+02  0.37958440912E+03  0.50526945225E+03  0.00000000000E+00 0.  1.
<mgrwt>
<rscale>  0 0.13989370E+04</rscale>
<asrwt>0</asrwt>
<pdfrwt beam="1">  1        1 0.23037930E+00 0.13989370E+04</pdfrwt>
<pdfrwt beam="2">  1       -1 0.50265057E-01 0.13989370E+04</pdfrwt>
<totfact> 0.25448554E+01</totfact>
</mgrwt>
</event>
<event>
12    1  0.1518126E-007  0.2855448E+04  0.7818608E-02  0.8286258E-01
          2   -1    0    0  501    0  0.00000000000E+00  0.00000000000E+00  0.11290573825E+04  0.11290573825E+04  0.00000000000E+00 0. -1.
         -2   -1    0    0    0  501 -0.00000000000E+00 -0.00000000000E+00 -0.18053963987E+04  0.18053963987E+04  0.00000000000E+00 0.  1.
         23    2    1    2    0    0 -0.11327816614E+03  0.78387797564E+03 -0.13485293687E+04  0.15665476427E+04  0.90793362748E+02 0.  0.
        254    2    1    2    0    0  0.11327816614E+03 -0.78387797564E+03  0.67219035257E+03  0.13679061386E+04  0.88996107232E+03 0.  0.
        -24    2    4    4    0    0 -0.21262210962E+03 -0.52205802022E+03 -0.36728961846E+01  0.56922444271E+03  0.79058446964E+02 0.  0.
         24    2    4    4    0    0  0.32590027575E+03 -0.26181995542E+03  0.67586324875E+03  0.79868169587E+03  0.79628145209E+02 0.  0.
         13    1    3    3    0    0 -0.95897744442E+01  0.57863142961E+01 -0.30290058187E+02  0.32294470611E+02  0.00000000000E+00 0. -1.
        -13    1    3    3    0    0 -0.10368839169E+03  0.77809166134E+03 -0.13182393106E+04  0.15342531720E+04  0.00000000000E+00 0.  1.
          2    1    6    6  502    0  0.22037342074E+02 -0.10779143518E+01  0.17667082556E+02  0.28265387863E+02  0.00000000000E+00 0. -1.
          3    1    5    5  503    0 -0.10782352557E+03 -0.22406057176E+03  0.34507337761E+02  0.25103746502E+03  0.00000000000E+00 0. -1.
         -4    1    5    5    0  503 -0.10479858405E+03 -0.29799744846E+03 -0.38180233945E+02  0.31818697769E+03  0.00000000000E+00 0.  1.
         -1    1    6    6    0  502  0.30386293368E+03 -0.26074204107E+03  0.65819616620E+03  0.77041630800E+03  0.00000000000E+00 0.  1.
<mgrwt>
<rscale>  0 0.28554482E+04</rscale>
<asrwt>0</asrwt>
<pdfrwt beam="1">  1        2 0.17370114E+00 0.28554482E+04</pdfrwt>
<pdfrwt beam="2">  1       -2 0.27775329E+00 0.28554482E+04</pdfrwt>
<totfact> 0.78712921E-01</totfact>
</mgrwt>
</event>
<event>
12    1  0.1518126E-007  0.2076113E+04  0.7818608E-02  0.8571840E-01
          2   -1    0    0  501    0  0.00000000000E+00  0.00000000000E+00  0.49039865387E+03  0.49039865387E+03  0.00000000000E+00 0. -1.
         -2   -1    0    0    0  501 -0.00000000000E+00 -0.00000000000E+00 -0.21973160822E+04  0.21973160822E+04  0.00000000000E+00 0.  1.
         23    2    1    2    0    0  0.57038726117E+03 -0.58218568027E+03 -0.95849580529E+03  0.12613204974E+04  0.89069604438E+02 0.  0.
        254    2    1    2    0    0 -0.57038726117E+03  0.58218568027E+03 -0.74842162304E+03  0.14263942386E+04  0.90010210763E+03 0.  0.
        -24    2    4    4    0    0  0.98976184646E+02  0.18587325520E+03  0.12202537571E+03  0.25613806914E+03  0.79820837022E+02 0.  0.
         24    2    4    4    0    0 -0.66936344582E+03  0.39631242507E+03 -0.87044699874E+03  0.11702561695E+04  0.81918030662E+02 0.  0.
         13    1    3    3    0    0  0.51100001000E+03 -0.52192795763E+03 -0.81231276383E+03  0.10924201707E+04  0.00000000000E+00 0. -1.
        -13    1    3    3    0    0  0.59387251175E+02 -0.60257722641E+02 -0.14618304146E+03  0.16890032667E+03  0.00000000000E+00 0.  1.
          4    1    6    6  502    0 -0.41341201805E+03  0.21271166682E+03 -0.47466698845E+03  0.66442794929E+03  0.00000000000E+00 0. -1.
          1    1    5    5  503    0  0.12427205118E+02 -0.62046314731E+01  0.31702490369E+01  0.14247222807E+02  0.00000000000E+00 0. -1.
         -2    1    5    5    0  503  0.86548979528E+02  0.19207788667E+03  0.11885512667E+03  0.24189084634E+03  0.00000000000E+00 0.  1.
         -3    1    6    6    0  502 -0.25595142777E+03  0.18360075826E+03 -0.39578001029E+03  0.50582822021E+03  0.00000000000E+00 0.  1.
<mgrwt>
<rscale>  0 0.20761126E+04</rscale>
<asrwt>0</asrwt>
<pdfrwt beam="1">  1        2 0.75445946E-01 0.20761126E+04</pdfrwt>
<pdfrwt beam="2">  1       -2 0.33804863E+00 0.20761126E+04</pdfrwt>
<totfact> 0.10773936E+00</totfact>
</mgrwt>
</event>
<event>
12    1  0.1518126E-007  0.1310030E+04  0.7818608E-02  0.9021649E-01
          2   -1    0    0  501    0  0.00000000000E+00  0.00000000000E+00  0.33738338681E+03  0.33738338681E+03  0.00000000000E+00 0. -1.
         -2   -1    0    0    0  501 -0.00000000000E+00 -0.00000000000E+00 -0.12716828127E+04  0.12716828127E+04  0.00000000000E+00 0.  1.
         23    2    1    2    0    0 -0.30525756930E+03 -0.45009803820E+02 -0.41999526808E+03  0.52925072785E+03  0.92207600898E+02 0.  0.
        254    2    1    2    0    0  0.30525756930E+03  0.45009803820E+02 -0.51430415779E+03  0.10798154716E+04  0.89793352762E+03 0.  0.
        -24    2    4    4    0    0  0.36098489892E+03 -0.36388859617E+03 -0.35899776949E+03  0.63139617717E+03  0.84004323591E+02 0.  0.
         24    2    4    4    0    0 -0.55727329621E+02  0.40889839999E+03 -0.15530638830E+03  0.44841929447E+03  0.81586473301E+02 0.  0.
         11    1    3    3    0    0 -0.30977962239E+03 -0.38144353632E+02 -0.39813080868E+03  0.50589183328E+03  0.00000000000E+00 0.  1.
        -11    1    3    3    0    0  0.45220530911E+01 -0.68654501879E+01 -0.21864459399E+02  0.23358894564E+02  0.00000000000E+00 0. -1.
          2    1    6    6  502    0 -0.14798097248E+02  0.26824262053E+03 -0.13456746976E+03  0.30046878551E+03  0.00000000000E+00 0. -1.
          3    1    5    5  503    0  0.83520484623E+02 -0.12996407964E+03 -0.82376556928E+02  0.17507778408E+03  0.00000000000E+00 0. -1.
         -4    1    5    5    0  503  0.27746441429E+03 -0.23392451653E+03 -0.27662121256E+03  0.45631839309E+03  0.00000000000E+00 0.  1.
         -1    1    6    6    0  502 -0.40929232373E+02  0.14065577946E+03 -0.20738918540E+02  0.14795050896E+03  0.00000000000E+00 0.  1.
<mgrwt>
<rscale>  0 0.13100300E+04</rscale>
<asrwt>0</asrwt>
<pdfrwt beam="1">  1        2 0.51905138E-01 0.13100300E+04</pdfrwt>
<pdfrwt beam="2">  1       -2 0.19564350E+00 0.13100300E+04</pdfrwt>
<totfact> 0.13390434E+01</totfact>
</mgrwt>
</event>
<event>
12    1  0.1518126E-007  0.2087740E+04  0.7818608E-02  0.8566663E-01
          2   -1    0    0  501    0  0.00000000000E+00  0.00000000000E+00  0.17511074829E+04  0.17511074829E+04  0.00000000000E+00 0.  1.
         -2   -1    0    0    0  501 -0.00000000000E+00 -0.00000000000E+00 -0.62227161826E+03  0.62227161826E+03  0.00000000000E+00 0. -1.
         23    2    1    2    0    0  0.22943880042E+03 -0.77201732772E+03  0.18791301307E+03  0.83207708046E+03  0.91586297579E+02 0.  0.
        254    2    1    2    0    0 -0.22943880042E+03  0.77201732772E+03  0.94092285156E+03  0.15413020207E+04  0.91740023379E+03 0.  0.
        -24    2    4    4    0    0 -0.57912642717E+03  0.45741150918E+03  0.53807820934E+03  0.91656493144E+03  0.77138879945E+02 0.  0.
         24    2    4    4    0    0  0.34968762675E+03  0.31460581854E+03  0.40284464222E+03  0.62473708925E+03  0.82184959426E+02 0.  0.
         11    1    3    3    0    0  0.45981648745E+01  0.22951544193E+00 -0.28991330996E+01  0.54406589932E+01  0.00000000000E+00 0. -1.
        -11    1    3    3    0    0  0.22484063555E+03 -0.77224684316E+03  0.19081214617E+03  0.82663642146E+03  0.00000000000E+00 0.  1.
          2    1    6    6  502    0  0.26409713072E+03  0.22910066611E+03  0.25000974322E+03  0.42981307725E+03  0.00000000000E+00 0. -1.
          1    1    5    5  503    0 -0.33651611979E+03  0.22446945328E+03  0.26830093264E+03  0.48540192087E+03  0.00000000000E+00 0. -1.
         -2    1    5    5    0  503 -0.24261030738E+03  0.23294205590E+03  0.26977727670E+03  0.43116301057E+03  0.00000000000E+00 0.  1.
         -1    1    6    6    0  502  0.85590496027E+02  0.85505152432E+02  0.15283489900E+03  0.19492401200E+03  0.00000000000E+00 0.  1.
<mgrwt>
<rscale>  0 0.20877399E+04</rscale>
<asrwt>0</asrwt>
<pdfrwt beam="1">  1        2 0.26940115E+00 0.20877399E+04</pdfrwt>
<pdfrwt beam="2">  1       -2 0.95734096E-01 0.20877399E+04</pdfrwt>
<totfact> 0.77562977E+00</totfact>
</mgrwt>
</event>
<event>
12    1  0.1518126E-007  0.2022006E+04  0.7818608E-02  0.8596401E-01
         -1   -1    0    0    0  501 -0.00000000000E+00  0.00000000000E+00  0.55807009590E+03  0.55807009590E+03  0.00000000000E+00 0.  1.
          1   -1    0    0  501    0  0.00000000000E+00 -0.00000000000E+00 -0.18315386872E+04  0.18315386872E+04  0.00000000000E+00 0. -1.
         23    2    1    2    0    0  0.78096178165E+03  0.32666897262E+02 -0.27868748192E+03  0.83479852085E+03  0.90848375091E+02 0.  0.
        254    2    1    2    0    0 -0.78096178165E+03 -0.32666897262E+02 -0.99478110937E+03  0.15548102622E+04  0.90381251673E+03 0.  0.
        -24    2    4    4    0    0 -0.51218200824E+03  0.40915741340E+03 -0.66775763065E+03  0.93881874900E+03  0.75764052629E+02 0.  0.
         24    2    4    4    0    0 -0.26877977342E+03 -0.44182431066E+03 -0.32702347872E+03  0.61599151324E+03  0.71062653025E+02 0.  0.
         11    1    3    3    0    0  0.31532946994E+03 -0.16887710714E+02 -0.77540167925E+02  0.32516203196E+03  0.00000000000E+00 0. -1.
        -11    1    3    3    0    0  0.46563231171E+03  0.49554607977E+02 -0.20114731399E+03  0.50963648889E+03  0.00000000000E+00 0.  1.
          2    1    6    6  502    0 -0.54550345106E+01 -0.46605287754E+02 -0.34190399530E+02  0.58058536566E+02  0.00000000000E+00 0. -1.
          3    1    5    5  503    0 -0.12079289909E+03  0.67695244273E+02 -0.11165766869E+03  0.17787918806E+03  0.00000000000E+00 0. -1.
         -4    1    5    5    0  503 -0.39138910915E+03  0.34146216913E+03 -0.55609996196E+03  0.76093956094E+03  0.00000000000E+00 0.  1.
         -1    1    6    6    0  502 -0.26332473890E+03 -0.39521902291E+03 -0.29283307919E+03  0.55793297667E+03  0.00000000000E+00 0.  1.
<mgrwt>
<rscale>  0 0.20220059E+04</rscale>
<asrwt>0</asrwt>
<pdfrwt beam="1">  1        1 0.28177518E+00 0.20220059E+04</pdfrwt>
<pdfrwt beam="2">  1       -1 0.85856938E-01 0.20220059E+04</pdfrwt>
<totfact> 0.48089677E+00</totfact>
</mgrwt>
</event>
<event>
12    1  0.1518126E-007  0.1723749E+04  0.7818608E-02  0.8747934E-01
          2   -1    0    0  501    0  0.00000000000E+00  0.00000000000E+00  0.20845252763E+04  0.20845252763E+04  0.00000000000E+00 0. -1.
         -2   -1    0    0    0  501 -0.00000000000E+00 -0.00000000000E+00 -0.35635330573E+03  0.35635330573E+03  0.00000000000E+00 0.  1.
         23    2    1    2    0    0 -0.30770448883E+03 -0.29771077027E+03 -0.98614054050E+01  0.43796761954E+03  0.91676786923E+02 0.  0.
        254    2    1    2    0    0  0.30770448883E+03  0.29771077027E+03  0.17380333760E+04  0.20029109625E+04  0.89865374447E+03 0.  0.
        -24    2    4    4    0    0 -0.30504387324E+03  0.18755259094E+03  0.61796899951E+03  0.71893936046E+03  0.82221534246E+02 0.  0.
         24    2    4    4    0    0  0.61274836207E+03  0.11015817934E+03  0.11200643765E+04  0.12839716020E+04  0.80271337848E+02 0.  0.
         13    1    3    3    0    0 -0.12746506518E+02 -0.53243128037E+02 -0.22225737963E+01  0.54792736251E+02  0.00000000000E+00 0. -1.
        -13    1    3    3    0    0 -0.29495798232E+03 -0.24446764224E+03 -0.76388316087E+01  0.38317488329E+03  0.00000000000E+00 0.  1.
          4    1    6    6  502    0  0.17360088624E+03  0.12679999070E+02  0.25192298317E+03  0.30620783714E+03  0.00000000000E+00 0. -1.
          3    1    5    5  503    0  0.33493560789E+01 -0.20071891306E+01  0.17899507985E+01  0.42954532020E+01  0.00000000000E+00 0. -1.
         -4    1    5    5    0  503 -0.30839322932E+03  0.18955978007E+03  0.61617904871E+03  0.71464390725E+03  0.00000000000E+00 0.  1.
         -3    1    6    6    0  502  0.43914747584E+03  0.97478180265E+02  0.86814139330E+03  0.97776376488E+03  0.00000000000E+00 0.  1.
<mgrwt>
<rscale>  0 0.17237488E+04</rscale>
<asrwt>0</asrwt>
<pdfrwt beam="1">  1        2 0.32069619E+00 0.17237488E+04</pdfrwt>
<pdfrwt beam="2">  1       -2 0.54823587E-01 0.17237488E+04</pdfrwt>
<totfact> 0.17822050E+01</totfact>
</mgrwt>
</event>
<event>
12    1  0.1518126E-007  0.2666312E+04  0.7818608E-02  0.8346019E-01
          2   -1    0    0  501    0  0.00000000000E+00  0.00000000000E+00  0.28687570699E+04  0.28687570699E+04  0.00000000000E+00 0. -1.
         -2   -1    0    0    0  501 -0.00000000000E+00 -0.00000000000E+00 -0.61953826198E+03  0.61953826198E+03  0.00000000000E+00 0.  1.
         23    2    1    2    0    0 -0.16318221693E+03  0.11478421018E+04  0.88175441641E+03  0.14594534917E+04  0.91343948257E+02 0.  0.
        254    2    1    2    0    0  0.16318221693E+03 -0.11478421018E+04  0.13674643915E+04  0.20288418402E+04  0.94977388042E+03 0.  0.
        -24    2    4    4    0    0  0.29685538565E+03 -0.98733887493E+03  0.52937019286E+03  0.11616432872E+04  0.78874276920E+02 0.  0.
         24    2    4    4    0    0 -0.13367316873E+03 -0.16050322689E+03  0.83809419867E+03  0.86719855307E+03  0.77470269976E+02 0.  0.
         11    1    3    3    0    0 -0.91207635756E+02  0.76728551435E+03  0.53729584554E+03  0.94113374129E+03  0.00000000000E+00 0. -1.
        -11    1    3    3    0    0 -0.71974581171E+02  0.38055658747E+03  0.34445857087E+03  0.51831975039E+03  0.00000000000E+00 0.  1.
          4    1    6    6  502    0 -0.22564443024E+02  0.51439882791E+01  0.98262475467E+02  0.10095112079E+03  0.00000000000E+00 0. -1.
          1    1    5    5  503    0  0.18079635501E+02 -0.19343332320E+02  0.10066227131E+02  0.28326077274E+02  0.00000000000E+00 0. -1.
         -2    1    5    5    0  503  0.27877575015E+03 -0.96799554261E+03  0.51930396573E+03  0.11333172099E+04  0.00000000000E+00 0.  1.
         -3    1    6    6    0  502 -0.11110872570E+03 -0.16564721517E+03  0.73983172320E+03  0.76624743228E+03  0.00000000000E+00 0.  1.
<mgrwt>
<rscale>  0 0.26663119E+04</rscale>
<asrwt>0</asrwt>
<pdfrwt beam="1">  1        2 0.44134723E+00 0.26663119E+04</pdfrwt>
<pdfrwt beam="2">  1       -2 0.95313581E-01 0.26663119E+04</pdfrwt>
<totfact> 0.17079978E+00</totfact>
</mgrwt>
</event>
<event>
12    1  0.1518126E-007  0.2203767E+04  0.7818608E-02  0.8516862E-01
         -2   -1    0    0    0  501 -0.00000000000E+00  0.00000000000E+00  0.41384300309E+03  0.41384300309E+03  0.00000000000E+00 0.  1.
          2   -1    0    0  501    0  0.00000000000E+00 -0.00000000000E+00 -0.29338344030E+04  0.29338344030E+04  0.00000000000E+00 0. -1.
         23    2    1    2    0    0 -0.13536646058E+03  0.37844412084E+03  0.19809360154E+03  0.45735838728E+03  0.91605612275E+02 0.  0.
        254    2    1    2    0    0  0.13536646058E+03 -0.37844412084E+03 -0.27180850014E+04  0.28903190188E+04  0.89689125551E+03 0.  0.
        -24    2    4    4    0    0 -0.16612915969E+03 -0.56782693108E+03 -0.13799344308E+04  0.15034678463E+04  0.78550684984E+02 0.  0.
         24    2    4    4    0    0  0.30149562027E+03  0.18938281024E+03 -0.13381505706E+04  0.13868511725E+04  0.77095831398E+02 0.  0.
         13    1    3    3    0    0 -0.37716619178E+02  0.20585499033E+03  0.13590086494E+03  0.24953529910E+03  0.00000000000E+00 0.  1.
        -13    1    3    3    0    0 -0.97649841402E+02  0.17258913050E+03  0.62192736594E+02  0.20782308818E+03  0.00000000000E+00 0. -1.
          4    1    6    6  502    0  0.11566928169E+03  0.10403918288E+03 -0.68470552948E+03  0.70215752962E+03  0.00000000000E+00 0. -1.
          3    1    5    5  503    0 -0.71296549114E+01 -0.11072213273E+01 -0.28830110679E+02  0.29719239559E+02  0.00000000000E+00 0. -1.
         -4    1    5    5    0  503 -0.15899950478E+03 -0.56671970975E+03 -0.13511043201E+04  0.14737486067E+04  0.00000000000E+00 0.  1.
         -3    1    6    6    0  502  0.18582633858E+03  0.85343627356E+02 -0.65344504114E+03  0.68469364290E+03  0.00000000000E+00 0.  1.
<mgrwt>
<rscale>  0 0.22037666E+04</rscale>
<asrwt>0</asrwt>
<pdfrwt beam="1">  1        2 0.45135916E+00 0.22037666E+04</pdfrwt>
<pdfrwt beam="2">  1       -2 0.63668151E-01 0.22037666E+04</pdfrwt>
<totfact> 0.39971648E+00</totfact>
</mgrwt>
</event>
<event>
12    1  0.1518126E-007  0.4946163E+04  0.7818608E-02  0.7836866E-01
         -2   -1    0    0    0  501 -0.00000000000E+00  0.00000000000E+00  0.16141371847E+04  0.16141371847E+04  0.00000000000E+00 0.  1.
          2   -1    0    0  501    0  0.00000000000E+00 -0.00000000000E+00 -0.37891026712E+04  0.37891026712E+04  0.00000000000E+00 0. -1.
         23    2    1    2    0    0 -0.12073722646E+04 -0.16654613321E+04 -0.23791138629E+04  0.31464307385E+04  0.91292854011E+02 0.  0.
        254    2    1    2    0    0  0.12073722646E+04  0.16654613321E+04  0.20414837650E+03  0.22568091174E+04  0.90553939645E+03 0.  0.
        -24    2    4    4    0    0  0.80106319914E+03  0.57085292181E+03  0.40989055009E+03  0.10685476422E+04  0.78793992559E+02 0.  0.
         24    2    4    4    0    0  0.40630906544E+03  0.10946084103E+04 -0.20574217359E+03  0.11882614752E+04  0.79880302704E+02 0.  0.
         11    1    3    3    0    0 -0.82437587960E+03 -0.12053917841E+04 -0.16710394001E+04  0.22192200479E+04  0.00000000000E+00 0. -1.
        -11    1    3    3    0    0 -0.38299638498E+03 -0.46006954800E+03 -0.70807446284E+03  0.92721069063E+03  0.00000000000E+00 0.  1.
          4    1    6    6  502    0  0.11657815986E+03  0.42033227993E+03 -0.65401385321E+02  0.44107486225E+03  0.00000000000E+00 0. -1.
          1    1    5    5  503    0  0.19139983391E+03  0.10311061235E+03  0.11032990496E+03  0.24379988254E+03  0.00000000000E+00 0. -1.
         -2    1    5    5    0  503  0.60966336523E+03  0.46774230946E+03  0.29956064514E+03  0.82474775967E+03  0.00000000000E+00 0.  1.
         -3    1    6    6    0  502  0.28973090558E+03  0.67427613038E+03 -0.14034078827E+03  0.74718661291E+03  0.00000000000E+00 0.  1.
<mgrwt>
<rscale>  0 0.49461628E+04</rscale>
<asrwt>0</asrwt>
<pdfrwt beam="1">  1        2 0.58293886E+00 0.49461628E+04</pdfrwt>
<pdfrwt beam="2">  1       -2 0.24832880E+00 0.49461628E+04</pdfrwt>
<totfact> 0.24003173E-02</totfact>
</mgrwt>
</event>
<event>
12    1  0.1518126E-007  0.1442509E+04  0.7818608E-02  0.8923610E-01
          2   -1    0    0  501    0  0.00000000000E+00  0.00000000000E+00  0.17142653795E+04  0.17142653795E+04  0.00000000000E+00 0. -1.
         -2   -1    0    0    0  501 -0.00000000000E+00 -0.00000000000E+00 -0.30345828540E+03  0.30345828540E+03  0.00000000000E+00 0.  1.
         23    2    1    2    0    0  0.29897644539E+03 -0.25035619278E+03  0.71221189321E+03  0.81679483934E+03  0.88560095934E+02 0.  0.
        254    2    1    2    0    0 -0.29897644539E+03  0.25035619278E+03  0.69859520089E+03  0.12009288256E+04  0.89561691094E+03 0.  0.
        -24    2    4    4    0    0 -0.28716361362E+03 -0.21148020754E+03  0.71714836589E+01  0.36557985689E+03  0.80064863833E+02 0.  0.
         24    2    4    4    0    0 -0.11812831777E+02  0.46183640032E+03  0.69142371723E+03  0.83534896866E+03  0.79427571003E+02 0.  0.
         11    1    3    3    0    0  0.60777284315E+02 -0.92415564877E+02  0.15318049874E+03  0.18894120809E+03  0.00000000000E+00 0.  1.
        -11    1    3    3    0    0  0.23819916108E+03 -0.15794062790E+03  0.55903139446E+03  0.62785363125E+03  0.00000000000E+00 0. -1.
          4    1    6    6  502    0 -0.68144409502E+01  0.93066985096E+01  0.43641867076E+02  0.45140489635E+02  0.00000000000E+00 0. -1.
          3    1    5    5  503    0 -0.37245569268E+02 -0.18757243814E+02 -0.24552135557E+02  0.48392912560E+02  0.00000000000E+00 0. -1.
         -4    1    5    5    0  503 -0.24991804435E+03 -0.19272296373E+03  0.31723619216E+02  0.31718694433E+03  0.00000000000E+00 0.  1.
         -3    1    6    6    0  502 -0.49983908272E+01  0.45252970181E+03  0.64778185016E+03  0.79020847902E+03  0.00000000000E+00 0.  1.
<mgrwt>
<rscale>  0 0.14425090E+04</rscale>
<asrwt>0</asrwt>
<pdfrwt beam="1">  1        2 0.26373313E+00 0.14425090E+04</pdfrwt>
<pdfrwt beam="2">  1       -2 0.46685891E-01 0.14425090E+04</pdfrwt>
<totfact> 0.40634461E+01</totfact>
</mgrwt>
</event>
<event>
12    1  0.1518126E-007  0.1469157E+04  0.7818608E-02  0.8905226E-01
         -2   -1    0    0    0  501 -0.00000000000E+00  0.00000000000E+00  0.19192319150E+03  0.19192319150E+03  0.00000000000E+00 0.  1.
          2   -1    0    0  501    0  0.00000000000E+00 -0.00000000000E+00 -0.28115716700E+04  0.28115716700E+04  0.00000000000E+00 0. -1.
         23    2    1    2    0    0  0.86275425543E+02 -0.14199882068E+01 -0.17369927319E+04  0.17413243861E+04  0.87300638498E+02 0.  0.
        254    2    1    2    0    0 -0.86275425543E+02  0.14199882068E+01 -0.88265574654E+03  0.12621704754E+04  0.89807999451E+03 0.  0.
        -24    2    4    4    0    0  0.18730770330E+02  0.43524605900E+03 -0.50590695740E+03  0.67219252634E+03  0.78172688905E+02 0.  0.
         24    2    4    4    0    0 -0.10500619587E+03 -0.43382607080E+03 -0.37674878914E+03  0.58997794901E+03  0.83084109964E+02 0.  0.
         11    1    3    3    0    0  0.82605125027E+02 -0.20597736337E+02 -0.16487799020E+04  0.16509763895E+04  0.00000000000E+00 0. -1.
        -11    1    3    3    0    0  0.36703005159E+01  0.19177748130E+02 -0.88212829876E+02  0.90347996568E+02  0.00000000000E+00 0.  1.
          2    1    6    6  502    0 -0.56440774807E+02 -0.10002192304E+03 -0.11966343722E+03  0.16585923054E+03  0.00000000000E+00 0. -1.
          1    1    5    5  503    0  0.48680995567E+02  0.23468715316E+03 -0.26557591439E+03  0.35774077974E+03  0.00000000000E+00 0. -1.
         -2    1    5    5    0  503 -0.29950225238E+02  0.20055890584E+03 -0.24033104301E+03  0.31445174660E+03  0.00000000000E+00 0.  1.
         -3    1    6    6    0  502 -0.48565421066E+02 -0.33380414776E+03 -0.25708535192E+03  0.42411871847E+03  0.00000000000E+00 0.  1.
<mgrwt>
<rscale>  0 0.14691573E+04</rscale>
<asrwt>0</asrwt>
<pdfrwt beam="1">  1        2 0.43254949E+00 0.14691573E+04</pdfrwt>
<pdfrwt beam="2">  1       -2 0.29526645E-01 0.14691573E+04</pdfrwt>
<totfact> 0.23411170E+01</totfact>
</mgrwt>
</event>
<event>
12    1  0.1518126E-007  0.2149900E+04  0.7818608E-02  0.8539575E-01
         -4   -1    0    0    0  501 -0.00000000000E+00  0.00000000000E+00  0.40481945655E+03  0.40481945655E+03  0.00000000000E+00 0.  1.
          4   -1    0    0  501    0  0.00000000000E+00 -0.00000000000E+00 -0.28544019904E+04  0.28544019904E+04  0.00000000000E+00 0. -1.
         23    2    1    2    0    0  0.44658919184E+03 -0.63046496617E+03 -0.32469716540E+03  0.84303150456E+03  0.91355835189E+02 0.  0.
        254    2    1    2    0    0 -0.44658919184E+03  0.63046496617E+03 -0.21248853685E+04  0.24161899424E+04  0.85200236434E+03 0.  0.
        -24    2    4    4    0    0 -0.57443171436E+03  0.75433813433E+03 -0.18263760809E+04  0.20593788494E+04  0.79961498670E+02 0.  0.
         24    2    4    4    0    0  0.12784252252E+03 -0.12387316816E+03 -0.29850928761E+03  0.35681109300E+03  0.80734682452E+02 0.  0.
         13    1    3    3    0    0  0.29073080898E+02 -0.32246170504E+02 -0.42752083796E+02  0.60932751570E+02  0.00000000000E+00 0. -1.
        -13    1    3    3    0    0  0.41751611094E+03 -0.59821879567E+03 -0.28194508161E+03  0.78209875299E+03  0.00000000000E+00 0.  1.
          2    1    6    6  502    0  0.10935568362E+03 -0.12278661407E+03 -0.29533725366E+03  0.33802264944E+03  0.00000000000E+00 0. -1.
          1    1    5    5  503    0 -0.45609386679E+03  0.64249403053E+03 -0.14813613751E+04  0.16778711864E+04  0.00000000000E+00 0. -1.
         -2    1    5    5    0  503 -0.11833784757E+03  0.11184410380E+03 -0.34501470581E+03  0.38150766303E+03  0.00000000000E+00 0.  1.
         -1    1    6    6    0  502  0.18486838901E+02 -0.10865540869E+01 -0.31720339495E+01  0.18788443568E+02  0.00000000000E+00 0.  1.
<mgrwt>
<rscale>  0 0.21499000E+04</rscale>
<asrwt>0</asrwt>
<pdfrwt beam="1">  1        4 0.43913878E+00 0.21499000E+04</pdfrwt>
<pdfrwt beam="2">  1       -4 0.62279915E-01 0.21499000E+04</pdfrwt>
<totfact> 0.15902426E-02</totfact>
</mgrwt>
</event>
<event>
12    1  0.1518126E-007  0.1307070E+04  0.7818608E-02  0.9023977E-01
         -3   -1    0    0    0  501 -0.00000000000E+00  0.00000000000E+00  0.11028474434E+03  0.11028474434E+03  0.00000000000E+00 0.  1.
          3   -1    0    0  501    0  0.00000000000E+00 -0.00000000000E+00 -0.38727778170E+04  0.38727778170E+04  0.00000000000E+00 0. -1.
         23    2    1    2    0    0 -0.16729905968E+03 -0.28839705650E+03 -0.86687507044E+03  0.93323960384E+03  0.91114943107E+02 0.  0.
        254    2    1    2    0    0  0.16729905968E+03  0.28839705650E+03 -0.28956180023E+04  0.30498229575E+04  0.89758265345E+03 0.  0.
        -24    2    4    4    0    0  0.18304324914E+03 -0.24599433342E+03 -0.48529231664E+03  0.57957145247E+03  0.79852318648E+02 0.  0.
         24    2    4    4    0    0 -0.15744189465E+02  0.53439138992E+03 -0.24103256856E+04  0.24702515051E+04  0.81550907040E+02 0.  0.
         11    1    3    3    0    0 -0.79609303797E+02 -0.12368980911E+03 -0.50642918933E+03  0.52735882844E+03  0.00000000000E+00 0. -1.
        -11    1    3    3    0    0 -0.87689755879E+02 -0.16470724739E+03 -0.36044588111E+03  0.40588077540E+03  0.00000000000E+00 0.  1.
          2    1    6    6  502    0  0.16018345229E+02  0.54510319729E+02 -0.34681479811E+03  0.35143771358E+03  0.00000000000E+00 0. -1.
          3    1    5    5  503    0  0.35163333819E+01  0.51879700154E+01 -0.30668594761E+01  0.69774823811E+01  0.00000000000E+00 0. -1.
         -4    1    5    5    0  503  0.17952691576E+03 -0.25118230344E+03 -0.48222545717E+03  0.57259397009E+03  0.00000000000E+00 0.  1.
         -1    1    6    6    0  502 -0.31762534694E+02  0.47988107020E+03 -0.20635108875E+04  0.21188137915E+04  0.00000000000E+00 0.  1.
<mgrwt>
<rscale>  0 0.13070705E+04</rscale>
<asrwt>0</asrwt>
<pdfrwt beam="1">  1        3 0.59581194E+00 0.13070705E+04</pdfrwt>
<pdfrwt beam="2">  1       -3 0.16966885E-01 0.13070705E+04</pdfrwt>
<totfact> 0.96469080E-02</totfact>
</mgrwt>
</event>
<event>
12    1  0.1518126E-007  0.1195346E+04  0.7818608E-02  0.9116940E-01
          1   -1    0    0  501    0  0.00000000000E+00  0.00000000000E+00  0.25095489963E+04  0.25095489963E+04  0.00000000000E+00 0. -1.
         -1   -1    0    0    0  501 -0.00000000000E+00 -0.00000000000E+00 -0.14234158601E+03  0.14234158601E+03  0.00000000000E+00 0.  1.
         23    2    1    2    0    0  0.91068409108E+02 -0.34218123697E+02  0.90344625707E+03  0.91310347365E+03  0.89880359669E+02 0.  0.
        254    2    1    2    0    0 -0.91068409108E+02  0.34218123697E+02  0.14637611532E+04  0.17387871086E+04  0.93344499592E+03 0.  0.
        -24    2    4    4    0    0 -0.50543077292E+03 -0.23229773921E+02  0.79707910659E+03  0.94760215894E+03  0.81331794813E+02 0.  0.
         24    2    4    4    0    0  0.41436236381E+03  0.57447897618E+02  0.66668204659E+03  0.79118494969E+03  0.80698475034E+02 0.  0.
         11    1    3    3    0    0  0.23676270935E+02 -0.54336725455E+02  0.32098588499E+03  0.32641229128E+03  0.00000000000E+00 0.  1.
        -11    1    3    3    0    0  0.67392138172E+02  0.20118601758E+02  0.58246037209E+03  0.58669118237E+03  0.00000000000E+00 0. -1.
          2    1    6    6  502    0  0.49908593192E+02  0.33047498660E+02  0.11291370319E+03  0.12779870582E+03  0.00000000000E+00 0. -1.
          1    1    5    5  503    0 -0.25474594778E+03 -0.73450707862E+01  0.47611479752E+03  0.54003217348E+03  0.00000000000E+00 0. -1.
         -2    1    5    5    0  503 -0.25068482514E+03 -0.15884703135E+02  0.32096430907E+03  0.40756998545E+03  0.00000000000E+00 0.  1.
         -1    1    6    6    0  502  0.36445377062E+03  0.24400398957E+02  0.55376834341E+03  0.66338624386E+03  0.00000000000E+00 0.  1.
<mgrwt>
<rscale>  0 0.11953463E+04</rscale>
<asrwt>0</asrwt>
<pdfrwt beam="1">  1        1 0.38608443E+00 0.11953463E+04</pdfrwt>
<pdfrwt beam="2">  1       -1 0.21898707E-01 0.11953463E+04</pdfrwt>
<totfact> 0.23343707E+01</totfact>
</mgrwt>
</event>
<event>
12    1  0.1518126E-007  0.2315992E+04  0.7818608E-02  0.8471642E-01
         -2   -1    0    0    0  501 -0.00000000000E+00  0.00000000000E+00  0.10645443928E+04  0.10645443928E+04  0.00000000000E+00 0.  1.
          2   -1    0    0  501    0  0.00000000000E+00 -0.00000000000E+00 -0.12596509986E+04  0.12596509986E+04  0.00000000000E+00 0. -1.
         23    2    1    2    0    0 -0.24425859941E+03  0.66823977910E+03 -0.75874020291E+03  0.10441825737E+04  0.91781729449E+02 0.  0.
        254    2    1    2    0    0  0.24425859941E+03 -0.66823977910E+03  0.56363359712E+03  0.12800128178E+04  0.90252053498E+03 0.  0.
        -24    2    4    4    0    0 -0.28627305775E+03 -0.44189725036E+03  0.11497892699E+03  0.54450863998E+03  0.77743564931E+02 0.  0.
         24    2    4    4    0    0  0.53053165716E+03 -0.22634252874E+03  0.44865467013E+03  0.73550417778E+03  0.83550002590E+02 0.  0.
         11    1    3    3    0    0 -0.84807207769E+02  0.17832798838E+03 -0.26595644779E+03  0.33124909969E+03  0.00000000000E+00 0.  1.
        -11    1    3    3    0    0 -0.15945139164E+03  0.48991179072E+03 -0.49278375513E+03  0.71293347397E+03  0.00000000000E+00 0. -1.
          2    1    6    6  502    0  0.20635563887E+03 -0.76176621796E+02  0.22133490854E+03  0.31204914539E+03  0.00000000000E+00 0. -1.
          3    1    5    5  503    0 -0.66867407873E+02 -0.15949358265E+03  0.17397808955E+02  0.17381638847E+03  0.00000000000E+00 0. -1.
         -4    1    5    5    0  503 -0.21940564988E+03 -0.28240366770E+03  0.97581118034E+02  0.37069225151E+03  0.00000000000E+00 0.  1.
         -1    1    6    6    0  502  0.32417601829E+03 -0.15016590694E+03  0.22731976159E+03  0.42345503239E+03  0.00000000000E+00 0.  1.
<mgrwt>
<rscale>  0 0.23159917E+04</rscale>
<asrwt>0</asrwt>
<pdfrwt beam="1">  1        2 0.19379246E+00 0.23159917E+04</pdfrwt>
<pdfrwt beam="2">  1       -2 0.16377606E+00 0.23159917E+04</pdfrwt>
<totfact> 0.37355303E+00</totfact>
</mgrwt>
</event>
<event>
12    1  0.1518126E-007  0.1978452E+04  0.7818608E-02  0.8616762E-01
         -2   -1    0    0    0  501 -0.00000000000E+00  0.00000000000E+00  0.68429218651E+03  0.68429218651E+03  0.00000000000E+00 0.  1.
          2   -1    0    0  501    0  0.00000000000E+00 -0.00000000000E+00 -0.14300443443E+04  0.14300443443E+04  0.00000000000E+00 0. -1.
         23    2    1    2    0    0  0.21166786391E+03  0.74541968107E+03 -0.19384954817E+03  0.80408900366E+03  0.92345508457E+02 0.  0.
        254    2    1    2    0    0 -0.21166786391E+03 -0.74541968107E+03 -0.55190260960E+03  0.13102475271E+04  0.90094300950E+03 0.  0.
        -24    2    4    4    0    0  0.32515667488E+03 -0.39050484368E+03 -0.11262564786E+03  0.52689006180E+03  0.81900576959E+02 0.  0.
         24    2    4    4    0    0 -0.53682453879E+03 -0.35491483739E+03 -0.43927696175E+03  0.78335746535E+03  0.80867435664E+02 0.  0.
         13    1    3    3    0    0  0.63066860653E+02  0.38731632185E+03 -0.10755651430E+03  0.40689036097E+03  0.00000000000E+00 0. -1.
        -13    1    3    3    0    0  0.14860100325E+03  0.35810335922E+03 -0.86293033875E+02  0.39719864268E+03  0.00000000000E+00 0.  1.
          2    1    6    6  502    0 -0.46094878553E+03 -0.32578085284E+03 -0.35796894546E+03  0.66839263376E+03  0.00000000000E+00 0. -1.
          3    1    5    5  503    0  0.20615298093E+03 -0.20611938181E+03 -0.32760216235E+02  0.29335555708E+03  0.00000000000E+00 0. -1.
         -4    1    5    5    0  503  0.11900369395E+03 -0.18438546187E+03 -0.79865431622E+02  0.23353450471E+03  0.00000000000E+00 0.  1.
         -1    1    6    6    0  502 -0.75875753263E+02 -0.29133984552E+02 -0.81308016290E+02  0.11496483159E+03  0.00000000000E+00 0.  1.
<mgrwt>
<rscale>  0 0.19784521E+04</rscale>
<asrwt>0</asrwt>
<pdfrwt beam="1">  1        2 0.22000682E+00 0.19784521E+04</pdfrwt>
<pdfrwt beam="2">  1       -2 0.10527572E+00 0.19784521E+04</pdfrwt>
<totfact> 0.94574289E+00</totfact>
</mgrwt>
</event>
<event>
12    1  0.1518126E-007  0.1840567E+04  0.7818608E-02  0.8685019E-01
          1   -1    0    0  501    0  0.00000000000E+00  0.00000000000E+00  0.11250226691E+04  0.11250226691E+04  0.00000000000E+00 0. -1.
         -1   -1    0    0    0  501 -0.00000000000E+00 -0.00000000000E+00 -0.75280415593E+03  0.75280415593E+03  0.00000000000E+00 0.  1.
         23    2    1    2    0    0  0.18353230999E+03  0.64311329666E+03 -0.88637681979E+02  0.68080554267E+03  0.91437011732E+02 0.  0.
        254    2    1    2    0    0 -0.18353230999E+03 -0.64311329666E+03  0.46085619514E+03  0.11970212824E+04  0.87931376462E+03 0.  0.
        -24    2    4    4    0    0  0.32823711295E+03 -0.12276263364E+03  0.23244220271E+03  0.42805822284E+03  0.79963729315E+02 0.  0.
         24    2    4    4    0    0 -0.51176942294E+03 -0.52035066302E+03  0.22841399243E+03  0.76896305951E+03  0.80364670049E+02 0.  0.
         11    1    3    3    0    0  0.87545185741E+02  0.38529182506E+03 -0.91970906614E+02  0.40567548320E+03  0.00000000000E+00 0.  1.
        -11    1    3    3    0    0  0.95987124246E+02  0.25782147160E+03  0.33332246354E+01  0.27513005947E+03  0.00000000000E+00 0. -1.
          2    1    6    6  502    0 -0.89473237992E+02 -0.11533884801E+03  0.74744980470E+02  0.16399793377E+03  0.00000000000E+00 0. -1.
          1    1    5    5  503    0  0.23800915758E+02  0.98319135486E+01  0.69475354073E+01  0.26672427021E+02  0.00000000000E+00 0. -1.
         -2    1    5    5    0  503  0.30443619719E+03 -0.13259454719E+03  0.22549466730E+03  0.40138579582E+03  0.00000000000E+00 0.  1.
         -1    1    6    6    0  502 -0.42229618494E+03 -0.40501181501E+03  0.15366901196E+03  0.60496512573E+03  0.00000000000E+00 0.  1.
<mgrwt>
<rscale>  0 0.18405670E+04</rscale>
<asrwt>0</asrwt>
<pdfrwt beam="1">  1        1 0.17308041E+00 0.18405670E+04</pdfrwt>
<pdfrwt beam="2">  1       -1 0.11581602E+00 0.18405670E+04</pdfrwt>
<totfact> 0.77058339E+00</totfact>
</mgrwt>
</event>
<event>
12    1  0.1518126E-007  0.3001468E+04  0.7818608E-02  0.8243312E-01
         -2   -1    0    0    0  501 -0.00000000000E+00  0.00000000000E+00  0.95098771320E+03  0.95098771320E+03  0.00000000000E+00 0. -1.
          2   -1    0    0  501    0  0.00000000000E+00 -0.00000000000E+00 -0.23682769232E+04  0.23682769232E+04  0.00000000000E+00 0.  1.
         23    2    1    2    0    0 -0.39143151587E+03 -0.62303242029E+03  0.61224825083E+03  0.96162928821E+03  0.92167993120E+02 0.  0.
        254    2    1    2    0    0  0.39143151587E+03  0.62303242029E+03 -0.20295374609E+04  0.23576353482E+04  0.94764661231E+03 0.  0.
        -24    2    4    4    0    0  0.60532458194E+03  0.12168607754E+03 -0.13194642877E+04  0.14589238496E+04  0.79040757345E+02 0.  0.
         24    2    4    4    0    0 -0.21389306607E+03  0.50134634275E+03 -0.71007317316E+03  0.89871149867E+03  0.79875199469E+02 0.  0.
         13    1    3    3    0    0 -0.23315101165E+03 -0.44987276916E+03  0.42982611928E+03  0.66445119873E+03  0.00000000000E+00 0. -1.
        -13    1    3    3    0    0 -0.15828050422E+03 -0.17315965113E+03  0.18242213154E+03  0.29717808949E+03  0.00000000000E+00 0.  1.
          4    1    6    6  502    0 -0.12818649762E+02  0.12911444776E+02 -0.73796404208E+01  0.19633702674E+02  0.00000000000E+00 0. -1.
          1    1    5    5  503    0  0.11231648812E+02 -0.28572072425E+01 -0.56309618236E+02  0.57489883233E+02  0.00000000000E+00 0. -1.
         -4    1    5    5    0  503  0.59409293313E+03  0.12454328478E+03 -0.12631546695E+04  0.14014339663E+04  0.00000000000E+00 0.  1.
         -3    1    6    6    0  502 -0.20107441631E+03  0.48843489798E+03 -0.70269353274E+03  0.87907779600E+03  0.00000000000E+00 0.  1.
<mgrwt>
<rscale>  0 0.30014678E+04</rscale>
<asrwt>0</asrwt>
<pdfrwt beam="1">  1        2 0.36435029E+00 0.30014678E+04</pdfrwt>
<pdfrwt beam="2">  1       -2 0.14630580E+00 0.30014678E+04</pdfrwt>
<totfact> 0.11353553E+00</totfact>
</mgrwt>
</event>
<event>
12    1  0.1518126E-007  0.1620852E+04  0.7818608E-02  0.8807840E-01
          2   -1    0    0  501    0  0.00000000000E+00  0.00000000000E+00  0.12362353657E+04  0.12362353657E+04  0.00000000000E+00 0. -1.
         -2   -1    0    0    0  501 -0.00000000000E+00 -0.00000000000E+00 -0.53128228945E+03  0.53128228945E+03  0.00000000000E+00 0.  1.
         23    2    1    2    0    0 -0.10870182964E+03 -0.44330244275E+03  0.60107575986E+03  0.76026138388E+03  0.91499503843E+02 0.  0.
        254    2    1    2    0    0  0.10870182964E+03  0.44330244275E+03  0.10387731635E+03  0.10072562712E+04  0.89187530271E+03 0.  0.
        -24    2    4    4    0    0 -0.35364559098E+03  0.16212386730E+03 -0.12195150583E+03  0.41551603275E+03  0.80200070634E+02 0.  0.
         24    2    4    4    0    0  0.46234742062E+03  0.28117857545E+03  0.22582882218E+03  0.59174023849E+03  0.79569619033E+02 0.  0.
         11    1    3    3    0    0 -0.42349664621E+02 -0.47342367839E+02  0.70296340483E+02  0.94743703598E+02  0.00000000000E+00 0.  1.
        -11    1    3    3    0    0 -0.66352165020E+02 -0.39596007491E+03  0.53077941938E+03  0.66551768028E+03  0.00000000000E+00 0. -1.
          4    1    6    6  502    0  0.25711656687E+03  0.18231783661E+03  0.16589155214E+03  0.35618636916E+03  0.00000000000E+00 0. -1.
          1    1    5    5  503    0 -0.55601126888E+02  0.22885697208E+02 -0.51328351588E+02  0.79055930357E+02  0.00000000000E+00 0. -1.
         -4    1    5    5    0  503 -0.29804446409E+03  0.13923817009E+03 -0.70623154240E+02  0.33646010239E+03  0.00000000000E+00 0.  1.
         -3    1    6    6    0  502  0.20523085375E+03  0.98860738841E+02  0.59937270040E+02  0.23555386933E+03  0.00000000000E+00 0.  1.
<mgrwt>
<rscale>  0 0.16208516E+04</rscale>
<asrwt>0</asrwt>
<pdfrwt beam="1">  1        2 0.19019006E+00 0.16208516E+04</pdfrwt>
<pdfrwt beam="2">  1       -2 0.81735737E-01 0.16208516E+04</pdfrwt>
<totfact> 0.22726327E+01</totfact>
</mgrwt>
</event>
<event>
12    1  0.1518126E-007  0.1417485E+04  0.7818608E-02  0.8941258E-01
         -2   -1    0    0    0  501 -0.00000000000E+00  0.00000000000E+00  0.60490941355E+03  0.60490941355E+03  0.00000000000E+00 0.  1.
          2   -1    0    0  501    0  0.00000000000E+00 -0.00000000000E+00 -0.83039917818E+03  0.83039917818E+03  0.00000000000E+00 0. -1.
         23    2    1    2    0    0 -0.28081683680E+03 -0.31044746402E+03 -0.47340292511E+02  0.43224714296E+03  0.96751049364E+02 0.  0.
        254    2    1    2    0    0  0.28081683680E+03  0.31044746402E+03 -0.17814947212E+03  0.10030614488E+04  0.89395710850E+03 0.  0.
        -24    2    4    4    0    0 -0.17250945882E+03  0.29507591517E+03 -0.36482326955E+03  0.50608648500E+03  0.78728668241E+02 0.  0.
         24    2    4    4    0    0  0.45332629562E+03  0.15371548854E+02  0.18667379743E+03  0.49697496377E+03  0.79974953253E+02 0.  0.
         13    1    3    3    0    0 -0.62574258736E+02 -0.29398608702E+02  0.15636889601E+02  0.70882496897E+02  0.00000000000E+00 0.  1.
        -13    1    3    3    0    0 -0.21824257807E+03 -0.28104885532E+03 -0.62977182113E+02  0.36136464606E+03  0.00000000000E+00 0. -1.
          4    1    6    6  502    0  0.95325543680E+02  0.15778370482E+02  0.73861457653E+02  0.12162002787E+03  0.00000000000E+00 0. -1.
          1    1    5    5  503    0 -0.24939541200E+02  0.10870914380E+03 -0.13889905228E+03  0.17813647965E+03  0.00000000000E+00 0. -1.
         -2    1    5    5    0  503 -0.14756991762E+03  0.18636677137E+03 -0.22592421727E+03  0.32795000534E+03  0.00000000000E+00 0.  1.
         -3    1    6    6    0  502  0.35800075194E+03 -0.40682162715E+00  0.11281233978E+03  0.37535493589E+03  0.00000000000E+00 0.  1.
<mgrwt>
<rscale>  0 0.14174855E+04</rscale>
<asrwt>0</asrwt>
<pdfrwt beam="1">  1        2 0.12775372E+00 0.14174855E+04</pdfrwt>
<pdfrwt beam="2">  1       -2 0.93062986E-01 0.14174855E+04</pdfrwt>
<totfact> 0.31153305E+01</totfact>
</mgrwt>
</event>
<event>
12    1  0.1518126E-007  0.2319373E+04  0.7818608E-02  0.8470322E-01
          2   -1    0    0  501    0  0.00000000000E+00  0.00000000000E+00  0.74249795008E+03  0.74249795008E+03  0.00000000000E+00 0. -1.
         -2   -1    0    0    0  501 -0.00000000000E+00 -0.00000000000E+00 -0.18112810653E+04  0.18112810653E+04  0.00000000000E+00 0.  1.
         23    2    1    2    0    0  0.74549178202E+03 -0.26227998542E+03 -0.10998426070E+04  0.13572318043E+04  0.88744704371E+02 0.  0.
        254    2    1    2    0    0 -0.74549178202E+03  0.26227998542E+03  0.31059491860E+02  0.11965472110E+04  0.89789294929E+03 0.  0.
        -24    2    4    4    0    0 -0.29565978843E+03 -0.30128321919E+03  0.16280049692E+03  0.45926539266E+03  0.78958282929E+02 0.  0.
         24    2    4    4    0    0 -0.44983199359E+03  0.56356320461E+03 -0.13174100506E+03  0.73728181837E+03  0.79224233924E+02 0.  0.
         13    1    3    3    0    0  0.65968042745E+03 -0.23639839245E+03 -0.92198735597E+03  0.11580687160E+04  0.00000000000E+00 0.  1.
        -13    1    3    3    0    0  0.85811354573E+02 -0.25881592973E+02 -0.17785525107E+03  0.19916308835E+03  0.00000000000E+00 0. -1.
          4    1    6    6  502    0 -0.95081298057E+02  0.11166194981E+03  0.49165045303E+01  0.14674132442E+03  0.00000000000E+00 0. -1.
          1    1    5    5  503    0  0.16103664503E+01 -0.15809054278E+02 -0.61709766239E+00  0.15902838954E+02  0.00000000000E+00 0. -1.
         -2    1    5    5    0  503 -0.29727015488E+03 -0.28547416491E+03  0.16341759458E+03  0.44336255371E+03  0.00000000000E+00 0.  1.
         -3    1    6    6    0  502 -0.35475069554E+03  0.45190125480E+03 -0.13665750959E+03  0.59054049395E+03  0.00000000000E+00 0.  1.
<mgrwt>
<rscale>  0 0.23193727E+04</rscale>
<asrwt>0</asrwt>
<pdfrwt beam="1">  1        2 0.11423045E+00 0.23193727E+04</pdfrwt>
<pdfrwt beam="2">  1       -2 0.27865862E+00 0.23193727E+04</pdfrwt>
<totfact> 0.14759281E+00</totfact>
</mgrwt>
</event>
<event>
12    1  0.1518126E-007  0.1463145E+04  0.7818608E-02  0.8909338E-01
          2   -1    0    0  501    0  0.00000000000E+00  0.00000000000E+00  0.38082698379E+04  0.38082698379E+04  0.00000000000E+00 0. -1.
         -2   -1    0    0    0  501 -0.00000000000E+00 -0.00000000000E+00 -0.14053576848E+03  0.14053576848E+03  0.00000000000E+00 0.  1.
         23    2    1    2    0    0  0.38978750325E+03 -0.18427465892E+03  0.12376307225E+04  0.13137976770E+04  0.91886251874E+02 0.  0.
        254    2    1    2    0    0 -0.38978750325E+03  0.18427465892E+03  0.24301033469E+04  0.26350079293E+04  0.92302386938E+03 0.  0.
        -24    2    4    4    0    0 -0.59583328491E+03 -0.24567323791E+02  0.95354288988E+03  0.11274451931E+04  0.79169209382E+02 0.  0.
         24    2    4    4    0    0  0.20604578166E+03  0.20884198271E+03  0.14765604570E+04  0.15075627362E+04  0.80279403866E+02 0.  0.
         11    1    3    3    0    0  0.10372591969E+03 -0.35715495890E+02  0.44065332394E+03  0.45410352890E+03  0.00000000000E+00 0.  1.
        -11    1    3    3    0    0  0.28606158356E+03 -0.14855916303E+03  0.79697739857E+03  0.85969414814E+03  0.00000000000E+00 0. -1.
          4    1    6    6  502    0  0.89218905136E+02  0.72839519382E+02  0.77217202111E+03  0.78071456936E+03  0.00000000000E+00 0. -1.
          3    1    5    5  503    0 -0.17958269580E+02  0.28200209922E+01  0.62312373629E+02  0.64909813372E+02  0.00000000000E+00 0. -1.
         -4    1    5    5    0  503 -0.57787501533E+03 -0.27387344784E+02  0.89123051625E+03  0.10625353797E+04  0.00000000000E+00 0.  1.
         -3    1    6    6    0  502  0.11682687652E+03  0.13600246333E+03  0.70438843587E+03  0.72684816688E+03  0.00000000000E+00 0.  1.
<mgrwt>
<rscale>  0 0.14631447E+04</rscale>
<asrwt>0</asrwt>
<pdfrwt beam="1">  1        2 0.58588759E+00 0.14631447E+04</pdfrwt>
<pdfrwt beam="2">  1       -2 0.21620890E-01 0.14631447E+04</pdfrwt>
<totfact> 0.89199328E+00</totfact>
</mgrwt>
</event>
<event>
12    1  0.1518126E-007  0.1229809E+04  0.7818608E-02  0.9087158E-01
          1   -1    0    0  501    0  0.00000000000E+00  0.00000000000E+00  0.12603446829E+04  0.12603446829E+04  0.00000000000E+00 0. -1.
         -1   -1    0    0    0  501 -0.00000000000E+00 -0.00000000000E+00 -0.30000311356E+03  0.30000311356E+03  0.00000000000E+00 0.  1.
         23    2    1    2    0    0  0.95117140926E+02 -0.10216431247E+03  0.50747112674E+03  0.53444814473E+03  0.92860420471E+02 0.  0.
        254    2    1    2    0    0 -0.95117140926E+02  0.10216431247E+03  0.45287044260E+03  0.10258996517E+04  0.90988660854E+03 0.  0.
        -24    2    4    4    0    0  0.38905027445E+03  0.14835156285E+03  0.15963628028E+03  0.45231142686E+03  0.75720424159E+02 0.  0.
         24    2    4    4    0    0 -0.48416741537E+03 -0.46187250380E+02  0.29323416232E+03  0.57358822487E+03  0.80410382117E+02 0.  0.
         13    1    3    3    0    0  0.10295635222E+03 -0.85913086927E+02  0.49414868841E+03  0.51201952622E+03  0.00000000000E+00 0. -1.
        -13    1    3    3    0    0 -0.78392112941E+01 -0.16251225546E+02  0.13322438330E+02  0.22428618516E+02  0.00000000000E+00 0.  1.
          2    1    6    6  502    0 -0.25279495677E+03 -0.60426929610E+02  0.17525749718E+03  0.31348348331E+03  0.00000000000E+00 0. -1.
          3    1    5    5  503    0  0.13321522386E+03  0.87942143560E+02  0.47688708167E+02  0.16659630659E+03  0.00000000000E+00 0. -1.
         -4    1    5    5    0  503  0.25583505059E+03  0.60409419293E+02  0.11194757211E+03  0.28571512027E+03  0.00000000000E+00 0.  1.
         -1    1    6    6    0  502 -0.23137245861E+03  0.14239679230E+02  0.11797666514E+03  0.26010474156E+03  0.00000000000E+00 0.  1.
<mgrwt>
<rscale>  0 0.12298087E+04</rscale>
<asrwt>0</asrwt>
<pdfrwt beam="1">  1        1 0.19389918E+00 0.12298087E+04</pdfrwt>
<pdfrwt beam="2">  1       -1 0.46154326E-01 0.12298087E+04</pdfrwt>
<totfact> 0.44537377E+01</totfact>
</mgrwt>
</event>
<event>
12    1  0.1518126E-007  0.2207165E+04  0.7818608E-02  0.8515452E-01
         -2   -1    0    0    0  501 -0.00000000000E+00  0.00000000000E+00  0.97993008435E+03  0.97993008435E+03  0.00000000000E+00 0.  1.
          2   -1    0    0  501    0  0.00000000000E+00 -0.00000000000E+00 -0.12428375166E+04  0.12428375166E+04  0.00000000000E+00 0. -1.
         23    2    1    2    0    0  0.80533648794E+03 -0.43156230656E+03 -0.22927135233E+03  0.94656431817E+03  0.92767301242E+02 0.  0.
        254    2    1    2    0    0 -0.80533648794E+03  0.43156230656E+03 -0.33636079955E+02  0.12762032828E+04  0.89036540248E+03 0.  0.
        -24    2    4    4    0    0 -0.66464318553E+01 -0.25752599931E+02 -0.30258279749E+03  0.31410741135E+03  0.79998406684E+02 0.  0.
         24    2    4    4    0    0 -0.79869005608E+03  0.45731490649E+03  0.26894671753E+03  0.96209587146E+03  0.79078439704E+02 0.  0.
         13    1    3    3    0    0  0.12920009863E+03 -0.40803632526E+02 -0.56210911051E+02  0.14668765604E+03  0.00000000000E+00 0. -1.
        -13    1    3    3    0    0  0.67613638931E+03 -0.39075867404E+03 -0.17306044128E+03  0.79987666213E+03  0.00000000000E+00 0.  1.
          2    1    6    6  502    0 -0.72829429718E+03  0.39803282882E+03  0.22392981931E+03  0.85964369369E+03  0.00000000000E+00 0. -1.
          3    1    5    5  503    0  0.23245721627E+02 -0.16831021892E+02 -0.25858543426E+03  0.26017316096E+03  0.00000000000E+00 0. -1.
         -4    1    5    5    0  503 -0.29892153482E+02 -0.89215780391E+01 -0.43997363222E+02  0.53934250389E+02  0.00000000000E+00 0.  1.
         -1    1    6    6    0  502 -0.70395758900E+02  0.59282077678E+02  0.45016898218E+02  0.10245217777E+03  0.00000000000E+00 0.  1.
<mgrwt>
<rscale>  0 0.22071646E+04</rscale>
<asrwt>0</asrwt>
<pdfrwt beam="1">  1        2 0.19120577E+00 0.22071646E+04</pdfrwt>
<pdfrwt beam="2">  1       -2 0.15075848E+00 0.22071646E+04</pdfrwt>
<totfact> 0.48240659E+00</totfact>
</mgrwt>
</event>
<event>
12    1  0.1518126E-007  0.1665590E+04  0.7818608E-02  0.8781236E-01
         -1   -1    0    0    0  501 -0.00000000000E+00  0.00000000000E+00  0.59665187096E+03  0.59665187096E+03  0.00000000000E+00 0.  1.
          1   -1    0    0  501    0  0.00000000000E+00 -0.00000000000E+00 -0.11623996514E+04  0.11623996514E+04  0.00000000000E+00 0. -1.
         23    2    1    2    0    0 -0.12106718644E+03  0.35275057053E+03  0.27224765610E+03  0.47143767306E+03  0.95102390543E+02 0.  0.
        254    2    1    2    0    0  0.12106718644E+03 -0.35275057053E+03 -0.83799543655E+03  0.12876138493E+04  0.90367186779E+03 0.  0.
        -24    2    4    4    0    0 -0.31855728602E+02 -0.30023399945E+02  0.18332513505E+03  0.20239004877E+03  0.73738963317E+02 0.  0.
         24    2    4    4    0    0  0.15292291504E+03 -0.32272717058E+03 -0.10213205716E+04  0.10852238005E+04  0.84123378012E+02 0.  0.
         11    1    3    3    0    0 -0.11406083308E+03  0.34622036940E+03  0.23672384554E+03  0.43464536910E+03  0.00000000000E+00 0.  1.
        -11    1    3    3    0    0 -0.70063533607E+01  0.65302011264E+01  0.35523810556E+02  0.36792303958E+02  0.00000000000E+00 0. -1.
          4    1    6    6  502    0  0.64119913691E+02 -0.20305311005E+03 -0.51103679487E+03  0.55362490420E+03  0.00000000000E+00 0. -1.
          1    1    5    5  503    0  0.11845153408E+02 -0.19007340743E+02  0.12351479548E+02  0.25576272371E+02  0.00000000000E+00 0. -1.
         -2    1    5    5    0  503 -0.43700882010E+02 -0.11016059203E+02  0.17097365550E+03  0.17681377640E+03  0.00000000000E+00 0.  1.
         -3    1    6    6    0  502  0.88803001347E+02 -0.11967406054E+03 -0.51028377672E+03  0.53159889635E+03  0.00000000000E+00 0.  1.
<mgrwt>
<rscale>  0 0.16655905E+04</rscale>
<asrwt>0</asrwt>
<pdfrwt beam="1">  1        1 0.17883071E+00 0.16655905E+04</pdfrwt>
<pdfrwt beam="2">  1       -1 0.91792597E-01 0.16655905E+04</pdfrwt>
<totfact> 0.12568821E+01</totfact>
</mgrwt>
</event>
<event>
12    1  0.1518126E-007  0.1411370E+04  0.7818608E-02  0.8945629E-01
          1   -1    0    0  501    0  0.00000000000E+00  0.00000000000E+00  0.12596037228E+04  0.12596037228E+04  0.00000000000E+00 0. -1.
         -1   -1    0    0    0  501 -0.00000000000E+00 -0.00000000000E+00 -0.39535576607E+03  0.39535576607E+03  0.00000000000E+00 0.  1.
         23    2    1    2    0    0 -0.14996117336E+03  0.14678444210E+03  0.70497151690E+03  0.74147540133E+03  0.93631753038E+02 0.  0.
        254    2    1    2    0    0  0.14996117336E+03 -0.14678444210E+03  0.15927643985E+03  0.91348408757E+03  0.87467146289E+03 0.  0.
        -24    2    4    4    0    0  0.49391934034E+03  0.17160796777E+02  0.14936000220E+03  0.52251128175E+03  0.80366794061E+02 0.  0.
         24    2    4    4    0    0 -0.34395816698E+03 -0.16394523887E+03  0.99164376530E+01  0.39097280582E+03  0.87041008571E+02 0.  0.
         11    1    3    3    0    0 -0.81766983671E+02  0.13834532666E+03  0.47415564747E+03  0.50064842659E+03  0.00000000000E+00 0. -1.
        -11    1    3    3    0    0 -0.68194189691E+02  0.84391154360E+01  0.23081586943E+03  0.24082697473E+03  0.00000000000E+00 0.  1.
          2    1    6    6  502    0 -0.14669501179E+03 -0.11247018017E+03  0.25074427092E+02  0.18654140239E+03  0.00000000000E+00 0. -1.
          1    1    5    5  503    0  0.34543649806E+03 -0.23785931554E+02  0.11331448660E+03  0.36432446748E+03  0.00000000000E+00 0. -1.
         -2    1    5    5    0  503  0.14848284228E+03  0.40946728331E+02  0.36045515592E+02  0.15818681427E+03  0.00000000000E+00 0.  1.
         -1    1    6    6    0  502 -0.19726315519E+03 -0.51475058700E+02 -0.15157989438E+02  0.20443140343E+03  0.00000000000E+00 0.  1.
<mgrwt>
<rscale>  0 0.14113704E+04</rscale>
<asrwt>0</asrwt>
<pdfrwt beam="1">  1        1 0.19378519E+00 0.14113704E+04</pdfrwt>
<pdfrwt beam="2">  1       -1 0.60823965E-01 0.14113704E+04</pdfrwt>
<totfact> 0.25825714E+01</totfact>
</mgrwt>
</event>
<event>
12    1  0.1518126E-007  0.1537265E+04  0.7818608E-02  0.8860043E-01
          1   -1    0    0  501    0  0.00000000000E+00  0.00000000000E+00  0.53255027218E+03  0.53255027218E+03  0.00000000000E+00 0. -1.
         -1   -1    0    0    0  501 -0.00000000000E+00 -0.00000000000E+00 -0.11093712781E+04  0.11093712781E+04  0.00000000000E+00 0.  1.
         23    2    1    2    0    0  0.39250014360E+03 -0.36970903657E+01 -0.51914463457E+03  0.65745346881E+03  0.93079970177E+02 0.  0.
        254    2    1    2    0    0 -0.39250014360E+03  0.36970903657E+01 -0.57676371335E+02  0.98446808145E+03  0.90098879481E+03 0.  0.
        -24    2    4    4    0    0  0.24965545648E+03 -0.91106341543E+02  0.12674397936E+03  0.30486273186E+03  0.79050847892E+02 0.  0.
         24    2    4    4    0    0 -0.64215560008E+03  0.94803431909E+02 -0.18442035069E+03  0.67960534959E+03  0.80629151196E+02 0.  0.
         11    1    3    3    0    0  0.28027757224E+03 -0.37371238197E+02 -0.40448696332E+03  0.49351983794E+03  0.00000000000E+00 0.  1.
        -11    1    3    3    0    0  0.11222257135E+03  0.33674147831E+02 -0.11465767125E+03  0.16393363087E+03  0.00000000000E+00 0. -1.
          4    1    6    6  502    0 -0.57339983864E+03  0.58580310808E+02 -0.16157133552E+03  0.59860197479E+03  0.00000000000E+00 0. -1.
          1    1    5    5  503    0  0.22106033500E+03 -0.49704896090E+02  0.10969280501E+03  0.25173549586E+03  0.00000000000E+00 0. -1.
         -2    1    5    5    0  503  0.28595121483E+02 -0.41401445452E+02  0.17051174348E+02  0.53127235999E+02  0.00000000000E+00 0.  1.
         -3    1    6    6    0  502 -0.68755761441E+02  0.36223121100E+02 -0.22849015172E+02  0.81003374794E+02  0.00000000000E+00 0.  1.
<mgrwt>
<rscale>  0 0.15372651E+04</rscale>
<asrwt>0</asrwt>
<pdfrwt beam="1">  1        1 0.81930812E-01 0.15372651E+04</pdfrwt>
<pdfrwt beam="2">  1       -1 0.17067250E+00 0.15372651E+04</pdfrwt>
<totfact> 0.95235346E+00</totfact>
</mgrwt>
</event>
<event>
12    1  0.1518126E-007  0.3613300E+04  0.7818608E-02  0.8087452E-01
          2   -1    0    0  501    0  0.00000000000E+00  0.00000000000E+00  0.15362538245E+04  0.15362538245E+04  0.00000000000E+00 0.  1.
         -2   -1    0    0    0  501 -0.00000000000E+00 -0.00000000000E+00 -0.21246382625E+04  0.21246382625E+04  0.00000000000E+00 0. -1.
         23    2    1    2    0    0 -0.16932002557E+04 -0.24621930860E+02 -0.35883638014E+03  0.17333605620E+04  0.90785157717E+02 0.  0.
        254    2    1    2    0    0  0.16932002557E+04  0.24621930860E+02 -0.22954805785E+03  0.19275315249E+04  0.89171302746E+03 0.  0.
        -24    2    4    4    0    0  0.21359207514E+03 -0.16121932082E+03  0.23325041816E+03  0.36390840555E+03  0.80064512049E+02 0.  0.
         24    2    4    4    0    0  0.14796081806E+04  0.18584125168E+03 -0.46279847601E+03  0.15636231194E+04  0.83411577421E+02 0.  0.
         11    1    3    3    0    0 -0.19084745999E+03 -0.94354185915E+01 -0.12247736287E+02  0.19147267992E+03  0.00000000000E+00 0. -1.
        -11    1    3    3    0    0 -0.15023527957E+04 -0.15186512269E+02 -0.34658864386E+03  0.15418878821E+04  0.00000000000E+00 0.  1.
          2    1    6    6  502    0  0.12448912163E+03  0.34588355493E+02 -0.54903046281E+02  0.14038604002E+03  0.00000000000E+00 0. -1.
          1    1    5    5  503    0  0.14957131010E+03 -0.75744812417E+02  0.10855139861E+03  0.19973046726E+03  0.00000000000E+00 0. -1.
         -2    1    5    5    0  503  0.64020765039E+02 -0.85474508399E+02  0.12469901955E+03  0.16417793829E+03  0.00000000000E+00 0.  1.
         -3    1    6    6    0  502  0.13551190589E+04  0.15125289618E+03 -0.40789542973E+03  0.14232370794E+04  0.00000000000E+00 0.  1.
<mgrwt>
<rscale>  0 0.36132997E+04</rscale>
<asrwt>0</asrwt>
<pdfrwt beam="1">  1        2 0.23634674E+00 0.36132997E+04</pdfrwt>
<pdfrwt beam="2">  1       -2 0.32686743E+00 0.36132997E+04</pdfrwt>
<totfact> 0.21399416E-01</totfact>
</mgrwt>
</event>
<event>
12    1  0.1518126E-007  0.2067838E+04  0.7818608E-02  0.8575545E-01
          1   -1    0    0  501    0  0.00000000000E+00  0.00000000000E+00  0.92749618856E+03  0.92749618856E+03  0.00000000000E+00 0. -1.
         -1   -1    0    0    0  501 -0.00000000000E+00 -0.00000000000E+00 -0.11525530711E+04  0.11525530711E+04  0.00000000000E+00 0.  1.
         23    2    1    2    0    0  0.19395588320E+03  0.12444721952E+03  0.71606628571E+03  0.75860578185E+03  0.98111220839E+02 0.  0.
        254    2    1    2    0    0 -0.19395588320E+03 -0.12444721952E+03 -0.94112316826E+03  0.13214434778E+04  0.89855108489E+03 0.  0.
        -24    2    4    4    0    0 -0.21264759156E+03  0.10894812469E+03  0.85745043303E+02  0.26515115376E+03  0.76578259444E+02 0.  0.
         24    2    4    4    0    0  0.18691708359E+02 -0.23339534421E+03 -0.10268682116E+04  0.10562923241E+04  0.80451123624E+02 0.  0.
         11    1    3    3    0    0  0.19100694495E+03  0.11835650779E+03  0.71734829691E+03  0.75171836151E+03  0.00000000000E+00 0. -1.
        -11    1    3    3    0    0  0.29489382507E+01  0.60907117317E+01 -0.12820112010E+01  0.68874203389E+01  0.00000000000E+00 0.  1.
          2    1    6    6  502    0  0.26099797047E+02 -0.29426692789E+02 -0.10564442820E+03  0.11272921034E+03  0.00000000000E+00 0. -1.
          3    1    5    5  503    0 -0.47072130712E+02  0.48681339414E+02 -0.31576270429E+01  0.67791068036E+02  0.00000000000E+00 0. -1.
         -4    1    5    5    0  503 -0.16557546084E+03  0.60266785278E+02  0.88902670346E+02  0.19736008572E+03  0.00000000000E+00 0.  1.
         -1    1    6    6    0  502 -0.74080886878E+01 -0.20396865142E+03 -0.92122378336E+03  0.94356311372E+03  0.00000000000E+00 0.  1.
<mgrwt>
<rscale>  0 0.20678381E+04</rscale>
<asrwt>0</asrwt>
<pdfrwt beam="1">  1        1 0.14269172E+00 0.20678381E+04</pdfrwt>
<pdfrwt beam="2">  1       -1 0.17731586E+00 0.20678381E+04</pdfrwt>
<totfact> 0.34678951E+00</totfact>
</mgrwt>
</event>
<event>
12    1  0.1518126E-007  0.2150085E+04  0.7818608E-02  0.8539496E-01
         -2   -1    0    0    0  501 -0.00000000000E+00  0.00000000000E+00  0.26770520287E+04  0.26770520287E+04  0.00000000000E+00 0.  1.
          2   -1    0    0  501    0  0.00000000000E+00 -0.00000000000E+00 -0.43171217150E+03  0.43171217150E+03  0.00000000000E+00 0. -1.
         23    2    1    2    0    0  0.66902525385E+02 -0.86059788170E+03  0.64988742318E+03  0.10843065385E+04  0.90897440637E+02 0.  0.
        254    2    1    2    0    0 -0.66902525385E+02  0.86059788170E+03  0.15954524341E+04  0.20244576618E+04  0.89880792888E+03 0.  0.
        -24    2    4    4    0    0  0.14167783937E+03  0.83216958387E+03  0.69647374000E+03  0.10975858968E+04  0.83906518067E+02 0.  0.
         24    2    4    4    0    0 -0.20858036475E+03  0.28428297829E+02  0.89897869406E+03  0.92687176499E+03  0.81330435240E+02 0.  0.
         11    1    3    3    0    0  0.58761299438E+02 -0.35457627686E+03  0.31045442210E+03  0.47493070508E+03  0.00000000000E+00 0.  1.
        -11    1    3    3    0    0  0.81412259471E+01 -0.50602160484E+03  0.33943300107E+03  0.60937583341E+03  0.00000000000E+00 0. -1.
          2    1    6    6  502    0 -0.15528494691E+03 -0.11736817975E+02  0.69579735295E+03  0.71301130707E+03  0.00000000000E+00 0. -1.
          1    1    5    5  503    0  0.12559967512E+03  0.80522349882E+03  0.65485717853E+03  0.10454654876E+04  0.00000000000E+00 0. -1.
         -2    1    5    5    0  503  0.16078164243E+02  0.26946085051E+02  0.41616561471E+02  0.52120409185E+02  0.00000000000E+00 0.  1.
         -1    1    6    6    0  502 -0.53295417846E+02  0.40165115804E+02  0.20318134111E+03  0.21386045793E+03  0.00000000000E+00 0.  1.
<mgrwt>
<rscale>  0 0.21500846E+04</rscale>
<asrwt>0</asrwt>
<pdfrwt beam="1">  1        2 0.66417258E-01 0.21500846E+04</pdfrwt>
<pdfrwt beam="2">  1       -2 0.41185415E+00 0.21500846E+04</pdfrwt>
<totfact> 0.41603084E-01</totfact>
</mgrwt>
</event>
<event>
12    1  0.1518126E-007  0.1520186E+04  0.7818608E-02  0.8871139E-01
         -1   -1    0    0    0  501 -0.00000000000E+00  0.00000000000E+00  0.38870312628E+03  0.38870312628E+03  0.00000000000E+00 0.  1.
          1   -1    0    0  501    0  0.00000000000E+00 -0.00000000000E+00 -0.14863301750E+04  0.14863301750E+04  0.00000000000E+00 0. -1.
         23    2    1    2    0    0  0.38600154191E+03 -0.22024508372E+02  0.72977880811E+01  0.39640623205E+03  0.87191592321E+02 0.  0.
        254    2    1    2    0    0 -0.38600154191E+03  0.22024508372E+02 -0.11049248368E+04  0.14786270693E+04  0.90332543725E+03 0.  0.
        -24    2    4    4    0    0 -0.14517530268E+03 -0.16470647294E+03  0.84462514138E+02  0.24816795916E+03  0.79052697112E+02 0.  0.
         24    2    4    4    0    0 -0.24082623923E+03  0.18673098131E+03 -0.11893873510E+04  0.12304591101E+04  0.80756511355E+02 0.  0.
         13    1    3    3    0    0  0.27993165080E+03 -0.44082443317E+02 -0.21826536569E+02  0.28422066889E+03  0.00000000000E+00 0. -1.
        -13    1    3    3    0    0  0.10606989111E+03  0.22057934945E+02  0.29124324651E+02  0.11218556316E+03  0.00000000000E+00 0.  1.
          4    1    6    6  502    0 -0.13851246062E+02 -0.81627187642E+01 -0.58285688672E+02  0.60462455285E+02  0.00000000000E+00 0. -1.
          1    1    5    5  503    0 -0.13559364730E+03 -0.10588330408E+03  0.75594464128E+02  0.18791336908E+03  0.00000000000E+00 0. -1.
         -2    1    5    5    0  503 -0.95816553780E+01 -0.58823168861E+02  0.88680500100E+01  0.60254590079E+02  0.00000000000E+00 0.  1.
         -3    1    6    6    0  502 -0.22697499317E+03  0.19489370008E+03 -0.11311016623E+04  0.11699966548E+04  0.00000000000E+00 0.  1.
<mgrwt>
<rscale>  0 0.15201858E+04</rscale>
<asrwt>0</asrwt>
<pdfrwt beam="1">  1        1 0.22866618E+00 0.15201858E+04</pdfrwt>
<pdfrwt beam="2">  1       -1 0.59800482E-01 0.15201858E+04</pdfrwt>
<totfact> 0.18306716E+01</totfact>
</mgrwt>
</event>
<event>
12    1  0.1518126E-007  0.2150820E+04  0.7818608E-02  0.8539181E-01
          1   -1    0    0  501    0  0.00000000000E+00  0.00000000000E+00  0.12791481950E+04  0.12791481950E+04  0.00000000000E+00 0. -1.
         -1   -1    0    0    0  501 -0.00000000000E+00 -0.00000000000E+00 -0.90412248135E+03  0.90412248135E+03  0.00000000000E+00 0.  1.
         23    2    1    2    0    0  0.50980179222E+03  0.45151888779E+03  0.70179700203E+03  0.98217378807E+03  0.91537667249E+02 0.  0.
        254    2    1    2    0    0 -0.50980179222E+03 -0.45151888779E+03 -0.32677128841E+03  0.12010968883E+04  0.93385603101E+03 0.  0.
        -24    2    4    4    0    0 -0.44265541781E+03  0.92010822822E+02  0.13721071725E+03  0.47894925308E+03  0.78458878823E+02 0.  0.
         24    2    4    4    0    0 -0.67146374416E+02 -0.54352971061E+03 -0.46398200566E+03  0.72214763517E+03  0.79276248002E+02 0.  0.
         13    1    3    3    0    0  0.65581354543E+02  0.95670403692E+02  0.14802040822E+03  0.18805260290E+03  0.00000000000E+00 0.  1.
        -13    1    3    3    0    0  0.44422043768E+03  0.35584848410E+03  0.55377659380E+03  0.79412118517E+03  0.00000000000E+00 0. -1.
          2    1    6    6  502    0 -0.32959660555E+02 -0.43850311281E+03 -0.40030754092E+03  0.59465741943E+03  0.00000000000E+00 0. -1.
          3    1    5    5  503    0 -0.16740981278E+03  0.40333220292E+02  0.92106635906E+02  0.19528555106E+03  0.00000000000E+00 0. -1.
         -4    1    5    5    0  503 -0.27524560503E+03  0.51677602530E+02  0.45104081344E+02  0.28366370202E+03  0.00000000000E+00 0.  1.
         -1    1    6    6    0  502 -0.34186713862E+02 -0.10502659780E+03 -0.63674464743E+02  0.12749021574E+03  0.00000000000E+00 0.  1.
<mgrwt>
<rscale>  0 0.21508200E+04</rscale>
<asrwt>0</asrwt>
<pdfrwt beam="1">  1        1 0.19679203E+00 0.21508200E+04</pdfrwt>
<pdfrwt beam="2">  1       -1 0.13909577E+00 0.21508200E+04</pdfrwt>
<totfact> 0.36550209E+00</totfact>
</mgrwt>
</event>
<event>
12    1  0.1518126E-007  0.1372350E+04  0.7818608E-02  0.8974080E-01
          1   -1    0    0  501    0  0.00000000000E+00  0.00000000000E+00  0.70148131897E+03  0.70148131897E+03  0.00000000000E+00 0. -1.
         -1   -1    0    0    0  501 -0.00000000000E+00 -0.00000000000E+00 -0.67120291475E+03  0.67120291475E+03  0.00000000000E+00 0.  1.
         23    2    1    2    0    0  0.12057629999E+03 -0.53659095122E+02  0.37075384288E+03  0.40419161673E+03  0.92165657451E+02 0.  0.
        254    2    1    2    0    0 -0.12057629999E+03  0.53659095122E+02 -0.34047543866E+03  0.96849261699E+03  0.89701531884E+03 0.  0.
        -24    2    4    4    0    0 -0.95791909738E+02  0.92472063375E+02  0.29137058400E+03  0.33018857761E+03  0.80003169248E+02 0.  0.
         24    2    4    4    0    0 -0.24784390253E+02 -0.38812968252E+02 -0.63184602265E+03  0.63830403938E+03  0.77986779923E+02 0.  0.
         13    1    3    3    0    0  0.55154131893E+02  0.14201531762E+02  0.21242932913E+03  0.21993153854E+03  0.00000000000E+00 0.  1.
        -13    1    3    3    0    0  0.65422168099E+02 -0.67860626884E+02  0.15832451374E+03  0.18426007818E+03  0.00000000000E+00 0. -1.
          4    1    6    6  502    0 -0.29701564587E+01 -0.19477412757E+02 -0.30871372001E+02  0.36622848692E+02  0.00000000000E+00 0. -1.
          1    1    5    5  503    0 -0.23005174370E+02  0.61581426748E+02  0.74518840879E+02  0.99370859985E+02  0.00000000000E+00 0. -1.
         -2    1    5    5    0  503 -0.72786735368E+02  0.30890636626E+02  0.21685174312E+03  0.23081771763E+03  0.00000000000E+00 0.  1.
         -3    1    6    6    0  502 -0.21814233795E+02 -0.19335555495E+02 -0.60097465065E+03  0.60168119069E+03  0.00000000000E+00 0.  1.
<mgrwt>
<rscale>  0 0.13723503E+04</rscale>
<asrwt>0</asrwt>
<pdfrwt beam="1">  1        1 0.10792020E+00 0.13723503E+04</pdfrwt>
<pdfrwt beam="2">  1       -1 0.10326199E+00 0.13723503E+04</pdfrwt>
<totfact> 0.23496966E+01</totfact>
</mgrwt>
</event>
<event>
12    1  0.1518126E-007  0.1427391E+04  0.7818608E-02  0.8934227E-01
          3   -1    0    0  501    0  0.00000000000E+00  0.00000000000E+00  0.10137110454E+04  0.10137110454E+04  0.00000000000E+00 0. -1.
         -3   -1    0    0    0  501 -0.00000000000E+00 -0.00000000000E+00 -0.50247154457E+03  0.50247154457E+03  0.00000000000E+00 0.  1.
         23    2    1    2    0    0 -0.62430876813E+02  0.51697398360E+02 -0.28079289743E+03  0.30562959503E+03  0.89412318677E+02 0.  0.
        254    2    1    2    0    0  0.62430876813E+02 -0.51697398360E+02  0.79203239830E+03  0.12105529950E+04  0.91189527816E+03 0.  0.
        -24    2    4    4    0    0  0.68752844341E+02  0.94832613928E+02 -0.17680454255E+03  0.22747483872E+03  0.82248268760E+02 0.  0.
         24    2    4    4    0    0 -0.63219675281E+01 -0.14653001229E+03  0.96883694085E+03  0.98307815626E+03  0.79288281454E+02 0.  0.
         13    1    3    3    0    0 -0.20432515212E+02  0.61807413577E+02 -0.22958051447E+03  0.23863121480E+03  0.00000000000E+00 0.  1.
        -13    1    3    3    0    0 -0.41998361600E+02 -0.10110015217E+02 -0.51212382962E+02  0.66998380230E+02  0.00000000000E+00 0. -1.
          4    1    6    6  502    0 -0.72765346416E+01  0.79353850936E+01  0.37368609906E+02  0.38888704007E+02  0.00000000000E+00 0. -1.
          1    1    5    5  503    0  0.36467579166E+02  0.33649950107E+02 -0.15537525124E+02  0.51996328326E+02  0.00000000000E+00 0. -1.
         -2    1    5    5    0  503  0.32285265174E+02  0.61182663822E+02 -0.16126701743E+03  0.17547851039E+03  0.00000000000E+00 0.  1.
         -3    1    6    6    0  502  0.95456711355E+00 -0.15446539738E+03  0.93146833095E+03  0.94418945225E+03  0.00000000000E+00 0.  1.
<mgrwt>
<rscale>  0 0.14273906E+04</rscale>
<asrwt>0</asrwt>
<pdfrwt beam="1">  1        3 0.15595555E+00 0.14273906E+04</pdfrwt>
<pdfrwt beam="2">  1       -3 0.77303315E-01 0.14273906E+04</pdfrwt>
<totfact> 0.11676053E+00</totfact>
</mgrwt>
</event>
<event>
12    1  0.1518126E-007  0.1286312E+04  0.7818608E-02  0.9040491E-01
         -4   -1    0    0    0  501 -0.00000000000E+00  0.00000000000E+00  0.54723751815E+03  0.54723751815E+03  0.00000000000E+00 0.  1.
          4   -1    0    0  501    0  0.00000000000E+00 -0.00000000000E+00 -0.75588661107E+03  0.75588661107E+03  0.00000000000E+00 0. -1.
         23    2    1    2    0    0  0.46400295137E+02 -0.22373171666E+03  0.13863290553E+03  0.28160080297E+03  0.88719001956E+02 0.  0.
        254    2    1    2    0    0 -0.46400295137E+02  0.22373171666E+03 -0.34728199845E+03  0.10215233263E+04  0.93311106049E+03 0.  0.
        -24    2    4    4    0    0  0.51638657937E+01  0.39934009518E+02 -0.64886993572E+03  0.65538894565E+03  0.82952311494E+02 0.  0.
         24    2    4    4    0    0 -0.51564160931E+02  0.18379770714E+03  0.30158793726E+03  0.36613438060E+03  0.81600495787E+02 0.  0.
         11    1    3    3    0    0  0.17327640954E+02 -0.41455601029E+01  0.30004634314E+02  0.34895714492E+02  0.00000000000E+00 0. -1.
        -11    1    3    3    0    0  0.29072654183E+02 -0.21958615655E+03  0.10862827122E+03  0.24670508847E+03  0.00000000000E+00 0.  1.
          4    1    6    6  502    0 -0.67101493333E+02  0.17800805314E+03  0.26772406490E+03  0.32842906741E+03  0.00000000000E+00 0. -1.
          1    1    5    5  503    0 -0.14756317543E+02  0.25656175432E+02 -0.59988721079E+03  0.60061689447E+03  0.00000000000E+00 0. -1.
         -2    1    5    5    0  503  0.19920183337E+02  0.14277834086E+02 -0.48982724924E+02  0.54772051188E+02  0.00000000000E+00 0.  1.
         -3    1    6    6    0  502  0.15537332403E+02  0.57896539969E+01  0.33863872363E+02  0.37705313193E+02  0.00000000000E+00 0.  1.
<mgrwt>
<rscale>  0 0.12863118E+04</rscale>
<asrwt>0</asrwt>
<pdfrwt beam="1">  1        4 0.11629025E+00 0.12863118E+04</pdfrwt>
<pdfrwt beam="2">  1       -4 0.84190387E-01 0.12863118E+04</pdfrwt>
<totfact> 0.13840424E+00</totfact>
</mgrwt>
</event>
<event>
12    1  0.1518126E-007  0.2258142E+04  0.7818608E-02  0.8494610E-01
          1   -1    0    0  501    0  0.00000000000E+00  0.00000000000E+00  0.13048424619E+04  0.13048424619E+04  0.00000000000E+00 0. -1.
         -1   -1    0    0    0  501 -0.00000000000E+00 -0.00000000000E+00 -0.97697712236E+03  0.97697712236E+03  0.00000000000E+00 0.  1.
         23    2    1    2    0    0  0.60619421121E+03 -0.55237394431E+03 -0.32774556443E+03  0.88768466752E+03  0.89322549683E+02 0.  0.
        254    2    1    2    0    0 -0.60619421121E+03  0.55237394431E+03  0.65561090402E+03  0.13941349168E+04  0.91716853013E+03 0.  0.
        -24    2    4    4    0    0  0.19868878664E+03 -0.31210567346E+02  0.21126169631E+03  0.30220587773E+03  0.79028822305E+02 0.  0.
         24    2    4    4    0    0 -0.80488299785E+03  0.58358451165E+03  0.44434920771E+03  0.10919290391E+04  0.80344791165E+02 0.  0.
         11    1    3    3    0    0  0.18994803045E+03 -0.15334284880E+03 -0.57087791036E+02  0.25070560312E+03  0.00000000000E+00 0. -1.
        -11    1    3    3    0    0  0.41624618076E+03 -0.39903109551E+03 -0.27065777340E+03  0.63697906440E+03  0.00000000000E+00 0.  1.
          2    1    6    6  502    0 -0.51327241540E+03  0.32538876484E+03  0.25967180768E+03  0.66087507775E+03  0.00000000000E+00 0. -1.
          3    1    5    5  503    0  0.20428612591E+03 -0.32197860403E+02  0.19225549953E+03  0.28236802325E+03  0.00000000000E+00 0. -1.
         -4    1    5    5    0  503 -0.55973392654E+01  0.98729305763E+00  0.19006196779E+02  0.19837854482E+02  0.00000000000E+00 0.  1.
         -1    1    6    6    0  502 -0.29161058245E+03  0.25819574682E+03  0.18467740003E+03  0.43105396130E+03  0.00000000000E+00 0.  1.
<mgrwt>
<rscale>  0 0.22581419E+04</rscale>
<asrwt>0</asrwt>
<pdfrwt beam="1">  1        1 0.20074499E+00 0.22581419E+04</pdfrwt>
<pdfrwt beam="2">  1       -1 0.15030417E+00 0.22581419E+04</pdfrwt>
<totfact> 0.28249534E+00</totfact>
</mgrwt>
</event>
<event>
12    1  0.1518126E-007  0.4573668E+04  0.7818608E-02  0.7897865E-01
         -2   -1    0    0    0  501 -0.00000000000E+00  0.00000000000E+00  0.22291008613E+04  0.22291008613E+04  0.00000000000E+00 0. -1.
          2   -1    0    0  501    0  0.00000000000E+00 -0.00000000000E+00 -0.23460622011E+04  0.23460622011E+04  0.00000000000E+00 0.  1.
         23    2    1    2    0    0  0.13908754677E+04  0.16058428834E+04 -0.63446218535E+03  0.22190464457E+04  0.91427187364E+02 0.  0.
        254    2    1    2    0    0 -0.13908754677E+04 -0.16058428834E+04  0.51750084553E+03  0.23561166167E+04  0.87761748693E+03 0.  0.
        -24    2    4    4    0    0 -0.84367056786E+03 -0.54189111346E+03  0.56980382261E+03  0.11561504282E+04  0.81125892198E+02 0.  0.
         24    2    4    4    0    0 -0.54720489986E+03 -0.10639517700E+04 -0.52302977074E+02  0.11999661885E+04  0.75872794392E+02 0.  0.
         11    1    3    3    0    0  0.85074034155E+03  0.98153939244E+03 -0.34128255888E+03  0.13430013003E+04  0.00000000000E+00 0. -1.
        -11    1    3    3    0    0  0.54013512618E+03  0.62430349101E+03 -0.29317962647E+03  0.87604514541E+03  0.00000000000E+00 0.  1.
          2    1    6    6  502    0 -0.40695344246E+03 -0.76034657219E+03 -0.66363452494E+01  0.86242800004E+03  0.00000000000E+00 0. -1.
          3    1    5    5  503    0 -0.21816291800E+03 -0.14121591105E+03  0.18945200916E+03  0.32160388072E+03  0.00000000000E+00 0. -1.
         -4    1    5    5    0  503 -0.62550764987E+03 -0.40067520242E+03  0.38035181345E+03  0.83454654745E+03  0.00000000000E+00 0.  1.
         -1    1    6    6    0  502 -0.14025145740E+03 -0.30360519779E+03 -0.45666631825E+02  0.33753818849E+03  0.00000000000E+00 0.  1.
<mgrwt>
<rscale>  0 0.45736678E+04</rscale>
<asrwt>0</asrwt>
<pdfrwt beam="1">  1        2 0.36093265E+00 0.45736678E+04</pdfrwt>
<pdfrwt beam="2">  1       -2 0.34293859E+00 0.45736678E+04</pdfrwt>
<totfact> 0.55404798E-02</totfact>
</mgrwt>
</event>
<event>
12    1  0.1518126E-007  0.1512201E+04  0.7818608E-02  0.8876380E-01
         -1   -1    0    0    0  501 -0.00000000000E+00  0.00000000000E+00  0.43790615752E+03  0.43790615752E+03  0.00000000000E+00 0.  1.
          1   -1    0    0  501    0  0.00000000000E+00 -0.00000000000E+00 -0.13055029748E+04  0.13055029748E+04  0.00000000000E+00 0. -1.
         23    2    1    2    0    0 -0.47138753706E+03 -0.11437341664E+03 -0.28457369535E+03  0.56658206007E+03  0.68887982761E+02 0.  0.
        254    2    1    2    0    0  0.47138753706E+03  0.11437341664E+03 -0.58302312194E+03  0.11768270723E+04  0.89984360240E+03 0.  0.
        -24    2    4    4    0    0  0.44134672959E+03 -0.31964239447E+03 -0.46476451756E+03  0.72056975507E+03  0.79098161016E+02 0.  0.
         24    2    4    4    0    0  0.30040807478E+02  0.43401581112E+03 -0.11825860438E+03  0.45625731720E+03  0.70096130974E+02 0.  0.
         13    1    3    3    0    0 -0.40185085671E+03 -0.12203818308E+03 -0.24427582273E+03  0.48584782261E+03  0.00000000000E+00 0.  1.
        -13    1    3    3    0    0 -0.69536680358E+02  0.76647664370E+01 -0.40297872624E+02  0.80734237457E+02  0.00000000000E+00 0. -1.
          2    1    6    6  502    0  0.14111933560E+02  0.33969053665E+03 -0.62962231547E+02  0.34576444288E+03  0.00000000000E+00 0. -1.
          1    1    5    5  503    0  0.42937556376E+03 -0.32028553810E+03 -0.44060212086E+03  0.69359673412E+03  0.00000000000E+00 0. -1.
         -2    1    5    5    0  503  0.11971165823E+02  0.64314362699E+00 -0.24162396702E+02  0.26973020952E+02  0.00000000000E+00 0.  1.
         -1    1    6    6    0  502  0.15928873918E+02  0.94325274464E+02 -0.55296372833E+02  0.11049287432E+03  0.00000000000E+00 0.  1.
<mgrwt>
<rscale>  0 0.15122008E+04</rscale>
<asrwt>0</asrwt>
<pdfrwt beam="1">  1        1 0.20084661E+00 0.15122008E+04</pdfrwt>
<pdfrwt beam="2">  1       -1 0.67370179E-01 0.15122008E+04</pdfrwt>
<totfact> 0.19330894E+01</totfact>
</mgrwt>
</event>
<event>
12    1  0.1518126E-007  0.1691488E+04  0.7818608E-02  0.8766234E-01
         -2   -1    0    0    0  501 -0.00000000000E+00  0.00000000000E+00  0.44843767530E+03  0.44843767530E+03  0.00000000000E+00 0.  1.
          2   -1    0    0  501    0  0.00000000000E+00 -0.00000000000E+00 -0.15950551035E+04  0.15950551035E+04  0.00000000000E+00 0. -1.
         23    2    1    2    0    0  0.25068611226E+03  0.26448643515E+03 -0.99113817160E+03  0.10599587838E+04  0.91439306928E+02 0.  0.
        254    2    1    2    0    0 -0.25068611226E+03 -0.26448643515E+03 -0.15547925661E+03  0.98353399504E+03  0.90020482053E+03 0.  0.
        -24    2    4    4    0    0  0.74992503986E+02 -0.29947317248E+03 -0.43918457855E+03  0.54279883194E+03  0.80246004412E+02 0.  0.
         24    2    4    4    0    0 -0.32567861625E+03  0.34986737336E+02  0.28370532193E+03  0.44073516310E+03  0.80424756342E+02 0.  0.
         11    1    3    3    0    0  0.13933369637E+02  0.28664154607E+02 -0.36142456268E+02  0.48187650844E+02  0.00000000000E+00 0.  1.
        -11    1    3    3    0    0  0.23675274263E+03  0.23582228054E+03 -0.95499571533E+03  0.10117711329E+04  0.00000000000E+00 0. -1.
          4    1    6    6  502    0 -0.62274172694E+02  0.36477711515E+02  0.80038550312E+02  0.10777228567E+03  0.00000000000E+00 0. -1.
          3    1    5    5  503    0  0.36263980898E+01 -0.14608174359E+03 -0.24485628129E+03  0.28514491940E+03  0.00000000000E+00 0. -1.
         -2    1    5    5    0  503  0.71366105896E+02 -0.15339142889E+03 -0.19432829726E+03  0.25765391253E+03  0.00000000000E+00 0.  1.
         -3    1    6    6    0  502 -0.26340444355E+03 -0.14909741785E+01  0.20366677162E+03  0.33296287744E+03  0.00000000000E+00 0.  1.
<mgrwt>
<rscale>  0 0.16914879E+04</rscale>
<asrwt>0</asrwt>
<pdfrwt beam="1">  1        2 0.24539309E+00 0.16914879E+04</pdfrwt>
<pdfrwt beam="2">  1       -2 0.68990413E-01 0.16914879E+04</pdfrwt>
<totfact> 0.20503752E+01</totfact>
</mgrwt>
</event>
<event>
12    1  0.1518126E-007  0.1611800E+04  0.7818608E-02  0.8813331E-01
          2   -1    0    0  501    0  0.00000000000E+00  0.00000000000E+00  0.24739193923E+04  0.24739193923E+04  0.00000000000E+00 0. -1.
         -2   -1    0    0    0  501 -0.00000000000E+00 -0.00000000000E+00 -0.26252867192E+03  0.26252867192E+03  0.00000000000E+00 0.  1.
         23    2    1    2    0    0 -0.23955480873E+03 -0.26618830076E+03  0.15183036838E+04  0.15626246221E+04  0.91142281858E+02 0.  0.
        254    2    1    2    0    0  0.23955480873E+03  0.26618830076E+03  0.69308703662E+03  0.11738234421E+04  0.87706847803E+03 0.  0.
        -24    2    4    4    0    0  0.44002733543E+03  0.46483752773E+03  0.39963414497E+03  0.75889457126E+03  0.80718878549E+02 0.  0.
         24    2    4    4    0    0 -0.20047252670E+03 -0.19864922697E+03  0.29345289165E+03  0.41492887089E+03  0.80003868298E+02 0.  0.
         13    1    3    3    0    0 -0.10600922475E+03 -0.65471354437E+02  0.62901103553E+03  0.64123266979E+03  0.00000000000E+00 0. -1.
        -13    1    3    3    0    0 -0.13354558398E+03 -0.20071694632E+03  0.88929264827E+03  0.92139195232E+03  0.00000000000E+00 0.  1.
          4    1    6    6  502    0 -0.19656181351E+03 -0.15845438933E+03  0.26086673515E+03  0.36303690383E+03  0.00000000000E+00 0. -1.
          3    1    5    5  503    0  0.35069238020E+03  0.33674879643E+03  0.27132055788E+03  0.55677620509E+03  0.00000000000E+00 0. -1.
         -4    1    5    5    0  503  0.89334955234E+02  0.12808873130E+03  0.12831358709E+03  0.20211836617E+03  0.00000000000E+00 0.  1.
         -3    1    6    6    0  502 -0.39107131837E+01 -0.40194837636E+02  0.32586156493E+02  0.51891967058E+02  0.00000000000E+00 0.  1.
<mgrwt>
<rscale>  0 0.16118000E+04</rscale>
<asrwt>0</asrwt>
<pdfrwt beam="1">  1        2 0.38060297E+00 0.16118000E+04</pdfrwt>
<pdfrwt beam="2">  1       -2 0.40389028E-01 0.16118000E+04</pdfrwt>
<totfact> 0.20077866E+01</totfact>
</mgrwt>
</event>
<event>
12    1  0.1518126E-007  0.2607982E+04  0.7818608E-02  0.8365495E-01
         -2   -1    0    0    0  501 -0.00000000000E+00  0.00000000000E+00  0.72465936601E+03  0.72465936601E+03  0.00000000000E+00 0.  1.
          2   -1    0    0  501    0  0.00000000000E+00 -0.00000000000E+00 -0.23464718837E+04  0.23464718837E+04  0.00000000000E+00 0. -1.
         23    2    1    2    0    0  0.47987871476E+03  0.97413362602E+03 -0.29349260496E+03  0.11297136979E+04  0.10438020837E+03 0.  0.
        254    2    1    2    0    0 -0.47987871476E+03 -0.97413362602E+03 -0.13283199127E+04  0.19414175518E+04  0.90854191845E+03 0.  0.
        -24    2    4    4    0    0 -0.24211377157E+03 -0.92697234917E+03 -0.51819344653E+03  0.10921276156E+04  0.79507648933E+02 0.  0.
         24    2    4    4    0    0 -0.23776494319E+03 -0.47161276850E+02 -0.81012646619E+03  0.84928993616E+03  0.78943968774E+02 0.  0.
         11    1    3    3    0    0  0.30025108854E+03  0.53626161419E+03 -0.20751753855E+03  0.64868387049E+03  0.00000000000E+00 0.  1.
        -11    1    3    3    0    0  0.17962762622E+03  0.43787201183E+03 -0.85975066413E+02  0.48102982744E+03  0.00000000000E+00 0. -1.
          2    1    6    6  502    0 -0.12514261978E+03 -0.90409906161E+00 -0.51602207782E+03  0.53098048691E+03  0.00000000000E+00 0. -1.
          1    1    5    5  503    0 -0.19693976326E+03 -0.83678734631E+03 -0.47748187266E+03  0.98335510983E+03  0.00000000000E+00 0. -1.
         -2    1    5    5    0  503 -0.45174008309E+02 -0.90185002860E+02 -0.40711573863E+02  0.10877250578E+03  0.00000000000E+00 0.  1.
         -1    1    6    6    0  502 -0.11262232341E+03 -0.46257177789E+02 -0.29410438836E+03  0.31830944925E+03  0.00000000000E+00 0.  1.
<mgrwt>
<rscale>  0 0.26079822E+04</rscale>
<asrwt>0</asrwt>
<pdfrwt beam="1">  1        2 0.36099568E+00 0.26079822E+04</pdfrwt>
<pdfrwt beam="2">  1       -2 0.11148605E+00 0.26079822E+04</pdfrwt>
<totfact> 0.23977393E+00</totfact>
</mgrwt>
</event>
<event>
12    1  0.1518126E-007  0.1616914E+04  0.7818608E-02  0.8810224E-01
         -1   -1    0    0    0  501 -0.00000000000E+00  0.00000000000E+00  0.51562113975E+03  0.51562113975E+03  0.00000000000E+00 0.  1.
          1   -1    0    0  501    0  0.00000000000E+00 -0.00000000000E+00 -0.12676034227E+04  0.12676034227E+04  0.00000000000E+00 0. -1.
         23    2    1    2    0    0  0.35141248159E+03 -0.23758146330E+02 -0.61479518595E+03  0.71440103534E+03  0.91326539885E+02 0.  0.
        254    2    1    2    0    0 -0.35141248159E+03  0.23758146330E+02 -0.13718709698E+03  0.10688235271E+04  0.99975409515E+03 0.  0.
        -24    2    4    4    0    0 -0.21094537635E+02  0.47922023370E+03 -0.58623110293E+01  0.48640922866E+03  0.80390043740E+02 0.  0.
         24    2    4    4    0    0 -0.33031794396E+03 -0.45546208737E+03 -0.13132478595E+03  0.58241429844E+03  0.73515702344E+02 0.  0.
         11    1    3    3    0    0  0.13058629413E+03 -0.43111974601E+01 -0.31928442878E+03  0.34498393165E+03  0.00000000000E+00 0. -1.
        -11    1    3    3    0    0  0.22082618746E+03 -0.19446948870E+02 -0.29551075717E+03  0.36941710368E+03  0.00000000000E+00 0.  1.
          4    1    6    6  502    0 -0.28492105408E+03 -0.34153513827E+03 -0.10277285359E+03  0.45649591145E+03  0.00000000000E+00 0. -1.
          3    1    5    5  503    0  0.25404136138E+02  0.17162358260E+03  0.17883926361E+02  0.17441289821E+03  0.00000000000E+00 0. -1.
         -4    1    5    5    0  503 -0.46498673773E+02  0.30759665109E+03 -0.23746237390E+02  0.31199633045E+03  0.00000000000E+00 0.  1.
         -3    1    6    6    0  502 -0.45396889873E+02 -0.11392694910E+03 -0.28551932361E+02  0.12591838699E+03  0.00000000000E+00 0.  1.
<mgrwt>
<rscale>  0 0.16169145E+04</rscale>
<asrwt>0</asrwt>
<pdfrwt beam="1">  1        1 0.19501591E+00 0.16169145E+04</pdfrwt>
<pdfrwt beam="2">  1       -1 0.79326330E-01 0.16169145E+04</pdfrwt>
<totfact> 0.14524550E+01</totfact>
</mgrwt>
</event>
<event>
12    1  0.1518126E-007  0.1493458E+04  0.7818608E-02  0.8888815E-01
          2   -1    0    0  501    0  0.00000000000E+00  0.00000000000E+00  0.14100241203E+04  0.14100241203E+04  0.00000000000E+00 0. -1.
         -2   -1    0    0    0  501 -0.00000000000E+00 -0.00000000000E+00 -0.39545728871E+03  0.39545728871E+03  0.00000000000E+00 0.  1.
         23    2    1    2    0    0 -0.50309303336E+02 -0.44010746322E+03  0.15046318184E+03  0.47604591338E+03  0.88062122240E+02 0.  0.
        254    2    1    2    0    0  0.50309303336E+02  0.44010746322E+03  0.86410364971E+03  0.13294354956E+04  0.90801873014E+03 0.  0.
        -24    2    4    4    0    0 -0.40080257036E+03  0.19595824078E+03  0.22383173969E+03  0.50516482086E+03  0.77772205851E+02 0.  0.
         24    2    4    4    0    0  0.45111187369E+03  0.24414922244E+03  0.64027191001E+03  0.82427067472E+03  0.79770051083E+02 0.  0.
         11    1    3    3    0    0  0.56255957689E+01 -0.34206548075E+02  0.37401727444E+02  0.50996318247E+02  0.00000000000E+00 0. -1.
        -11    1    3    3    0    0 -0.55934899105E+02 -0.40590091514E+03  0.11306145440E+03  0.42504959513E+03  0.00000000000E+00 0.  1.
          2    1    6    6  502    0  0.26593021603E+03  0.16484094857E+03  0.33370303048E+03  0.45743757025E+03  0.00000000000E+00 0. -1.
          3    1    5    5  503    0 -0.13235803864E+03  0.30586406936E+02  0.87986699002E+02  0.16185128323E+03  0.00000000000E+00 0. -1.
         -4    1    5    5    0  503 -0.26844453172E+03  0.16537183385E+03  0.13584504069E+03  0.34331353763E+03  0.00000000000E+00 0.  1.
         -1    1    6    6    0  502  0.18518165766E+03  0.79308273865E+02  0.30656887953E+03  0.36683310447E+03  0.00000000000E+00 0.  1.
<mgrwt>
<rscale>  0 0.14934582E+04</rscale>
<asrwt>0</asrwt>
<pdfrwt beam="1">  1        2 0.21692679E+00 0.14934582E+04</pdfrwt>
<pdfrwt beam="2">  1       -2 0.60839583E-01 0.14934582E+04</pdfrwt>
<totfact> 0.34711566E+01</totfact>
</mgrwt>
</event>
<event>
12    1  0.1518126E-007  0.1261353E+04  0.7818608E-02  0.9060786E-01
         -1   -1    0    0    0  501 -0.00000000000E+00  0.00000000000E+00  0.46806739453E+03  0.46806739453E+03  0.00000000000E+00 0.  1.
          1   -1    0    0  501    0  0.00000000000E+00 -0.00000000000E+00 -0.84977741515E+03  0.84977741515E+03  0.00000000000E+00 0. -1.
         23    2    1    2    0    0 -0.18098486283E+03 -0.18438317102E+03  0.46796405894E+02  0.27830951226E+03  0.92269207662E+02 0.  0.
        254    2    1    2    0    0  0.18098486283E+03  0.18438317102E+03 -0.42850642651E+03  0.10395352974E+04  0.91118779771E+03 0.  0.
        -24    2    4    4    0    0  0.18614605377E+03 -0.10746882600E+02 -0.68100271772E+03  0.71047948980E+03  0.79060451962E+02 0.  0.
         24    2    4    4    0    0 -0.51611909460E+01  0.19513005362E+03  0.25249629121E+03  0.32905580762E+03  0.80130966158E+02 0.  0.
         11    1    3    3    0    0 -0.14601498996E+03 -0.14174509733E+03 -0.37069532524E+01  0.20353326856E+03  0.00000000000E+00 0. -1.
        -11    1    3    3    0    0 -0.34969872865E+02 -0.42638073693E+02  0.50503359146E+02  0.74776243698E+02  0.00000000000E+00 0.  1.
          4    1    6    6  502    0  0.32460904584E+02  0.41366206069E+02  0.67912871358E+02  0.85889646798E+02  0.00000000000E+00 0. -1.
          3    1    5    5  503    0  0.76670322292E+02 -0.18064586684E+02 -0.16365541030E+03  0.18162533120E+03  0.00000000000E+00 0. -1.
         -4    1    5    5    0  503  0.10947573148E+03  0.73177040845E+01 -0.51734730742E+03  0.52885415860E+03  0.00000000000E+00 0.  1.
         -3    1    6    6    0  502 -0.37622095530E+02  0.15376384755E+03  0.18458341985E+03  0.24316616082E+03  0.00000000000E+00 0.  1.
<mgrwt>
<rscale>  0 0.12613534E+04</rscale>
<asrwt>0</asrwt>
<pdfrwt beam="1">  1        1 0.13073498E+00 0.12613534E+04</pdfrwt>
<pdfrwt beam="2">  1       -1 0.72010370E-01 0.12613534E+04</pdfrwt>
<totfact> 0.38431834E+01</totfact>
</mgrwt>
</event>
<event>
12    1  0.1518126E-007  0.1494560E+04  0.7818608E-02  0.8888079E-01
         -2   -1    0    0    0  501 -0.00000000000E+00  0.00000000000E+00  0.41412115434E+03  0.41412115434E+03  0.00000000000E+00 0.  1.
          2   -1    0    0  501    0  0.00000000000E+00 -0.00000000000E+00 -0.13484635283E+04  0.13484635283E+04  0.00000000000E+00 0. -1.
         23    2    1    2    0    0 -0.39941785705E+03 -0.12212965350E+03 -0.56452879292E+03  0.70896930653E+03  0.97439431332E+02 0.  0.
        254    2    1    2    0    0  0.39941785705E+03  0.12212965350E+03 -0.36981358106E+03  0.10536153761E+04  0.89380814456E+03 0.  0.
        -24    2    4    4    0    0  0.16394398102E+03 -0.35796555127E+03 -0.31427737046E+03  0.51005215626E+03  0.79787039743E+02 0.  0.
         24    2    4    4    0    0  0.23547387602E+03  0.48009520477E+03 -0.55536210599E+02  0.54356321987E+03  0.80233106488E+02 0.  0.
         13    1    3    3    0    0 -0.15974174259E+03 -0.59120456520E+02 -0.31006661564E+03  0.35377105427E+03  0.00000000000E+00 0. -1.
        -13    1    3    3    0    0 -0.23967611445E+03 -0.63009196977E+02 -0.25446217728E+03  0.35519825226E+03  0.00000000000E+00 0.  1.
          2    1    6    6  502    0  0.23200889536E+03  0.48228748319E+03 -0.51262075706E+02  0.53764034854E+03  0.00000000000E+00 0. -1.
          3    1    5    5  503    0  0.12132265248E+03 -0.17255647151E+03 -0.15199787858E+03  0.25999668644E+03  0.00000000000E+00 0. -1.
         -4    1    5    5    0  503  0.42621328547E+02 -0.18540907976E+03 -0.16227949188E+03  0.25005546982E+03  0.00000000000E+00 0.  1.
         -1    1    6    6    0  502  0.34649806584E+01 -0.21922784276E+01 -0.42741348934E+01  0.59228713268E+01  0.00000000000E+00 0.  1.
<mgrwt>
<rscale>  0 0.14945598E+04</rscale>
<asrwt>0</asrwt>
<pdfrwt beam="1">  1        2 0.20745593E+00 0.14945598E+04</pdfrwt>
<pdfrwt beam="2">  1       -2 0.63710947E-01 0.14945598E+04</pdfrwt>
<totfact> 0.34130219E+01</totfact>
</mgrwt>
</event>
<event>
12    1  0.1518126E-007  0.1614148E+04  0.7818608E-02  0.8811903E-01
          2   -1    0    0  501    0  0.00000000000E+00  0.00000000000E+00  0.12015261761E+04  0.12015261761E+04  0.00000000000E+00 0. -1.
         -2   -1    0    0    0  501 -0.00000000000E+00 -0.00000000000E+00 -0.54211729262E+03  0.54211729262E+03  0.00000000000E+00 0.  1.
         23    2    1    2    0    0  0.24253523711E+03 -0.38351956022E+02 -0.30209229487E+03  0.39772575391E+03  0.81435906873E+02 0.  0.
        254    2    1    2    0    0 -0.24253523711E+03  0.38351956022E+02  0.96150117838E+03  0.13459177148E+04  0.90923911340E+03 0.  0.
        -24    2    4    4    0    0 -0.36614989883E+03 -0.14880150489E+03  0.52956154485E+02  0.40669744875E+03  0.79942630969E+02 0.  0.
         24    2    4    4    0    0  0.12361466172E+03  0.18715346091E+03  0.90854502389E+03  0.93922026610E+03  0.79835113102E+02 0.  0.
         13    1    3    3    0    0  0.85899693721E+02 -0.53313442925E+02 -0.12681560328E+03  0.16218285302E+03  0.00000000000E+00 0. -1.
        -13    1    3    3    0    0  0.15663554339E+03  0.14961486903E+02 -0.17527669160E+03  0.23554290089E+03  0.00000000000E+00 0.  1.
          4    1    6    6  502    0  0.83103837957E+02  0.17730880690E+03  0.72292479882E+03  0.74897591792E+03  0.00000000000E+00 0. -1.
          1    1    5    5  503    0 -0.22341255415E+03 -0.13083076375E+03  0.24619970702E+02  0.26006922358E+03  0.00000000000E+00 0. -1.
         -2    1    5    5    0  503 -0.14273734468E+03 -0.17970741137E+02  0.28336183783E+02  0.14662822517E+03  0.00000000000E+00 0.  1.
         -3    1    6    6    0  502  0.40510823760E+02  0.98446540161E+01  0.18562022508E+03  0.19024434817E+03  0.00000000000E+00 0.  1.
<mgrwt>
<rscale>  0 0.16141476E+04</rscale>
<asrwt>0</asrwt>
<pdfrwt beam="1">  1        2 0.18485018E+00 0.16141476E+04</pdfrwt>
<pdfrwt beam="2">  1       -2 0.83402660E-01 0.16141476E+04</pdfrwt>
<totfact> 0.22780353E+01</totfact>
</mgrwt>
</event>
<event>
12    1  0.1518126E-007  0.2086456E+04  0.7818608E-02  0.8567233E-01
          2   -1    0    0  501    0  0.00000000000E+00  0.00000000000E+00  0.77474337610E+03  0.77474337610E+03  0.00000000000E+00 0. -1.
         -2   -1    0    0    0  501 -0.00000000000E+00 -0.00000000000E+00 -0.14047554222E+04  0.14047554222E+04  0.00000000000E+00 0.  1.
         23    2    1    2    0    0 -0.45067265925E+03  0.43460042461E+03 -0.86027098730E+03  0.10680243814E+04  0.92879130066E+02 0.  0.
        254    2    1    2    0    0  0.45067265925E+03 -0.43460042461E+03  0.23025894121E+03  0.11114744169E+04  0.88902914717E+03 0.  0.
        -24    2    4    4    0    0  0.36466885172E+03 -0.45873095257E+03  0.52663737530E+03  0.79180293518E+03  0.78660694397E+02 0.  0.
         24    2    4    4    0    0  0.86003807532E+02  0.24130527959E+02 -0.29637843409E+03  0.31967148170E+03  0.79816932614E+02 0.  0.
         11    1    3    3    0    0 -0.13728627976E+03  0.12301841402E+03 -0.18626824708E+03  0.26206280291E+03  0.00000000000E+00 0. -1.
        -11    1    3    3    0    0 -0.31338637949E+03  0.31158201058E+03 -0.67400274022E+03  0.80596157848E+03  0.00000000000E+00 0.  1.
          2    1    6    6  502    0  0.60771265734E+02  0.11685226721E+02 -0.78382297853E+02  0.99867291338E+02  0.00000000000E+00 0. -1.
          3    1    5    5  503    0  0.16614856514E+02 -0.58761296955E+02  0.55276040108E+02  0.82367372708E+02  0.00000000000E+00 0. -1.
         -4    1    5    5    0  503  0.34805399521E+03 -0.39996965561E+03  0.47136133519E+03  0.70943556247E+03  0.00000000000E+00 0.  1.
         -1    1    6    6    0  502  0.25232541797E+02  0.12445301238E+02 -0.21799613623E+03  0.21980419036E+03  0.00000000000E+00 0.  1.
<mgrwt>
<rscale>  0 0.20864563E+04</rscale>
<asrwt>0</asrwt>
<pdfrwt beam="1">  1        2 0.11919129E+00 0.20864563E+04</pdfrwt>
<pdfrwt beam="2">  1       -2 0.21611622E+00 0.20864563E+04</pdfrwt>
<totfact> 0.34673864E+00</totfact>
</mgrwt>
</event>
<event>
12    1  0.1518126E-007  0.1902121E+04  0.7818608E-02  0.8653801E-01
         -1   -1    0    0    0  501 -0.00000000000E+00  0.00000000000E+00  0.98731225454E+03  0.98731225454E+03  0.00000000000E+00 0.  1.
          1   -1    0    0  501    0  0.00000000000E+00 -0.00000000000E+00 -0.91614024382E+03  0.91614024382E+03  0.00000000000E+00 0. -1.
         23    2    1    2    0    0 -0.86955489977E+02  0.70154377181E+03 -0.17110182208E+03  0.73354391944E+03  0.95320130243E+02 0.  0.
        254    2    1    2    0    0  0.86955489977E+02 -0.70154377181E+03  0.24227383280E+03  0.11699085789E+04  0.90014696132E+03 0.  0.
        -24    2    4    4    0    0 -0.18970549711E+03 -0.80020812157E+03  0.93300728345E+02  0.83129828633E+03  0.77656947346E+02 0.  0.
         24    2    4    4    0    0  0.27666098709E+03  0.98664349765E+02  0.14897310446E+03  0.33861029259E+03  0.78663769980E+02 0.  0.
         11    1    3    3    0    0 -0.86269609978E+02  0.70406236764E+03 -0.16706483080E+03  0.72873652359E+03  0.00000000000E+00 0. -1.
        -11    1    3    3    0    0 -0.68587999912E+00 -0.25185958261E+01 -0.40369912729E+01  0.48073958487E+01  0.00000000000E+00 0.  1.
          4    1    6    6  502    0  0.21630157511E+03  0.58103683375E+02  0.78456972745E+02  0.23731393973E+03  0.00000000000E+00 0. -1.
          3    1    5    5  503    0 -0.15036160858E+03 -0.73214332205E+03  0.83641602333E+02  0.75208933977E+03  0.00000000000E+00 0. -1.
         -4    1    5    5    0  503 -0.39343888530E+02 -0.68064799527E+02  0.96591260116E+01  0.79208946557E+02  0.00000000000E+00 0.  1.
         -3    1    6    6    0  502  0.60359411980E+02  0.40560666390E+02  0.70516131712E+02  0.10129635287E+03  0.00000000000E+00 0.  1.
<mgrwt>
<rscale>  0 0.19021214E+04</rscale>
<asrwt>0</asrwt>
<pdfrwt beam="1">  1        1 0.14094465E+00 0.19021214E+04</pdfrwt>
<pdfrwt beam="2">  1       -1 0.15189419E+00 0.19021214E+04</pdfrwt>
<totfact> 0.55691155E+00</totfact>
</mgrwt>
</event>
<event>
12    1  0.1518126E-007  0.1443232E+04  0.7818608E-02  0.8923106E-01
         -2   -1    0    0    0  501 -0.00000000000E+00  0.00000000000E+00  0.34473686287E+03  0.34473686287E+03  0.00000000000E+00 0.  1.
          2   -1    0    0  501    0  0.00000000000E+00 -0.00000000000E+00 -0.15105141649E+04  0.15105141649E+04  0.00000000000E+00 0. -1.
         23    2    1    2    0    0  0.61104945948E+02 -0.15144583672E+03 -0.88097714004E+03  0.90056206119E+03  0.90673308654E+02 0.  0.
        254    2    1    2    0    0 -0.61104945948E+02  0.15144583672E+03 -0.28480016194E+03  0.95468896653E+03  0.89646541188E+03 0.  0.
        -24    2    4    4    0    0  0.21040786922E+03  0.44601953572E+03 -0.19947275408E+03  0.53754808574E+03  0.77224783523E+02 0.  0.
         24    2    4    4    0    0 -0.27151281517E+03 -0.29457369900E+03 -0.85327407862E+02  0.41714088079E+03  0.78948558925E+02 0.  0.
         13    1    3    3    0    0  0.46441800479E+02 -0.86961712550E+02 -0.29885894960E+03  0.31469962192E+03  0.00000000000E+00 0.  1.
        -13    1    3    3    0    0  0.14663145469E+02 -0.64484124174E+02 -0.58211819044E+03  0.58586243927E+03  0.00000000000E+00 0. -1.
          2    1    6    6  502    0 -0.72078001219E+02 -0.97520075305E+02 -0.60941544120E+02  0.13571763020E+03  0.00000000000E+00 0. -1.
          1    1    5    5  503    0 -0.50488677557E+01  0.31334574430E+02 -0.15507041736E+02  0.35324424464E+02  0.00000000000E+00 0. -1.
         -2    1    5    5    0  503  0.21545673697E+03  0.41468496129E+03 -0.18396571235E+03  0.50222366128E+03  0.00000000000E+00 0.  1.
         -1    1    6    6    0  502 -0.19943481395E+03 -0.19705362369E+03 -0.24385863742E+02  0.28142325059E+03  0.00000000000E+00 0.  1.
<mgrwt>
<rscale>  0 0.14432324E+04</rscale>
<asrwt>0</asrwt>
<pdfrwt beam="1">  1        2 0.23238679E+00 0.14432324E+04</pdfrwt>
<pdfrwt beam="2">  1       -2 0.53036441E-01 0.14432324E+04</pdfrwt>
<totfact> 0.40721461E+01</totfact>
</mgrwt>
</event>
<event>
12    1  0.1518126E-007  0.1363373E+04  0.7818608E-02  0.8980766E-01
         -2   -1    0    0    0  501 -0.00000000000E+00  0.00000000000E+00  0.20373327194E+03  0.20373327194E+03  0.00000000000E+00 0.  1.
          2   -1    0    0  501    0  0.00000000000E+00 -0.00000000000E+00 -0.22809073959E+04  0.22809073959E+04  0.00000000000E+00 0. -1.
         23    2    1    2    0    0  0.16318216665E+03 -0.35562959483E+02 -0.11934059603E+04  0.12083979331E+04  0.90081268525E+02 0.  0.
        254    2    1    2    0    0 -0.16318216665E+03  0.35562959483E+02 -0.88376816364E+03  0.12762427348E+04  0.90545911415E+03 0.  0.
        -24    2    4    4    0    0 -0.10974247173E+03 -0.31967477635E+03 -0.83576917756E+03  0.90494513146E+03  0.78614248421E+02 0.  0.
         24    2    4    4    0    0 -0.53439694924E+02  0.35523773584E+03 -0.47998986087E+02  0.37129760332E+03  0.80674392523E+02 0.  0.
         11    1    3    3    0    0  0.94996826135E+02  0.17434894578E+02 -0.78792156167E+03  0.79381909770E+03  0.00000000000E+00 0. -1.
        -11    1    3    3    0    0  0.68185340518E+02 -0.52997854062E+02 -0.40548439862E+03  0.41457883535E+03  0.00000000000E+00 0.  1.
          4    1    6    6  502    0 -0.18549397081E+02  0.13024852192E+02 -0.11394733006E+02  0.25368619335E+02  0.00000000000E+00 0. -1.
          1    1    5    5  503    0 -0.34360425819E+02 -0.74992469834E+02 -0.30014794151E+03  0.31127688027E+03  0.00000000000E+00 0. -1.
         -2    1    5    5    0  503 -0.75382045910E+02 -0.24468230652E+03 -0.53562123604E+03  0.59366825119E+03  0.00000000000E+00 0.  1.
         -3    1    6    6    0  502 -0.34890297842E+02  0.34221288365E+03 -0.36604253081E+02  0.34592898398E+03  0.00000000000E+00 0.  1.
<mgrwt>
<rscale>  0 0.13633734E+04</rscale>
<asrwt>0</asrwt>
<pdfrwt beam="1">  1        2 0.35090882E+00 0.13633734E+04</pdfrwt>
<pdfrwt beam="2">  1       -2 0.31343581E-01 0.13633734E+04</pdfrwt>
<totfact> 0.42942406E+01</totfact>
</mgrwt>
</event>
<event>
12    1  0.1518126E-007  0.1999224E+04  0.7818608E-02  0.8606984E-01
          2   -1    0    0  501    0  0.00000000000E+00  0.00000000000E+00  0.14159533597E+04  0.14159533597E+04  0.00000000000E+00 0. -1.
         -2   -1    0    0    0  501 -0.00000000000E+00 -0.00000000000E+00 -0.70568998191E+03  0.70568998191E+03  0.00000000000E+00 0.  1.
         23    2    1    2    0    0 -0.20230277800E+03  0.31738651588E+03 -0.45596734254E+03  0.59805537662E+03  0.90018895781E+02 0.  0.
        254    2    1    2    0    0  0.20230277800E+03 -0.31738651588E+03  0.11662307203E+04  0.15235879650E+04  0.90529861349E+03 0.  0.
        -24    2    4    4    0    0  0.40273506980E+03 -0.36408842548E+02  0.10846091993E+04  0.11603059825E+04  0.80073200158E+02 0.  0.
         24    2    4    4    0    0 -0.20043229180E+03 -0.28097767333E+03  0.81621521011E+02  0.36328198255E+03  0.78677631168E+02 0.  0.
         11    1    3    3    0    0 -0.46390935186E+02  0.77782838420E+02 -0.56167704913E+02  0.10656969501E+03  0.00000000000E+00 0. -1.
        -11    1    3    3    0    0 -0.15591184282E+03  0.23960367746E+03 -0.39979963763E+03  0.49148568161E+03  0.00000000000E+00 0.  1.
          2    1    6    6  502    0 -0.11060306776E+03 -0.90213820113E+02  0.24397547641E+02  0.14479921363E+03  0.00000000000E+00 0. -1.
          3    1    5    5  503    0  0.20165286330E+03 -0.58191832947E+02  0.56439592212E+03  0.60215689285E+03  0.00000000000E+00 0. -1.
         -2    1    5    5    0  503  0.20108220650E+03  0.21782990399E+02  0.52021327722E+03  0.55814908961E+03  0.00000000000E+00 0.  1.
         -1    1    6    6    0  502 -0.89829224040E+02 -0.19076385322E+03  0.57223973370E+02  0.21848276892E+03  0.00000000000E+00 0.  1.
<mgrwt>
<rscale>  0 0.19992240E+04</rscale>
<asrwt>0</asrwt>
<pdfrwt beam="1">  1        2 0.21783898E+00 0.19992240E+04</pdfrwt>
<pdfrwt beam="2">  1       -2 0.10856769E+00 0.19992240E+04</pdfrwt>
<totfact> 0.89300708E+00</totfact>
</mgrwt>
</event>
<event>
12    1  0.1518126E-007  0.1185222E+04  0.7818608E-02  0.9125891E-01
          2   -1    0    0  501    0  0.00000000000E+00  0.00000000000E+00  0.21521800011E+04  0.21521800011E+04  0.00000000000E+00 0. -1.
         -2   -1    0    0    0  501 -0.00000000000E+00 -0.00000000000E+00 -0.16317769482E+03  0.16317769482E+03  0.00000000000E+00 0.  1.
         23    2    1    2    0    0  0.55459848725E+02 -0.98913471729E+02  0.22538088271E+02  0.15081055667E+03  0.96830722761E+02 0.  0.
        254    2    1    2    0    0 -0.55459848725E+02  0.98913471729E+02  0.19664642180E+04  0.21645471392E+04  0.89745369106E+03 0.  0.
        -24    2    4    4    0    0 -0.80811145538E+02  0.11472473585E+02  0.20269472250E+04  0.20301551229E+04  0.79703898035E+02 0.  0.
         24    2    4    4    0    0  0.25351296812E+02  0.87440998145E+02 -0.60483007014E+02  0.13439201629E+03  0.78194651343E+02 0.  0.
         13    1    3    3    0    0  0.53606244446E+02 -0.25320321591E+02 -0.23733821131E+02  0.63859552101E+02  0.00000000000E+00 0.  1.
        -13    1    3    3    0    0  0.18536042795E+01 -0.73593150138E+02  0.46271909402E+02  0.86951004570E+02  0.00000000000E+00 0. -1.
          2    1    6    6  502    0  0.38923199376E+00  0.43490610520E+02 -0.70527101680E+02  0.82859258845E+02  0.00000000000E+00 0. -1.
          3    1    5    5  503    0 -0.87043563072E+02 -0.76236621369E+00  0.19533144927E+04  0.19552530963E+04  0.00000000000E+00 0. -1.
         -4    1    5    5    0  503  0.62324175340E+01  0.12234839798E+02  0.73632732283E+02  0.74902026653E+02  0.00000000000E+00 0.  1.
         -1    1    6    6    0  502  0.24962064819E+02  0.43950387624E+02  0.10044094666E+02  0.51532757446E+02  0.00000000000E+00 0.  1.
<mgrwt>
<rscale>  0 0.11852220E+04</rscale>
<asrwt>0</asrwt>
<pdfrwt beam="1">  1        2 0.33110460E+00 0.11852220E+04</pdfrwt>
<pdfrwt beam="2">  1       -2 0.25104262E-01 0.11852220E+04</pdfrwt>
<totfact> 0.77461935E+01</totfact>
</mgrwt>
</event>
<event>
12    1  0.1518126E-007  0.1345905E+04  0.7818608E-02  0.8993934E-01
          1   -1    0    0  501    0  0.00000000000E+00  0.00000000000E+00  0.27408149230E+04  0.27408149230E+04  0.00000000000E+00 0. -1.
         -1   -1    0    0    0  501 -0.00000000000E+00 -0.00000000000E+00 -0.16523010725E+03  0.16523010725E+03  0.00000000000E+00 0.  1.
         23    2    1    2    0    0 -0.11318907207E+02  0.17307230206E+03  0.14280300774E+04  0.14414540620E+04  0.91857343207E+02 0.  0.
        254    2    1    2    0    0  0.11318907207E+02 -0.17307230206E+03  0.11475547383E+04  0.14645909682E+04  0.89334354386E+03 0.  0.
        -24    2    4    4    0    0  0.14433770140E+03 -0.43571495149E+03  0.10424535871E+04  0.11418063859E+04  0.79570413195E+02 0.  0.
         24    2    4    4    0    0 -0.13301879419E+03  0.26264264943E+03  0.10510115125E+03  0.32278458234E+03  0.80426821971E+02 0.  0.
         13    1    3    3    0    0  0.35793981209E+02  0.11996330769E+03  0.93101235386E+03  0.93939150908E+03  0.00000000000E+00 0. -1.
        -13    1    3    3    0    0 -0.47112888416E+02  0.53108994365E+02  0.49701772356E+03  0.50206255295E+03  0.00000000000E+00 0.  1.
          2    1    6    6  502    0 -0.88857379910E+02  0.21463925653E+03  0.50523031612E+02  0.23773561183E+03  0.00000000000E+00 0. -1.
          1    1    5    5  503    0  0.13613338495E+03 -0.35657398714E+03  0.91685832107E+03  0.99312964296E+03  0.00000000000E+00 0. -1.
         -2    1    5    5    0  503  0.82043164497E+01 -0.79140964346E+02  0.12559526600E+03  0.14867674293E+03  0.00000000000E+00 0.  1.
         -1    1    6    6    0  502 -0.44161414283E+02  0.48003392900E+02  0.54578119637E+02  0.85048970508E+02  0.00000000000E+00 0.  1.
<mgrwt>
<rscale>  0 0.13459051E+04</rscale>
<asrwt>0</asrwt>
<pdfrwt beam="1">  1        1 0.42166380E+00 0.13459051E+04</pdfrwt>
<pdfrwt beam="2">  1       -1 0.25420019E-01 0.13459051E+04</pdfrwt>
<totfact> 0.12313971E+01</totfact>
</mgrwt>
</event>
<event>
12    1  0.1518126E-007  0.1643015E+04  0.7818608E-02  0.8794550E-01
         -2   -1    0    0    0  501 -0.00000000000E+00  0.00000000000E+00  0.74778224840E+03  0.74778224840E+03  0.00000000000E+00 0.  1.
          2   -1    0    0  501    0  0.00000000000E+00 -0.00000000000E+00 -0.90250125564E+03  0.90250125564E+03  0.00000000000E+00 0. -1.
         23    2    1    2    0    0  0.42217543119E+03 -0.15063393923E+03  0.30810174042E+03  0.55148479198E+03  0.91028100029E+02 0.  0.
        254    2    1    2    0    0 -0.42217543119E+03  0.15063393923E+03 -0.46282074766E+03  0.10987987121E+04  0.89007465237E+03 0.  0.
        -24    2    4    4    0    0 -0.31969817978E+02  0.38545255307E+03 -0.49720708247E+03  0.63497283618E+03  0.79874150375E+02 0.  0.
         24    2    4    4    0    0 -0.39020561321E+03 -0.23481861384E+03  0.34386334807E+02  0.46382587587E+03  0.80943320442E+02 0.  0.
         11    1    3    3    0    0  0.28916889463E+03 -0.86767135643E+02  0.25329702538E+03  0.39408954378E+03  0.00000000000E+00 0.  1.
        -11    1    3    3    0    0  0.13300653656E+03 -0.63866803592E+02  0.54804715040E+02  0.15739524821E+03  0.00000000000E+00 0. -1.
          2    1    6    6  502    0 -0.31927936070E+03 -0.22084035645E+03  0.12971887853E+02  0.38843022936E+03  0.00000000000E+00 0. -1.
          3    1    5    5  503    0 -0.40685249151E+02  0.35520598473E+03 -0.41982814607E+03  0.55143653607E+03  0.00000000000E+00 0. -1.
         -4    1    5    5    0  503  0.87154311727E+01  0.30246568344E+02 -0.77378936400E+02  0.83536300107E+02  0.00000000000E+00 0.  1.
         -1    1    6    6    0  502 -0.70926252514E+02 -0.13978257383E+02  0.21414446954E+02  0.75395646515E+02  0.00000000000E+00 0.  1.
<mgrwt>
<rscale>  0 0.16430148E+04</rscale>
<asrwt>0</asrwt>
<pdfrwt beam="1">  1        2 0.13884635E+00 0.16430148E+04</pdfrwt>
<pdfrwt beam="2">  1       -2 0.11504342E+00 0.16430148E+04</pdfrwt>
<totfact> 0.16446161E+01</totfact>
</mgrwt>
</event>
<event>
12    1  0.1518126E-007  0.1979306E+04  0.7818608E-02  0.8616358E-01
          1   -1    0    0  501    0  0.00000000000E+00  0.00000000000E+00  0.28805568533E+04  0.28805568533E+04  0.00000000000E+00 0. -1.
         -1   -1    0    0    0  501 -0.00000000000E+00 -0.00000000000E+00 -0.34000810390E+03  0.34000810390E+03  0.00000000000E+00 0.  1.
         23    2    1    2    0    0 -0.20449294014E+03 -0.20556870656E+02  0.22411565955E+04  0.22524465023E+04  0.92154288545E+02 0.  0.
        254    2    1    2    0    0  0.20449294014E+03  0.20556870656E+02  0.29939215387E+03  0.96811845481E+03  0.89742840007E+03 0.  0.
        -24    2    4    4    0    0 -0.16636308159E+03 -0.21986582475E+03 -0.15723509087E+03  0.32759111310E+03  0.81088888081E+02 0.  0.
         24    2    4    4    0    0  0.37085602172E+03  0.24042269541E+03  0.45662724474E+03  0.64052734171E+03  0.80184621496E+02 0.  0.
         13    1    3    3    0    0 -0.16978632817E+02  0.63298575455E+01  0.51194118560E+02  0.54306342577E+02  0.00000000000E+00 0.  1.
        -13    1    3    3    0    0 -0.18751430732E+03 -0.26886728201E+02  0.21899624769E+04  0.21981401598E+04  0.00000000000E+00 0. -1.
          2    1    6    6  502    0  0.31689233939E+02  0.75034064925E+00  0.50688085725E+02  0.59783380577E+02  0.00000000000E+00 0. -1.
          1    1    5    5  503    0  0.16524523560E+01  0.56227340003E+01 -0.11404530059E+01  0.59704580633E+01  0.00000000000E+00 0. -1.
         -2    1    5    5    0  503 -0.16801553394E+03 -0.22548855875E+03 -0.15609463787E+03  0.32162065504E+03  0.00000000000E+00 0.  1.
         -3    1    6    6    0  502  0.33916678778E+03  0.23967235476E+03  0.40593915901E+03  0.58074396113E+03  0.00000000000E+00 0.  1.
<mgrwt>
<rscale>  0 0.19793056E+04</rscale>
<asrwt>0</asrwt>
<pdfrwt beam="1">  1        1 0.44316258E+00 0.19793056E+04</pdfrwt>
<pdfrwt beam="2">  1       -1 0.52308941E-01 0.19793056E+04</pdfrwt>
<totfact> 0.25001444E+00</totfact>
</mgrwt>
</event>
<event>
12    1  0.1518126E-007  0.1332967E+04  0.7818608E-02  0.9003823E-01
          2   -1    0    0  501    0  0.00000000000E+00  0.00000000000E+00  0.14664323369E+04  0.14664323369E+04  0.00000000000E+00 0. -1.
         -2   -1    0    0    0  501 -0.00000000000E+00 -0.00000000000E+00 -0.30291210862E+03  0.30291210862E+03  0.00000000000E+00 0.  1.
         23    2    1    2    0    0  0.20370032146E+03  0.11556148921E+03 -0.39198416829E+01  0.25070535078E+03  0.89384165249E+02 0.  0.
        254    2    1    2    0    0 -0.20370032146E+03 -0.11556148921E+03  0.11674400700E+04  0.15186390947E+04  0.94260283491E+03 0.  0.
        -24    2    4    4    0    0 -0.36386174699E+03 -0.42541190788E+03  0.48030931209E+03  0.74294944716E+03  0.88916722073E+02 0.  0.
         24    2    4    4    0    0  0.16016142553E+03  0.30985041867E+03  0.68713075788E+03  0.77568964759E+03  0.88807582861E+02 0.  0.
         11    1    3    3    0    0  0.20608989030E+03  0.11184979536E+03  0.11399805796E+02  0.23476238024E+03  0.00000000000E+00 0.  1.
        -11    1    3    3    0    0 -0.23895688397E+01  0.37116938490E+01 -0.15319647479E+02  0.15942970531E+02  0.00000000000E+00 0. -1.
          2    1    6    6  502    0 -0.10466858471E+02  0.23891680576E+02  0.65162582219E+02  0.70189241686E+02  0.00000000000E+00 0. -1.
          3    1    5    5  503    0 -0.13606497875E+03 -0.17600997566E+03  0.24706667988E+03  0.33246824552E+03  0.00000000000E+00 0. -1.
         -4    1    5    5    0  503 -0.22779676825E+03 -0.24940193222E+03  0.23324263221E+03  0.41048120164E+03  0.00000000000E+00 0.  1.
         -1    1    6    6    0  502  0.17062828400E+03  0.28595873810E+03  0.62196817566E+03  0.70550040590E+03  0.00000000000E+00 0.  1.
<mgrwt>
<rscale>  0 0.13329668E+04</rscale>
<asrwt>0</asrwt>
<pdfrwt beam="1">  1        2 0.22560497E+00 0.13329668E+04</pdfrwt>
<pdfrwt beam="2">  1       -2 0.46601864E-01 0.13329668E+04</pdfrwt>
<totfact> 0.56597584E+01</totfact>
</mgrwt>
</event>
<event>
12    1  0.1518126E-007  0.2889405E+04  0.7818608E-02  0.8276037E-01
          2   -1    0    0  501    0  0.00000000000E+00  0.00000000000E+00  0.17040527541E+04  0.17040527541E+04  0.00000000000E+00 0. -1.
         -2   -1    0    0    0  501 -0.00000000000E+00 -0.00000000000E+00 -0.12248242848E+04  0.12248242848E+04  0.00000000000E+00 0.  1.
         23    2    1    2    0    0 -0.32378768337E+03  0.14659118212E+03 -0.10539919431E+04  0.11164243702E+04  0.95796239525E+02 0.  0.
        254    2    1    2    0    0  0.32378768337E+03 -0.14659118212E+03  0.15332204125E+04  0.18124526688E+04  0.89882835112E+03 0.  0.
        -24    2    4    4    0    0  0.56129364405E+03 -0.32740659211E+03  0.10966553467E+04  0.12772640848E+04  0.80653342683E+02 0.  0.
         24    2    4    4    0    0 -0.23750596069E+03  0.18081540999E+03  0.43656506583E+03  0.53518858394E+03  0.82063815590E+02 0.  0.
         13    1    3    3    0    0 -0.53088726547E+02  0.28490889971E+02 -0.90812124116E+02  0.10898158369E+03  0.00000000000E+00 0. -1.
        -13    1    3    3    0    0 -0.27069895682E+03  0.11810029215E+03 -0.96317981903E+03  0.10074427865E+04  0.00000000000E+00 0.  1.
          4    1    6    6  502    0 -0.16089206588E+02  0.16557243777E+02  0.86882891058E+02  0.89897951305E+02  0.00000000000E+00 0. -1.
          1    1    5    5  503    0  0.19287856867E+03 -0.14949847470E+03  0.45407977756E+03  0.51550012665E+03  0.00000000000E+00 0. -1.
         -2    1    5    5    0  503  0.36841507538E+03 -0.17790811741E+03  0.64257556909E+03  0.76176395819E+03  0.00000000000E+00 0.  1.
         -3    1    6    6    0  502 -0.22141675410E+03  0.16425816621E+03  0.34968217477E+03  0.44529063264E+03  0.00000000000E+00 0.  1.
<mgrwt>
<rscale>  0 0.28894049E+04</rscale>
<asrwt>0</asrwt>
<pdfrwt beam="1">  1        2 0.26216196E+00 0.28894049E+04</pdfrwt>
<pdfrwt beam="2">  1       -2 0.18843450E+00 0.28894049E+04</pdfrwt>
<totfact> 0.13385192E+00</totfact>
</mgrwt>
</event>
<event>
12    1  0.1518126E-007  0.2278894E+04  0.7818608E-02  0.8486290E-01
          2   -1    0    0  501    0  0.00000000000E+00  0.00000000000E+00  0.11428465162E+04  0.11428465162E+04  0.00000000000E+00 0. -1.
         -2   -1    0    0    0  501 -0.00000000000E+00 -0.00000000000E+00 -0.11360579810E+04  0.11360579810E+04  0.00000000000E+00 0.  1.
         23    2    1    2    0    0  0.85677994981E+03  0.36172541646E+03 -0.22258122263E+03  0.96071553968E+03  0.92275610036E+02 0.  0.
        254    2    1    2    0    0 -0.85677994981E+03 -0.36172541646E+03  0.22936975789E+03  0.13181889575E+04  0.90559068159E+03 0.  0.
        -24    2    4    4    0    0 -0.88692038114E+03 -0.26312098037E+03 -0.12831473763E+03  0.93738003423E+03  0.79726055236E+02 0.  0.
         24    2    4    4    0    0  0.30140431328E+02 -0.98604436088E+02  0.35768449552E+03  0.38080892330E+03  0.80286719389E+02 0.  0.
         11    1    3    3    0    0  0.69703571710E+03  0.27080006061E+03 -0.20877999338E+03  0.77638943152E+03  0.00000000000E+00 0.  1.
        -11    1    3    3    0    0  0.15974423271E+03  0.90925355854E+02 -0.13801229244E+02  0.18432610816E+03  0.00000000000E+00 0. -1.
          4    1    6    6  502    0  0.27903596616E+02 -0.11285572514E+03  0.31820382494E+03  0.33877529368E+03  0.00000000000E+00 0. -1.
          1    1    5    5  503    0 -0.82182186337E+03 -0.22110050452E+03 -0.11966354691E+03  0.85941606493E+03  0.00000000000E+00 0. -1.
         -2    1    5    5    0  503 -0.65098517773E+02 -0.42020475857E+02 -0.86511907163E+01  0.77963969296E+02  0.00000000000E+00 0.  1.
         -3    1    6    6    0  502  0.22368347114E+01  0.14251289056E+02  0.39480670582E+02  0.42033629618E+02  0.00000000000E+00 0.  1.
<mgrwt>
<rscale>  0 0.22788944E+04</rscale>
<asrwt>0</asrwt>
<pdfrwt beam="1">  1        2 0.17582254E+00 0.22788944E+04</pdfrwt>
<pdfrwt beam="2">  1       -2 0.17477815E+00 0.22788944E+04</pdfrwt>
<totfact> 0.36722161E+00</totfact>
</mgrwt>
</event>
<event>
12    1  0.1518126E-007  0.2159226E+04  0.7818608E-02  0.8535594E-01
         -2   -1    0    0    0  501 -0.00000000000E+00  0.00000000000E+00  0.14341701957E+04  0.14341701957E+04  0.00000000000E+00 0. -1.
          2   -1    0    0  501    0  0.00000000000E+00 -0.00000000000E+00 -0.81270953696E+03  0.81270953696E+03  0.00000000000E+00 0.  1.
         23    2    1    2    0    0  0.10683648278E+03  0.86385762321E+03  0.42200280505E+03  0.97166952190E+03  0.91603848743E+02 0.  0.
        254    2    1    2    0    0 -0.10683648278E+03 -0.86385762321E+03  0.19945785366E+03  0.12752102107E+04  0.91033709080E+03 0.  0.
        -24    2    4    4    0    0 -0.32666759255E+03 -0.16377118974E+02  0.20877359919E+03  0.39603933843E+03  0.79251598186E+02 0.  0.
         24    2    4    4    0    0  0.21983110977E+03 -0.84748050423E+03 -0.93157455336E+01  0.87917087228E+03  0.79408549170E+02 0.  0.
         11    1    3    3    0    0  0.11672593013E+03  0.84520810157E+03  0.41825139917E+03  0.95022939895E+03  0.00000000000E+00 0.  1.
        -11    1    3    3    0    0 -0.98894473495E+01  0.18649521641E+02  0.37514058760E+01  0.21440122956E+02  0.00000000000E+00 0. -1.
          2    1    6    6  502    0  0.17211490873E+03 -0.64658159822E+03 -0.40593430333E+02  0.67032763000E+03  0.00000000000E+00 0. -1.
          3    1    5    5  503    0 -0.14044934209E+03 -0.61643754155E+01  0.13672959654E+03  0.19610966266E+03  0.00000000000E+00 0. -1.
         -4    1    5    5    0  503 -0.18621825046E+03 -0.10212743559E+02  0.72044002650E+02  0.19992967577E+03  0.00000000000E+00 0.  1.
         -1    1    6    6    0  502  0.47716201043E+02 -0.20089890601E+03  0.31277684800E+02  0.20884324228E+03  0.00000000000E+00 0.  1.
<mgrwt>
<rscale>  0 0.21592256E+04</rscale>
<asrwt>0</asrwt>
<pdfrwt beam="1">  1        2 0.12503224E+00 0.21592256E+04</pdfrwt>
<pdfrwt beam="2">  1       -2 0.22064157E+00 0.21592256E+04</pdfrwt>
<totfact> 0.30274522E+00</totfact>
</mgrwt>
</event>
<event>
12    1  0.1518126E-007  0.1540183E+04  0.7818608E-02  0.8858163E-01
          2   -1    0    0  501    0  0.00000000000E+00  0.00000000000E+00  0.21309298233E+04  0.21309298233E+04  0.00000000000E+00 0. -1.
         -2   -1    0    0    0  501 -0.00000000000E+00 -0.00000000000E+00 -0.27830139645E+03  0.27830139645E+03  0.00000000000E+00 0.  1.
         23    2    1    2    0    0  0.15691002708E+03 -0.22937381067E+03 -0.34571249111E+02  0.29917704655E+03  0.10525508205E+03 0.  0.
        254    2    1    2    0    0 -0.15691002708E+03  0.22937381067E+03  0.18871996759E+04  0.21100541732E+04  0.90198275772E+03 0.  0.
        -24    2    4    4    0    0 -0.35568568421E+03  0.29843604016E+03  0.18121844895E+04  0.18724267025E+04  0.79954715429E+02 0.  0.
         24    2    4    4    0    0  0.19877565713E+03 -0.69062229494E+02  0.75015186457E+02  0.23762747061E+03  0.80982610361E+02 0.  0.
         11    1    3    3    0    0  0.29533853851E+01 -0.83559274956E+02  0.37421878875E+01  0.83695154499E+02  0.00000000000E+00 0. -1.
        -11    1    3    3    0    0  0.15395664170E+03 -0.14581453571E+03 -0.38313436999E+02  0.21548189205E+03  0.00000000000E+00 0.  1.
          2    1    6    6  502    0  0.63887283753E+02 -0.62548362084E+02  0.41017013191E+02  0.98368074068E+02  0.00000000000E+00 0. -1.
          3    1    5    5  503    0 -0.68333538813E+02  0.92252685552E+02  0.36364942703E+03  0.38134097117E+03  0.00000000000E+00 0. -1.
         -4    1    5    5    0  503 -0.28735214539E+03  0.20618335461E+03  0.14485350624E+04  0.14910857314E+04  0.00000000000E+00 0.  1.
         -1    1    6    6    0  502  0.13488837337E+03 -0.65138674098E+01  0.33998173266E+02  0.13925939654E+03  0.00000000000E+00 0.  1.
<mgrwt>
<rscale>  0 0.15401828E+04</rscale>
<asrwt>0</asrwt>
<pdfrwt beam="1">  1        2 0.32783535E+00 0.15401828E+04</pdfrwt>
<pdfrwt beam="2">  1       -2 0.42815601E-01 0.15401828E+04</pdfrwt>
<totfact> 0.28147449E+01</totfact>
</mgrwt>
</event>
<event>
12    1  0.1518126E-007  0.2424402E+04  0.7818608E-02  0.8430424E-01
         -2   -1    0    0    0  501 -0.00000000000E+00  0.00000000000E+00  0.13407124787E+04  0.13407124787E+04  0.00000000000E+00 0.  1.
          2   -1    0    0  501    0  0.00000000000E+00 -0.00000000000E+00 -0.10960077624E+04  0.10960077624E+04  0.00000000000E+00 0. -1.
         23    2    1    2    0    0 -0.62836755368E+03  0.15470272664E+02  0.94239785462E+03  0.11365475799E+04  0.92420631959E+02 0.  0.
        254    2    1    2    0    0  0.62836755368E+03 -0.15470272664E+02 -0.69769313837E+03  0.13001726611E+04  0.89921528097E+03 0.  0.
        -24    2    4    4    0    0  0.60038858045E+03 -0.19850467134E+03 -0.70296411884E+02  0.64107432183E+03  0.78512091512E+02 0.  0.
         24    2    4    4    0    0  0.27978973233E+02  0.18303439867E+03 -0.62739672649E+03  0.65909833929E+03  0.80619813981E+02 0.  0.
         13    1    3    3    0    0 -0.52861602018E+03 -0.19706391672E+02  0.80261095712E+03  0.96125313375E+03  0.00000000000E+00 0.  1.
        -13    1    3    3    0    0 -0.99751533504E+02  0.35176664336E+02  0.13978689750E+03  0.17529444619E+03  0.00000000000E+00 0. -1.
          2    1    6    6  502    0  0.24713525772E+02  0.63853454154E+02 -0.35813706126E+03  0.36462333526E+03  0.00000000000E+00 0. -1.
          1    1    5    5  503    0  0.31657665881E+03 -0.63327933969E+02 -0.35947372439E+02  0.32484368811E+03  0.00000000000E+00 0. -1.
         -2    1    5    5    0  503  0.28381192164E+03 -0.13517673737E+03 -0.34349039446E+02  0.31623063372E+03  0.00000000000E+00 0.  1.
         -1    1    6    6    0  502  0.32654474608E+01  0.11918094452E+03 -0.26925966522E+03  0.29447500403E+03  0.00000000000E+00 0.  1.
<mgrwt>
<rscale>  0 0.24244020E+04</rscale>
<asrwt>0</asrwt>
<pdfrwt beam="1">  1        2 0.16861658E+00 0.24244020E+04</pdfrwt>
<pdfrwt beam="2">  1       -2 0.20626346E+00 0.24244020E+04</pdfrwt>
<totfact> 0.23799707E+00</totfact>
</mgrwt>
</event>
<event>
12    1  0.2684007E-007  0.2279578E+04  0.7818608E-02  0.8486017E-01
          2   -1    0    0  501    0  0.00000000000E+00  0.00000000000E+00  0.12493247557E+04  0.12493247557E+04  0.00000000000E+00 0.  1.
         -2   -1    0    0    0  501 -0.00000000000E+00 -0.00000000000E+00 -0.10398565678E+04  0.10398565678E+04  0.00000000000E+00 0. -1.
         23    2    1    2    0    0  0.28038300840E+03 -0.47676627066E+03 -0.62903806107E+03  0.84157499763E+03  0.81479360056E+02 0.  0.
        254    2    1    2    0    0 -0.28038300840E+03  0.47676627066E+03  0.83850624898E+03  0.14476063259E+04  0.10423773966E+04 0.  0.
        -24    2    4    4    0    0 -0.58798604013E+03  0.24757002535E+02  0.26199552719E+03  0.64912801422E+03  0.79906382795E+02 0.  0.
         24    2    4    4    0    0  0.30760303172E+03  0.45200926813E+03  0.57651072179E+03  0.79847831169E+03  0.79189635128E+02 0.  0.
         13    1    3    3    0    0  0.96139601611E+02 -0.18287284990E+03 -0.17891172798E+03  0.27330332716E+03  0.00000000000E+00 0.  1.
        -13    1    3    3    0    0  0.18424340679E+03 -0.29389342076E+03 -0.45012633309E+03  0.56827167047E+03  0.00000000000E+00 0. -1.
          4    1    6    6  502    0  0.23076918781E+02  0.42630508922E+02  0.88117897722E+02  0.10057170760E+03  0.00000000000E+00 0. -1.
          1    1    5    5  503    0 -0.43349989993E+02 -0.14767476907E+02  0.65382088927E+01  0.46260654796E+02  0.00000000000E+00 0. -1.
         -2    1    5    5    0  503 -0.54463605013E+03  0.39524479442E+02  0.25545731830E+03  0.60286735942E+03  0.00000000000E+00 0.  1.
         -3    1    6    6    0  502  0.28452611294E+03  0.40937875921E+03  0.48839282406E+03  0.69790660409E+03  0.00000000000E+00 0.  1.
<mgrwt>
<rscale>  0 0.22795776E+04</rscale>
<asrwt>0</asrwt>
<pdfrwt beam="1">  1        2 0.19220381E+00 0.22795776E+04</pdfrwt>
<pdfrwt beam="2">  1       -2 0.15997793E+00 0.22795776E+04</pdfrwt>
<totfact> 0.40516297E+00</totfact>
</mgrwt>
</event>
<event>
12    1  0.1518126E-007  0.2681391E+04  0.7818608E-02  0.8341068E-01
         -2   -1    0    0    0  501 -0.00000000000E+00  0.00000000000E+00  0.51358952503E+03  0.51358952503E+03  0.00000000000E+00 0. -1.
          2   -1    0    0  501    0  0.00000000000E+00 -0.00000000000E+00 -0.34998085967E+04  0.34998085967E+04  0.00000000000E+00 0.  1.
         23    2    1    2    0    0  0.87872080749E+03 -0.66864789593E+03 -0.19760132187E+04  0.22655629396E+04  0.94376513124E+02 0.  0.
        254    2    1    2    0    0 -0.87872080749E+03  0.66864789593E+03 -0.10102058529E+04  0.17478351821E+04  0.90286859089E+03 0.  0.
        -24    2    4    4    0    0 -0.38638954777E+03  0.48765311049E+03 -0.10421468259E+04  0.12163609106E+04  0.79758507003E+02 0.  0.
         24    2    4    4    0    0 -0.49233125972E+03  0.18099478545E+03  0.31940972985E+02  0.53147427149E+03  0.79344148132E+02 0.  0.
         11    1    3    3    0    0  0.69081116980E+03 -0.53817204708E+03 -0.14871881019E+04  0.17258556356E+04  0.00000000000E+00 0.  1.
        -11    1    3    3    0    0  0.18790963769E+03 -0.13047584885E+03 -0.48882511685E+03  0.53970730395E+03  0.00000000000E+00 0. -1.
          4    1    6    6  502    0 -0.18514227422E+03  0.40241031475E+02  0.39280811782E+02  0.19349414588E+03  0.00000000000E+00 0. -1.
          3    1    5    5  503    0 -0.28025387140E+03  0.32848010678E+03 -0.65488820797E+03  0.78442334101E+03  0.00000000000E+00 0. -1.
         -4    1    5    5    0  503 -0.10613567637E+03  0.15917300370E+03 -0.38725861792E+03  0.43193756963E+03  0.00000000000E+00 0.  1.
         -3    1    6    6    0  502 -0.30718898550E+03  0.14075375397E+03 -0.73398387964E+01  0.33798012561E+03  0.00000000000E+00 0.  1.
<mgrwt>
<rscale>  0 0.26813915E+04</rscale>
<asrwt>0</asrwt>
<pdfrwt beam="1">  1        2 0.53843211E+00 0.26813915E+04</pdfrwt>
<pdfrwt beam="2">  1       -2 0.79013770E-01 0.26813915E+04</pdfrwt>
<totfact> 0.10159126E+00</totfact>
</mgrwt>
</event>
<event>
12    1  0.1518126E-007  0.2187320E+04  0.7818608E-02  0.8523724E-01
          1   -1    0    0  501    0  0.00000000000E+00  0.00000000000E+00  0.92267380133E+03  0.92267380133E+03  0.00000000000E+00 0. -1.
         -1   -1    0    0    0  501 -0.00000000000E+00 -0.00000000000E+00 -0.12963328490E+04  0.12963328490E+04  0.00000000000E+00 0.  1.
         23    2    1    2    0    0 -0.19930511737E+03 -0.48909310646E+03 -0.89831106436E+03  0.10460556789E+04  0.91296869269E+02 0.  0.
        254    2    1    2    0    0  0.19930511737E+03  0.48909310646E+03  0.52465201665E+03  0.11729509715E+04  0.90643237275E+03 0.  0.
        -24    2    4    4    0    0  0.16829877444E+03  0.48093749133E+03  0.76194652107E+03  0.92002073298E+03  0.79058839388E+02 0.  0.
         24    2    4    4    0    0  0.31006342924E+02  0.81556151303E+01 -0.23729450443E+03  0.25293023852E+03  0.81468499226E+02 0.  0.
         13    1    3    3    0    0 -0.19271386409E+03 -0.38277100688E+03 -0.74281309642E+03  0.85756840738E+03  0.00000000000E+00 0.  1.
        -13    1    3    3    0    0 -0.65912532739E+01 -0.10632209958E+03 -0.15549796794E+03  0.18848727149E+03  0.00000000000E+00 0. -1.
          4    1    6    6  502    0  0.13087814296E+02  0.34630000882E+02 -0.20177550832E+03  0.20514356827E+03  0.00000000000E+00 0. -1.
          3    1    5    5  503    0  0.18294919137E+01  0.98532124827E+02  0.14297678108E+03  0.17364989661E+03  0.00000000000E+00 0. -1.
         -4    1    5    5    0  503  0.16646928253E+03  0.38240536651E+03  0.61896974000E+03  0.74637083637E+03  0.00000000000E+00 0.  1.
         -3    1    6    6    0  502  0.17918528628E+02 -0.26474385752E+02 -0.35518996107E+02  0.47786670250E+02  0.00000000000E+00 0.  1.
<mgrwt>
<rscale>  0 0.21873201E+04</rscale>
<asrwt>0</asrwt>
<pdfrwt beam="1">  1        1 0.14194982E+00 0.21873201E+04</pdfrwt>
<pdfrwt beam="2">  1       -1 0.19943582E+00 0.21873201E+04</pdfrwt>
<totfact> 0.24168096E+00</totfact>
</mgrwt>
</event>
<event>
12    1  0.1518126E-007  0.1604573E+04  0.7818608E-02  0.8817744E-01
         -2   -1    0    0    0  501 -0.00000000000E+00  0.00000000000E+00  0.42272224296E+03  0.42272224296E+03  0.00000000000E+00 0.  1.
          2   -1    0    0  501    0  0.00000000000E+00 -0.00000000000E+00 -0.15226627046E+04  0.15226627046E+04  0.00000000000E+00 0. -1.
         23    2    1    2    0    0  0.11018405406E+03  0.37323209947E+03  0.83632503375E+02  0.40744210511E+03  0.87016938298E+02 0.  0.
        254    2    1    2    0    0 -0.11018405406E+03 -0.37323209947E+03 -0.11835729650E+04  0.15379428425E+04  0.90165431144E+03 0.  0.
        -24    2    4    4    0    0 -0.75801452513E+02 -0.54378500312E+03 -0.12223569976E+04  0.13424449879E+04  0.80956320944E+02 0.  0.
         24    2    4    4    0    0 -0.34382601549E+02  0.17055290365E+03  0.38784032604E+02  0.19549785463E+03  0.80279223635E+02 0.  0.
         13    1    3    3    0    0  0.20888017773E+02  0.17720225975E+03  0.69775026993E+02  0.19158680680E+03  0.00000000000E+00 0.  1.
        -13    1    3    3    0    0  0.89296036289E+02  0.19602983971E+03  0.13857476382E+02  0.21585529831E+03  0.00000000000E+00 0. -1.
          4    1    6    6  502    0 -0.51071876580E+02  0.10916143521E+03  0.50741917335E+02  0.13076428292E+03  0.00000000000E+00 0. -1.
          1    1    5    5  503    0 -0.18188585343E+02 -0.38811565646E+03 -0.88080087049E+03  0.96269141519E+03  0.00000000000E+00 0. -1.
         -2    1    5    5    0  503 -0.57612867170E+02 -0.15566934667E+03 -0.34155612715E+03  0.37975357266E+03  0.00000000000E+00 0.  1.
         -3    1    6    6    0  502  0.16689275031E+02  0.61391468446E+02 -0.11957884730E+02  0.64733571709E+02  0.00000000000E+00 0.  1.
<mgrwt>
<rscale>  0 0.16045727E+04</rscale>
<asrwt>0</asrwt>
<pdfrwt beam="1">  1        2 0.23425580E+00 0.16045727E+04</pdfrwt>
<pdfrwt beam="2">  1       -2 0.65034191E-01 0.16045727E+04</pdfrwt>
<totfact> 0.25762165E+01</totfact>
</mgrwt>
</event>
<event>
12    1  0.1518126E-007  0.3171969E+04  0.7818608E-02  0.8196259E-01
         -2   -1    0    0    0  501 -0.00000000000E+00  0.00000000000E+00  0.12100861806E+04  0.12100861806E+04  0.00000000000E+00 0.  1.
          2   -1    0    0  501    0  0.00000000000E+00 -0.00000000000E+00 -0.20786515942E+04  0.20786515942E+04  0.00000000000E+00 0. -1.
         23    2    1    2    0    0  0.53309703547E+02 -0.10895887211E+04  0.60587054060E+03  0.12511223828E+04  0.90457719461E+02 0.  0.
        254    2    1    2    0    0 -0.53309703547E+02  0.10895887211E+04 -0.14744359541E+04  0.20376153920E+04  0.88762018743E+03 0.  0.
        -24    2    4    4    0    0  0.14778766836E+01 -0.21548994822E+02  0.85636026404E+02  0.11992176672E+03  0.81124335549E+02 0.  0.
         24    2    4    4    0    0 -0.54787580230E+02  0.11111377160E+04 -0.15600719805E+04  0.19176936253E+04  0.78074023705E+02 0.  0.
         11    1    3    3    0    0  0.88873581545E+01 -0.26102941965E+03  0.19007001279E+03  0.32302005018E+03  0.00000000000E+00 0. -1.
        -11    1    3    3    0    0  0.44422345392E+02 -0.82855930149E+03  0.41580052782E+03  0.92810233261E+03  0.00000000000E+00 0.  1.
          4    1    6    6  502    0 -0.39592846624E+02  0.68604281335E+03 -0.10272182961E+04  0.12358801572E+04  0.00000000000E+00 0. -1.
          3    1    5    5  503    0  0.30793102811E+02  0.63165811166E+01  0.69680026391E+02  0.76442268776E+02  0.00000000000E+00 0. -1.
         -4    1    5    5    0  503 -0.29315226128E+02 -0.27865575938E+02  0.15956000013E+02  0.43479497947E+02  0.00000000000E+00 0.  1.
         -3    1    6    6    0  502 -0.15194733606E+02  0.42509490261E+03 -0.53285368447E+03  0.68181346805E+03  0.00000000000E+00 0.  1.
<mgrwt>
<rscale>  0 0.31719695E+04</rscale>
<asrwt>0</asrwt>
<pdfrwt beam="1">  1        2 0.31979255E+00 0.31719695E+04</pdfrwt>
<pdfrwt beam="2">  1       -2 0.18616711E+00 0.31719695E+04</pdfrwt>
<totfact> 0.83866026E-01</totfact>
</mgrwt>
</event>
<event>
12    1  0.1518126E-007  0.1146658E+04  0.7818608E-02  0.9160872E-01
          2   -1    0    0  501    0  0.00000000000E+00  0.00000000000E+00  0.22513331072E+04  0.22513331072E+04  0.00000000000E+00 0.  1.
         -2   -1    0    0    0  501 -0.00000000000E+00 -0.00000000000E+00 -0.14600523807E+03  0.14600523807E+03  0.00000000000E+00 0. -1.
         23    2    1    2    0    0 -0.12188138744E+03  0.15821107518E+03  0.39615923254E+03  0.45278498202E+03  0.90478094062E+02 0.  0.
        254    2    1    2    0    0  0.12188138744E+03 -0.15821107518E+03  0.17091686366E+04  0.19445533633E+04  0.90561831767E+03 0.  0.
        -24    2    4    4    0    0 -0.30097224392E+03 -0.28600633266E+03  0.50068248785E+03  0.65533466357E+03  0.79979082900E+02 0.  0.
         24    2    4    4    0    0  0.42285363137E+03  0.12779525748E+03  0.12084861487E+04  0.12892186997E+04  0.80680000663E+02 0.  0.
         13    1    3    3    0    0 -0.11022895877E+02  0.52761430234E+02  0.18041993073E+03  0.18829929410E+03  0.00000000000E+00 0.  1.
        -13    1    3    3    0    0 -0.11085849156E+03  0.10544964495E+03  0.21573930181E+03  0.26448568792E+03  0.00000000000E+00 0. -1.
          4    1    6    6  502    0  0.35651599451E+02 -0.98464614783E+01  0.12755950127E+03  0.13281346209E+03  0.00000000000E+00 0. -1.
          3    1    5    5  503    0 -0.10588446896E+03 -0.58593516161E+02  0.17527792706E+03  0.21299547558E+03  0.00000000000E+00 0. -1.
         -4    1    5    5    0  503 -0.19508777496E+03 -0.22741281650E+03  0.32540456080E+03  0.44233918800E+03  0.00000000000E+00 0.  1.
         -3    1    6    6    0  502  0.38720203191E+03  0.13764171896E+03  0.10809266475E+04  0.11564052376E+04  0.00000000000E+00 0.  1.
<mgrwt>
<rscale>  0 0.11466585E+04</rscale>
<asrwt>0</asrwt>
<pdfrwt beam="1">  1        2 0.34635891E+00 0.11466585E+04</pdfrwt>
<pdfrwt beam="2">  1       -2 0.22462346E-01 0.11466585E+04</pdfrwt>
<totfact> 0.83562167E+01</totfact>
</mgrwt>
</event>
<event>
12    1  0.1518126E-007  0.2857186E+04  0.7818608E-02  0.8285731E-01
          1   -1    0    0  501    0  0.00000000000E+00  0.00000000000E+00  0.15194890820E+04  0.15194890820E+04  0.00000000000E+00 0. -1.
         -1   -1    0    0    0  501 -0.00000000000E+00 -0.00000000000E+00 -0.13431344502E+04  0.13431344502E+04  0.00000000000E+00 0.  1.
         23    2    1    2    0    0  0.23415939736E+03  0.34573443756E+03  0.12932424990E+04  0.13627300382E+04  0.10096569255E+03 0.  0.
        254    2    1    2    0    0 -0.23415939736E+03 -0.34573443756E+03 -0.11168878673E+04  0.14998934940E+04  0.90987859663E+03 0.  0.
        -24    2    4    4    0    0 -0.36453702590E+03 -0.39764753026E+03 -0.21864045792E+03  0.58761876719E+03  0.80506919828E+02 0.  0.
         24    2    4    4    0    0  0.13037762854E+03  0.51913092702E+02 -0.89824740937E+03  0.91227472683E+03  0.75521344985E+02 0.  0.
         11    1    3    3    0    0  0.25435366131E+02  0.22066756731E+00  0.62408306180E+02  0.67392901887E+02  0.00000000000E+00 0.  1.
        -11    1    3    3    0    0  0.20872403123E+03  0.34551376999E+03  0.12308341929E+04  0.12953371363E+04  0.00000000000E+00 0. -1.
          2    1    6    6  502    0  0.10526996119E+03  0.11785814112E+02 -0.72417782029E+03  0.73188399733E+03  0.00000000000E+00 0. -1.
          3    1    5    5  503    0 -0.18065505675E+03 -0.15090077599E+03 -0.68092586478E+02  0.24503855627E+03  0.00000000000E+00 0. -1.
         -4    1    5    5    0  503 -0.18388196915E+03 -0.24674675427E+03 -0.15054787144E+03  0.34258021093E+03  0.00000000000E+00 0.  1.
         -1    1    6    6    0  502  0.25107667351E+02  0.40127278590E+02 -0.17406958908E+03  0.18039072950E+03  0.00000000000E+00 0.  1.
<mgrwt>
<rscale>  0 0.28571861E+04</rscale>
<asrwt>0</asrwt>
<pdfrwt beam="1">  1        1 0.23376755E+00 0.28571861E+04</pdfrwt>
<pdfrwt beam="2">  1       -1 0.20663607E+00 0.28571861E+04</pdfrwt>
<totfact> 0.74038412E-01</totfact>
</mgrwt>
</event>
<event>
12    1  0.1518126E-007  0.1809635E+04  0.7818608E-02  0.8701192E-01
          1   -1    0    0  501    0  0.00000000000E+00  0.00000000000E+00  0.16560615057E+04  0.16560615057E+04  0.00000000000E+00 0. -1.
         -1   -1    0    0    0  501 -0.00000000000E+00 -0.00000000000E+00 -0.49436249477E+03  0.49436249477E+03  0.00000000000E+00 0.  1.
         23    2    1    2    0    0  0.49780667789E+03 -0.45398011723E+03  0.38854734277E+03  0.78321673653E+03  0.92466120394E+02 0.  0.
        254    2    1    2    0    0 -0.49780667789E+03  0.45398011723E+03  0.77315166821E+03  0.13672072640E+04  0.90420283412E+03 0.  0.
        -24    2    4    4    0    0  0.23404436003E+02 -0.19328468602E+03  0.39883217467E+03  0.45190069531E+03  0.85090524682E+02 0.  0.
         24    2    4    4    0    0 -0.52121111389E+03  0.64726480325E+03  0.37431949354E+03  0.91530656868E+03  0.84013574145E+02 0.  0.
         13    1    3    3    0    0  0.13561365437E+03 -0.14604979243E+03  0.71252176451E+02  0.21165650892E+03  0.00000000000E+00 0.  1.
        -13    1    3    3    0    0  0.36219302352E+03 -0.30793032481E+03  0.31729516632E+03  0.57156022761E+03  0.00000000000E+00 0. -1.
          2    1    6    6  502    0 -0.78132347601E+02  0.75282804969E+02  0.22609611211E+02  0.11083031618E+03  0.00000000000E+00 0. -1.
          1    1    5    5  503    0 -0.10256610517E+02 -0.79178229801E+02  0.24343118384E+03  0.25618963953E+03  0.00000000000E+00 0. -1.
         -2    1    5    5    0  503  0.33661046520E+02 -0.11410645622E+03  0.15540099083E+03  0.19571105578E+03  0.00000000000E+00 0.  1.
         -1    1    6    6    0  502 -0.44307876629E+03  0.57198199829E+03  0.35170988233E+03  0.80447625249E+03  0.00000000000E+00 0.  1.
<mgrwt>
<rscale>  0 0.18096350E+04</rscale>
<asrwt>0</asrwt>
<pdfrwt beam="1">  1        1 0.25477869E+00 0.18096350E+04</pdfrwt>
<pdfrwt beam="2">  1       -1 0.76055769E-01 0.18096350E+04</pdfrwt>
<totfact> 0.83598112E+00</totfact>
</mgrwt>
</event>
<event>
12    1  0.1518126E-007  0.2435570E+04  0.7818608E-02  0.8426305E-01
          1   -1    0    0  501    0  0.00000000000E+00  0.00000000000E+00  0.19224539666E+04  0.19224539666E+04  0.00000000000E+00 0. -1.
         -1   -1    0    0    0  501 -0.00000000000E+00 -0.00000000000E+00 -0.77141006671E+03  0.77141006671E+03  0.00000000000E+00 0.  1.
         23    2    1    2    0    0 -0.32641733628E+03  0.78298788413E+03 -0.18706703063E+03  0.87338211474E+03  0.90465132917E+02 0.  0.
        254    2    1    2    0    0  0.32641733628E+03 -0.78298788413E+03  0.13381109305E+04  0.18204819186E+04  0.89665782176E+03 0.  0.
        -24    2    4    4    0    0  0.14400727656E+03  0.11074550395E+02 -0.79363281408E+02  0.18377089474E+03  0.81317095059E+02 0.  0.
         24    2    4    4    0    0  0.18241005972E+03 -0.79406243453E+03  0.14174742120E+04  0.16367110238E+04  0.76034559149E+02 0.  0.
         13    1    3    3    0    0 -0.58220289109E+02  0.71077693784E+02 -0.11135787704E+02  0.92550777335E+02  0.00000000000E+00 0. -1.
        -13    1    3    3    0    0 -0.26819704717E+03  0.71191019035E+03 -0.17593124293E+03  0.78083133741E+03  0.00000000000E+00 0.  1.
          4    1    6    6  502    0  0.18006605401E+03 -0.77966668246E+03  0.14074336332E+04  0.16190038145E+04  0.00000000000E+00 0. -1.
          1    1    5    5  503    0  0.13412452569E+03 -0.17719742404E+02 -0.65811435631E+02  0.15044774083E+03  0.00000000000E+00 0. -1.
         -2    1    5    5    0  503  0.98827508792E+01  0.28794292799E+02 -0.13551845778E+02  0.33323153913E+02  0.00000000000E+00 0.  1.
         -3    1    6    6    0  502  0.23440057070E+01 -0.14395752075E+02  0.10040578759E+02  0.17707209333E+02  0.00000000000E+00 0.  1.
<mgrwt>
<rscale>  0 0.24355700E+04</rscale>
<asrwt>0</asrwt>
<pdfrwt beam="1">  1        1 0.29576215E+00 0.24355700E+04</pdfrwt>
<pdfrwt beam="2">  1       -1 0.11867847E+00 0.24355700E+04</pdfrwt>
<totfact> 0.19113728E+00</totfact>
</mgrwt>
</event>
<event>
12    1  0.1518126E-007  0.2399360E+04  0.7818608E-02  0.8439743E-01
          2   -1    0    0  501    0  0.00000000000E+00  0.00000000000E+00  0.32978475721E+04  0.32978475721E+04  0.00000000000E+00 0. -1.
         -2   -1    0    0    0  501 -0.00000000000E+00 -0.00000000000E+00 -0.43641555505E+03  0.43641555505E+03  0.00000000000E+00 0.  1.
         23    2    1    2    0    0 -0.33229228840E+03  0.37064391778E+03 -0.16954158118E+03  0.53365265378E+03  0.90805993302E+02 0.  0.
        254    2    1    2    0    0  0.33229228840E+03 -0.37064391778E+03  0.30309735983E+04  0.32006104734E+04  0.89961734665E+03 0.  0.
        -24    2    4    4    0    0  0.57291205480E+03 -0.43944188318E+03  0.17866659742E+04  0.19287145671E+04  0.80169736116E+02 0.  0.
         24    2    4    4    0    0 -0.24061976641E+03  0.68797965398E+02  0.12443076240E+04  0.12718959063E+04  0.82381437599E+02 0.  0.
         13    1    3    3    0    0 -0.12152001319E+03  0.88175256009E+02 -0.79519219980E+02  0.16989789794E+03  0.00000000000E+00 0.  1.
        -13    1    3    3    0    0 -0.21077227520E+03  0.28246866177E+03 -0.90022361198E+02  0.36375475584E+03  0.00000000000E+00 0. -1.
          4    1    6    6  502    0 -0.56603018141E+02  0.50192210278E+02  0.28174182602E+03  0.29172181297E+03  0.00000000000E+00 0. -1.
          3    1    5    5  503    0  0.55310293182E+03 -0.43212976664E+03  0.17593109601E+04  0.18941578716E+04  0.00000000000E+00 0. -1.
         -4    1    5    5    0  503  0.19809122980E+02 -0.73121165365E+01  0.27355014144E+02  0.34556695448E+02  0.00000000000E+00 0.  1.
         -3    1    6    6    0  502 -0.18401674827E+03  0.18605755121E+02  0.96256579801E+03  0.98017409335E+03  0.00000000000E+00 0.  1.
<mgrwt>
<rscale>  0 0.23993599E+04</rscale>
<asrwt>0</asrwt>
<pdfrwt beam="1">  1        2 0.50736115E+00 0.23993599E+04</pdfrwt>
<pdfrwt beam="2">  1       -2 0.67140857E-01 0.23993599E+04</pdfrwt>
<totfact> 0.20482463E+00</totfact>
</mgrwt>
</event>
<event>
12    1  0.1518126E-007  0.1654023E+04  0.7818608E-02  0.8788030E-01
          1   -1    0    0  501    0  0.00000000000E+00  0.00000000000E+00  0.24229523783E+04  0.24229523783E+04  0.00000000000E+00 0. -1.
         -1   -1    0    0    0  501 -0.00000000000E+00 -0.00000000000E+00 -0.28227878322E+03  0.28227878322E+03  0.00000000000E+00 0.  1.
         23    2    1    2    0    0 -0.31366426769E+03  0.39964480511E+03  0.12071557437E+04  0.13129149843E+04  0.91757960626E+02 0.  0.
        254    2    1    2    0    0  0.31366426769E+03 -0.39964480511E+03  0.93351785145E+03  0.13923161773E+04  0.89943733273E+03 0.  0.
        -24    2    4    4    0    0  0.39807295440E+03 -0.95001183445E+02  0.14498974233E+02  0.41702392568E+03  0.78812641489E+02 0.  0.
         24    2    4    4    0    0 -0.84408686702E+02 -0.30464362167E+03  0.91901887721E+03  0.97529225162E+03  0.81649964947E+02 0.  0.
         11    1    3    3    0    0 -0.26204826225E+03  0.37250863515E+03  0.10244520482E+04  0.11211306677E+04  0.00000000000E+00 0. -1.
        -11    1    3    3    0    0 -0.51616005445E+02  0.27136169962E+02  0.18270369544E+03  0.19178431653E+03  0.00000000000E+00 0.  1.
          4    1    6    6  502    0 -0.93853225088E+02 -0.22180981808E+03  0.72995425157E+03  0.76866197554E+03  0.00000000000E+00 0. -1.
          1    1    5    5  503    0  0.39300191075E+03 -0.88773337257E+02  0.28976152030E+01  0.40291389084E+03  0.00000000000E+00 0. -1.
         -2    1    5    5    0  503  0.50710436494E+01 -0.62278461881E+01  0.11601359030E+02  0.14110034840E+02  0.00000000000E+00 0.  1.
         -3    1    6    6    0  502  0.94445383854E+01 -0.82833803584E+02  0.18906462564E+03  0.20663027608E+03  0.00000000000E+00 0.  1.
<mgrwt>
<rscale>  0 0.16540230E+04</rscale>
<asrwt>0</asrwt>
<pdfrwt beam="1">  1        1 0.37276189E+00 0.16540230E+04</pdfrwt>
<pdfrwt beam="2">  1       -1 0.43427507E-01 0.16540230E+04</pdfrwt>
<totfact> 0.76688805E+00</totfact>
</mgrwt>
</event>
<event>
12    1  0.1518126E-007  0.1461375E+04  0.7818608E-02  0.8910553E-01
         -2   -1    0    0    0  501 -0.00000000000E+00  0.00000000000E+00  0.92346385224E+03  0.92346385224E+03  0.00000000000E+00 0.  1.
          2   -1    0    0  501    0  0.00000000000E+00 -0.00000000000E+00 -0.57815361241E+03  0.57815361241E+03  0.00000000000E+00 0. -1.
         23    2    1    2    0    0  0.18922518397E+03  0.23762163202E+03  0.44001171121E+03  0.54300850143E+03  0.94750811966E+02 0.  0.
        254    2    1    2    0    0 -0.18922518397E+03 -0.23762163202E+03 -0.94701471379E+02  0.95860896323E+03  0.90426354867E+03 0.  0.
        -24    2    4    4    0    0 -0.13737582351E+03 -0.31885593870E+03 -0.45445838783E+03  0.57769735808E+03  0.81612405545E+02 0.  0.
         24    2    4    4    0    0 -0.51849360463E+02  0.81234306679E+02  0.35975691645E+03  0.38091160515E+03  0.79882684233E+02 0.  0.
         13    1    3    3    0    0  0.11978635707E+03  0.12813717628E+03  0.17392727570E+03  0.24701944157E+03  0.00000000000E+00 0.  1.
        -13    1    3    3    0    0  0.69438826904E+02  0.10948445574E+03  0.26608443551E+03  0.29598905985E+03  0.00000000000E+00 0. -1.
          4    1    6    6  502    0 -0.20612875904E+02  0.89057259256E+02  0.29032580941E+03  0.30437667731E+03  0.00000000000E+00 0. -1.
          1    1    5    5  503    0 -0.14582964772E+03 -0.29103003067E+03 -0.39781720614E+03  0.51402655029E+03  0.00000000000E+00 0. -1.
         -4    1    5    5    0  503  0.84538242089E+01 -0.27825908032E+02 -0.56641181691E+02  0.63670807792E+02  0.00000000000E+00 0.  1.
         -3    1    6    6    0  502 -0.31236484559E+02 -0.78229525768E+01  0.69431107037E+02  0.76534927837E+02  0.00000000000E+00 0.  1.
<mgrwt>
<rscale>  0 0.14613746E+04</rscale>
<asrwt>0</asrwt>
<pdfrwt beam="1">  1        2 0.88946709E-01 0.14613746E+04</pdfrwt>
<pdfrwt beam="2">  1       -2 0.14207136E+00 0.14613746E+04</pdfrwt>
<totfact> 0.17360865E+01</totfact>
</mgrwt>
</event>
<event>
12    1  0.1518126E-007  0.2109793E+04  0.7818608E-02  0.8556942E-01
          2   -1    0    0  501    0  0.00000000000E+00  0.00000000000E+00  0.20707508534E+04  0.20707508534E+04  0.00000000000E+00 0. -1.
         -2   -1    0    0    0  501 -0.00000000000E+00 -0.00000000000E+00 -0.53739294609E+03  0.53739294609E+03  0.00000000000E+00 0.  1.
         23    2    1    2    0    0 -0.54154504481E+03  0.64462982806E+03  0.83682265237E+03  0.11905646729E+04  0.91397144257E+02 0.  0.
        254    2    1    2    0    0  0.54154504481E+03 -0.64462982806E+03  0.69653525495E+03  0.14175791266E+04  0.90307838424E+03 0.  0.
        -24    2    4    4    0    0  0.60514507639E+03 -0.27978072656E+03  0.55656927985E+02  0.67307190685E+03  0.73826009842E+02 0.  0.
         24    2    4    4    0    0 -0.63600031576E+02 -0.36484910150E+03  0.64087832696E+03  0.74450721978E+03  0.80038362359E+02 0.  0.
         13    1    3    3    0    0 -0.33526376222E+03  0.45252650617E+03  0.59361463463E+03  0.81826668238E+03  0.00000000000E+00 0. -1.
        -13    1    3    3    0    0 -0.20628128260E+03  0.19210332190E+03  0.24320801773E+03  0.37229799049E+03  0.00000000000E+00 0.  1.
          4    1    6    6  502    0 -0.65349779814E+02 -0.30858190672E+03  0.58805873344E+03  0.66731286579E+03  0.00000000000E+00 0. -1.
          3    1    5    5  503    0  0.34024654608E+03 -0.19458096320E+03  0.45945048704E+02  0.39463959616E+03  0.00000000000E+00 0. -1.
         -4    1    5    5    0  503  0.26489853031E+03 -0.85199763359E+02  0.97118792810E+01  0.27843231069E+03  0.00000000000E+00 0.  1.
         -3    1    6    6    0  502  0.17497482382E+01 -0.56267194779E+02  0.52819593519E+02  0.77194353982E+02  0.00000000000E+00 0.  1.
<mgrwt>
<rscale>  0 0.21097933E+04</rscale>
<asrwt>0</asrwt>
<pdfrwt beam="1">  1        2 0.31857705E+00 0.21097933E+04</pdfrwt>
<pdfrwt beam="2">  1       -2 0.82675839E-01 0.21097933E+04</pdfrwt>
<totfact> 0.72088317E+00</totfact>
</mgrwt>
</event>
<event>
12    1  0.1518126E-007  0.1985711E+04  0.7818608E-02  0.8613330E-01
          1   -1    0    0  501    0  0.00000000000E+00  0.00000000000E+00  0.79178566099E+03  0.79178566099E+03  0.00000000000E+00 0. -1.
         -1   -1    0    0    0  501 -0.00000000000E+00 -0.00000000000E+00 -0.12449862421E+04  0.12449862421E+04  0.00000000000E+00 0.  1.
         23    2    1    2    0    0  0.63746604808E+03  0.28423311480E+03 -0.55359918825E+03  0.89586987746E+03  0.94653843607E+02 0.  0.
        254    2    1    2    0    0 -0.63746604808E+03 -0.28423311480E+03  0.10039860710E+03  0.11409020257E+04  0.89689805766E+03 0.  0.
        -24    2    4    4    0    0  0.19203044019E+03  0.59304076906E+02  0.10356567409E+03  0.23952209983E+03  0.79071638133E+02 0.  0.
         24    2    4    4    0    0 -0.82949648827E+03 -0.34353719171E+03 -0.31670669896E+01  0.90137992583E+03  0.79959453676E+02 0.  0.
         11    1    3    3    0    0  0.39918222712E+03  0.21524259382E+03 -0.39515345431E+03  0.60151648115E+03  0.00000000000E+00 0.  1.
        -11    1    3    3    0    0  0.23828382096E+03  0.68990520982E+02 -0.15844573394E+03  0.29435339631E+03  0.00000000000E+00 0. -1.
          2    1    6    6  502    0 -0.32678707446E+03 -0.11562846551E+03  0.33180713485E+02  0.34822506202E+03  0.00000000000E+00 0. -1.
          3    1    5    5  503    0  0.12285220671E+00 -0.97926191749E+01  0.13191344814E+02  0.16429304945E+02  0.00000000000E+00 0. -1.
         -4    1    5    5    0  503  0.19190758799E+03  0.69096696080E+02  0.90374329280E+02  0.22309279488E+03  0.00000000000E+00 0.  1.
         -1    1    6    6    0  502 -0.50270941381E+03 -0.22790872620E+03 -0.36347780475E+02  0.55315486381E+03  0.00000000000E+00 0.  1.
<mgrwt>
<rscale>  0 0.19857112E+04</rscale>
<asrwt>0</asrwt>
<pdfrwt beam="1">  1        1 0.12181318E+00 0.19857112E+04</pdfrwt>
<pdfrwt beam="2">  1       -1 0.19153635E+00 0.19857112E+04</pdfrwt>
<totfact> 0.35983697E+00</totfact>
</mgrwt>
</event>
<event>
12    1  0.1518126E-007  0.1133831E+04  0.7818608E-02  0.9172831E-01
         -2   -1    0    0    0  501 -0.00000000000E+00  0.00000000000E+00  0.17826613192E+03  0.17826613192E+03  0.00000000000E+00 0.  1.
          2   -1    0    0  501    0  0.00000000000E+00 -0.00000000000E+00 -0.18028836251E+04  0.18028836251E+04  0.00000000000E+00 0. -1.
         23    2    1    2    0    0  0.43073241248E+02 -0.16144258806E+03 -0.12989897069E+03  0.23054363084E+03  0.91419963822E+02 0.  0.
        254    2    1    2    0    0 -0.43073241248E+02  0.16144258806E+03 -0.14947185225E+04  0.17506061262E+04  0.89583443456E+03 0.  0.
        -24    2    4    4    0    0 -0.38203902046E+03  0.28338504529E+03 -0.52593517344E+03  0.71383176582E+03  0.81774606012E+02 0.  0.
         24    2    4    4    0    0  0.33896577921E+03 -0.12194245723E+03 -0.96878334905E+03  0.10367743603E+04  0.81191960910E+02 0.  0.
         13    1    3    3    0    0  0.32970114298E+02 -0.49533749821E+02 -0.95489090008E+00  0.59510777383E+02  0.00000000000E+00 0.  1.
        -13    1    3    3    0    0  0.10103126951E+02 -0.11190883824E+03 -0.12894407979E+03  0.17103285346E+03  0.00000000000E+00 0. -1.
          4    1    6    6  502    0  0.15753193145E+03 -0.19002910875E+02 -0.47254961089E+03  0.49847823904E+03  0.00000000000E+00 0. -1.
          3    1    5    5  503    0 -0.23759269113E+03  0.12567158811E+03 -0.29286719485E+03  0.39751079075E+03  0.00000000000E+00 0. -1.
         -4    1    5    5    0  503 -0.14444632933E+03  0.15771345718E+03 -0.23306797858E+03  0.31632097507E+03  0.00000000000E+00 0.  1.
         -3    1    6    6    0  502  0.18143384776E+03 -0.10293954635E+03 -0.49623373816E+03  0.53829612130E+03  0.00000000000E+00 0.  1.
<mgrwt>
<rscale>  0 0.11338308E+04</rscale>
<asrwt>0</asrwt>
<pdfrwt beam="1">  1        2 0.27736670E+00 0.11338308E+04</pdfrwt>
<pdfrwt beam="2">  1       -2 0.27425560E-01 0.11338308E+04</pdfrwt>
<totfact> 0.10321611E+02</totfact>
</mgrwt>
</event>
<event>
12    1  0.1518126E-007  0.1541412E+04  0.7818608E-02  0.8857372E-01
          2   -1    0    0  501    0  0.00000000000E+00  0.00000000000E+00  0.16737331226E+04  0.16737331226E+04  0.00000000000E+00 0. -1.
         -2   -1    0    0    0  501 -0.00000000000E+00 -0.00000000000E+00 -0.35488793193E+03  0.35488793193E+03  0.00000000000E+00 0.  1.
         23    2    1    2    0    0  0.35930656610E+03 -0.24186710357E+03  0.15149284326E+03  0.46809227144E+03  0.92516964894E+02 0.  0.
        254    2    1    2    0    0 -0.35930656610E+03  0.24186710357E+03  0.11673523474E+04  0.15605287831E+04  0.94071126048E+03 0.  0.
        -24    2    4    4    0    0 -0.26057721928E+03  0.46358407679E+02 -0.84523729362E+02  0.28712290539E+03  0.72427293219E+02 0.  0.
         24    2    4    4    0    0 -0.98729346822E+02  0.19550869589E+03  0.12518760768E+04  0.12734058777E+04  0.79985521523E+02 0.  0.
         11    1    3    3    0    0  0.34972851494E+03 -0.22469647836E+03  0.12305920898E+03  0.43352290651E+03  0.00000000000E+00 0.  1.
        -11    1    3    3    0    0  0.95780511616E+01 -0.17170625203E+02  0.28433634272E+02  0.34569364933E+02  0.00000000000E+00 0. -1.
          4    1    6    6  502    0  0.12394102162E+02  0.40493080187E+02  0.21390178443E+03  0.21805338038E+03  0.00000000000E+00 0. -1.
          3    1    5    5  503    0 -0.15986464433E+03  0.17541362219E+02 -0.15272853649E+02  0.16154771417E+03  0.00000000000E+00 0. -1.
         -2    1    5    5    0  503 -0.10071257495E+03  0.28817045460E+02 -0.69250875714E+02  0.12557519122E+03  0.00000000000E+00 0.  1.
         -3    1    6    6    0  502 -0.11112344898E+03  0.15501561570E+03  0.10379742923E+04  0.10553524973E+04  0.00000000000E+00 0.  1.
<mgrwt>
<rscale>  0 0.15414119E+04</rscale>
<asrwt>0</asrwt>
<pdfrwt beam="1">  1        2 0.25749740E+00 0.15414119E+04</pdfrwt>
<pdfrwt beam="2">  1       -2 0.54598144E-01 0.15414119E+04</pdfrwt>
<totfact> 0.30836241E+01</totfact>
</mgrwt>
</event>
<event>
12    1  0.1518126E-007  0.1965892E+04  0.7818608E-02  0.8622735E-01
         -1   -1    0    0    0  501 -0.00000000000E+00  0.00000000000E+00  0.70273926387E+03  0.70273926387E+03  0.00000000000E+00 0.  1.
          1   -1    0    0  501    0  0.00000000000E+00 -0.00000000000E+00 -0.13748814390E+04  0.13748814390E+04  0.00000000000E+00 0. -1.
         23    2    1    2    0    0  0.49033649394E+03 -0.50759579042E+03 -0.60113883905E+03  0.93166996306E+03  0.92507580817E+02 0.  0.
        254    2    1    2    0    0 -0.49033649394E+03  0.50759579042E+03 -0.71003336040E+02  0.11459507398E+04  0.90004347701E+03 0.  0.
        -24    2    4    4    0    0 -0.62841524989E+03  0.64243026367E+03  0.52319407093E+02  0.90361359929E+03  0.78471947149E+02 0.  0.
         24    2    4    4    0    0  0.13807875595E+03 -0.13483447325E+03 -0.12332274313E+03  0.24233714047E+03  0.79200458682E+02 0.  0.
         11    1    3    3    0    0  0.72860853444E+02 -0.81990480874E+02 -0.14063034426E+03  0.17834807721E+03  0.00000000000E+00 0. -1.
        -11    1    3    3    0    0  0.41747564050E+03 -0.42560530954E+03 -0.46050849479E+03  0.75332188585E+03  0.00000000000E+00 0.  1.
          4    1    6    6  502    0  0.96270097662E+01 -0.36772634292E+01 -0.38959563291E+02  0.40299493237E+02  0.00000000000E+00 0. -1.
          3    1    5    5  503    0 -0.17890642111E+03  0.13561642223E+03  0.55651031618E+01  0.22456689842E+03  0.00000000000E+00 0. -1.
         -4    1    5    5    0  503 -0.44950882879E+03  0.50681384144E+03  0.46754303931E+02  0.67904670087E+03  0.00000000000E+00 0.  1.
         -3    1    6    6    0  502  0.12845174619E+03 -0.13115720982E+03 -0.84363179842E+02  0.20203764723E+03  0.00000000000E+00 0.  1.
<mgrwt>
<rscale>  0 0.19658923E+04</rscale>
<asrwt>0</asrwt>
<pdfrwt beam="1">  1        1 0.21152022E+00 0.19658923E+04</pdfrwt>
<pdfrwt beam="2">  1       -1 0.10811373E+00 0.19658923E+04</pdfrwt>
<totfact> 0.59190434E+00</totfact>
</mgrwt>
</event>
<event>
12    1  0.1518126E-007  0.1527466E+04  0.7818608E-02  0.8866391E-01
          1   -1    0    0  501    0  0.00000000000E+00  0.00000000000E+00  0.77896993125E+03  0.77896993125E+03  0.00000000000E+00 0. -1.
         -1   -1    0    0    0  501 -0.00000000000E+00 -0.00000000000E+00 -0.74879402778E+03  0.74879402778E+03  0.00000000000E+00 0.  1.
         23    2    1    2    0    0 -0.33273115131E+03  0.90769785559E+02  0.35680820991E+03  0.50481293574E+03  0.92600369365E+02 0.  0.
        254    2    1    2    0    0  0.33273115131E+03 -0.90769785559E+02 -0.32663230643E+03  0.10229510233E+04  0.90597514283E+03 0.  0.
        -24    2    4    4    0    0 -0.22517953062E+03 -0.52810337200E+02  0.14723145587E+03  0.28567162295E+03  0.80227313497E+02 0.  0.
         24    2    4    4    0    0  0.55791068193E+03 -0.37959448359E+02 -0.47386376230E+03  0.73727940035E+03  0.79553756766E+02 0.  0.
         13    1    3    3    0    0 -0.32479867437E+03  0.86207311327E+02  0.36229002252E+03  0.49414566659E+03  0.00000000000E+00 0. -1.
        -13    1    3    3    0    0 -0.79324769447E+01  0.45624742320E+01 -0.54818126066E+01  0.10667269147E+02  0.00000000000E+00 0.  1.
          4    1    6    6  502    0  0.55924577338E+03 -0.41522154238E+02 -0.47226079630E+03  0.73315086037E+03  0.00000000000E+00 0. -1.
          3    1    5    5  503    0 -0.11656893178E+03 -0.83619788095E+01  0.11502510738E+03  0.16397869945E+03  0.00000000000E+00 0. -1.
         -4    1    5    5    0  503 -0.10861059885E+03 -0.44448358390E+02  0.32206348489E+02  0.12169292349E+03  0.00000000000E+00 0.  1.
         -3    1    6    6    0  502 -0.13350914455E+01  0.35627058789E+01 -0.16029660006E+01  0.41285399776E+01  0.00000000000E+00 0.  1.
<mgrwt>
<rscale>  0 0.15274659E+04</rscale>
<asrwt>0</asrwt>
<pdfrwt beam="1">  1        1 0.11984153E+00 0.15274659E+04</pdfrwt>
<pdfrwt beam="2">  1       -1 0.11519908E+00 0.15274659E+04</pdfrwt>
<totfact> 0.15227007E+01</totfact>
</mgrwt>
</event>
<event>
12    1  0.1518126E-007  0.1776971E+04  0.7818608E-02  0.8718643E-01
          1   -1    0    0  501    0  0.00000000000E+00  0.00000000000E+00  0.54623992556E+03  0.54623992556E+03  0.00000000000E+00 0. -1.
         -1   -1    0    0    0  501 -0.00000000000E+00 -0.00000000000E+00 -0.14451643460E+04  0.14451643460E+04  0.00000000000E+00 0.  1.
         23    2    1    2    0    0  0.18133380126E+03 -0.19949668398E+03 -0.99553283403E+03  0.10354417558E+04  0.91504817974E+02 0.  0.
        254    2    1    2    0    0 -0.18133380126E+03  0.19949668398E+03  0.96608413593E+02  0.95596251571E+03  0.91205826101E+03 0.  0.
        -24    2    4    4    0    0  0.31597031485E+02  0.52599697137E+03  0.15162830791E+03  0.55408633448E+03  0.79682720848E+02 0.  0.
         24    2    4    4    0    0 -0.21293083275E+03 -0.32650028739E+03 -0.55019894316E+02  0.40187618124E+03  0.80841196648E+02 0.  0.
         11    1    3    3    0    0  0.14384350783E+03 -0.13926500368E+03 -0.57246998759E+03  0.60647141951E+03  0.00000000000E+00 0.  1.
        -11    1    3    3    0    0  0.37490293432E+02 -0.60231680306E+02 -0.42306284644E+03  0.42897033634E+03  0.00000000000E+00 0. -1.
          4    1    6    6  502    0 -0.66809403593E+02 -0.78210099792E+02 -0.48461983596E+02  0.11370523283E+03  0.00000000000E+00 0. -1.
          3    1    5    5  503    0  0.38851102776E+02  0.12171677382E+03  0.49690050667E+02  0.13708932253E+03  0.00000000000E+00 0. -1.
         -4    1    5    5    0  503 -0.72540712908E+01  0.40428019755E+03  0.10193825724E+03  0.41699701195E+03  0.00000000000E+00 0.  1.
         -3    1    6    6    0  502 -0.14612142915E+03 -0.24829018760E+03 -0.65579107201E+01  0.28817094841E+03  0.00000000000E+00 0.  1.
<mgrwt>
<rscale>  0 0.17769710E+04</rscale>
<asrwt>0</asrwt>
<pdfrwt beam="1">  1        1 0.84036912E-01 0.17769710E+04</pdfrwt>
<pdfrwt beam="2">  1       -1 0.22233298E+00 0.17769710E+04</pdfrwt>
<totfact> 0.39309652E+00</totfact>
</mgrwt>
</event>
<event>
12    1  0.1518126E-007  0.3655339E+04  0.7818608E-02  0.8077932E-01
          1   -1    0    0  501    0  0.00000000000E+00  0.00000000000E+00  0.19176342138E+04  0.19176342138E+04  0.00000000000E+00 0. -1.
         -1   -1    0    0    0  501 -0.00000000000E+00 -0.00000000000E+00 -0.17419253304E+04  0.17419253304E+04  0.00000000000E+00 0.  1.
         23    2    1    2    0    0 -0.14242581962E+04 -0.65199847962E+03 -0.61376647427E+03  0.16850276845E+04  0.94845061722E+02 0.  0.
        254    2    1    2    0    0  0.14242581962E+04  0.65199847962E+03  0.78947535773E+03  0.19745318597E+04  0.90658220680E+03 0.  0.
        -24    2    4    4    0    0  0.14720839980E+04  0.39432157098E+03  0.59231770147E+03  0.16369667371E+04  0.79366495244E+02 0.  0.
         24    2    4    4    0    0 -0.47825801761E+02  0.25767690864E+03  0.19715765626E+03  0.33756512259E+03  0.79964829832E+02 0.  0.
         11    1    3    3    0    0 -0.83293316690E+03 -0.35895185555E+03 -0.40042485405E+03  0.99144548961E+03  0.00000000000E+00 0. -1.
        -11    1    3    3    0    0 -0.59132502931E+03 -0.29304662407E+03 -0.21334162022E+03  0.69358219490E+03  0.00000000000E+00 0.  1.
          2    1    6    6  502    0 -0.31667651153E+02  0.25572901461E+03  0.18691144528E+03  0.31833324901E+03  0.00000000000E+00 0. -1.
          1    1    5    5  503    0  0.67035184584E+03  0.17933734854E+03  0.31217325462E+03  0.76091104782E+03  0.00000000000E+00 0. -1.
         -2    1    5    5    0  503  0.80173215214E+03  0.21498422244E+03  0.28014444685E+03  0.87605568931E+03  0.00000000000E+00 0.  1.
         -1    1    6    6    0  502 -0.16158150608E+02  0.19478940214E+01  0.10246210973E+02  0.19231873583E+02  0.00000000000E+00 0.  1.
<mgrwt>
<rscale>  0 0.36553389E+04</rscale>
<asrwt>0</asrwt>
<pdfrwt beam="1">  1        1 0.29502065E+00 0.36553389E+04</pdfrwt>
<pdfrwt beam="2">  1       -1 0.26798851E+00 0.36553389E+04</pdfrwt>
<totfact> 0.14534202E-01</totfact>
</mgrwt>
</event>
<event>
12    1  0.1518126E-007  0.1863331E+04  0.7818608E-02  0.8673327E-01
         -1   -1    0    0    0  501 -0.00000000000E+00  0.00000000000E+00  0.12844717151E+04  0.12844717151E+04  0.00000000000E+00 0.  1.
          1   -1    0    0  501    0  0.00000000000E+00 -0.00000000000E+00 -0.67576466684E+03  0.67576466684E+03  0.00000000000E+00 0. -1.
         23    2    1    2    0    0 -0.66908795068E+03 -0.72556072885E+02 -0.44992599928E+01  0.67927066447E+03  0.91898437508E+02 0.  0.
        254    2    1    2    0    0  0.66908795068E+03  0.72556072885E+02  0.61320630829E+03  0.12809657175E+04  0.90105944502E+03 0.  0.
        -24    2    4    4    0    0 -0.14958049614E+03  0.22081495946E+02  0.39067234705E+03  0.42654047591E+03  0.80311752287E+02 0.  0.
         24    2    4    4    0    0  0.81866844682E+03  0.50474576939E+02  0.22253396125E+03  0.85442524160E+03  0.88064867245E+02 0.  0.
         11    1    3    3    0    0 -0.80898423975E+02 -0.35270077748E+01  0.29218086424E+02  0.86085372508E+02  0.00000000000E+00 0.  1.
        -11    1    3    3    0    0 -0.58818952670E+03 -0.69029065110E+02 -0.33717346417E+02  0.59318529196E+03  0.00000000000E+00 0. -1.
          2    1    6    6  502    0  0.78996545523E+03  0.33985400964E+02  0.22218954112E+03  0.82132126486E+03  0.00000000000E+00 0. -1.
          1    1    5    5  503    0 -0.13411461315E+03  0.45182745302E+02  0.34725173902E+03  0.37498263984E+03  0.00000000000E+00 0. -1.
         -2    1    5    5    0  503 -0.15465882994E+02 -0.23101249356E+02  0.43420608031E+02  0.51557836071E+02  0.00000000000E+00 0.  1.
         -1    1    6    6    0  502  0.28702991592E+02  0.16489175975E+02  0.34442012103E+00  0.33103976738E+02  0.00000000000E+00 0.  1.
<mgrwt>
<rscale>  0 0.18633310E+04</rscale>
<asrwt>0</asrwt>
<pdfrwt beam="1">  1        1 0.10396380E+00 0.18633310E+04</pdfrwt>
<pdfrwt beam="2">  1       -1 0.19761103E+00 0.18633310E+04</pdfrwt>
<totfact> 0.42160356E+00</totfact>
</mgrwt>
</event>
<event>
12    1  0.1518126E-007  0.5961651E+04  0.7818608E-02  0.7695175E-01
         -1   -1    0    0    0  501 -0.00000000000E+00  0.00000000000E+00  0.25138976344E+04  0.25138976344E+04  0.00000000000E+00 0.  1.
          1   -1    0    0  501    0  0.00000000000E+00 -0.00000000000E+00 -0.35344801466E+04  0.35344801466E+04  0.00000000000E+00 0. -1.
         23    2    1    2    0    0  0.10086797015E+04 -0.20778927354E+03  0.22640495645E+04  0.24896960683E+04  0.10979508035E+03 0.  0.
        254    2    1    2    0    0 -0.10086797015E+04  0.20778927354E+03 -0.32846320767E+04  0.35586817127E+04  0.90266080579E+03 0.  0.
        -24    2    4    4    0    0 -0.77527469179E+02  0.36733882767E+03 -0.60656469749E+03  0.71774095396E+03  0.79265515609E+02 0.  0.
         24    2    4    4    0    0 -0.93115223236E+03 -0.15954955413E+03 -0.26780673792E+04  0.28409407587E+04  0.79993542387E+02 0.  0.
         11    1    3    3    0    0  0.22514676099E+02 -0.22581176684E+02  0.58535354427E+02  0.66657391925E+02  0.00000000000E+00 0. -1.
        -11    1    3    3    0    0  0.98616502544E+03 -0.18520809685E+03  0.22055142101E+04  0.24230386764E+04  0.00000000000E+00 0.  1.
          4    1    6    6  502    0 -0.52943438103E+03 -0.65194473274E+02 -0.16011692600E+04  0.16876889768E+04  0.00000000000E+00 0. -1.
          1    1    5    5  503    0 -0.17898756641E+02  0.19913318316E+03 -0.26062096430E+03  0.32847781836E+03  0.00000000000E+00 0. -1.
         -2    1    5    5    0  503 -0.59628712538E+02  0.16820564452E+03 -0.34594373319E+03  0.38926313560E+03  0.00000000000E+00 0.  1.
         -3    1    6    6    0  502 -0.40171785133E+03 -0.94355080861E+02 -0.10768981192E+04  0.11532517819E+04  0.00000000000E+00 0.  1.
<mgrwt>
<rscale>  0 0.59616512E+04</rscale>
<asrwt>0</asrwt>
<pdfrwt beam="1">  1        1 0.54376617E+00 0.59616512E+04</pdfrwt>
<pdfrwt beam="2">  1       -1 0.38675349E+00 0.59616512E+04</pdfrwt>
<totfact> 0.13835453E-03</totfact>
</mgrwt>
</event>
<event>
12    1  0.1518126E-007  0.1955082E+04  0.7818608E-02  0.8627914E-01
          1   -1    0    0  501    0  0.00000000000E+00  0.00000000000E+00  0.19877087507E+04  0.19877087507E+04  0.00000000000E+00 0. -1.
         -1   -1    0    0    0  501 -0.00000000000E+00 -0.00000000000E+00 -0.48074788936E+03  0.48074788936E+03  0.00000000000E+00 0.  1.
         23    2    1    2    0    0  0.76152883991E+03  0.43350910888E+02  0.61588899995E+03  0.98471552674E+03  0.92411757144E+02 0.  0.
        254    2    1    2    0    0 -0.76152883991E+03 -0.43350910888E+02  0.89107186137E+03  0.14837411133E+04  0.90866558958E+03 0.  0.
        -24    2    4    4    0    0 -0.88486136083E+03 -0.15411134969E+03  0.93036068643E+03  0.12955998594E+04  0.79234163815E+02 0.  0.
         24    2    4    4    0    0  0.12333252092E+03  0.11076043881E+03 -0.39288825063E+02  0.18814125395E+03  0.79841932229E+02 0.  0.
         11    1    3    3    0    0  0.20378719898E+03  0.43776409387E+02  0.20121048306E+03  0.28970891422E+03  0.00000000000E+00 0.  1.
        -11    1    3    3    0    0  0.55774164093E+03 -0.42549849923E+00  0.41467851689E+03  0.69500661252E+03  0.00000000000E+00 0. -1.
          2    1    6    6  502    0  0.10220507323E+03  0.12210338348E+03 -0.28155398834E+02  0.16170293669E+03  0.00000000000E+00 0. -1.
          3    1    5    5  503    0 -0.10398166422E+03 -0.34262248204E+02  0.85492369587E+02  0.13890656357E+03  0.00000000000E+00 0. -1.
         -4    1    5    5    0  503 -0.78087969660E+03 -0.11984910149E+03  0.84486831684E+03  0.11566932958E+04  0.00000000000E+00 0.  1.
         -1    1    6    6    0  502  0.21127447691E+02 -0.11342944675E+02 -0.11133426229E+02  0.26438317258E+02  0.00000000000E+00 0.  1.
<mgrwt>
<rscale>  0 0.19550824E+04</rscale>
<asrwt>0</asrwt>
<pdfrwt beam="1">  1        1 0.30580134E+00 0.19550824E+04</pdfrwt>
<pdfrwt beam="2">  1       -1 0.73961215E-01 0.19550824E+04</pdfrwt>
<totfact> 0.52072400E+00</totfact>
</mgrwt>
</event>
<event>
12    1  0.1518126E-007  0.1493728E+04  0.7818608E-02  0.8888635E-01
          1   -1    0    0  501    0  0.00000000000E+00  0.00000000000E+00  0.17289295354E+04  0.17289295354E+04  0.00000000000E+00 0. -1.
         -1   -1    0    0    0  501 -0.00000000000E+00 -0.00000000000E+00 -0.32263071690E+03  0.32263071690E+03  0.00000000000E+00 0.  1.
         23    2    1    2    0    0 -0.32798800886E+03 -0.18164113078E+03  0.15563790899E+03  0.41642815312E+03  0.92841874454E+02 0.  0.
        254    2    1    2    0    0  0.32798800886E+03  0.18164113078E+03  0.12506609095E+04  0.16351320992E+04  0.98434477539E+03 0.  0.
        -24    2    4    4    0    0 -0.85867756487E+02  0.46953644615E+03  0.87948129237E+03  0.10037709568E+04  0.78936963661E+02 0.  0.
         24    2    4    4    0    0  0.41385576535E+03 -0.28789531537E+03  0.37117961716E+03  0.63136114239E+03  0.81745194302E+02 0.  0.
         13    1    3    3    0    0 -0.29160144791E+03 -0.16530932930E+03  0.10355988998E+03  0.35083219577E+03  0.00000000000E+00 0.  1.
        -13    1    3    3    0    0 -0.36386560955E+02 -0.16331801477E+02  0.52078019006E+02  0.65595957354E+02  0.00000000000E+00 0. -1.
          2    1    6    6  502    0  0.29353511928E+02 -0.43319672683E+02  0.59683377115E+02  0.79374606820E+02  0.00000000000E+00 0. -1.
          3    1    5    5  503    0 -0.63417116466E+02  0.15331485418E+03  0.27397187227E+03  0.32029324371E+03  0.00000000000E+00 0. -1.
         -4    1    5    5    0  503 -0.22450640021E+02  0.31622159197E+03  0.60550942010E+03  0.68347771310E+03  0.00000000000E+00 0.  1.
         -1    1    6    6    0  502  0.38450225342E+03 -0.24457564269E+03  0.31149624005E+03  0.55198653557E+03  0.00000000000E+00 0.  1.
<mgrwt>
<rscale>  0 0.14937279E+04</rscale>
<asrwt>0</asrwt>
<pdfrwt beam="1">  1        1 0.26598915E+00 0.14937279E+04</pdfrwt>
<pdfrwt beam="2">  1       -1 0.49635496E-01 0.14937279E+04</pdfrwt>
<totfact> 0.17942529E+01</totfact>
</mgrwt>
</event>
<event>
12    1  0.1518126E-007  0.2416869E+04  0.7818608E-02  0.8433215E-01
         -1   -1    0    0    0  501 -0.00000000000E+00  0.00000000000E+00  0.93091674230E+03  0.93091674230E+03  0.00000000000E+00 0.  1.
          1   -1    0    0  501    0  0.00000000000E+00 -0.00000000000E+00 -0.15686835858E+04  0.15686835858E+04  0.00000000000E+00 0. -1.
         23    2    1    2    0    0  0.10187858822E+04 -0.19731842077E+03 -0.27331144589E+03  0.10772013707E+04  0.93831836374E+02 0.  0.
        254    2    1    2    0    0 -0.10187858822E+04  0.19731842077E+03 -0.36445539764E+03  0.14223989575E+04  0.90195999044E+03 0.  0.
        -24    2    4    4    0    0 -0.57134624880E+03  0.51846056781E+03 -0.37085043956E+02  0.77657302733E+03  0.80327267485E+02 0.  0.
         24    2    4    4    0    0 -0.44743963342E+03 -0.32114214704E+03 -0.32737035368E+03  0.64582593013E+03  0.81149734452E+02 0.  0.
         11    1    3    3    0    0  0.61807028459E+02  0.45479005832E+01 -0.10824434084E+01  0.61983577263E+02  0.00000000000E+00 0.  1.
        -11    1    3    3    0    0  0.95697885376E+03 -0.20186632136E+03 -0.27222900248E+03  0.10152177934E+04  0.00000000000E+00 0. -1.
          4    1    6    6  502    0 -0.44502659394E+03 -0.31192372398E+03 -0.33017399582E+03  0.63589303064E+03  0.00000000000E+00 0. -1.
          3    1    5    5  503    0 -0.38015770466E+03  0.37974262901E+03  0.87279802764E+00  0.53733146798E+03  0.00000000000E+00 0. -1.
         -4    1    5    5    0  503 -0.19118854414E+03  0.13871793880E+03 -0.37957841983E+02  0.23924155936E+03  0.00000000000E+00 0.  1.
         -3    1    6    6    0  502 -0.24130394735E+01 -0.92184230578E+01  0.28036421315E+01  0.99328994948E+01  0.00000000000E+00 0.  1.
<mgrwt>
<rscale>  0 0.24168689E+04</rscale>
<asrwt>0</asrwt>
<pdfrwt beam="1">  1        1 0.24133593E+00 0.24168689E+04</pdfrwt>
<pdfrwt beam="2">  1       -1 0.14321796E+00 0.24168689E+04</pdfrwt>
<totfact> 0.20717449E+00</totfact>
</mgrwt>
</event>
<event>
12    1  0.2341870E-007  0.1934626E+04  0.7818608E-02  0.8637810E-01
         -2   -1    0    0    0  501 -0.00000000000E+00  0.00000000000E+00  0.52636825954E+03  0.52636825954E+03  0.00000000000E+00 0. -1.
          2   -1    0    0  501    0  0.00000000000E+00 -0.00000000000E+00 -0.17776422981E+04  0.17776422981E+04  0.00000000000E+00 0.  1.
         23    2    1    2    0    0  0.55624607222E+03 -0.45737745026E+03 -0.22482878124E+03  0.75987978488E+03  0.90914694803E+02 0.  0.
        254    2    1    2    0    0 -0.55624607222E+03  0.45737745026E+03 -0.10264452573E+04  0.15441307727E+04  0.90119151805E+03 0.  0.
        -24    2    4    4    0    0 -0.48185438350E+03  0.19025384198E+02 -0.79750720942E+02  0.49528758239E+03  0.80024993822E+02 0.  0.
         24    2    4    4    0    0 -0.74391688717E+02  0.43835206606E+03 -0.94669453636E+03  0.10488431903E+04  0.78452760193E+02 0.  0.
         11    1    3    3    0    0  0.50654841916E+03 -0.42672905909E+03 -0.18026618941E+03  0.68642908583E+03  0.00000000000E+00 0. -1.
        -11    1    3    3    0    0  0.49697653057E+02 -0.30648391175E+02 -0.44562591831E+02  0.73450699055E+02  0.00000000000E+00 0.  1.
          4    1    6    6  502    0  0.55026491801E+01 -0.34724698846E+00 -0.98093893027E+01  0.11252726201E+02  0.00000000000E+00 0. -1.
          3    1    5    5  503    0 -0.32596822249E+02  0.92395237396E+01 -0.26026065139E+02  0.42723268675E+02  0.00000000000E+00 0. -1.
         -4    1    5    5    0  503 -0.44925756125E+03  0.97858604587E+01 -0.53724655803E+02  0.45256431372E+03  0.00000000000E+00 0.  1.
         -3    1    6    6    0  502 -0.79894337897E+02  0.43869931305E+03 -0.93688514706E+03  0.10375904641E+04  0.00000000000E+00 0.  1.
<mgrwt>
<rscale>  0 0.19346260E+04</rscale>
<asrwt>0</asrwt>
<pdfrwt beam="1">  1        2 0.27348343E+00 0.19346260E+04</pdfrwt>
<pdfrwt beam="2">  1       -2 0.80979732E-01 0.19346260E+04</pdfrwt>
<totfact> 0.11151971E+01</totfact>
</mgrwt>
</event>
<event>
12    1  0.1518126E-007  0.1538359E+04  0.7818608E-02  0.8859338E-01
          2   -1    0    0  501    0  0.00000000000E+00  0.00000000000E+00  0.13944432994E+04  0.13944432994E+04  0.00000000000E+00 0. -1.
         -2   -1    0    0    0  501 -0.00000000000E+00 -0.00000000000E+00 -0.42428182239E+03  0.42428182239E+03  0.00000000000E+00 0.  1.
         23    2    1    2    0    0  0.10058707779E+03  0.30453811462E+03 -0.13400677099E+03  0.35924166422E+03  0.90749849394E+02 0.  0.
        254    2    1    2    0    0 -0.10058707779E+03 -0.30453811462E+03  0.11041682480E+04  0.14594834576E+04  0.89891224242E+03 0.  0.
        -24    2    4    4    0    0  0.22921171998E+02 -0.60107683129E+03  0.83898128965E+03  0.10354163939E+04  0.79867184398E+02 0.  0.
         24    2    4    4    0    0 -0.12350824979E+03  0.29653871667E+03  0.26518695839E+03  0.42406706371E+03  0.79493731611E+02 0.  0.
         13    1    3    3    0    0  0.11994507303E+02  0.86906657026E+02  0.19859851273E+01  0.87752945124E+02  0.00000000000E+00 0. -1.
        -13    1    3    3    0    0  0.88592570490E+02  0.21763145760E+03 -0.13599275612E+03  0.27148871910E+03  0.00000000000E+00 0.  1.
          4    1    6    6  502    0 -0.20019743964E+02  0.57485424175E+02  0.95267543455E+02  0.11305427447E+03  0.00000000000E+00 0. -1.
          3    1    5    5  503    0  0.15060553595E+02 -0.12149836703E+03  0.22656673222E+03  0.25752894520E+03  0.00000000000E+00 0. -1.
         -4    1    5    5    0  503  0.78606184035E+01 -0.47957846426E+03  0.61241455742E+03  0.77788744870E+03  0.00000000000E+00 0.  1.
         -3    1    6    6    0  502 -0.10348850583E+03  0.23905329250E+03  0.16991941494E+03  0.31101278923E+03  0.00000000000E+00 0.  1.
<mgrwt>
<rscale>  0 0.15383588E+04</rscale>
<asrwt>0</asrwt>
<pdfrwt beam="1">  1        2 0.21452974E+00 0.15383588E+04</pdfrwt>
<pdfrwt beam="2">  1       -2 0.65274127E-01 0.15383588E+04</pdfrwt>
<totfact> 0.30381480E+01</totfact>
</mgrwt>
</event>
<event>
12    1  0.1518126E-007  0.1212886E+04  0.7818608E-02  0.9101652E-01
         -1   -1    0    0    0  501 -0.00000000000E+00  0.00000000000E+00  0.28044465037E+03  0.28044465037E+03  0.00000000000E+00 0.  1.
          1   -1    0    0  501    0  0.00000000000E+00 -0.00000000000E+00 -0.13113928838E+04  0.13113928838E+04  0.00000000000E+00 0. -1.
         23    2    1    2    0    0 -0.19423254680E+03  0.10266148091E+03 -0.42566702204E+03  0.48732028309E+03  0.89571104474E+02 0.  0.
        254    2    1    2    0    0  0.19423254680E+03 -0.10266148091E+03 -0.60528121141E+03  0.11045172511E+04  0.89740032940E+03 0.  0.
        -24    2    4    4    0    0 -0.47710679453E+02 -0.46845285890E+03 -0.32013884181E+03  0.57526642406E+03  0.81964569569E+02 0.  0.
         24    2    4    4    0    0  0.24194322625E+03  0.36579137799E+03 -0.28514236959E+03  0.52925082705E+03  0.80376676060E+02 0.  0.
         13    1    3    3    0    0 -0.18523193045E+03  0.61670334356E+02 -0.35433886939E+03  0.40456165483E+03  0.00000000000E+00 0. -1.
        -13    1    3    3    0    0 -0.90006163487E+01  0.40991146556E+02 -0.71328152652E+02  0.82758628260E+02  0.00000000000E+00 0.  1.
          2    1    6    6  502    0 -0.39198098385E+01  0.24780404845E+02 -0.21330163343E+02  0.32930369595E+02  0.00000000000E+00 0. -1.
          3    1    5    5  503    0 -0.12465386608E+02 -0.37984495921E+03 -0.23108489624E+03  0.44478962237E+03  0.00000000000E+00 0. -1.
         -4    1    5    5    0  503 -0.35245292845E+02 -0.88607899687E+02 -0.89053945578E+02  0.13047680168E+03  0.00000000000E+00 0.  1.
         -1    1    6    6    0  502  0.24586303609E+03  0.34101097314E+03 -0.26381220625E+03  0.49632045745E+03  0.00000000000E+00 0.  1.
<mgrwt>
<rscale>  0 0.12128860E+04</rscale>
<asrwt>0</asrwt>
<pdfrwt beam="1">  1        1 0.20175274E+00 0.12128860E+04</pdfrwt>
<pdfrwt beam="2">  1       -1 0.43145332E-01 0.12128860E+04</pdfrwt>
<totfact> 0.46480547E+01</totfact>
</mgrwt>
</event>
<event>
12    1  0.1518126E-007  0.2674608E+04  0.7818608E-02  0.8343291E-01
          2   -1    0    0  501    0  0.00000000000E+00  0.00000000000E+00  0.33579645437E+04  0.33579645437E+04  0.00000000000E+00 0. -1.
         -2   -1    0    0    0  501 -0.00000000000E+00 -0.00000000000E+00 -0.53257921029E+03  0.53257921029E+03  0.00000000000E+00 0.  1.
         23    2    1    2    0    0  0.62164842134E+03  0.87471856260E+03  0.19803508534E+04  0.22542270010E+04  0.90391072887E+02 0.  0.
        254    2    1    2    0    0 -0.62164842134E+03 -0.87471856260E+03  0.84503447999E+03  0.16363167529E+04  0.90103824561E+03 0.  0.
        -24    2    4    4    0    0 -0.72742675800E+03 -0.33183746711E+03  0.68335949716E+03  0.10547175516E+04  0.78632807640E+02 0.  0.
         24    2    4    4    0    0  0.10577833666E+03 -0.54288109549E+03  0.16167498283E+03  0.58159920135E+03  0.78802859023E+02 0.  0.
         11    1    3    3    0    0  0.30745487606E+03  0.46732634458E+03  0.11159940328E+04  0.12483449420E+04  0.00000000000E+00 0.  1.
        -11    1    3    3    0    0  0.31419354528E+03  0.40739221802E+03  0.86435682062E+03  0.10058820590E+04  0.00000000000E+00 0. -1.
          2    1    6    6  502    0  0.71269076727E+02 -0.25768174733E+03  0.11286409911E+03  0.29020246221E+03  0.00000000000E+00 0. -1.
          3    1    5    5  503    0 -0.56196715662E+03 -0.27198301127E+03  0.49309917402E+03  0.79556812339E+03  0.00000000000E+00 0. -1.
         -4    1    5    5    0  503 -0.16545960138E+03 -0.59854455837E+02  0.19026032314E+03  0.25914942820E+03  0.00000000000E+00 0.  1.
         -3    1    6    6    0  502  0.34509259933E+02 -0.28519934816E+03  0.48810883723E+02  0.29139673914E+03  0.00000000000E+00 0.  1.
<mgrwt>
<rscale>  0 0.26746081E+04</rscale>
<asrwt>0</asrwt>
<pdfrwt beam="1">  1        2 0.51660991E+00 0.26746081E+04</pdfrwt>
<pdfrwt beam="2">  1       -2 0.81935266E-01 0.26746081E+04</pdfrwt>
<totfact> 0.11725351E+00</totfact>
</mgrwt>
</event>
<event>
12    1  0.1518126E-007  0.1350484E+04  0.7818608E-02  0.8990462E-01
         -2   -1    0    0    0  501 -0.00000000000E+00  0.00000000000E+00  0.14599388484E+04  0.14599388484E+04  0.00000000000E+00 0.  1.
          2   -1    0    0  501    0  0.00000000000E+00 -0.00000000000E+00 -0.31230859960E+03  0.31230859960E+03  0.00000000000E+00 0. -1.
         23    2    1    2    0    0  0.28042238670E+03  0.22740079414E+03  0.23970014247E+03  0.44256127497E+03  0.89757939277E+02 0.  0.
        254    2    1    2    0    0 -0.28042238670E+03 -0.22740079414E+03  0.90793010633E+03  0.13296861730E+04  0.90187604726E+03 0.  0.
        -24    2    4    4    0    0 -0.43953551631E+03 -0.30766473983E+02  0.72802795570E+02  0.45347728101E+03  0.78761356868E+02 0.  0.
         24    2    4    4    0    0  0.15911312960E+03 -0.19663432015E+03  0.83512731076E+03  0.87620889201E+03  0.79513227772E+02 0.  0.
         11    1    3    3    0    0  0.69529538009E+01  0.18115842662E+02  0.40063792277E+02  0.44515556534E+02  0.00000000000E+00 0.  1.
        -11    1    3    3    0    0  0.27346943290E+03  0.20928495148E+03  0.19963635020E+03  0.39804571844E+03  0.00000000000E+00 0. -1.
          4    1    6    6  502    0  0.21268681486E+02 -0.10862210506E+02  0.29110080032E+02  0.37652904120E+02  0.00000000000E+00 0. -1.
          3    1    5    5  503    0 -0.15143617205E+03 -0.45883584993E+01  0.62836302164E+02  0.16401941382E+03  0.00000000000E+00 0. -1.
         -4    1    5    5    0  503 -0.28809934426E+03 -0.26178115484E+02  0.99664934061E+01  0.28945786720E+03  0.00000000000E+00 0.  1.
         -3    1    6    6    0  502  0.13784444812E+03 -0.18577210965E+03  0.80601723073E+03  0.83855598789E+03  0.00000000000E+00 0.  1.
<mgrwt>
<rscale>  0 0.13504836E+04</rscale>
<asrwt>0</asrwt>
<pdfrwt beam="1">  1        2 0.48047477E-01 0.13504836E+04</pdfrwt>
<pdfrwt beam="2">  1       -2 0.22460597E+00 0.13504836E+04</pdfrwt>
<totfact> 0.94764631E+00</totfact>
</mgrwt>
</event>
<event>
12    1  0.1518126E-007  0.1308752E+04  0.7818608E-02  0.9022653E-01
          1   -1    0    0  501    0  0.00000000000E+00  0.00000000000E+00  0.11591543671E+04  0.11591543671E+04  0.00000000000E+00 0. -1.
         -1   -1    0    0    0  501 -0.00000000000E+00 -0.00000000000E+00 -0.36941411580E+03  0.36941411580E+03  0.00000000000E+00 0.  1.
         23    2    1    2    0    0 -0.29917501884E+03 -0.60320061502E+02  0.84127153482E+02  0.32959361359E+03  0.91708071911E+02 0.  0.
        254    2    1    2    0    0  0.29917501884E+03  0.60320061502E+02  0.70561309777E+03  0.11989748693E+04  0.92005798276E+03 0.  0.
        -24    2    4    4    0    0 -0.28852317345E+03  0.45046558734E+02  0.47215082440E+03  0.56140992724E+03  0.83545744082E+02 0.  0.
         24    2    4    4    0    0  0.58769819228E+03  0.15273502767E+02  0.23346227337E+03  0.63756494201E+03  0.79762002852E+02 0.  0.
         13    1    3    3    0    0 -0.43651715239E+02 -0.16734355653E+02 -0.19207936028E+02  0.50541623528E+02  0.00000000000E+00 0. -1.
        -13    1    3    3    0    0 -0.25552330360E+03 -0.43585705849E+02  0.10333508951E+03  0.27905199006E+03  0.00000000000E+00 0.  1.
          2    1    6    6  502    0  0.62556316649E+02 -0.12251788302E+02  0.41527141102E+01  0.63879919410E+02  0.00000000000E+00 0. -1.
          3    1    5    5  503    0 -0.39625776080E+02  0.24220537821E+02  0.12809027097E+03  0.13624960220E+03  0.00000000000E+00 0. -1.
         -4    1    5    5    0  503 -0.24889739737E+03  0.20826020913E+02  0.34406055343E+03  0.42516032504E+03  0.00000000000E+00 0.  1.
         -1    1    6    6    0  502  0.52514187563E+03  0.27525291070E+02  0.22930955926E+03  0.57368502260E+03  0.00000000000E+00 0.  1.
<mgrwt>
<rscale>  0 0.13087521E+04</rscale>
<asrwt>0</asrwt>
<pdfrwt beam="1">  1        1 0.17833144E+00 0.13087521E+04</pdfrwt>
<pdfrwt beam="2">  1       -1 0.56832941E-01 0.13087521E+04</pdfrwt>
<totfact> 0.35238543E+01</totfact>
</mgrwt>
</event>
<event>
12    1  0.1518126E-007  0.1593972E+04  0.7818608E-02  0.8824260E-01
         -1   -1    0    0    0  501 -0.00000000000E+00  0.00000000000E+00  0.36220076877E+03  0.36220076877E+03  0.00000000000E+00 0.  1.
          1   -1    0    0  501    0  0.00000000000E+00 -0.00000000000E+00 -0.17536864822E+04  0.17536864822E+04  0.00000000000E+00 0. -1.
         23    2    1    2    0    0 -0.46931824422E+03  0.18299943727E+02 -0.82206781927E+03  0.95113376650E+03  0.90914465248E+02 0.  0.
        254    2    1    2    0    0  0.46931824422E+03 -0.18299943727E+02 -0.56941789420E+03  0.11647534845E+04  0.90101023255E+03 0.  0.
        -24    2    4    4    0    0  0.63888316028E+03 -0.27124785212E+03 -0.35546958660E+03  0.78417711675E+03  0.82631916850E+02 0.  0.
         24    2    4    4    0    0 -0.16956491606E+03  0.25294790839E+03 -0.21394830761E+03  0.38057636776E+03  0.79558709474E+02 0.  0.
         13    1    3    3    0    0 -0.58215866995E+02 -0.81001721042E+01 -0.55251054666E+02  0.80668327117E+02  0.00000000000E+00 0.  1.
        -13    1    3    3    0    0 -0.41110237722E+03  0.26400115831E+02 -0.76681676460E+03  0.87046543938E+03  0.00000000000E+00 0. -1.
          2    1    6    6  502    0 -0.14338268977E+03  0.25024388964E+03 -0.19701178373E+03  0.34927674265E+03  0.00000000000E+00 0. -1.
          3    1    5    5  503    0  0.60086312082E+03 -0.25168633345E+03 -0.35395059895E+03  0.74139296389E+03  0.00000000000E+00 0. -1.
         -4    1    5    5    0  503  0.38020039455E+02 -0.19561518668E+02 -0.15189876448E+01  0.42784152863E+02  0.00000000000E+00 0.  1.
         -1    1    6    6    0  502 -0.26182226292E+02  0.27040187476E+01 -0.16936523878E+02  0.31299625111E+02  0.00000000000E+00 0.  1.
<mgrwt>
<rscale>  0 0.15939719E+04</rscale>
<asrwt>0</asrwt>
<pdfrwt beam="1">  1        1 0.26979793E+00 0.15939719E+04</pdfrwt>
<pdfrwt beam="2">  1       -1 0.55723194E-01 0.15939719E+04</pdfrwt>
<totfact> 0.13699088E+01</totfact>
</mgrwt>
</event>
<event>
12    1  0.1518126E-007  0.2145814E+04  0.7818608E-02  0.8541326E-01
          1   -1    0    0  501    0  0.00000000000E+00  0.00000000000E+00  0.14860688033E+04  0.14860688033E+04  0.00000000000E+00 0. -1.
         -1   -1    0    0    0  501 -0.00000000000E+00 -0.00000000000E+00 -0.77461370045E+03  0.77461370045E+03  0.00000000000E+00 0.  1.
         23    2    1    2    0    0  0.30375189932E+02 -0.87146775216E+03  0.46021370354E+03  0.99012204533E+03  0.90367673938E+02 0.  0.
        254    2    1    2    0    0 -0.30375189932E+02  0.87146775216E+03  0.25124139930E+03  0.12705604584E+04  0.88928226258E+03 0.  0.
        -24    2    4    4    0    0  0.10383236081E+03  0.97665491101E+03  0.39170841925E+02  0.98646450203E+03  0.83317972543E+02 0.  0.
         24    2    4    4    0    0 -0.13420755075E+03 -0.10518715885E+03  0.21207055737E+03  0.28409595638E+03  0.81612413669E+02 0.  0.
         11    1    3    3    0    0 -0.62418760567E+01 -0.51464984596E+03  0.31304850003E+03  0.60241413358E+03  0.00000000000E+00 0. -1.
        -11    1    3    3    0    0  0.36617065988E+02 -0.35681790621E+03  0.14716520351E+03  0.38770791175E+03  0.00000000000E+00 0.  1.
          4    1    6    6  502    0 -0.32640924337E+02 -0.75355015022E+02  0.10772261191E+03  0.13545467636E+03  0.00000000000E+00 0. -1.
          3    1    5    5  503    0  0.15566206290E+01  0.36616766583E+03 -0.92416910693E+00  0.36617214074E+03  0.00000000000E+00 0. -1.
         -4    1    5    5    0  503  0.10227574019E+03  0.61048724519E+03  0.40095011032E+02  0.62029236129E+03  0.00000000000E+00 0.  1.
         -3    1    6    6    0  502 -0.10156662641E+03 -0.29832143828E+02  0.10434794546E+03  0.14864128003E+03  0.00000000000E+00 0.  1.
<mgrwt>
<rscale>  0 0.21458138E+04</rscale>
<asrwt>0</asrwt>
<pdfrwt beam="1">  1        1 0.22862597E+00 0.21458138E+04</pdfrwt>
<pdfrwt beam="2">  1       -1 0.11917134E+00 0.21458138E+04</pdfrwt>
<totfact> 0.38583200E+00</totfact>
</mgrwt>
</event>
<event>
12    1  0.1741955E-007  0.2864668E+04  0.7818608E-02  0.8283468E-01
          2   -1    0    0  501    0  0.00000000000E+00  0.00000000000E+00  0.10635305055E+04  0.10635305055E+04  0.00000000000E+00 0. -1.
         -2   -1    0    0    0  501 -0.00000000000E+00 -0.00000000000E+00 -0.19290280536E+04  0.19290280536E+04  0.00000000000E+00 0.  1.
         23    2    1    2    0    0  0.81670281172E+03  0.73106241355E+03  0.29450568875E+03  0.11386462608E+04  0.91246761274E+02 0.  0.
        254    2    1    2    0    0 -0.81670281172E+03 -0.73106241355E+03 -0.11600032368E+04  0.18539122983E+04  0.94335972202E+03 0.  0.
        -24    2    4    4    0    0 -0.41566149470E+03 -0.69687694201E+03 -0.24550240583E+03  0.85169583428E+03  0.81868262339E+02 0.  0.
         24    2    4    4    0    0 -0.40104131702E+03 -0.34185471539E+02 -0.91450083097E+03  0.10022164640E+04  0.78251430855E+02 0.  0.
         13    1    3    3    0    0  0.78033549362E+03  0.68758125729E+03  0.25916861738E+03  0.10718487954E+04  0.00000000000E+00 0. -1.
        -13    1    3    3    0    0  0.36367318098E+02  0.43481156259E+02  0.35337071366E+02  0.66797465431E+02  0.00000000000E+00 0.  1.
          4    1    6    6  502    0 -0.37905860958E+03 -0.12680928413E+02 -0.84765808147E+03  0.92863903565E+03  0.00000000000E+00 0. -1.
          1    1    5    5  503    0 -0.33758074701E+03 -0.60971638763E+03 -0.22857414148E+03  0.73345822802E+03  0.00000000000E+00 0. -1.
         -4    1    5    5    0  503 -0.78080747695E+02 -0.87160554378E+02 -0.16928264347E+02  0.11823760626E+03  0.00000000000E+00 0.  1.
         -3    1    6    6    0  502 -0.21982707437E+02 -0.21504543126E+02 -0.66842749503E+02  0.73577428349E+02  0.00000000000E+00 0.  1.
<mgrwt>
<rscale>  0 0.28646676E+04</rscale>
<asrwt>0</asrwt>
<pdfrwt beam="1">  1        2 0.16362008E+00 0.28646676E+04</pdfrwt>
<pdfrwt beam="2">  1       -2 0.29677355E+00 0.28646676E+04</pdfrwt>
<totfact> 0.66085380E-01</totfact>
</mgrwt>
</event>
<event>
12    1  0.1518126E-007  0.2818233E+04  0.7818608E-02  0.8297630E-01
          2   -1    0    0  501    0  0.00000000000E+00  0.00000000000E+00  0.16421231463E+04  0.16421231463E+04  0.00000000000E+00 0. -1.
         -2   -1    0    0    0  501 -0.00000000000E+00 -0.00000000000E+00 -0.12091720059E+04  0.12091720059E+04  0.00000000000E+00 0.  1.
         23    2    1    2    0    0  0.31128237084E+02 -0.12177456584E+04  0.44126464555E+03  0.12991049841E+04  0.95319549789E+02 0.  0.
        254    2    1    2    0    0 -0.31128237084E+02  0.12177456584E+04 -0.83135051047E+01  0.15521901681E+04  0.96195205070E+03 0.  0.
        -24    2    4    4    0    0 -0.83448999165E+02 -0.96514234838E+01 -0.26956770063E+03  0.29379171949E+03  0.81178468725E+02 0.  0.
         24    2    4    4    0    0  0.52320762081E+02  0.12273970819E+04  0.26125419552E+03  0.12583984486E+04  0.77922025010E+02 0.  0.
         13    1    3    3    0    0 -0.30532609654E+01 -0.55701663858E+03  0.24881910470E+03  0.61007196700E+03  0.00000000000E+00 0.  1.
        -13    1    3    3    0    0  0.34181498050E+02 -0.66072901983E+03  0.19244554085E+03  0.68903301709E+03  0.00000000000E+00 0. -1.
          4    1    6    6  502    0  0.85393390286E+01  0.17957473475E+03  0.66797477343E+02  0.19178610130E+03  0.00000000000E+00 0. -1.
          1    1    5    5  503    0 -0.34290065423E+02  0.12681301798E+02 -0.27427005512E+02  0.45704098650E+02  0.00000000000E+00 0. -1.
         -2    1    5    5    0  503 -0.49158933742E+02 -0.22332725282E+02 -0.24214069511E+03  0.24808762084E+03  0.00000000000E+00 0.  1.
         -3    1    6    6    0  502  0.43781423052E+02  0.10478223471E+04  0.19445671818E+03  0.10666123473E+04  0.00000000000E+00 0.  1.
<mgrwt>
<rscale>  0 0.28182330E+04</rscale>
<asrwt>0</asrwt>
<pdfrwt beam="1">  1        2 0.25263433E+00 0.28182330E+04</pdfrwt>
<pdfrwt beam="2">  1       -2 0.18602646E+00 0.28182330E+04</pdfrwt>
<totfact> 0.15134798E+00</totfact>
</mgrwt>
</event>
<event>
12    1  0.1518126E-007  0.1690693E+04  0.7818608E-02  0.8766690E-01
          2   -1    0    0  501    0  0.00000000000E+00  0.00000000000E+00  0.19477308473E+04  0.19477308473E+04  0.00000000000E+00 0. -1.
         -2   -1    0    0    0  501 -0.00000000000E+00 -0.00000000000E+00 -0.36689393230E+03  0.36689393230E+03  0.00000000000E+00 0.  1.
         23    2    1    2    0    0 -0.19093659418E+03  0.27999078901E+03 -0.11164433370E+03  0.36786253205E+03  0.89480502393E+02 0.  0.
        254    2    1    2    0    0  0.19093659418E+03 -0.27999078901E+03  0.16924812487E+04  0.19467622476E+04  0.90029930933E+03 0.  0.
        -24    2    4    4    0    0 -0.11482724855E+02  0.71243767230E+02  0.14770833193E+04  0.14809813187E+04  0.79517336295E+02 0.  0.
         24    2    4    4    0    0  0.20241931903E+03 -0.35123455624E+03  0.21539792942E+03  0.46578092890E+03  0.78843588902E+02 0.  0.
         13    1    3    3    0    0 -0.72258920105E+02  0.12398494180E+03 -0.25383237990E+01  0.14352721141E+03  0.00000000000E+00 0. -1.
        -13    1    3    3    0    0 -0.11867767407E+03  0.15600584721E+03 -0.10910600990E+03  0.22433532063E+03  0.00000000000E+00 0.  1.
          2    1    6    6  502    0  0.18090630573E+03 -0.33998129175E+03  0.18607894624E+03  0.42771455952E+03  0.00000000000E+00 0. -1.
          1    1    5    5  503    0  0.21457742211E+02  0.22830145858E+02  0.97363295192E+03  0.97413693870E+03  0.00000000000E+00 0. -1.
         -2    1    5    5    0  503 -0.32940467067E+02  0.48413621372E+02  0.50345036736E+03  0.50684437996E+03  0.00000000000E+00 0.  1.
         -1    1    6    6    0  502  0.21513013302E+02 -0.11253264495E+02  0.29318983175E+02  0.38066369377E+02  0.00000000000E+00 0.  1.
<mgrwt>
<rscale>  0 0.16906929E+04</rscale>
<asrwt>0</asrwt>
<pdfrwt beam="1">  1        2 0.29965089E+00 0.16906929E+04</pdfrwt>
<pdfrwt beam="2">  1       -2 0.56445221E-01 0.16906929E+04</pdfrwt>
<totfact> 0.20035454E+01</totfact>
</mgrwt>
</event>
<event>
12    1  0.1518126E-007  0.1619148E+04  0.7818608E-02  0.8808870E-01
         -1   -1    0    0    0  501 -0.00000000000E+00  0.00000000000E+00  0.10267634483E+04  0.10267634483E+04  0.00000000000E+00 0.  1.
          1   -1    0    0  501    0  0.00000000000E+00 -0.00000000000E+00 -0.63832631417E+03  0.63832631417E+03  0.00000000000E+00 0. -1.
         23    2    1    2    0    0  0.34512500776E+03  0.43139238034E+03  0.73248856732E+02  0.56452720426E+03  0.90082809370E+02 0.  0.
        254    2    1    2    0    0 -0.34512500776E+03 -0.43139238034E+03  0.31518827739E+03  0.11005625582E+04  0.89815568668E+03 0.  0.
        -24    2    4    4    0    0 -0.21434287561E+03 -0.15795255440E+03  0.60957079933E+03  0.67047192567E+03  0.84048592857E+02 0.  0.
         24    2    4    4    0    0 -0.13078213215E+03 -0.27343982594E+03 -0.29438252193E+03  0.43009063252E+03  0.80271903340E+02 0.  0.
         13    1    3    3    0    0  0.12837458041E+02  0.59768949814E+02  0.11441133875E+02  0.62193466178E+02  0.00000000000E+00 0. -1.
        -13    1    3    3    0    0  0.33228754972E+03  0.37162343052E+03  0.61807722856E+02  0.50233373808E+03  0.00000000000E+00 0.  1.
          4    1    6    6  502    0 -0.17922783999E+02 -0.74134522161E+02 -0.12014113246E+03  0.14230616737E+03  0.00000000000E+00 0. -1.
          3    1    5    5  503    0 -0.20839371417E+03 -0.13939931026E+03  0.59639276994E+03  0.64695010923E+03  0.00000000000E+00 0. -1.
         -4    1    5    5    0  503 -0.59491614388E+01 -0.18553244144E+02  0.13178029390E+02  0.23521816441E+02  0.00000000000E+00 0.  1.
         -3    1    6    6    0  502 -0.11285934815E+03 -0.19930530378E+03 -0.17424138947E+03  0.28778446515E+03  0.00000000000E+00 0.  1.
<mgrwt>
<rscale>  0 0.16191481E+04</rscale>
<asrwt>0</asrwt>
<pdfrwt beam="1">  1        1 0.98204049E-01 0.16191481E+04</pdfrwt>
<pdfrwt beam="2">  1       -1 0.15796361E+00 0.16191481E+04</pdfrwt>
<totfact> 0.90770513E+00</totfact>
</mgrwt>
</event>
<event>
12    1  0.1518126E-007  0.1721886E+04  0.7818608E-02  0.8748980E-01
         -2   -1    0    0    0  501 -0.00000000000E+00  0.00000000000E+00  0.63574526386E+03  0.63574526386E+03  0.00000000000E+00 0.  1.
          2   -1    0    0  501    0  0.00000000000E+00 -0.00000000000E+00 -0.11659111931E+04  0.11659111931E+04  0.00000000000E+00 0. -1.
         23    2    1    2    0    0 -0.18310475625E+03  0.33457270020E+03  0.31831309716E+03  0.50608101499E+03  0.96584276305E+02 0.  0.
        254    2    1    2    0    0  0.18310475625E+03 -0.33457270020E+03 -0.84847902635E+03  0.12955754419E+04  0.90173877818E+03 0.  0.
        -24    2    4    4    0    0 -0.41416563493E+02 -0.60825964348E+03 -0.54724891543E+03  0.82302565481E+03  0.78706590784E+02 0.  0.
         24    2    4    4    0    0  0.22452131974E+03  0.27368694327E+03 -0.30123011092E+03  0.47254978711E+03  0.85143147896E+02 0.  0.
         13    1    3    3    0    0 -0.11733331128E+03  0.22235095999E+03  0.14786394758E+03  0.29166899447E+03  0.00000000000E+00 0.  1.
        -13    1    3    3    0    0 -0.65771444966E+02  0.11222174022E+03  0.17044914958E+03  0.21441202052E+03  0.00000000000E+00 0. -1.
          2    1    6    6  502    0  0.13395845206E+03  0.10935489945E+03 -0.17739711653E+03  0.24773594383E+03  0.00000000000E+00 0. -1.
          3    1    5    5  503    0  0.89923872730E+01 -0.40328984974E+03 -0.37055502537E+03  0.54775413532E+03  0.00000000000E+00 0. -1.
         -4    1    5    5    0  503 -0.50408950766E+02 -0.20496979374E+03 -0.17669389006E+03  0.27527151950E+03  0.00000000000E+00 0.  1.
         -1    1    6    6    0  502  0.90562867685E+02  0.16433204382E+03 -0.12383299438E+03  0.22481384327E+03  0.00000000000E+00 0.  1.
<mgrwt>
<rscale>  0 0.17218856E+04</rscale>
<asrwt>0</asrwt>
<pdfrwt beam="1">  1        2 0.17937095E+00 0.17218856E+04</pdfrwt>
<pdfrwt beam="2">  1       -2 0.97806965E-01 0.17218856E+04</pdfrwt>
<totfact> 0.16421135E+01</totfact>
</mgrwt>
</event>
<event>
12    1  0.1518126E-007  0.1664115E+04  0.7818608E-02  0.8782099E-01
         -2   -1    0    0    0  501 -0.00000000000E+00  0.00000000000E+00  0.70256960286E+03  0.70256960286E+03  0.00000000000E+00 0.  1.
          2   -1    0    0  501    0  0.00000000000E+00 -0.00000000000E+00 -0.98541134077E+03  0.98541134077E+03  0.00000000000E+00 0. -1.
         23    2    1    2    0    0  0.63610509348E+02  0.47234597643E+03  0.24049154374E+03  0.54211839315E+03  0.94335312794E+02 0.  0.
        254    2    1    2    0    0 -0.63610509348E+02 -0.47234597643E+03 -0.52333328166E+03  0.11458625505E+04  0.90109169486E+03 0.  0.
        -24    2    4    4    0    0 -0.40576780396E+03 -0.51300430992E+03 -0.40213869769E+03  0.77211404762E+03  0.81385733578E+02 0.  0.
         24    2    4    4    0    0  0.34215729461E+03  0.40658333495E+02 -0.12119458397E+03  0.37374850285E+03  0.79215540545E+02 0.  0.
         11    1    3    3    0    0  0.10231168781E+02  0.16878284405E+03  0.37930412157E+02  0.17329466647E+03  0.00000000000E+00 0. -1.
        -11    1    3    3    0    0  0.53379340567E+02  0.30356313237E+03  0.20256113158E+03  0.36882372668E+03  0.00000000000E+00 0.  1.
          4    1    6    6  502    0  0.25580568900E+03  0.64805711931E+02 -0.89937069887E+02  0.27879205039E+03  0.00000000000E+00 0. -1.
          1    1    5    5  503    0 -0.25952558050E+03 -0.38391788330E+03 -0.29853162195E+03  0.55124186829E+03  0.00000000000E+00 0. -1.
         -2    1    5    5    0  503 -0.14624222346E+03 -0.12908642662E+03 -0.10360707573E+03  0.22087217933E+03  0.00000000000E+00 0.  1.
         -3    1    6    6    0  502  0.86351605610E+02 -0.24147378436E+02 -0.31257514081E+02  0.94956452457E+02  0.00000000000E+00 0.  1.
<mgrwt>
<rscale>  0 0.16641154E+04</rscale>
<asrwt>0</asrwt>
<pdfrwt beam="1">  1        2 0.15160175E+00 0.16641154E+04</pdfrwt>
<pdfrwt beam="2">  1       -2 0.10808763E+00 0.16641154E+04</pdfrwt>
<totfact> 0.16839921E+01</totfact>
</mgrwt>
</event>
<event>
12    1  0.1518126E-007  0.1427751E+04  0.7818608E-02  0.8933972E-01
          1   -1    0    0  501    0  0.00000000000E+00  0.00000000000E+00  0.30906988211E+03  0.30906988211E+03  0.00000000000E+00 0. -1.
         -1   -1    0    0    0  501 -0.00000000000E+00 -0.00000000000E+00 -0.16488778372E+04  0.16488778372E+04  0.00000000000E+00 0.  1.
         23    2    1    2    0    0 -0.10028288795E+03 -0.32384421335E+03 -0.57699654165E+02  0.35550451774E+03  0.90124801862E+02 0.  0.
        254    2    1    2    0    0  0.10028288795E+03  0.32384421335E+03 -0.12821083010E+04  0.16024432016E+04  0.89949473974E+03 0.  0.
        -24    2    4    4    0    0 -0.29013309215E+03 -0.66014656058E+02 -0.82792500117E+03  0.88326604874E+03  0.78510886623E+02 0.  0.
         24    2    4    4    0    0  0.39041598010E+03  0.38985886940E+03 -0.45418329979E+03  0.71917715285E+03  0.80738663666E+02 0.  0.
         11    1    3    3    0    0 -0.46388626517E+02 -0.10564604350E+03 -0.61434536661E+02  0.13071799215E+03  0.00000000000E+00 0.  1.
        -11    1    3    3    0    0 -0.53894261432E+02 -0.21819816985E+03  0.37348824963E+01  0.22478652559E+03  0.00000000000E+00 0. -1.
          2    1    6    6  502    0  0.14617414840E+03  0.19697471650E+03 -0.17781767410E+03  0.30296046907E+03  0.00000000000E+00 0. -1.
          3    1    5    5  503    0 -0.25217178074E+03 -0.82871070822E+02 -0.73565555249E+03  0.78207884084E+03  0.00000000000E+00 0. -1.
         -4    1    5    5    0  503 -0.37961311413E+02  0.16856414764E+02 -0.92269448681E+02  0.10118720790E+03  0.00000000000E+00 0.  1.
         -1    1    6    6    0  502  0.24424183170E+03  0.19288415291E+03 -0.27636562569E+03  0.41621668378E+03  0.00000000000E+00 0.  1.
<mgrwt>
<rscale>  0 0.14277513E+04</rscale>
<asrwt>0</asrwt>
<pdfrwt beam="1">  1        1 0.47549213E-01 0.14277513E+04</pdfrwt>
<pdfrwt beam="2">  1       -1 0.25367351E+00 0.14277513E+04</pdfrwt>
<totfact> 0.54181750E+00</totfact>
</mgrwt>
</event>
<event>
12    1  0.1518126E-007  0.2837700E+04  0.7818608E-02  0.8291659E-01
         -2   -1    0    0    0  501 -0.00000000000E+00  0.00000000000E+00  0.82251327350E+03  0.82251327350E+03  0.00000000000E+00 0.  1.
          2   -1    0    0  501    0  0.00000000000E+00 -0.00000000000E+00 -0.24475416083E+04  0.24475416083E+04  0.00000000000E+00 0. -1.
         23    2    1    2    0    0  0.99987553159E+03 -0.57080908056E+02  0.17639335675E+03  0.10214184360E+04  0.95768973460E+02 0.  0.
        254    2    1    2    0    0 -0.99987553159E+03  0.57080908056E+02 -0.18014216915E+04  0.22486364458E+04  0.89901971393E+03 0.  0.
        -24    2    4    4    0    0  0.14785924348E+03 -0.82100657271E+02 -0.26339192254E+03  0.32290552228E+03  0.79308244537E+02 0.  0.
         24    2    4    4    0    0 -0.11477347751E+04  0.13918156533E+03 -0.15380297690E+04  0.19257309235E+04  0.78977196499E+02 0.  0.
         13    1    3    3    0    0  0.40306509869E+03 -0.47712602571E+02  0.30873904584E+02  0.40705179549E+03  0.00000000000E+00 0.  1.
        -13    1    3    3    0    0  0.59681043290E+03 -0.93683054852E+01  0.14551945217E+03  0.61436664047E+03  0.00000000000E+00 0. -1.
          4    1    6    6  502    0 -0.10253069767E+04  0.11734674223E+03 -0.13309226414E+04  0.16841554951E+04  0.00000000000E+00 0. -1.
          1    1    5    5  503    0  0.12617056241E+03 -0.62277300488E+02 -0.14956138074E+03  0.20534380824E+03  0.00000000000E+00 0. -1.
         -2    1    5    5    0  503  0.21688681076E+02 -0.19823356783E+02 -0.11383054181E+03  0.11756171404E+03  0.00000000000E+00 0.  1.
         -3    1    6    6    0  502 -0.12242779833E+03  0.21834823101E+02 -0.20710712761E+03  0.24157542841E+03  0.00000000000E+00 0.  1.
<mgrwt>
<rscale>  0 0.28377001E+04</rscale>
<asrwt>0</asrwt>
<pdfrwt beam="1">  1        2 0.37654486E+00 0.28377001E+04</pdfrwt>
<pdfrwt beam="2">  1       -2 0.12654051E+00 0.28377001E+04</pdfrwt>
<totfact> 0.15052807E+00</totfact>
</mgrwt>
</event>
<event>
12    1  0.1518126E-007  0.1618739E+04  0.7818608E-02  0.8809118E-01
          1   -1    0    0  501    0  0.00000000000E+00  0.00000000000E+00  0.84541592722E+03  0.84541592722E+03  0.00000000000E+00 0. -1.
         -1   -1    0    0    0  501 -0.00000000000E+00 -0.00000000000E+00 -0.77485980483E+03  0.77485980483E+03  0.00000000000E+00 0.  1.
         23    2    1    2    0    0  0.28306330124E+03 -0.43499614557E+03  0.15235037603E+03  0.54856536472E+03  0.91470449427E+02 0.  0.
        254    2    1    2    0    0 -0.28306330124E+03  0.43499614557E+03 -0.81794253636E+02  0.10717103673E+04  0.93409117990E+03 0.  0.
        -24    2    4    4    0    0  0.70474204251E+02 -0.22660872665E+03  0.13802104596E+03  0.28596838054E+03  0.80062332460E+02 0.  0.
         24    2    4    4    0    0 -0.35353750549E+03  0.66160487223E+03 -0.21981529960E+03  0.78574198680E+03  0.79761702251E+02 0.  0.
         13    1    3    3    0    0 -0.71800634636E+01 -0.10090757427E+02  0.44323937764E+01  0.13153813568E+02  0.00000000000E+00 0.  1.
        -13    1    3    3    0    0  0.29024336470E+03 -0.42490538815E+03  0.14791798225E+03  0.53541155115E+03  0.00000000000E+00 0. -1.
          4    1    6    6  502    0 -0.62520963426E+01 -0.52212645096E+00  0.46680755872E+00  0.62912029060E+01  0.00000000000E+00 0. -1.
          1    1    5    5  503    0  0.40016500035E+02 -0.11227695431E+03  0.23871727890E+02  0.12156189426E+03  0.00000000000E+00 0. -1.
         -2    1    5    5    0  503  0.30457704216E+02 -0.11433177234E+03  0.11414931807E+03  0.16440648628E+03  0.00000000000E+00 0.  1.
         -3    1    6    6    0  502 -0.34728540914E+03  0.66212699868E+03 -0.22028210716E+03  0.77945078390E+03  0.00000000000E+00 0.  1.
<mgrwt>
<rscale>  0 0.16187388E+04</rscale>
<asrwt>0</asrwt>
<pdfrwt beam="1">  1        1 0.13006399E+00 0.16187388E+04</pdfrwt>
<pdfrwt beam="2">  1       -1 0.11920920E+00 0.16187388E+04</pdfrwt>
<totfact> 0.12184285E+01</totfact>
</mgrwt>
</event>
<event>
12    1  0.1518126E-007  0.1400287E+04  0.7818608E-02  0.8953611E-01
          2   -1    0    0  501    0  0.00000000000E+00  0.00000000000E+00  0.20533111190E+04  0.20533111190E+04  0.00000000000E+00 0. -1.
         -2   -1    0    0    0  501 -0.00000000000E+00 -0.00000000000E+00 -0.23873662719E+03  0.23873662719E+03  0.00000000000E+00 0.  1.
         23    2    1    2    0    0 -0.17731171770E+03  0.29641504488E+03  0.20361400631E+03  0.41140171515E+03  0.92148703714E+02 0.  0.
        254    2    1    2    0    0  0.17731171770E+03 -0.29641504488E+03  0.16109604855E+04  0.18806460310E+04  0.90682660093E+03 0.  0.
        -24    2    4    4    0    0 -0.27535954245E+03 -0.39272932045E+03  0.65712271630E+03  0.81748027768E+03  0.80028390987E+02 0.  0.
         24    2    4    4    0    0  0.45267126015E+03  0.96314275567E+02  0.95383776918E+03  0.10631657533E+04  0.79543822593E+02 0.  0.
         13    1    3    3    0    0 -0.61113574197E+02  0.14645762994E+03  0.47316240288E+02  0.16560052208E+03  0.00000000000E+00 0. -1.
        -13    1    3    3    0    0 -0.11619814350E+03  0.14995741494E+03  0.15629776603E+03  0.24580119307E+03  0.00000000000E+00 0.  1.
          2    1    6    6  502    0 -0.16098477927E+01  0.52294124439E+01  0.19585356109E+02  0.20335302760E+02  0.00000000000E+00 0. -1.
          1    1    5    5  503    0 -0.63366741216E+02 -0.12212966407E+03  0.24327762681E+03  0.27949061244E+03  0.00000000000E+00 0. -1.
         -2    1    5    5    0  503 -0.21199280124E+03 -0.27059965638E+03  0.41384508948E+03  0.53798966524E+03  0.00000000000E+00 0.  1.
         -1    1    6    6    0  502  0.45428110795E+03  0.91084863123E+02  0.93425241308E+03  0.10428304506E+04  0.00000000000E+00 0.  1.
<mgrwt>
<rscale>  0 0.14002865E+04</rscale>
<asrwt>0</asrwt>
<pdfrwt beam="1">  1        2 0.31589401E+00 0.14002865E+04</pdfrwt>
<pdfrwt beam="2">  1       -2 0.36728713E-01 0.14002865E+04</pdfrwt>
<totfact> 0.42437302E+01</totfact>
</mgrwt>
</event>
<event>
12    1  0.1518126E-007  0.1196381E+04  0.7818608E-02  0.9116030E-01
         -2   -1    0    0    0  501 -0.00000000000E+00  0.00000000000E+00  0.69076389773E+03  0.69076389773E+03  0.00000000000E+00 0.  1.
          2   -1    0    0  501    0  0.00000000000E+00 -0.00000000000E+00 -0.51802353828E+03  0.51802353828E+03  0.00000000000E+00 0. -1.
         23    2    1    2    0    0  0.26899746981E+01  0.14296751261E+01  0.28523867277E+03  0.29925658834E+03  0.90466155497E+02 0.  0.
        254    2    1    2    0    0 -0.26899746981E+01 -0.14296751261E+01 -0.11249831332E+03  0.90953084766E+03  0.90254152947E+03 0.  0.
        -24    2    4    4    0    0 -0.33310548195E+03  0.29330481743E+02 -0.35153467909E+03  0.49177490301E+03  0.80289385104E+02 0.  0.
         24    2    4    4    0    0  0.33041550725E+03 -0.30760156869E+02  0.23903636577E+03  0.41775594465E+03  0.85211797567E+02 0.  0.
         13    1    3    3    0    0  0.26299287843E+01  0.45885635002E+02  0.13794025742E+03  0.14539574493E+03  0.00000000000E+00 0.  1.
        -13    1    3    3    0    0  0.60045913743E-01 -0.44455959876E+02  0.14729841534E+03  0.15386084342E+03  0.00000000000E+00 0. -1.
          4    1    6    6  502    0  0.68265838365E+01  0.28720387744E+01 -0.67463681011E+01  0.10018200245E+02  0.00000000000E+00 0. -1.
          1    1    5    5  503    0 -0.21423627459E+03  0.55904606573E+02 -0.21173436123E+03  0.30635591412E+03  0.00000000000E+00 0. -1.
         -2    1    5    5    0  503 -0.11886920736E+03 -0.26574124830E+02 -0.13980031786E+03  0.18541898889E+03  0.00000000000E+00 0.  1.
         -3    1    6    6    0  502  0.32358892342E+03 -0.33632195644E+02  0.24578273387E+03  0.40773774441E+03  0.00000000000E+00 0.  1.
<mgrwt>
<rscale>  0 0.11963811E+04</rscale>
<asrwt>0</asrwt>
<pdfrwt beam="1">  1        2 0.79695929E-01 0.11963811E+04</pdfrwt>
<pdfrwt beam="2">  1       -2 0.10627137E+00 0.11963811E+04</pdfrwt>
<totfact> 0.41645443E+01</totfact>
</mgrwt>
</event>
<event>
12    1  0.1518126E-007  0.1542561E+04  0.7818608E-02  0.8856633E-01
         -1   -1    0    0    0  501 -0.00000000000E+00  0.00000000000E+00  0.12213605606E+04  0.12213605606E+04  0.00000000000E+00 0.  1.
          1   -1    0    0  501    0  0.00000000000E+00 -0.00000000000E+00 -0.48705805246E+03  0.48705805246E+03  0.00000000000E+00 0. -1.
         23    2    1    2    0    0  0.39311458958E+02 -0.20492850540E+03  0.76948493362E+03  0.80210504818E+03  0.87888350246E+02 0.  0.
        254    2    1    2    0    0 -0.39311458958E+02  0.20492850540E+03 -0.35182425508E+02  0.90631356485E+03  0.88126351998E+03 0.  0.
        -24    2    4    4    0    0  0.18142361712E+03  0.11597852926E+03 -0.40128408785E+03  0.46232158526E+03  0.79666686527E+02 0.  0.
         24    2    4    4    0    0 -0.22073507608E+03  0.88949976142E+02  0.36610166234E+03  0.44399197959E+03  0.80388921550E+02 0.  0.
         13    1    3    3    0    0  0.27427583789E+02 -0.12493862860E+03  0.30666083912E+03  0.33226917329E+03  0.00000000000E+00 0. -1.
        -13    1    3    3    0    0  0.11883875169E+02 -0.79989876801E+02  0.46282409451E+03  0.46983587489E+03  0.00000000000E+00 0.  1.
          4    1    6    6  502    0 -0.19159470340E+03  0.93539135488E+02  0.35142152714E+03  0.41104159154E+03  0.00000000000E+00 0. -1.
          1    1    5    5  503    0  0.15729450307E+03  0.12524247648E+03 -0.32922309828E+03  0.38576558563E+03  0.00000000000E+00 0. -1.
         -2    1    5    5    0  503  0.24129114046E+02 -0.92639472247E+01 -0.72060989565E+02  0.76555999633E+02  0.00000000000E+00 0.  1.
         -3    1    6    6    0  502 -0.29140372675E+02 -0.45891593458E+01  0.14680135197E+02  0.32950388048E+02  0.00000000000E+00 0.  1.
<mgrwt>
<rscale>  0 0.15425609E+04</rscale>
<asrwt>0</asrwt>
<pdfrwt beam="1">  1        1 0.74932008E-01 0.15425609E+04</pdfrwt>
<pdfrwt beam="2">  1       -1 0.18790162E+00 0.15425609E+04</pdfrwt>
<totfact> 0.80977577E+00</totfact>
</mgrwt>
</event>
<event>
12    1  0.1518126E-007  0.1821902E+04  0.7818608E-02  0.8694738E-01
         -1   -1    0    0    0  501 -0.00000000000E+00  0.00000000000E+00  0.31447997859E+03  0.31447997859E+03  0.00000000000E+00 0.  1.
          1   -1    0    0  501    0  0.00000000000E+00 -0.00000000000E+00 -0.26387414788E+04  0.26387414788E+04  0.00000000000E+00 0. -1.
         23    2    1    2    0    0  0.67170863873E+03  0.36020663615E+02 -0.71082574892E+03  0.98285641961E+03  0.90793792180E+02 0.  0.
        254    2    1    2    0    0 -0.67170863873E+03 -0.36020663615E+02 -0.16134357513E+04  0.19703650378E+04  0.90921585723E+03 0.  0.
        -24    2    4    4    0    0 -0.68903118042E+03  0.23562337892E+03 -0.14913321645E+04  0.16616467005E+04  0.81949912284E+02 0.  0.
         24    2    4    4    0    0  0.17322541696E+02 -0.27164404253E+03 -0.12210358681E+03  0.30871833730E+03  0.79417690596E+02 0.  0.
         13    1    3    3    0    0  0.60274033491E+03  0.26115027106E+02 -0.67203276354E+03  0.90310904172E+03  0.00000000000E+00 0.  1.
        -13    1    3    3    0    0  0.68968303812E+02  0.99056365093E+01 -0.38792985382E+02  0.79747377889E+02  0.00000000000E+00 0. -1.
          2    1    6    6  502    0  0.43405335426E+02 -0.10117280583E+03 -0.60301054821E+02  0.12552361130E+03  0.00000000000E+00 0. -1.
          3    1    5    5  503    0 -0.16870883460E+03  0.22467357894E+02 -0.32636164223E+03  0.36807522949E+03  0.00000000000E+00 0. -1.
         -4    1    5    5    0  503 -0.52032234582E+03  0.21315602102E+03 -0.11649705223E+04  0.12935714710E+04  0.00000000000E+00 0.  1.
         -1    1    6    6    0  502 -0.26082793730E+02 -0.17047123671E+03 -0.61802531992E+02  0.18319472600E+03  0.00000000000E+00 0.  1.
<mgrwt>
<rscale>  0 0.18219016E+04</rscale>
<asrwt>0</asrwt>
<pdfrwt beam="1">  1        1 0.40596024E+00 0.18219016E+04</pdfrwt>
<pdfrwt beam="2">  1       -1 0.48381534E-01 0.18219016E+04</pdfrwt>
<totfact> 0.43683719E+00</totfact>
</mgrwt>
</event>
<event>
12    1  0.1518126E-007  0.1318646E+04  0.7818608E-02  0.9014908E-01
         -2   -1    0    0    0  501 -0.00000000000E+00  0.00000000000E+00  0.27701863541E+03  0.27701863541E+03  0.00000000000E+00 0.  1.
          2   -1    0    0  501    0  0.00000000000E+00 -0.00000000000E+00 -0.15692339952E+04  0.15692339952E+04  0.00000000000E+00 0. -1.
         23    2    1    2    0    0  0.31422233311E+03 -0.10670435989E+03 -0.42213244409E+03  0.54441097056E+03  0.89810965200E+02 0.  0.
        254    2    1    2    0    0 -0.31422233311E+03  0.10670435989E+03 -0.87008291573E+03  0.13018416601E+04  0.90973948612E+03 0.  0.
        -24    2    4    4    0    0  0.91191948334E+02  0.24713456211E+03 -0.81715405063E+03  0.86226747121E+03  0.79830985351E+02 0.  0.
         24    2    4    4    0    0 -0.40541428144E+03 -0.14043020222E+03 -0.52928865097E+02  0.43957418885E+03  0.79640576666E+02 0.  0.
         11    1    3    3    0    0  0.99823147371E+02 -0.61423357249E+02 -0.96025505662E+02  0.15152025378E+03  0.00000000000E+00 0.  1.
        -11    1    3    3    0    0  0.21439918574E+03 -0.45281002643E+02 -0.32610693843E+03  0.39289071679E+03  0.00000000000E+00 0. -1.
          4    1    6    6  502    0 -0.36174466682E+03 -0.15003975251E+03 -0.49197633046E+02  0.39470436836E+03  0.00000000000E+00 0. -1.
          3    1    5    5  503    0  0.93026410875E+02  0.22743722039E+03 -0.79702494797E+03  0.83404458515E+03  0.00000000000E+00 0. -1.
         -4    1    5    5    0  503 -0.18344625406E+01  0.19697341721E+02 -0.20129102665E+02  0.28222886064E+02  0.00000000000E+00 0.  1.
         -3    1    6    6    0  502 -0.43669614626E+02  0.96095502950E+01 -0.37312320513E+01  0.44869820493E+02  0.00000000000E+00 0.  1.
<mgrwt>
<rscale>  0 0.13186464E+04</rscale>
<asrwt>0</asrwt>
<pdfrwt beam="1">  1        2 0.24142062E+00 0.13186464E+04</pdfrwt>
<pdfrwt beam="2">  1       -2 0.42618250E-01 0.13186464E+04</pdfrwt>
<totfact> 0.59267327E+01</totfact>
</mgrwt>
</event>
<event>
12    1  0.1518126E-007  0.1950857E+04  0.7818608E-02  0.8629948E-01
         -2   -1    0    0    0  501 -0.00000000000E+00  0.00000000000E+00  0.31212215931E+03  0.31212215931E+03  0.00000000000E+00 0. -1.
          2   -1    0    0  501    0  0.00000000000E+00 -0.00000000000E+00 -0.30483596384E+04  0.30483596384E+04  0.00000000000E+00 0.  1.
         23    2    1    2    0    0 -0.45694880956E+03 -0.28510365130E+03 -0.20292851467E+04  0.21015259601E+04  0.91251564340E+02 0.  0.
        254    2    1    2    0    0  0.45694880956E+03  0.28510365130E+03 -0.70695233244E+03  0.12589558376E+04  0.89168486259E+03 0.  0.
        -24    2    4    4    0    0  0.33756585025E+03  0.31065035224E+03 -0.90064310919E+03  0.10140098427E+04  0.81262575996E+02 0.  0.
         24    2    4    4    0    0  0.11938295931E+03 -0.25546700935E+02  0.19369077675E+03  0.24494599496E+03  0.87048828507E+02 0.  0.
         13    1    3    3    0    0 -0.32951039070E+03 -0.22568299976E+03 -0.13499189342E+04  0.14077610035E+04  0.00000000000E+00 0. -1.
        -13    1    3    3    0    0 -0.12743841886E+03 -0.59420651542E+02 -0.67936621249E+03  0.69376495667E+03  0.00000000000E+00 0.  1.
          2    1    6    6  502    0  0.62946189795E+02  0.22852320796E+02  0.51456477931E+02  0.84452474780E+02  0.00000000000E+00 0. -1.
          3    1    5    5  503    0  0.24948325003E+03  0.19484222984E+03 -0.67474126950E+03  0.74530608970E+03  0.00000000000E+00 0. -1.
         -4    1    5    5    0  503  0.88082600221E+02  0.11580812240E+03 -0.22590183969E+03  0.26870375295E+03  0.00000000000E+00 0.  1.
         -1    1    6    6    0  502  0.56436769517E+02 -0.48399021730E+02  0.14223429882E+03  0.16049352018E+03  0.00000000000E+00 0.  1.
<mgrwt>
<rscale>  0 0.19508568E+04</rscale>
<asrwt>0</asrwt>
<pdfrwt beam="1">  1        2 0.46897840E+00 0.19508568E+04</pdfrwt>
<pdfrwt beam="2">  1       -2 0.48018794E-01 0.19508568E+04</pdfrwt>
<totfact> 0.62393391E+00</totfact>
</mgrwt>
</event>
<event>
12    1  0.1518126E-007  0.1422200E+04  0.7818608E-02  0.8937904E-01
          2   -1    0    0  501    0  0.00000000000E+00  0.00000000000E+00  0.91760948147E+03  0.91760948147E+03  0.00000000000E+00 0. -1.
         -2   -1    0    0    0  501 -0.00000000000E+00 -0.00000000000E+00 -0.55106610213E+03  0.55106610213E+03  0.00000000000E+00 0.  1.
         23    2    1    2    0    0 -0.30922481727E+02 -0.38518213785E+03 -0.59080690122E+02  0.40237674990E+03  0.95367928187E+02 0.  0.
        254    2    1    2    0    0  0.30922481727E+02  0.38518213785E+03  0.42562406946E+03  0.10662988337E+04  0.89806228907E+03 0.  0.
        -24    2    4    4    0    0  0.24559729290E+03 -0.18735330792E+03  0.53207831039E+01  0.31964873248E+03  0.82022613813E+02 0.  0.
         24    2    4    4    0    0 -0.21467481117E+03  0.57253544576E+03  0.42030328635E+03  0.74665010121E+03  0.83363120831E+02 0.  0.
         11    1    3    3    0    0 -0.11817774640E+01 -0.43542372078E+02  0.23709205615E+02  0.49592955095E+02  0.00000000000E+00 0. -1.
        -11    1    3    3    0    0 -0.29740704263E+02 -0.34163976577E+03 -0.82789895737E+02  0.35278379481E+03  0.00000000000E+00 0.  1.
          2    1    6    6  502    0 -0.65576642657E+02  0.22018644016E+03  0.11359577001E+03  0.25629351037E+03  0.00000000000E+00 0. -1.
          1    1    5    5  503    0  0.74831956570E+01 -0.34272210724E+02  0.10193180912E+02  0.36530584204E+02  0.00000000000E+00 0. -1.
         -2    1    5    5    0  503  0.23811409724E+03 -0.15308109720E+03 -0.48723978082E+01  0.28311814828E+03  0.00000000000E+00 0.  1.
         -1    1    6    6    0  502 -0.14909816851E+03  0.35234900560E+03  0.30670751634E+03  0.49035659084E+03  0.00000000000E+00 0.  1.
<mgrwt>
<rscale>  0 0.14222004E+04</rscale>
<asrwt>0</asrwt>
<pdfrwt beam="1">  1        2 0.14117069E+00 0.14222004E+04</pdfrwt>
<pdfrwt beam="2">  1       -2 0.84779401E-01 0.14222004E+04</pdfrwt>
<totfact> 0.33614183E+01</totfact>
</mgrwt>
</event>
<event>
12    1  0.1518126E-007  0.1235842E+04  0.7818608E-02  0.9082050E-01
         -2   -1    0    0    0  501 -0.00000000000E+00  0.00000000000E+00  0.19293070344E+03  0.19293070344E+03  0.00000000000E+00 0.  1.
          2   -1    0    0  501    0  0.00000000000E+00 -0.00000000000E+00 -0.19790868960E+04  0.19790868960E+04  0.00000000000E+00 0. -1.
         23    2    1    2    0    0 -0.55371552550E+02  0.20746886133E+03 -0.75489400772E+03  0.79030801497E+03  0.92803331730E+02 0.  0.
        254    2    1    2    0    0  0.55371552550E+02 -0.20746886133E+03 -0.10312621848E+04  0.13817095845E+04  0.89415342347E+03 0.  0.
        -24    2    4    4    0    0 -0.12785736348E+03 -0.52288914133E+03 -0.55837566980E+03  0.77935821021E+03  0.76519747042E+02 0.  0.
         24    2    4    4    0    0  0.18322891603E+03  0.31542028000E+03 -0.47288651504E+03  0.60235137427E+03  0.78375591037E+02 0.  0.
         13    1    3    3    0    0 -0.93240060897E+01 -0.69525090095E+01 -0.75594434075E+02  0.76483939061E+02  0.00000000000E+00 0. -1.
        -13    1    3    3    0    0 -0.46047546460E+02  0.21442137034E+03 -0.67929957365E+03  0.71382407591E+03  0.00000000000E+00 0.  1.
          2    1    6    6  502    0  0.63309025631E+02  0.76465719520E+02 -0.81905926179E+02  0.12869972701E+03  0.00000000000E+00 0. -1.
          1    1    5    5  503    0 -0.95551480765E+02 -0.23090004441E+03 -0.26165464152E+03  0.36181219910E+03  0.00000000000E+00 0. -1.
         -2    1    5    5    0  503 -0.32305882713E+02 -0.29198909692E+03 -0.29672102828E+03  0.41754601112E+03  0.00000000000E+00 0.  1.
         -1    1    6    6    0  502  0.11991989040E+03  0.23895456048E+03 -0.39098058886E+03  0.47365164726E+03  0.00000000000E+00 0.  1.
<mgrwt>
<rscale>  0 0.12358424E+04</rscale>
<asrwt>0</asrwt>
<pdfrwt beam="1">  1        2 0.30447489E+00 0.12358424E+04</pdfrwt>
<pdfrwt beam="2">  1       -2 0.29681648E-01 0.12358424E+04</pdfrwt>
<totfact> 0.70743515E+01</totfact>
</mgrwt>
</event>
<event>
12    1  0.1518126E-007  0.1592876E+04  0.7818608E-02  0.8824937E-01
          1   -1    0    0  501    0  0.00000000000E+00  0.00000000000E+00  0.80299657535E+03  0.80299657535E+03  0.00000000000E+00 0. -1.
         -1   -1    0    0    0  501 -0.00000000000E+00 -0.00000000000E+00 -0.78993293472E+03  0.78993293472E+03  0.00000000000E+00 0.  1.
         23    2    1    2    0    0  0.38747363761E+03 -0.27028296605E+03  0.24384012366E+03  0.53938442880E+03  0.91043146603E+02 0.  0.
        254    2    1    2    0    0 -0.38747363761E+03  0.27028296605E+03 -0.23077648303E+03  0.10535450813E+04  0.91296809998E+03 0.  0.
        -24    2    4    4    0    0  0.12131303700E+03  0.16491544217E+03 -0.43703532828E+03  0.48892396359E+03  0.78312246744E+02 0.  0.
         24    2    4    4    0    0 -0.50878667460E+03  0.10536752388E+03  0.20625884525E+03  0.56462111769E+03  0.79297540653E+02 0.  0.
         11    1    3    3    0    0  0.24724062767E+03 -0.13597080352E+03  0.10671164616E+03  0.30166763633E+03  0.00000000000E+00 0.  1.
        -11    1    3    3    0    0  0.14023300993E+03 -0.13431216254E+03  0.13712847750E+03  0.23771679247E+03  0.00000000000E+00 0. -1.
          2    1    6    6  502    0 -0.18495137181E+03  0.75546872500E+02  0.91729801993E+02  0.21983788675E+03  0.00000000000E+00 0. -1.
          3    1    5    5  503    0  0.34188819043E+02  0.44335065093E+02 -0.21120224781E+03  0.21849682566E+03  0.00000000000E+00 0. -1.
         -4    1    5    5    0  503  0.87124217952E+02  0.12058037708E+03 -0.22583308047E+03  0.27042713792E+03  0.00000000000E+00 0.  1.
         -1    1    6    6    0  502 -0.32383530280E+03  0.29820651382E+02  0.11452904325E+03  0.34478323094E+03  0.00000000000E+00 0.  1.
<mgrwt>
<rscale>  0 0.15928759E+04</rscale>
<asrwt>0</asrwt>
<pdfrwt beam="1">  1        1 0.12353793E+00 0.15928759E+04</pdfrwt>
<pdfrwt beam="2">  1       -1 0.12152814E+00 0.15928759E+04</pdfrwt>
<totfact> 0.12665370E+01</totfact>
</mgrwt>
</event>
<event>
12    1  0.1571432E-007  0.1975262E+04  0.7818608E-02  0.8618274E-01
         -4   -1    0    0    0  501 -0.00000000000E+00  0.00000000000E+00  0.12086116549E+04  0.12086116549E+04  0.00000000000E+00 0.  1.
          4   -1    0    0  501    0  0.00000000000E+00 -0.00000000000E+00 -0.80705438304E+03  0.80705438304E+03  0.00000000000E+00 0. -1.
         23    2    1    2    0    0 -0.56551722755E+02 -0.41115124696E+03 -0.51111592633E+03  0.66468687224E+03  0.91245288985E+02 0.  0.
        254    2    1    2    0    0  0.56551722755E+02  0.41115124696E+03  0.91267319822E+03  0.13509791657E+04  0.90549925137E+03 0.  0.
        -24    2    4    4    0    0  0.14050395938E+03 -0.18769162069E+03 -0.69781773221E+01  0.24753121964E+03  0.79079091151E+02 0.  0.
         24    2    4    4    0    0 -0.83952236629E+02  0.59884286765E+03  0.91965137554E+03  0.11034479461E+04  0.78599993654E+02 0.  0.
         11    1    3    3    0    0 -0.43758082925E+02 -0.27104048814E+03 -0.26724582988E+03  0.38314233598E+03  0.00000000000E+00 0. -1.
        -11    1    3    3    0    0 -0.12793639830E+02 -0.14011075882E+03 -0.24387009645E+03  0.28154453626E+03  0.00000000000E+00 0.  1.
          4    1    6    6  502    0 -0.95524737471E+02  0.57890070034E+03  0.88488494150E+03  0.10617308303E+04  0.00000000000E+00 0. -1.
          3    1    5    5  503    0  0.14178050620E+03 -0.17211624916E+03  0.11551170504E+02  0.22329161360E+03  0.00000000000E+00 0. -1.
         -4    1    5    5    0  503 -0.12765468178E+01 -0.15575371529E+02 -0.18529347826E+02  0.24239606039E+02  0.00000000000E+00 0.  1.
         -3    1    6    6    0  502  0.11572500842E+02  0.19942167307E+02  0.34766434045E+02  0.41717115778E+02  0.00000000000E+00 0.  1.
<mgrwt>
<rscale>  0 0.19752623E+04</rscale>
<asrwt>0</asrwt>
<pdfrwt beam="1">  1        4 0.12416221E+00 0.19752623E+04</pdfrwt>
<pdfrwt beam="2">  1       -4 0.18594025E+00 0.19752623E+04</pdfrwt>
<totfact> 0.14802862E-01</totfact>
</mgrwt>
</event>
<event>
12    1  0.1518126E-007  0.4081732E+04  0.7818608E-02  0.7988259E-01
         -2   -1    0    0    0  501 -0.00000000000E+00  0.00000000000E+00  0.23890325667E+04  0.23890325667E+04  0.00000000000E+00 0.  1.
          2   -1    0    0  501    0  0.00000000000E+00 -0.00000000000E+00 -0.17434397838E+04  0.17434397838E+04  0.00000000000E+00 0. -1.
         23    2    1    2    0    0  0.33654219696E+03  0.15358399533E+04 -0.84364994498E+03  0.17861965825E+04  0.81780127524E+02 0.  0.
        254    2    1    2    0    0 -0.33654219696E+03 -0.15358399533E+04  0.14892427278E+04  0.23462757680E+04  0.90282947711E+03 0.  0.
        -24    2    4    4    0    0 -0.13743149279E+03  0.84335282334E+02  0.13369975251E+03  0.22326517681E+03  0.77277812452E+02 0.  0.
         24    2    4    4    0    0 -0.19911070417E+03 -0.16201752356E+04  0.13555429753E+04  0.21230105912E+04  0.71164217255E+02 0.  0.
         11    1    3    3    0    0  0.27075588788E+02  0.18081382653E+03 -0.72430708338E+02  0.19665435384E+03  0.00000000000E+00 0.  1.
        -11    1    3    3    0    0  0.30946660817E+03  0.13550261268E+04 -0.77121923665E+03  0.15895422287E+04  0.00000000000E+00 0. -1.
          4    1    6    6  502    0 -0.82535123250E+02 -0.83352195155E+03  0.65689165671E+03  0.10644611496E+04  0.00000000000E+00 0. -1.
          3    1    5    5  503    0 -0.11190209291E+03  0.32545241688E+02  0.64703148720E+02  0.13329579367E+03  0.00000000000E+00 0. -1.
         -4    1    5    5    0  503 -0.25529399873E+02  0.51790040645E+02  0.68996603794E+02  0.89969383143E+02  0.00000000000E+00 0.  1.
         -3    1    6    6    0  502 -0.11657558092E+03 -0.78665328407E+03  0.69865131857E+03  0.10585494416E+04  0.00000000000E+00 0.  1.
<mgrwt>
<rscale>  0 0.40817322E+04</rscale>
<asrwt>0</asrwt>
<pdfrwt beam="1">  1        2 0.26822150E+00 0.40817322E+04</pdfrwt>
<pdfrwt beam="2">  1       -2 0.36754347E+00 0.40817322E+04</pdfrwt>
<totfact> 0.87484913E-02</totfact>
</mgrwt>
</event>
<event>
12    1  0.1518126E-007  0.1753325E+04  0.7818608E-02  0.8731522E-01
          1   -1    0    0  501    0  0.00000000000E+00  0.00000000000E+00  0.86525890749E+03  0.86525890749E+03  0.00000000000E+00 0. -1.
         -1   -1    0    0    0  501 -0.00000000000E+00 -0.00000000000E+00 -0.88821630335E+03  0.88821630335E+03  0.00000000000E+00 0.  1.
         23    2    1    2    0    0  0.50100459755E+03  0.37782815245E+03  0.11865311703E+03  0.64566717704E+03  0.95120038786E+02 0.  0.
        254    2    1    2    0    0 -0.50100459755E+03 -0.37782815245E+03 -0.14161051289E+03  0.11078080338E+04  0.90190098284E+03 0.  0.
        -24    2    4    4    0    0  0.11023758443E+03 -0.37580320983E+03  0.14837514117E+03  0.42622222393E+03  0.79182220918E+02 0.  0.
         24    2    4    4    0    0 -0.61124218198E+03 -0.20249426157E+01 -0.28998565407E+03  0.68158580988E+03  0.82743164335E+02 0.  0.
         13    1    3    3    0    0  0.40137021449E+03  0.34638922351E+03  0.97160053149E+02  0.53900242965E+03  0.00000000000E+00 0. -1.
        -13    1    3    3    0    0  0.99634383064E+02  0.31438928941E+02  0.21493063879E+02  0.10666474739E+03  0.00000000000E+00 0.  1.
          2    1    6    6  502    0 -0.38769420638E+03 -0.13366461286E+02 -0.22524226385E+03  0.44857500752E+03  0.00000000000E+00 0. -1.
          1    1    5    5  503    0  0.42820945255E+02 -0.23118263243E+03  0.12066801846E+03  0.26427223382E+03  0.00000000000E+00 0. -1.
         -2    1    5    5    0  503  0.67416639172E+02 -0.14462057740E+03  0.27707122709E+02  0.16194999010E+03  0.00000000000E+00 0.  1.
         -1    1    6    6    0  502 -0.22354797560E+03  0.11341518670E+02 -0.64743390216E+02  0.23301080236E+03  0.00000000000E+00 0.  1.
<mgrwt>
<rscale>  0 0.17533249E+04</rscale>
<asrwt>0</asrwt>
<pdfrwt beam="1">  1        1 0.13311675E+00 0.17533249E+04</pdfrwt>
<pdfrwt beam="2">  1       -1 0.13664866E+00 0.17533249E+04</pdfrwt>
<totfact> 0.82255966E+00</totfact>
</mgrwt>
</event>
<event>
12    1  0.1518126E-007  0.1124176E+04  0.7818608E-02  0.9181944E-01
          2   -1    0    0  501    0  0.00000000000E+00  0.00000000000E+00  0.13839896856E+04  0.13839896856E+04  0.00000000000E+00 0.  1.
         -2   -1    0    0    0  501 -0.00000000000E+00 -0.00000000000E+00 -0.22828407005E+03  0.22828407005E+03  0.00000000000E+00 0. -1.
         23    2    1    2    0    0 -0.49806986304E+02 -0.12410131234E+03  0.36556524462E+03  0.39997379155E+03  0.91973986788E+02 0.  0.
        254    2    1    2    0    0  0.49806986304E+02  0.12410131234E+03  0.79014037088E+03  0.12122999641E+04  0.90965242018E+03 0.  0.
        -24    2    4    4    0    0  0.17135688068E+03  0.14819295152E+03 -0.13548115799E+03  0.27502503887E+03  0.77196479189E+02 0.  0.
         24    2    4    4    0    0 -0.12154989438E+03 -0.24091639178E+02  0.92562152887E+03  0.93727492519E+03  0.79713780293E+02 0.  0.
         11    1    3    3    0    0 -0.47223357279E+02 -0.11863803490E+03  0.37067969553E+03  0.39205671207E+03  0.00000000000E+00 0.  1.
        -11    1    3    3    0    0 -0.25836290245E+01 -0.54632774388E+01 -0.51144509169E+01  0.79170794799E+01  0.00000000000E+00 0. -1.
          2    1    6    6  502    0 -0.91693140155E+02 -0.52885438183E+02  0.66017310934E+03  0.66860529150E+03  0.00000000000E+00 0. -1.
          3    1    5    5  503    0  0.10933279601E+02  0.30023590654E+02  0.34272198528E+01  0.32135625628E+02  0.00000000000E+00 0. -1.
         -4    1    5    5    0  503  0.16042360108E+03  0.11816936087E+03 -0.13890837784E+03  0.24288941324E+03  0.00000000000E+00 0.  1.
         -1    1    6    6    0  502 -0.29856754221E+02  0.28793799004E+02  0.26544841953E+03  0.26866963369E+03  0.00000000000E+00 0.  1.
<mgrwt>
<rscale>  0 0.11241758E+04</rscale>
<asrwt>0</asrwt>
<pdfrwt beam="1">  1        2 0.21292149E+00 0.11241758E+04</pdfrwt>
<pdfrwt beam="2">  1       -2 0.35120627E-01 0.11241758E+04</pdfrwt>
<totfact> 0.11142430E+02</totfact>
</mgrwt>
</event>
<event>
12    1  0.1518126E-007  0.1488842E+04  0.7818608E-02  0.8891907E-01
         -1   -1    0    0    0  501 -0.00000000000E+00  0.00000000000E+00  0.90605123904E+03  0.90605123904E+03  0.00000000000E+00 0.  1.
          1   -1    0    0  501    0  0.00000000000E+00 -0.00000000000E+00 -0.61162419304E+03  0.61162419304E+03  0.00000000000E+00 0. -1.
         23    2    1    2    0    0  0.13664428767E+03 -0.11224631447E+03  0.56472817470E+03  0.59878222318E+03  0.91385682864E+02 0.  0.
        254    2    1    2    0    0 -0.13664428767E+03  0.11224631447E+03 -0.27030112870E+03  0.91889320889E+03  0.86025062203E+03 0.  0.
        -24    2    4    4    0    0 -0.43491537995E+03  0.27862930925E+03 -0.11700514634E+03  0.53648526428E+03  0.85677037954E+02 0.  0.
         24    2    4    4    0    0  0.29827109227E+03 -0.16638299478E+03 -0.15329598236E+03  0.38240794461E+03  0.78020718140E+02 0.  0.
         11    1    3    3    0    0  0.73100564296E+02 -0.81801030245E+02  0.45754580688E+03  0.47051383236E+03  0.00000000000E+00 0.  1.
        -11    1    3    3    0    0  0.63543723379E+02 -0.30445284226E+02  0.10718236782E+03  0.12826839082E+03  0.00000000000E+00 0. -1.
          4    1    6    6  502    0  0.24211782607E+03 -0.15547143183E+03 -0.10113381677E+03  0.30499255189E+03  0.00000000000E+00 0. -1.
          1    1    5    5  503    0 -0.18494270023E+03  0.16497647209E+03 -0.73197612078E+02  0.25841619362E+03  0.00000000000E+00 0. -1.
         -2    1    5    5    0  503 -0.24997267972E+03  0.11365283716E+03 -0.43807534261E+02  0.27806907066E+03  0.00000000000E+00 0.  1.
         -3    1    6    6    0  502  0.56153266205E+02 -0.10911562952E+02 -0.52162165589E+02  0.77415392723E+02  0.00000000000E+00 0.  1.
<mgrwt>
<rscale>  0 0.14888423E+04</rscale>
<asrwt>0</asrwt>
<pdfrwt beam="1">  1        1 0.94096030E-01 0.14888423E+04</pdfrwt>
<pdfrwt beam="2">  1       -1 0.13939250E+00 0.14888423E+04</pdfrwt>
<totfact> 0.13674356E+01</totfact>
</mgrwt>
</event>
<event>
12    1  0.1518126E-007  0.1265348E+04  0.7818608E-02  0.9057505E-01
          2   -1    0    0  501    0  0.00000000000E+00  0.00000000000E+00  0.30632884760E+04  0.30632884760E+04  0.00000000000E+00 0. -1.
         -2   -1    0    0    0  501 -0.00000000000E+00 -0.00000000000E+00 -0.13066879478E+03  0.13066879478E+03  0.00000000000E+00 0.  1.
         23    2    1    2    0    0  0.15190507007E+03  0.28863786742E+03  0.91413173779E+03  0.97477516239E+03  0.90348294771E+02 0.  0.
        254    2    1    2    0    0 -0.15190507007E+03 -0.28863786742E+03  0.20184879435E+04  0.22191821084E+04  0.86260575209E+03 0.  0.
        -24    2    4    4    0    0 -0.42863234921E+03 -0.20219522116E+03  0.59822876743E+03  0.76736771630E+03  0.79793205120E+02 0.  0.
         24    2    4    4    0    0  0.27672727914E+03 -0.86442646262E+02  0.14202591760E+04  0.14518143921E+04  0.81108470071E+02 0.  0.
         11    1    3    3    0    0  0.94496929305E+01  0.22284847648E+02  0.21334848910E+02  0.32265878404E+02  0.00000000000E+00 0. -1.
        -11    1    3    3    0    0  0.14245537714E+03  0.26635301977E+03  0.89279688888E+03  0.94250928399E+03  0.00000000000E+00 0.  1.
          4    1    6    6  502    0  0.14793718661E+03 -0.35376200091E+02  0.92992059158E+03  0.94227872382E+03  0.00000000000E+00 0. -1.
          3    1    5    5  503    0 -0.30395725953E+03 -0.17838103196E+03  0.41481883104E+03  0.54432019140E+03  0.00000000000E+00 0. -1.
         -4    1    5    5    0  503 -0.12467508968E+03 -0.23814189200E+02  0.18340993639E+03  0.22304752489E+03  0.00000000000E+00 0.  1.
         -3    1    6    6    0  502  0.12879009253E+03 -0.51066446171E+02  0.49033858445E+03  0.50953566829E+03  0.00000000000E+00 0.  1.
<mgrwt>
<rscale>  0 0.12653477E+04</rscale>
<asrwt>0</asrwt>
<pdfrwt beam="1">  1        2 0.47127509E+00 0.12653477E+04</pdfrwt>
<pdfrwt beam="2">  1       -2 0.20102894E-01 0.12653477E+04</pdfrwt>
<totfact> 0.33500211E+01</totfact>
</mgrwt>
</event>
<event>
12    1  0.1518126E-007  0.2387592E+04  0.7818608E-02  0.8444163E-01
         -2   -1    0    0    0  501 -0.00000000000E+00  0.00000000000E+00  0.64091400906E+03  0.64091400906E+03  0.00000000000E+00 0.  1.
          2   -1    0    0  501    0  0.00000000000E+00 -0.00000000000E+00 -0.22236199046E+04  0.22236199046E+04  0.00000000000E+00 0. -1.
         23    2    1    2    0    0  0.93119078879E+03  0.42031609463E+03 -0.65134592511E+03  0.12150698918E+04  0.91440818043E+02 0.  0.
        254    2    1    2    0    0 -0.93119078879E+03 -0.42031609463E+03 -0.93135997046E+03  0.16494640219E+04  0.89973232713E+03 0.  0.
        -24    2    4    4    0    0  0.13204363312E+03 -0.21057781292E+03 -0.10055283722E+03  0.28163833206E+03  0.86201744015E+02 0.  0.
         24    2    4    4    0    0 -0.10632344219E+04 -0.20973828171E+03 -0.83080713324E+03  0.13678256899E+04  0.79050885092E+02 0.  0.
         11    1    3    3    0    0  0.71251746538E+03  0.30941479485E+03 -0.53824315911E+03  0.94505256577E+03  0.00000000000E+00 0. -1.
        -11    1    3    3    0    0  0.21867332341E+03  0.11090129978E+03 -0.11310276600E+03  0.27001732600E+03  0.00000000000E+00 0.  1.
          4    1    6    6  502    0 -0.79511982948E+03 -0.12154675230E+03 -0.61461906266E+03  0.10122972629E+04  0.00000000000E+00 0. -1.
          3    1    5    5  503    0  0.96200508967E+02 -0.11078298225E+03 -0.19165924688E+02  0.14796871207E+03  0.00000000000E+00 0. -1.
         -4    1    5    5    0  503  0.35843124151E+02 -0.99794830670E+02 -0.81386912534E+02  0.13366961999E+03  0.00000000000E+00 0.  1.
         -3    1    6    6    0  502 -0.26811459243E+03 -0.88191529408E+02 -0.21618807058E+03  0.35552842699E+03  0.00000000000E+00 0.  1.
<mgrwt>
<rscale>  0 0.23875922E+04</rscale>
<asrwt>0</asrwt>
<pdfrwt beam="1">  1        2 0.34209537E+00 0.23875922E+04</pdfrwt>
<pdfrwt beam="2">  1       -2 0.98602157E-01 0.23875922E+04</pdfrwt>
<totfact> 0.38491073E+00</totfact>
</mgrwt>
</event>
<event>
12    1  0.1518126E-007  0.1566149E+04  0.7818608E-02  0.8841618E-01
         -1   -1    0    0    0  501 -0.00000000000E+00  0.00000000000E+00  0.17132102101E+03  0.17132102101E+03  0.00000000000E+00 0.  1.
          1   -1    0    0  501    0  0.00000000000E+00 -0.00000000000E+00 -0.35792788373E+04  0.35792788373E+04  0.00000000000E+00 0. -1.
         23    2    1    2    0    0  0.14237463660E+03  0.16261109147E+03 -0.22371379267E+04  0.22493949388E+04  0.90986721235E+02 0.  0.
        254    2    1    2    0    0 -0.14237463660E+03 -0.16261109147E+03 -0.11708198896E+04  0.15012049195E+04  0.91437634060E+03 0.  0.
        -24    2    4    4    0    0  0.22779302194E+03 -0.21948379074E+03 -0.67276079922E+02  0.33319715459E+03  0.80196494053E+02 0.  0.
         24    2    4    4    0    0 -0.37016765854E+03  0.56872699262E+02 -0.11035438097E+04  0.11680077649E+04  0.78578620918E+02 0.  0.
         13    1    3    3    0    0  0.86874469813E+02  0.47985205931E+02 -0.12764138209E+04  0.12802663769E+04  0.00000000000E+00 0. -1.
        -13    1    3    3    0    0  0.55500166785E+02  0.11462588554E+03 -0.96072410581E+03  0.96912856197E+03  0.00000000000E+00 0.  1.
          4    1    6    6  502    0 -0.44566794492E+02  0.21785171028E+02 -0.88650422907E+02  0.10158587663E+03  0.00000000000E+00 0. -1.
          3    1    5    5  503    0  0.83193724916E+02 -0.11431021217E+03 -0.61839203677E+02  0.15431172212E+03  0.00000000000E+00 0. -1.
         -4    1    5    5    0  503  0.14459929702E+03 -0.10517357857E+03 -0.54368762447E+01  0.17888543248E+03  0.00000000000E+00 0.  1.
         -3    1    6    6    0  502 -0.32560086405E+03  0.35087528234E+02 -0.10148933868E+04  0.10664218883E+04  0.00000000000E+00 0.  1.
<mgrwt>
<rscale>  0 0.15661490E+04</rscale>
<asrwt>0</asrwt>
<pdfrwt beam="1">  1        1 0.55065828E+00 0.15661490E+04</pdfrwt>
<pdfrwt beam="2">  1       -1 0.26357080E-01 0.15661490E+04</pdfrwt>
<totfact> 0.26895235E+00</totfact>
</mgrwt>
</event>
<event>
12    1  0.1518126E-007  0.1641283E+04  0.7818608E-02  0.8795580E-01
         -1   -1    0    0    0  501 -0.00000000000E+00  0.00000000000E+00  0.50528716762E+03  0.50528716762E+03  0.00000000000E+00 0.  1.
          1   -1    0    0  501    0  0.00000000000E+00 -0.00000000000E+00 -0.13328110328E+04  0.13328110328E+04  0.00000000000E+00 0. -1.
         23    2    1    2    0    0 -0.15999555804E+03  0.15107512708E+03  0.27709681601E+03  0.36562194528E+03  0.92056986752E+02 0.  0.
        254    2    1    2    0    0  0.15999555804E+03 -0.15107512708E+03 -0.11046206812E+04  0.14724762551E+04  0.94846043672E+03 0.  0.
        -24    2    4    4    0    0 -0.28176528376E+03  0.23264315039E+03 -0.32723657184E+03  0.49687725962E+03  0.79301491940E+02 0.  0.
         24    2    4    4    0    0  0.44176084180E+03 -0.38371827747E+03 -0.77738410936E+03  0.97559899552E+03  0.71238955439E+02 0.  0.
         11    1    3    3    0    0 -0.72676193902E+02  0.75641902965E+02  0.62870903655E+02  0.12229585917E+03  0.00000000000E+00 0. -1.
        -11    1    3    3    0    0 -0.87319364136E+02  0.75433224112E+02  0.21422591236E+03  0.24332608610E+03  0.00000000000E+00 0.  1.
          2    1    6    6  502    0 -0.20277491653E+01 -0.57852714075E+01 -0.48165431376E+01  0.77961669898E+01  0.00000000000E+00 0. -1.
          1    1    5    5  503    0 -0.20021716395E+02  0.80542267431E+01 -0.49705897261E+02  0.54188706558E+02  0.00000000000E+00 0. -1.
         -2    1    5    5    0  503 -0.26174356737E+03  0.22458892365E+03 -0.27753067458E+03  0.44268855306E+03  0.00000000000E+00 0.  1.
         -1    1    6    6    0  502  0.44378859097E+03 -0.37793300606E+03 -0.77256756622E+03  0.96780282853E+03  0.00000000000E+00 0.  1.
<mgrwt>
<rscale>  0 0.16412828E+04</rscale>
<asrwt>0</asrwt>
<pdfrwt beam="1">  1        1 0.20504785E+00 0.16412828E+04</pdfrwt>
<pdfrwt beam="2">  1       -1 0.77736487E-01 0.16412828E+04</pdfrwt>
<totfact> 0.13589322E+01</totfact>
</mgrwt>
</event>
<event>
12    1  0.1518126E-007  0.1392862E+04  0.7818608E-02  0.8959002E-01
          2   -1    0    0  501    0  0.00000000000E+00  0.00000000000E+00  0.56975800513E+03  0.56975800513E+03  0.00000000000E+00 0. -1.
         -2   -1    0    0    0  501 -0.00000000000E+00 -0.00000000000E+00 -0.85126711752E+03  0.85126711752E+03  0.00000000000E+00 0.  1.
         23    2    1    2    0    0 -0.16069975499E+03  0.35902678817E+03 -0.12576459645E+03  0.42163751301E+03  0.85069458547E+02 0.  0.
        254    2    1    2    0    0  0.16069975499E+03 -0.35902678817E+03 -0.15574451594E+03  0.99938760965E+03  0.90542509033E+03 0.  0.
        -24    2    4    4    0    0  0.35362104925E+03 -0.43071832581E+03  0.18432226831E+03  0.59239346235E+03  0.79932427562E+02 0.  0.
         24    2    4    4    0    0 -0.19292129425E+03  0.71691537640E+02 -0.34006678425E+03  0.40699414730E+03  0.87410044280E+02 0.  0.
         13    1    3    3    0    0 -0.13760531656E+03  0.35105085274E+03 -0.11085601749E+03  0.39301524267E+03  0.00000000000E+00 0.  1.
        -13    1    3    3    0    0 -0.23094438435E+02  0.79759354233E+01 -0.14908578967E+02  0.28622270338E+02  0.00000000000E+00 0. -1.
          4    1    6    6  502    0 -0.84530619809E+02 -0.12338855854E+02 -0.11190826893E+03  0.14078754811E+03  0.00000000000E+00 0. -1.
          3    1    5    5  503    0  0.17774856278E+03 -0.15464964561E+03  0.81034612236E+02  0.24915391395E+03  0.00000000000E+00 0. -1.
         -4    1    5    5    0  503  0.17587248647E+03 -0.27606868020E+03  0.10328765608E+03  0.34323954839E+03  0.00000000000E+00 0.  1.
         -3    1    6    6    0  502 -0.10839067445E+03  0.84030393494E+02 -0.22815851532E+03  0.26620659919E+03  0.00000000000E+00 0.  1.
<mgrwt>
<rscale>  0 0.13928622E+04</rscale>
<asrwt>0</asrwt>
<pdfrwt beam="1">  1        2 0.87655079E-01 0.13928622E+04</pdfrwt>
<pdfrwt beam="2">  1       -2 0.13096417E+00 0.13928622E+04</pdfrwt>
<totfact> 0.21898860E+01</totfact>
</mgrwt>
</event>
<event>
12    1  0.1518126E-007  0.2053826E+04  0.7818608E-02  0.8581861E-01
          2   -1    0    0  501    0  0.00000000000E+00  0.00000000000E+00  0.10398871468E+04  0.10398871468E+04  0.00000000000E+00 0. -1.
         -2   -1    0    0    0  501 -0.00000000000E+00 -0.00000000000E+00 -0.10141002934E+04  0.10141002934E+04  0.00000000000E+00 0.  1.
         23    2    1    2    0    0 -0.37155211550E+03  0.25888214555E+03 -0.58675645402E+03  0.74585572052E+03  0.83346743635E+02 0.  0.
        254    2    1    2    0    0  0.37155211550E+03 -0.25888214555E+03  0.61254330741E+03  0.13081317196E+04  0.10634511520E+04 0.  0.
        -24    2    4    4    0    0  0.21185145815E+03  0.38504949378E+03  0.79896659109E+02  0.45359735651E+03  0.78885567229E+02 0.  0.
         24    2    4    4    0    0  0.15970065735E+03 -0.64393163932E+03  0.53264664830E+03  0.85453436313E+03  0.79776373275E+02 0.  0.
         11    1    3    3    0    0 -0.36468159592E+03  0.26517112246E+03 -0.57801151123E+03  0.73307959848E+03  0.00000000000E+00 0.  1.
        -11    1    3    3    0    0 -0.68705195801E+01 -0.62889769132E+01 -0.87449427945E+01  0.12776122041E+02  0.00000000000E+00 0. -1.
          2    1    6    6  502    0  0.14245726890E+03 -0.44754650446E+03  0.40000833255E+03  0.61692674867E+03  0.00000000000E+00 0. -1.
          3    1    5    5  503    0  0.20030221986E+03  0.36075732248E+03  0.94030457824E+02  0.42321218319E+03  0.00000000000E+00 0. -1.
         -2    1    5    5    0  503  0.11549238294E+02  0.24292171292E+02 -0.14133798715E+02  0.30385173315E+02  0.00000000000E+00 0.  1.
         -1    1    6    6    0  502  0.17243388451E+02 -0.19638513487E+03  0.13263831576E+03  0.23760761446E+03  0.00000000000E+00 0.  1.
<mgrwt>
<rscale>  0 0.20538256E+04</rscale>
<asrwt>0</asrwt>
<pdfrwt beam="1">  1        2 0.15998264E+00 0.20538256E+04</pdfrwt>
<pdfrwt beam="2">  1       -2 0.15601543E+00 0.20538256E+04</pdfrwt>
<totfact> 0.59265222E+00</totfact>
</mgrwt>
</event>
<event>
12    1  0.1518126E-007  0.1396521E+04  0.7818608E-02  0.8956341E-01
          2   -1    0    0  501    0  0.00000000000E+00  0.00000000000E+00  0.11570237741E+04  0.11570237741E+04  0.00000000000E+00 0.  1.
         -2   -1    0    0    0  501 -0.00000000000E+00 -0.00000000000E+00 -0.42139804585E+03  0.42139804585E+03  0.00000000000E+00 0. -1.
         23    2    1    2    0    0 -0.36168708024E+03 -0.10447255698E+03  0.75506324039E+02  0.39441688724E+03  0.90174368827E+02 0.  0.
        254    2    1    2    0    0  0.36168708024E+03  0.10447255698E+03  0.66011940422E+03  0.11840049327E+04  0.90795263848E+03 0.  0.
        -24    2    4    4    0    0  0.30463578640E+03  0.36771674972E+03  0.74648430943E+03  0.89011009318E+03  0.83896265488E+02 0.  0.
         24    2    4    4    0    0  0.57051293835E+02 -0.26324419274E+03 -0.86364905213E+02  0.29389483955E+03  0.79767942957E+02 0.  0.
         11    1    3    3    0    0 -0.36624803727E+03 -0.10624767703E+03  0.77480799693E+02  0.38913939405E+03  0.00000000000E+00 0. -1.
        -11    1    3    3    0    0  0.45609570318E+01  0.17751200504E+01 -0.19744756542E+01  0.52774931879E+01  0.00000000000E+00 0.  1.
          2    1    6    6  502    0  0.25221293028E+01  0.54118737856E+01 -0.54099011943E+01  0.80570804280E+01  0.00000000000E+00 0. -1.
          3    1    5    5  503    0  0.92323156379E+02  0.59297035334E+02  0.15015496542E+03  0.18597370041E+03  0.00000000000E+00 0. -1.
         -4    1    5    5    0  503  0.21231263003E+03  0.30841971439E+03  0.59632934401E+03  0.70413639277E+03  0.00000000000E+00 0.  1.
         -1    1    6    6    0  502  0.54529164532E+02 -0.26865606653E+03 -0.80955004018E+02  0.28583775913E+03  0.00000000000E+00 0.  1.
<mgrwt>
<rscale>  0 0.13965208E+04</rscale>
<asrwt>0</asrwt>
<pdfrwt beam="1">  1        2 0.17800366E+00 0.13965208E+04</pdfrwt>
<pdfrwt beam="2">  1       -2 0.64830469E-01 0.13965208E+04</pdfrwt>
<totfact> 0.42973418E+01</totfact>
</mgrwt>
</event>
<event>
12    1  0.1518126E-007  0.1650275E+04  0.7818608E-02  0.8790244E-01
         -1   -1    0    0    0  501 -0.00000000000E+00  0.00000000000E+00  0.37351562726E+03  0.37351562726E+03  0.00000000000E+00 0.  1.
          1   -1    0    0  501    0  0.00000000000E+00 -0.00000000000E+00 -0.18228195974E+04  0.18228195974E+04  0.00000000000E+00 0. -1.
         23    2    1    2    0    0  0.10652451788E+03 -0.28614796468E+03  0.13296399021E+03  0.34534453616E+03  0.91407304786E+02 0.  0.
        254    2    1    2    0    0 -0.10652451788E+03  0.28614796468E+03 -0.15822679604E+04  0.18509906885E+04  0.91069561323E+03 0.  0.
        -24    2    4    4    0    0 -0.16412661951E+02 -0.29162395517E+03 -0.89739562406E+03  0.94696826255E+03  0.78205354695E+02 0.  0.
         24    2    4    4    0    0 -0.90111855930E+02  0.57777191985E+03 -0.68487233633E+03  0.90402242598E+03  0.79157385350E+02 0.  0.
         13    1    3    3    0    0  0.34997716129E+02 -0.18553673638E+03  0.11371317558E+03  0.22040736599E+03  0.00000000000E+00 0. -1.
        -13    1    3    3    0    0  0.71526801752E+02 -0.10061122830E+03  0.19250814628E+02  0.12493717018E+03  0.00000000000E+00 0.  1.
          4    1    6    6  502    0  0.14903818164E+02  0.69111460913E+02 -0.82846499205E+02  0.10891308579E+03  0.00000000000E+00 0. -1.
          1    1    5    5  503    0 -0.12329522213E+01 -0.10699652659E+01 -0.68016412988E+02  0.68036001004E+02  0.00000000000E+00 0. -1.
         -2    1    5    5    0  503 -0.15179709730E+02 -0.29055398991E+03 -0.82937921107E+03  0.87893226155E+03  0.00000000000E+00 0.  1.
         -3    1    6    6    0  502 -0.10501567409E+03  0.50866045894E+03 -0.60202583713E+03  0.79510934019E+03  0.00000000000E+00 0.  1.
<mgrwt>
<rscale>  0 0.16502747E+04</rscale>
<asrwt>0</asrwt>
<pdfrwt beam="1">  1        1 0.28043379E+00 0.16502747E+04</pdfrwt>
<pdfrwt beam="2">  1       -1 0.57463941E-01 0.16502747E+04</pdfrwt>
<totfact> 0.11522098E+01</totfact>
</mgrwt>
</event>
<event>
12    1  0.1518126E-007  0.3506431E+04  0.7818608E-02  0.8112268E-01
          2   -1    0    0  501    0  0.00000000000E+00  0.00000000000E+00  0.16239473541E+04  0.16239473541E+04  0.00000000000E+00 0. -1.
         -2   -1    0    0    0  501 -0.00000000000E+00 -0.00000000000E+00 -0.18927736322E+04  0.18927736322E+04  0.00000000000E+00 0.  1.
         23    2    1    2    0    0 -0.78982236961E+03 -0.12732366604E+03  0.13073082297E+04  0.15354712491E+04  0.92663142778E+02 0.  0.
        254    2    1    2    0    0  0.78982236961E+03  0.12732366604E+03 -0.15761345078E+04  0.19812497372E+04  0.89505298320E+03 0.  0.
        -24    2    4    4    0    0  0.66493643243E+03  0.46036749383E+03 -0.12569113835E+04  0.14967744101E+04  0.80179300700E+02 0.  0.
         24    2    4    4    0    0  0.12488593718E+03 -0.33304382779E+03 -0.31922312436E+03  0.48447532706E+03  0.79361520113E+02 0.  0.
         13    1    3    3    0    0 -0.13664720555E+02 -0.13860331109E+02  0.19326425652E+02  0.27428891607E+02  0.00000000000E+00 0.  1.
        -13    1    3    3    0    0 -0.77615764905E+03 -0.11346333493E+03  0.12879818040E+04  0.15080423575E+04  0.00000000000E+00 0. -1.
          2    1    6    6  502    0  0.59568982221E+02 -0.12987891726E+03 -0.17936830536E+03  0.22932506570E+03  0.00000000000E+00 0. -1.
          3    1    5    5  503    0  0.10664254100E+03  0.74471869459E+02 -0.26076172307E+03  0.29140241438E+03  0.00000000000E+00 0. -1.
         -4    1    5    5    0  503  0.55829389143E+03  0.38589562437E+03 -0.99614966040E+03  0.12053719957E+04  0.00000000000E+00 0.  1.
         -1    1    6    6    0  502  0.65316954962E+02 -0.20316491053E+03 -0.13985481899E+03  0.25515026136E+03  0.00000000000E+00 0.  1.
<mgrwt>
<rscale>  0 0.35064311E+04</rscale>
<asrwt>0</asrwt>
<pdfrwt beam="1">  1        2 0.24983805E+00 0.35064311E+04</pdfrwt>
<pdfrwt beam="2">  1       -2 0.29119594E+00 0.35064311E+04</pdfrwt>
<totfact> 0.31950023E-01</totfact>
</mgrwt>
</event>
<event>
12    1  0.1518126E-007  0.2101964E+04  0.7818608E-02  0.8560379E-01
         -2   -1    0    0    0  501 -0.00000000000E+00  0.00000000000E+00  0.88042824800E+03  0.88042824800E+03  0.00000000000E+00 0. -1.
          2   -1    0    0  501    0  0.00000000000E+00 -0.00000000000E+00 -0.12545748026E+04  0.12545748026E+04  0.00000000000E+00 0.  1.
         23    2    1    2    0    0  0.79150294251E+03 -0.31650235211E+03 -0.22685348518E+03  0.88679015095E+03  0.91014400989E+02 0.  0.
        254    2    1    2    0    0 -0.79150294251E+03  0.31650235211E+03 -0.14729306946E+03  0.12482128997E+04  0.89982751000E+03 0.  0.
        -24    2    4    4    0    0 -0.30245735699E+02  0.27041142018E+03 -0.35415370679E+03  0.45388812155E+03  0.80947131875E+02 0.  0.
         24    2    4    4    0    0 -0.76125720681E+03  0.46090931933E+02  0.20686063733E+03  0.79432477814E+03  0.80768935630E+02 0.  0.
         13    1    3    3    0    0  0.50657673010E+03 -0.19506772698E+03 -0.18882267254E+03  0.57473942205E+03  0.00000000000E+00 0. -1.
        -13    1    3    3    0    0  0.28492621241E+03 -0.12143462513E+03 -0.38030812641E+02  0.31205072890E+03  0.00000000000E+00 0.  1.
          2    1    6    6  502    0 -0.22298477434E+03  0.30981026712E+01  0.97433580088E+02  0.24336209721E+03  0.00000000000E+00 0. -1.
          3    1    5    5  503    0 -0.27233782640E+02  0.27528449415E+02 -0.30882578802E+02  0.49530072860E+02  0.00000000000E+00 0. -1.
         -4    1    5    5    0  503 -0.30119530583E+01  0.24288297077E+03 -0.32327112799E+03  0.40435804869E+03  0.00000000000E+00 0.  1.
         -1    1    6    6    0  502 -0.53827243246E+03  0.42992829261E+02  0.10942705724E+03  0.55096268093E+03  0.00000000000E+00 0.  1.
<mgrwt>
<rscale>  0 0.21019639E+04</rscale>
<asrwt>0</asrwt>
<pdfrwt beam="1">  1        2 0.19301151E+00 0.21019639E+04</pdfrwt>
<pdfrwt beam="2">  1       -2 0.13545050E+00 0.21019639E+04</pdfrwt>
<totfact> 0.63364140E+00</totfact>
</mgrwt>
</event>
<event>
12    1  0.1518126E-007  0.1782500E+04  0.7818608E-02  0.8715661E-01
         -1   -1    0    0    0  501 -0.00000000000E+00  0.00000000000E+00  0.75111875450E+03  0.75111875450E+03  0.00000000000E+00 0.  1.
          1   -1    0    0  501    0  0.00000000000E+00 -0.00000000000E+00 -0.10575249391E+04  0.10575249391E+04  0.00000000000E+00 0. -1.
         23    2    1    2    0    0 -0.51280602745E+03  0.26614194642E+03 -0.43772024156E+03  0.72975650410E+03  0.84522115289E+02 0.  0.
        254    2    1    2    0    0  0.51280602745E+03 -0.26614194642E+03  0.13131405694E+03  0.10788871895E+04  0.90163885714E+03 0.  0.
        -24    2    4    4    0    0  0.56381362359E+03 -0.49308384001E+03 -0.76302642156E+02  0.75702649045E+03  0.79054023438E+02 0.  0.
         24    2    4    4    0    0 -0.51007596141E+02  0.22694189359E+03  0.20761669910E+03  0.32186069906E+03  0.79907558639E+02 0.  0.
         13    1    3    3    0    0 -0.10363645204E+03  0.17650248421E+02 -0.74763551907E+02  0.12900245794E+03  0.00000000000E+00 0. -1.
        -13    1    3    3    0    0 -0.40916957541E+03  0.24849169800E+03 -0.36295668965E+03  0.60075404616E+03  0.00000000000E+00 0.  1.
          4    1    6    6  502    0  0.18542881720E+02  0.21573746757E+02  0.16865969501E+02  0.33071527615E+02  0.00000000000E+00 0. -1.
          1    1    5    5  503    0  0.35120028600E+02 -0.54719523226E+02 -0.19549996349E+02  0.67895839256E+02  0.00000000000E+00 0. -1.
         -2    1    5    5    0  503  0.52869359499E+03 -0.43836431678E+03 -0.56752645807E+02  0.68913065119E+03  0.00000000000E+00 0.  1.
         -3    1    6    6    0  502 -0.69550477861E+02  0.20536814683E+03  0.19075072960E+03  0.28878917145E+03  0.00000000000E+00 0.  1.
<mgrwt>
<rscale>  0 0.17825003E+04</rscale>
<asrwt>0</asrwt>
<pdfrwt beam="1">  1        1 0.16269614E+00 0.17825003E+04</pdfrwt>
<pdfrwt beam="2">  1       -1 0.11555673E+00 0.17825003E+04</pdfrwt>
<totfact> 0.87576860E+00</totfact>
</mgrwt>
</event>
<event>
12    1  0.1518126E-007  0.1994174E+04  0.7818608E-02  0.8609349E-01
          1   -1    0    0  501    0  0.00000000000E+00  0.00000000000E+00  0.71208839931E+03  0.71208839931E+03  0.00000000000E+00 0. -1.
         -1   -1    0    0    0  501 -0.00000000000E+00 -0.00000000000E+00 -0.13961509526E+04  0.13961509526E+04  0.00000000000E+00 0.  1.
         23    2    1    2    0    0 -0.45239233954E+03 -0.39063596333E+03 -0.82341751732E+03  0.10215027769E+04  0.90533036526E+02 0.  0.
        254    2    1    2    0    0  0.45239233954E+03  0.39063596333E+03  0.13935496405E+03  0.10867365750E+04  0.89683961368E+03 0.  0.
        -24    2    4    4    0    0  0.50556627041E+03  0.49306654036E+03 -0.18367189667E+03  0.73443300709E+03  0.83334322278E+02 0.  0.
         24    2    4    4    0    0 -0.53173930874E+02 -0.10243057703E+03  0.32302686072E+03  0.35230356789E+03  0.80324100757E+02 0.  0.
         11    1    3    3    0    0 -0.18200073960E+03 -0.13589345797E+03 -0.38346933998E+03  0.44569051575E+03  0.00000000000E+00 0. -1.
        -11    1    3    3    0    0 -0.27039159994E+03 -0.25474250537E+03 -0.43994817734E+03  0.57581226117E+03  0.00000000000E+00 0.  1.
          4    1    6    6  502    0 -0.13064298183E+02  0.77697040153E+01  0.10434433537E+02  0.18436962622E+02  0.00000000000E+00 0. -1.
          3    1    5    5  503    0  0.73325949447E+02  0.10725895094E+03 -0.54111693443E+02  0.14074534730E+03  0.00000000000E+00 0. -1.
         -4    1    5    5    0  503  0.43224032097E+03  0.38580758942E+03 -0.12956020323E+03  0.59368765979E+03  0.00000000000E+00 0.  1.
         -3    1    6    6    0  502 -0.40109632691E+02 -0.11020028105E+03  0.31259242718E+03  0.33386660526E+03  0.00000000000E+00 0.  1.
<mgrwt>
<rscale>  0 0.19941744E+04</rscale>
<asrwt>0</asrwt>
<pdfrwt beam="1">  1        1 0.10955206E+00 0.19941744E+04</pdfrwt>
<pdfrwt beam="2">  1       -1 0.21479245E+00 0.19941744E+04</pdfrwt>
<totfact> 0.29381894E+00</totfact>
</mgrwt>
</event>
<event>
12    1  0.1518126E-007  0.1572435E+04  0.7818608E-02  0.8837663E-01
          2   -1    0    0  501    0  0.00000000000E+00  0.00000000000E+00  0.20273959066E+04  0.20273959066E+04  0.00000000000E+00 0. -1.
         -2   -1    0    0    0  501 -0.00000000000E+00 -0.00000000000E+00 -0.30489261729E+03  0.30489261729E+03  0.00000000000E+00 0.  1.
         23    2    1    2    0    0 -0.41476590082E+03 -0.29113759130E+03  0.37392531084E+03  0.63642211643E+03  0.91766675038E+02 0.  0.
        254    2    1    2    0    0  0.41476590082E+03  0.29113759130E+03  0.13485779785E+04  0.16958664075E+04  0.89471138273E+03 0.  0.
        -24    2    4    4    0    0 -0.16017377513E+03 -0.10573519013E+03  0.73385463825E+03  0.76216702660E+03  0.74299244187E+02 0.  0.
         24    2    4    4    0    0  0.57493967595E+03  0.39687278143E+03  0.61472334022E+03  0.93369938086E+03  0.76459879576E+02 0.  0.
         11    1    3    3    0    0 -0.15210169021E+03 -0.11023143743E+03  0.85407735149E+02  0.20635012766E+03  0.00000000000E+00 0.  1.
        -11    1    3    3    0    0 -0.26266421061E+03 -0.18090615386E+03  0.28851757569E+03  0.43007198877E+03  0.00000000000E+00 0. -1.
          2    1    6    6  502    0  0.15445823347E+03  0.74463663118E+02  0.12511033234E+03  0.21226110870E+03  0.00000000000E+00 0. -1.
          3    1    5    5  503    0 -0.59322543786E+02 -0.10374770840E+02  0.32115678475E+03  0.32675446509E+03  0.00000000000E+00 0. -1.
         -4    1    5    5    0  503 -0.10085123134E+03 -0.95360419292E+02  0.41269785350E+03  0.43541256150E+03  0.00000000000E+00 0.  1.
         -1    1    6    6    0  502  0.42048144248E+03  0.32240911831E+03  0.48961300788E+03  0.72143827215E+03  0.00000000000E+00 0.  1.
<mgrwt>
<rscale>  0 0.15724351E+04</rscale>
<asrwt>0</asrwt>
<pdfrwt beam="1">  1        2 0.31190705E+00 0.15724351E+04</pdfrwt>
<pdfrwt beam="2">  1       -2 0.46906558E-01 0.15724351E+04</pdfrwt>
<totfact> 0.26714331E+01</totfact>
</mgrwt>
</event>
<event>
12    1  0.1518126E-007  0.2741088E+04  0.7818608E-02  0.8321795E-01
         -3   -1    0    0    0  501 -0.00000000000E+00  0.00000000000E+00  0.29135417519E+04  0.29135417519E+04  0.00000000000E+00 0.  1.
          3   -1    0    0  501    0  0.00000000000E+00 -0.00000000000E+00 -0.64471032464E+03  0.64471032464E+03  0.00000000000E+00 0. -1.
         23    2    1    2    0    0 -0.50207854313E+03 -0.32428571412E+03  0.23824829568E+04  0.24583196892E+04  0.99330594299E+02 0.  0.
        254    2    1    2    0    0  0.50207854313E+03  0.32428571412E+03 -0.11365152950E+03  0.10999323874E+04  0.91634627671E+03 0.  0.
        -24    2    4    4    0    0  0.56413228556E+03  0.40763120384E+03  0.22616098423E+03  0.73595081223E+03  0.77886926217E+02 0.  0.
         24    2    4    4    0    0 -0.62053742432E+02 -0.83345489721E+02 -0.33981251373E+03  0.36398157517E+03  0.78821982757E+02 0.  0.
         13    1    3    3    0    0  0.10093551648E+00 -0.10224306256E+02  0.89160454841E+02  0.89744823438E+02  0.00000000000E+00 0. -1.
        -13    1    3    3    0    0 -0.50217947864E+03 -0.31406140786E+03  0.22933225019E+04  0.23685748657E+04  0.00000000000E+00 0.  1.
          4    1    6    6  502    0  0.43916608668E+01 -0.47836220036E+02 -0.19396498048E+03  0.19982493410E+03  0.00000000000E+00 0. -1.
          1    1    5    5  503    0  0.36331558347E+03  0.27130003282E+03  0.18520413957E+03  0.48979842212E+03  0.00000000000E+00 0. -1.
         -2    1    5    5    0  503  0.20081670209E+03  0.13633117102E+03  0.40956844664E+02  0.24615239011E+03  0.00000000000E+00 0.  1.
         -3    1    6    6    0  502 -0.66445403299E+02 -0.35509269685E+02 -0.14584753325E+03  0.16415664107E+03  0.00000000000E+00 0.  1.
<mgrwt>
<rscale>  0 0.27410877E+04</rscale>
<asrwt>0</asrwt>
<pdfrwt beam="1">  1        3 0.99186206E-01 0.27410877E+04</pdfrwt>
<pdfrwt beam="2">  1       -3 0.44823718E+00 0.27410877E+04</pdfrwt>
<totfact> 0.11669931E-02</totfact>
</mgrwt>
</event>
<event>
12    1  0.1518126E-007  0.1613340E+04  0.7818608E-02  0.8812394E-01
         -1   -1    0    0    0  501 -0.00000000000E+00  0.00000000000E+00  0.63956085794E+03  0.63956085794E+03  0.00000000000E+00 0.  1.
          1   -1    0    0  501    0  0.00000000000E+00 -0.00000000000E+00 -0.10174429069E+04  0.10174429069E+04  0.00000000000E+00 0. -1.
         23    2    1    2    0    0  0.53866079731E+03 -0.25629399426E+03 -0.32662706781E+03  0.68605369156E+03  0.90235027685E+02 0.  0.
        254    2    1    2    0    0 -0.53866079731E+03  0.25629399426E+03 -0.51254981184E+02  0.97095007332E+03  0.76437877112E+03 0.  0.
        -24    2    4    4    0    0 -0.14001215950E+03  0.26706876862E+03 -0.34842847504E+03  0.46722140070E+03  0.77228900525E+02 0.  0.
         24    2    4    4    0    0 -0.39864863780E+03 -0.10774774358E+02  0.29717349385E+03  0.50372867262E+03  0.79960352583E+02 0.  0.
         13    1    3    3    0    0  0.25716668293E+03 -0.14212511193E+03 -0.20776112228E+03  0.35985960343E+03  0.00000000000E+00 0. -1.
        -13    1    3    3    0    0  0.28149411437E+03 -0.11416888233E+03 -0.11886594554E+03  0.32619408813E+03  0.00000000000E+00 0.  1.
          2    1    6    6  502    0 -0.22384985514E+03 -0.26359838812E+02  0.12433986169E+03  0.25741794800E+03  0.00000000000E+00 0. -1.
          3    1    5    5  503    0 -0.13711582045E+03  0.27235313704E+03 -0.34432336183E+03  0.45992994790E+03  0.00000000000E+00 0. -1.
         -4    1    5    5    0  503 -0.28963390477E+01 -0.52843684210E+01 -0.41051132054E+01  0.72914527988E+01  0.00000000000E+00 0.  1.
         -1    1    6    6    0  502 -0.17479878266E+03  0.15585064455E+02  0.17283363217E+03  0.24631072462E+03  0.00000000000E+00 0.  1.
<mgrwt>
<rscale>  0 0.16133402E+04</rscale>
<asrwt>0</asrwt>
<pdfrwt beam="1">  1        1 0.15652968E+00 0.16133402E+04</pdfrwt>
<pdfrwt beam="2">  1       -1 0.98393978E-01 0.16133402E+04</pdfrwt>
<totfact> 0.13904022E+01</totfact>
</mgrwt>
</event>
<event>
12    1  0.2068082E-007  0.1931031E+04  0.7818608E-02  0.8639563E-01
         -2   -1    0    0    0  501 -0.00000000000E+00  0.00000000000E+00  0.64922703362E+03  0.64922703362E+03  0.00000000000E+00 0.  1.
          2   -1    0    0  501    0  0.00000000000E+00 -0.00000000000E+00 -0.14358922566E+04  0.14358922566E+04  0.00000000000E+00 0. -1.
         23    2    1    2    0    0  0.73798804206E+03  0.23041971063E+03 -0.18940689337E+03  0.80086844599E+03  0.88293279729E+02 0.  0.
        254    2    1    2    0    0 -0.73798804206E+03 -0.23041971063E+03 -0.59725832958E+03  0.12842508442E+04  0.83358450401E+03 0.  0.
        -24    2    4    4    0    0  0.98829509142E+02  0.16454124471E+03 -0.11009290822E+03  0.23537676707E+03  0.80253853166E+02 0.  0.
         24    2    4    4    0    0 -0.83681755121E+03 -0.39496095535E+03 -0.48716542136E+03  0.10488740771E+04  0.80925346244E+02 0.  0.
         11    1    3    3    0    0  0.71203516879E+03  0.21865373871E+03 -0.19869464177E+03  0.77089759354E+03  0.00000000000E+00 0.  1.
        -11    1    3    3    0    0  0.25952873270E+02  0.11765971922E+02  0.92877484031E+01  0.29970852450E+02  0.00000000000E+00 0. -1.
          4    1    6    6  502    0 -0.74029481431E+00 -0.50316376787E+01 -0.75793671452E+01  0.91275528190E+01  0.00000000000E+00 0. -1.
          3    1    5    5  503    0 -0.94558698383E+01  0.46594224696E+01  0.37821679330E+01  0.11199485989E+02  0.00000000000E+00 0. -1.
         -4    1    5    5    0  503  0.10828537898E+03  0.15988182225E+03 -0.11387507615E+03  0.22417728108E+03  0.00000000000E+00 0.  1.
         -3    1    6    6    0  502 -0.83607725639E+03 -0.38992931767E+03 -0.47958605422E+03  0.10397465243E+04  0.00000000000E+00 0.  1.
<mgrwt>
<rscale>  0 0.19310309E+04</rscale>
<asrwt>0</asrwt>
<pdfrwt beam="1">  1        2 0.22090650E+00 0.19310309E+04</pdfrwt>
<pdfrwt beam="2">  1       -2 0.99881083E-01 0.19310309E+04</pdfrwt>
<totfact> 0.10683186E+01</totfact>
</mgrwt>
</event>
<event>
12    1  0.1518126E-007  0.1770654E+04  0.7818608E-02  0.8722063E-01
         -2   -1    0    0    0  501 -0.00000000000E+00  0.00000000000E+00  0.30087274340E+03  0.30087274340E+03  0.00000000000E+00 0.  1.
          2   -1    0    0  501    0  0.00000000000E+00 -0.00000000000E+00 -0.26051004885E+04  0.26051004885E+04  0.00000000000E+00 0. -1.
         23    2    1    2    0    0  0.28481510820E+03  0.21662570729E+03  0.39875735154E+02  0.37141843955E+03  0.91187938180E+02 0.  0.
        254    2    1    2    0    0 -0.28481510820E+03 -0.21662570729E+03 -0.23441034802E+04  0.25345547923E+04  0.89504219249E+03 0.  0.
        -24    2    4    4    0    0 -0.24391074554E+03 -0.55412658878E+03 -0.13634842301E+04  0.14935342009E+04  0.70756167963E+02 0.  0.
         24    2    4    4    0    0 -0.40904362655E+02  0.33750088149E+03 -0.98061925011E+03  0.10410205914E+04  0.80806844804E+02 0.  0.
         13    1    3    3    0    0  0.23377421139E+03  0.15846842880E+03 -0.40295081586E+01  0.28245152110E+03  0.00000000000E+00 0.  1.
        -13    1    3    3    0    0  0.51040896811E+02  0.58157278494E+02  0.43905243313E+02  0.88966918455E+02  0.00000000000E+00 0. -1.
          4    1    6    6  502    0 -0.22818502162E+02  0.32737302853E+03 -0.90718043683E+03  0.96471245914E+03  0.00000000000E+00 0. -1.
          3    1    5    5  503    0 -0.24303867551E+03 -0.53544926648E+03 -0.12898588761E+04  0.14175717390E+04  0.00000000000E+00 0. -1.
         -4    1    5    5    0  503 -0.87207003035E+00 -0.18677322299E+02 -0.73625354004E+02  0.75962461957E+02  0.00000000000E+00 0.  1.
         -3    1    6    6    0  502 -0.18085860493E+02  0.10127852966E+02 -0.73438813273E+02  0.76308132269E+02  0.00000000000E+00 0.  1.
<mgrwt>
<rscale>  0 0.17706538E+04</rscale>
<asrwt>0</asrwt>
<pdfrwt beam="1">  1        2 0.40078469E+00 0.17706538E+04</pdfrwt>
<pdfrwt beam="2">  1       -2 0.46288115E-01 0.17706538E+04</pdfrwt>
<totfact> 0.12677935E+01</totfact>
</mgrwt>
</event>
<event>
12    1  0.1518126E-007  0.2089902E+04  0.7818608E-02  0.8565705E-01
          1   -1    0    0  501    0  0.00000000000E+00  0.00000000000E+00  0.11645934796E+04  0.11645934796E+04  0.00000000000E+00 0. -1.
         -1   -1    0    0    0  501 -0.00000000000E+00 -0.00000000000E+00 -0.93759985199E+03  0.93759985199E+03  0.00000000000E+00 0.  1.
         23    2    1    2    0    0 -0.49900535153E+03  0.34561298280E+03 -0.50179434600E+03  0.79284180593E+03  0.91355836310E+02 0.  0.
        254    2    1    2    0    0  0.49900535153E+03 -0.34561298280E+03  0.72878797363E+03  0.13093515257E+04  0.90267094369E+03 0.  0.
        -24    2    4    4    0    0  0.26219993494E+03 -0.60800793664E+03  0.66398889483E+03  0.94110900882E+03  0.79890281775E+02 0.  0.
         24    2    4    4    0    0  0.23680541659E+03  0.26239495384E+03  0.64799078802E+02  0.36824251687E+03  0.80471817980E+02 0.  0.
         11    1    3    3    0    0 -0.22091243242E+03  0.99710018141E+02 -0.20929033405E+03  0.32022934663E+03  0.00000000000E+00 0. -1.
        -11    1    3    3    0    0 -0.27809291912E+03  0.24590296465E+03 -0.29250401194E+03  0.47261245931E+03  0.00000000000E+00 0.  1.
          2    1    6    6  502    0  0.13968612138E+03  0.16350519664E+03 -0.44437032177E+00  0.21504966705E+03  0.00000000000E+00 0. -1.
          3    1    5    5  503    0  0.25355565991E+03 -0.57633309887E+03  0.60284124460E+03  0.87170400924E+03  0.00000000000E+00 0. -1.
         -4    1    5    5    0  503  0.86442750288E+01 -0.31674837765E+02  0.61147650223E+02  0.69404999575E+02  0.00000000000E+00 0.  1.
         -1    1    6    6    0  502  0.97119295216E+02  0.98889757200E+02  0.65243449123E+02  0.15319284982E+03  0.00000000000E+00 0.  1.
<mgrwt>
<rscale>  0 0.20899021E+04</rscale>
<asrwt>0</asrwt>
<pdfrwt beam="1">  1        1 0.17916823E+00 0.20899021E+04</pdfrwt>
<pdfrwt beam="2">  1       -1 0.14424613E+00 0.20899021E+04</pdfrwt>
<totfact> 0.40464745E+00</totfact>
</mgrwt>
</event>
<event>
12    1  0.1518126E-007  0.1692426E+04  0.7818608E-02  0.8765696E-01
          1   -1    0    0  501    0  0.00000000000E+00  0.00000000000E+00  0.81839597274E+03  0.81839597274E+03  0.00000000000E+00 0. -1.
         -1   -1    0    0    0  501 -0.00000000000E+00 -0.00000000000E+00 -0.87497506517E+03  0.87497506517E+03  0.00000000000E+00 0.  1.
         23    2    1    2    0    0  0.58064223020E+03 -0.14558098317E+03 -0.90263227246E+02  0.61200804977E+03  0.89817485105E+02 0.  0.
        254    2    1    2    0    0 -0.58064223020E+03  0.14558098317E+03  0.33684134820E+02  0.10813629881E+04  0.89992892443E+03 0.  0.
        -24    2    4    4    0    0 -0.71229035042E+03  0.14244668475E+01  0.26867427572E+03  0.76579314423E+03  0.83028313898E+02 0.  0.
         24    2    4    4    0    0  0.13164812022E+03  0.14415651633E+03 -0.23499014090E+03  0.31556984391E+03  0.79067258123E+02 0.  0.
         13    1    3    3    0    0  0.47345684946E+03 -0.12999968799E+03 -0.10674347202E+03  0.50244947606E+03  0.00000000000E+00 0.  1.
        -13    1    3    3    0    0  0.10718538074E+03 -0.15581295186E+02  0.16480244769E+02  0.10955857371E+03  0.00000000000E+00 0. -1.
          2    1    6    6  502    0  0.53990575282E+02  0.11254483634E+03 -0.11909218616E+03  0.17252324831E+03  0.00000000000E+00 0. -1.
          3    1    5    5  503    0 -0.11334892440E+03  0.28579677781E+02  0.31843891088E+02  0.12115613911E+03  0.00000000000E+00 0. -1.
         -4    1    5    5    0  503 -0.59894142602E+03 -0.27155210933E+02  0.23683038463E+03  0.64463700512E+03  0.00000000000E+00 0.  1.
         -1    1    6    6    0  502  0.77657544938E+02  0.31611679992E+02 -0.11589795474E+03  0.14304659559E+03  0.00000000000E+00 0.  1.
<mgrwt>
<rscale>  0 0.16924256E+04</rscale>
<asrwt>0</asrwt>
<pdfrwt beam="1">  1        1 0.12590707E+00 0.16924256E+04</pdfrwt>
<pdfrwt beam="2">  1       -1 0.13461155E+00 0.16924256E+04</pdfrwt>
<totfact> 0.94188047E+00</totfact>
</mgrwt>
</event>
<event>
12    1  0.1518126E-007  0.1371192E+04  0.7818608E-02  0.8974939E-01
          2   -1    0    0  501    0  0.00000000000E+00  0.00000000000E+00  0.79880746209E+03  0.79880746209E+03  0.00000000000E+00 0. -1.
         -2   -1    0    0    0  501 -0.00000000000E+00 -0.00000000000E+00 -0.58842959526E+03  0.58842959526E+03  0.00000000000E+00 0.  1.
         23    2    1    2    0    0 -0.94096516669E+02  0.31755916736E+03 -0.14112990037E+03  0.36854370759E+03  0.78796169963E+02 0.  0.
        254    2    1    2    0    0  0.94096516669E+02 -0.31755916736E+03  0.35150776720E+03  0.10186933498E+04  0.89692834230E+03 0.  0.
        -24    2    4    4    0    0  0.18516083953E+03 -0.44765215557E+03  0.55968662424E+03  0.74442072498E+03  0.78969041667E+02 0.  0.
         24    2    4    4    0    0 -0.91064322860E+02  0.13009298822E+03 -0.20817885705E+03  0.27427262478E+03  0.81670923217E+02 0.  0.
         13    1    3    3    0    0 -0.83058743904E+01  0.63382053240E+02 -0.61512738141E+02  0.88713523073E+02  0.00000000000E+00 0. -1.
        -13    1    3    3    0    0 -0.85790642279E+02  0.25417711412E+03 -0.79617162230E+02  0.27983018452E+03  0.00000000000E+00 0.  1.
          4    1    6    6  502    0 -0.10094947903E+03  0.11555346956E+03 -0.20553733618E+03  0.25649366115E+03  0.00000000000E+00 0. -1.
          3    1    5    5  503    0  0.12755534719E+03 -0.21499446977E+03  0.26013550030E+03  0.36078174447E+03  0.00000000000E+00 0. -1.
         -4    1    5    5    0  503  0.57605492340E+02 -0.23265768580E+03  0.29955112394E+03  0.38363898051E+03  0.00000000000E+00 0.  1.
         -3    1    6    6    0  502  0.98851561729E+01  0.14539518653E+02 -0.26415208684E+01  0.17778963629E+02  0.00000000000E+00 0.  1.
<mgrwt>
<rscale>  0 0.13711921E+04</rscale>
<asrwt>0</asrwt>
<pdfrwt beam="1">  1        2 0.12289346E+00 0.13711921E+04</pdfrwt>
<pdfrwt beam="2">  1       -2 0.90527629E-01 0.13711921E+04</pdfrwt>
<totfact> 0.35109365E+01</totfact>
</mgrwt>
</event>
<event>
12    1  0.1518126E-007  0.2958537E+04  0.7818608E-02  0.8255671E-01
         -2   -1    0    0    0  501 -0.00000000000E+00  0.00000000000E+00  0.22099550844E+04  0.22099550844E+04  0.00000000000E+00 0.  1.
          2   -1    0    0  501    0  0.00000000000E+00 -0.00000000000E+00 -0.99017213097E+03  0.99017213097E+03  0.00000000000E+00 0. -1.
         23    2    1    2    0    0  0.62312499595E+03  0.81258470900E+03 -0.38276050257E+03  0.11001194604E+04  0.12320127788E+03 0.  0.
        254    2    1    2    0    0 -0.62312499595E+03 -0.81258470900E+03  0.16025434560E+04  0.21000077550E+04  0.89067860244E+03 0.  0.
        -24    2    4    4    0    0  0.84333885718E+02 -0.22801722503E+03  0.91613258104E+03  0.95117632899E+03  0.79582935298E+02 0.  0.
         24    2    4    4    0    0 -0.70745888167E+03 -0.58456748396E+03  0.68641087492E+03  0.11488314260E+04  0.80228072210E+02 0.  0.
         13    1    3    3    0    0  0.47258734559E+02  0.39753007361E+02 -0.53294895056E+02  0.81572271180E+02  0.00000000000E+00 0. -1.
        -13    1    3    3    0    0  0.57586626139E+03  0.77283170163E+03 -0.32946560751E+03  0.10185471892E+04  0.00000000000E+00 0.  1.
          2    1    6    6  502    0 -0.33960073187E+03 -0.32211498517E+03  0.31906568805E+03  0.56647121202E+03  0.00000000000E+00 0. -1.
          1    1    5    5  503    0 -0.10563673789E+02 -0.59834432830E+02  0.27288508765E+03  0.27956756181E+03  0.00000000000E+00 0. -1.
         -2    1    5    5    0  503  0.94897559507E+02 -0.16818279220E+03  0.64324749339E+03  0.67160876718E+03  0.00000000000E+00 0.  1.
         -1    1    6    6    0  502 -0.36785814980E+03 -0.26245249880E+03  0.36734518687E+03  0.58236021397E+03  0.00000000000E+00 0.  1.
<mgrwt>
<rscale>  0 0.29585374E+04</rscale>
<asrwt>0</asrwt>
<pdfrwt beam="1">  1        2 0.15233417E+00 0.29585374E+04</pdfrwt>
<pdfrwt beam="2">  1       -2 0.33999309E+00 0.29585374E+04</pdfrwt>
<totfact> 0.39471099E-01</totfact>
</mgrwt>
</event>
<event>
12    1  0.1518126E-007  0.1347056E+04  0.7818608E-02  0.8993060E-01
          2   -1    0    0  501    0  0.00000000000E+00  0.00000000000E+00  0.12252205848E+04  0.12252205848E+04  0.00000000000E+00 0.  1.
         -2   -1    0    0    0  501 -0.00000000000E+00 -0.00000000000E+00 -0.37025148373E+03  0.37025148373E+03  0.00000000000E+00 0. -1.
         23    2    1    2    0    0  0.48017524613E+02 -0.97596520118E+02 -0.17707528980E+03  0.22792272601E+03  0.93607410831E+02 0.  0.
        254    2    1    2    0    0 -0.48017524613E+02  0.97596520118E+02  0.10320443909E+04  0.13675493426E+04  0.89064292290E+03 0.  0.
        -24    2    4    4    0    0  0.27402333453E+03  0.36510520501E+03  0.44882520919E+03  0.64528294319E+03  0.80965485084E+02 0.  0.
         24    2    4    4    0    0 -0.32204085914E+03 -0.26750868490E+03  0.58321918173E+03  0.72226639937E+03  0.79075446699E+02 0.  0.
         13    1    3    3    0    0 -0.14511057064E+01  0.17551413447E+02 -0.15654884557E+02  0.23563387538E+02  0.00000000000E+00 0.  1.
        -13    1    3    3    0    0  0.49468630320E+02 -0.11514793356E+03 -0.16142040524E+03  0.20435933847E+03  0.00000000000E+00 0. -1.
          2    1    6    6  502    0 -0.17296253930E+03 -0.12244759363E+03  0.23320796616E+03  0.31511173997E+03  0.00000000000E+00 0. -1.
          3    1    5    5  503    0  0.24191410690E+03  0.30323653097E+03  0.41409285708E+03  0.56740437355E+03  0.00000000000E+00 0. -1.
         -4    1    5    5    0  503  0.32109227626E+02  0.61868674047E+02  0.34732352103E+02  0.77878569643E+02  0.00000000000E+00 0.  1.
         -1    1    6    6    0  502 -0.14907831984E+03 -0.14506109127E+03  0.35001121557E+03  0.40715465940E+03  0.00000000000E+00 0.  1.
<mgrwt>
<rscale>  0 0.13470557E+04</rscale>
<asrwt>0</asrwt>
<pdfrwt beam="1">  1        2 0.18849547E+00 0.13470557E+04</pdfrwt>
<pdfrwt beam="2">  1       -2 0.56961767E-01 0.13470557E+04</pdfrwt>
<totfact> 0.51644896E+01</totfact>
</mgrwt>
</event>
<event>
12    1  0.1518126E-007  0.2218012E+04  0.7818608E-02  0.8510968E-01
          2   -1    0    0  501    0  0.00000000000E+00  0.00000000000E+00  0.30663276114E+04  0.30663276114E+04  0.00000000000E+00 0. -1.
         -2   -1    0    0    0  501 -0.00000000000E+00 -0.00000000000E+00 -0.40109700315E+03  0.40109700315E+03  0.00000000000E+00 0.  1.
         23    2    1    2    0    0 -0.94436824635E+02  0.18527490048E+03  0.25135210637E+04  0.25237646288E+04  0.91403836540E+02 0.  0.
        254    2    1    2    0    0  0.94436824635E+02 -0.18527490048E+03  0.15170954453E+03  0.94365998573E+03  0.90787294274E+03 0.  0.
        -24    2    4    4    0    0 -0.19851822019E+03  0.26754564439E+03  0.19903347972E+03  0.39615083588E+03  0.79567601061E+02 0.  0.
         24    2    4    4    0    0  0.29295504482E+03 -0.45282054487E+03 -0.47323935183E+02  0.54750914985E+03  0.81594179834E+02 0.  0.
         13    1    3    3    0    0 -0.19086804369E+02  0.12149933869E+03  0.16610125913E+04  0.16655597329E+04  0.00000000000E+00 0. -1.
        -13    1    3    3    0    0 -0.75350020266E+02  0.63775561796E+02  0.85250847245E+03  0.85820489595E+03  0.00000000000E+00 0.  1.
          4    1    6    6  502    0  0.12240618555E+03 -0.11970037791E+03 -0.13053741833E+02  0.17170280984E+03  0.00000000000E+00 0. -1.
          3    1    5    5  503    0 -0.16773883559E+03  0.26214840733E+03  0.18284358677E+03  0.36095689722E+03  0.00000000000E+00 0. -1.
         -4    1    5    5    0  503 -0.30779384599E+02  0.53972370578E+01  0.16189892947E+02  0.35193938651E+02  0.00000000000E+00 0.  1.
         -3    1    6    6    0  502  0.17054885928E+03 -0.33312016697E+03 -0.34270193350E+02  0.37580634001E+03  0.00000000000E+00 0.  1.
<mgrwt>
<rscale>  0 0.22180125E+04</rscale>
<asrwt>0</asrwt>
<pdfrwt beam="1">  1        2 0.47174269E+00 0.22180125E+04</pdfrwt>
<pdfrwt beam="2">  1       -2 0.61707233E-01 0.22180125E+04</pdfrwt>
<totfact> 0.35261055E+00</totfact>
</mgrwt>
</event>
<event>
12    1  0.1518126E-007  0.2353087E+04  0.7818608E-02  0.8457279E-01
         -2   -1    0    0    0  501 -0.00000000000E+00  0.00000000000E+00  0.43974884747E+03  0.43974884747E+03  0.00000000000E+00 0. -1.
          2   -1    0    0  501    0  0.00000000000E+00 -0.00000000000E+00 -0.31478308769E+04  0.31478308769E+04  0.00000000000E+00 0.  1.
         23    2    1    2    0    0 -0.44934206850E+02 -0.78543017500E+03 -0.21089327812E+04  0.22525693898E+04  0.86900733536E+02 0.  0.
        254    2    1    2    0    0  0.44934206850E+02  0.78543017500E+03 -0.59914924824E+03  0.13350103346E+04  0.89685736271E+03 0.  0.
        -24    2    4    4    0    0  0.18402893823E+03 -0.13640599286E+03 -0.42849295041E+02  0.24648551981E+03  0.80285767098E+02 0.  0.
         24    2    4    4    0    0 -0.13909473138E+03  0.92183616786E+03 -0.55629995320E+03  0.10885248148E+04  0.79292936508E+02 0.  0.
         11    1    3    3    0    0  0.97282489621E+01 -0.10826553263E+03 -0.37008197575E+03  0.38571587102E+03  0.00000000000E+00 0.  1.
        -11    1    3    3    0    0 -0.54662455812E+02 -0.67716464236E+03 -0.17388508054E+04  0.18668535188E+04  0.00000000000E+00 0. -1.
          4    1    6    6  502    0 -0.46927846770E+02  0.37479509093E+03 -0.26961717311E+03  0.46407650557E+03  0.00000000000E+00 0. -1.
          3    1    5    5  503    0  0.28899473720E+02  0.26920273656E+01  0.11395223503E+02  0.31181368016E+02  0.00000000000E+00 0. -1.
         -4    1    5    5    0  503  0.15512946451E+03 -0.13909802022E+03 -0.54244518544E+02  0.21530415180E+03  0.00000000000E+00 0.  1.
         -3    1    6    6    0  502 -0.92166884611E+02  0.54704107693E+03 -0.28668278009E+03  0.62444830920E+03  0.00000000000E+00 0.  1.
<mgrwt>
<rscale>  0 0.23530873E+04</rscale>
<asrwt>0</asrwt>
<pdfrwt beam="1">  1        2 0.48428167E+00 0.23530873E+04</pdfrwt>
<pdfrwt beam="2">  1       -2 0.67653670E-01 0.23530873E+04</pdfrwt>
<totfact> 0.25365353E+00</totfact>
</mgrwt>
</event>
<event>
12    1  0.1518126E-007  0.1050648E+04  0.7818608E-02  0.9254675E-01
         -2   -1    0    0    0  501 -0.00000000000E+00  0.00000000000E+00  0.19845561012E+03  0.19845561012E+03  0.00000000000E+00 0.  1.
          2   -1    0    0  501    0  0.00000000000E+00 -0.00000000000E+00 -0.13905655600E+04  0.13905655600E+04  0.00000000000E+00 0. -1.
         23    2    1    2    0    0  0.85144849788E+02  0.69565829613E+02 -0.14299149879E+03  0.20195425447E+03  0.90828971580E+02 0.  0.
        254    2    1    2    0    0 -0.85144849788E+02 -0.69565829613E+02 -0.10491184511E+04  0.13870669157E+04  0.90067533217E+03 0.  0.
        -24    2    4    4    0    0 -0.26485003827E+03 -0.42139121332E+03 -0.59639993783E+03  0.78085076355E+03  0.79491708076E+02 0.  0.
         24    2    4    4    0    0  0.17970518848E+03  0.35182538370E+03 -0.45271851330E+03  0.60621615213E+03  0.80429568176E+02 0.  0.
         11    1    3    3    0    0  0.31449554987E+01 -0.16448465711E+02 -0.44702524656E+02  0.47736343387E+02  0.00000000000E+00 0. -1.
        -11    1    3    3    0    0  0.81999894289E+02  0.86014295324E+02 -0.98288974137E+02  0.15421791109E+03  0.00000000000E+00 0.  1.
          2    1    6    6  502    0  0.10789989844E+03  0.17519310271E+03 -0.28985237782E+03  0.35545662499E+03  0.00000000000E+00 0. -1.
          1    1    5    5  503    0 -0.74715294147E+02 -0.17420087287E+03 -0.26474442595E+03  0.32560394709E+03  0.00000000000E+00 0. -1.
         -2    1    5    5    0  503 -0.19013474412E+03 -0.24719034045E+03 -0.33165551188E+03  0.45524681646E+03  0.00000000000E+00 0.  1.
         -3    1    6    6    0  502  0.71805290039E+02  0.17663228099E+03 -0.16286613548E+03  0.25075952714E+03  0.00000000000E+00 0.  1.
<mgrwt>
<rscale>  0 0.10506484E+04</rscale>
<asrwt>0</asrwt>
<pdfrwt beam="1">  1        2 0.21393316E+00 0.10506484E+04</pdfrwt>
<pdfrwt beam="2">  1       -2 0.30531632E-01 0.10506484E+04</pdfrwt>
<totfact> 0.14460366E+02</totfact>
</mgrwt>
</event>
<event>
12    1  0.1518126E-007  0.1773712E+04  0.7818608E-02  0.8720405E-01
          2   -1    0    0  501    0  0.00000000000E+00  0.00000000000E+00  0.10215662842E+04  0.10215662842E+04  0.00000000000E+00 0. -1.
         -2   -1    0    0    0  501 -0.00000000000E+00 -0.00000000000E+00 -0.76990986522E+03  0.76990986522E+03  0.00000000000E+00 0.  1.
         23    2    1    2    0    0  0.47631895300E+03 -0.33421288125E+03  0.41114645850E+03  0.71845680527E+03  0.92524460080E+02 0.  0.
        254    2    1    2    0    0 -0.47631895300E+03  0.33421288125E+03 -0.15949003954E+03  0.10730193441E+04  0.88733051632E+03 0.  0.
        -24    2    4    4    0    0 -0.72573015696E+03  0.23457060103E+03 -0.38881706925E+02  0.76784685465E+03  0.79808379772E+02 0.  0.
         24    2    4    4    0    0  0.24941120396E+03  0.99642280223E+02 -0.12060833262E+03  0.30517248949E+03  0.80307818889E+02 0.  0.
         13    1    3    3    0    0  0.47638222931E+03 -0.33771502180E+03  0.40276745829E+03  0.70937514040E+03  0.00000000000E+00 0. -1.
        -13    1    3    3    0    0 -0.63276310954E-01  0.35021405475E+01  0.83790002098E+01  0.90816648706E+01  0.00000000000E+00 0.  1.
          4    1    6    6  502    0 -0.12321062341E+01  0.12598849097E+02 -0.14929005215E+02  0.19573560766E+02  0.00000000000E+00 0. -1.
          3    1    5    5  503    0 -0.17671746713E+03  0.46836395997E+02 -0.42147855032E+02  0.18761437275E+03  0.00000000000E+00 0. -1.
         -4    1    5    5    0  503 -0.54901268983E+03  0.18773420503E+03  0.32661481072E+01  0.58023248190E+03  0.00000000000E+00 0.  1.
         -3    1    6    6    0  502  0.25064331019E+03  0.87043431126E+02 -0.10567932740E+03  0.28559892872E+03  0.00000000000E+00 0.  1.
<mgrwt>
<rscale>  0 0.17737124E+04</rscale>
<asrwt>0</asrwt>
<pdfrwt beam="1">  1        2 0.15716404E+00 0.17737124E+04</pdfrwt>
<pdfrwt beam="2">  1       -2 0.11844767E+00 0.17737124E+04</pdfrwt>
<totfact> 0.12661295E+01</totfact>
</mgrwt>
</event>
<event>
12    1  0.1518126E-007  0.1218342E+04  0.7818608E-02  0.9096952E-01
         -2   -1    0    0    0  501 -0.00000000000E+00  0.00000000000E+00  0.57977000902E+03  0.57977000902E+03  0.00000000000E+00 0.  1.
          2   -1    0    0  501    0  0.00000000000E+00 -0.00000000000E+00 -0.64006262403E+03  0.64006262403E+03  0.00000000000E+00 0. -1.
         23    2    1    2    0    0  0.29459629967E+02  0.25807091722E+03 -0.73128055810E+02  0.28468304008E+03  0.90709716420E+02 0.  0.
        254    2    1    2    0    0 -0.29459629967E+02 -0.25807091722E+03  0.12835440807E+02  0.93514959297E+03  0.89826028777E+03 0.  0.
        -24    2    4    4    0    0 -0.38212918223E+03 -0.12521444182E+03  0.25224434963E+03  0.48138835875E+03  0.80038563642E+02 0.  0.
         24    2    4    4    0    0  0.35266955226E+03 -0.13285647540E+03 -0.23940890882E+03  0.45376123422E+03  0.80968981143E+02 0.  0.
         13    1    3    3    0    0 -0.29527678219E+01  0.15024961306E+03  0.27821414183E+00  0.15027888230E+03  0.00000000000E+00 0. -1.
        -13    1    3    3    0    0  0.32412397789E+02  0.10782130415E+03 -0.73406269952E+02  0.13440415778E+03  0.00000000000E+00 0.  1.
          2    1    6    6  502    0  0.34303344425E+02 -0.19088479739E+02 -0.58129668870E+02  0.70143765941E+02  0.00000000000E+00 0. -1.
          3    1    5    5  503    0 -0.63142947122E+02 -0.47459103777E+02  0.28064016740E+02  0.83827127698E+02  0.00000000000E+00 0. -1.
         -4    1    5    5    0  503 -0.31898623511E+03 -0.77755338042E+02  0.22418033289E+03  0.39756123105E+03  0.00000000000E+00 0.  1.
         -1    1    6    6    0  502  0.31836620784E+03 -0.11376799566E+03 -0.18127923995E+03  0.38361746828E+03  0.00000000000E+00 0.  1.
<mgrwt>
<rscale>  0 0.12183417E+04</rscale>
<asrwt>0</asrwt>
<pdfrwt beam="1">  1        2 0.98471173E-01 0.12183417E+04</pdfrwt>
<pdfrwt beam="2">  1       -2 0.89195386E-01 0.12183417E+04</pdfrwt>
<totfact> 0.48752218E+01</totfact>
</mgrwt>
</event>
<event>
12    1  0.1518126E-007  0.1884749E+04  0.7818608E-02  0.8662485E-01
         -1   -1    0    0    0  501 -0.00000000000E+00  0.00000000000E+00  0.13985084644E+04  0.13985084644E+04  0.00000000000E+00 0.  1.
          1   -1    0    0  501    0  0.00000000000E+00 -0.00000000000E+00 -0.63501181871E+03  0.63501181871E+03  0.00000000000E+00 0. -1.
         23    2    1    2    0    0  0.21234778128E+02  0.20903918086E+03 -0.45099533046E+03  0.50601230551E+03  0.92213720758E+02 0.  0.
        254    2    1    2    0    0 -0.21234778128E+02 -0.20903918086E+03  0.12144919762E+04  0.15275079776E+04  0.90229793671E+03 0.  0.
        -24    2    4    4    0    0 -0.25536277223E+03  0.16205156108E+02  0.10760839006E+01  0.26929386547E+03  0.83936139402E+02 0.  0.
         24    2    4    4    0    0  0.23412799411E+03 -0.22524433697E+03  0.12134158923E+04  0.12582141122E+04  0.71928404887E+02 0.  0.
         11    1    3    3    0    0  0.14941787166E+02  0.12918292084E+03 -0.17128718237E+03  0.21505995184E+03  0.00000000000E+00 0. -1.
        -11    1    3    3    0    0  0.62929909619E+01  0.79856260014E+02 -0.27970814809E+03  0.29095235367E+03  0.00000000000E+00 0.  1.
          4    1    6    6  502    0  0.17817007863E+03 -0.18270028546E+03  0.82777700518E+03  0.86622095422E+03  0.00000000000E+00 0. -1.
          1    1    5    5  503    0 -0.24747807189E+03  0.22183484456E+02 -0.16613281285E+02  0.24902510749E+03  0.00000000000E+00 0. -1.
         -2    1    5    5    0  503 -0.78847003484E+01 -0.59783283480E+01  0.17689365185E+02  0.20268757981E+02  0.00000000000E+00 0.  1.
         -3    1    6    6    0  502  0.55957915472E+02 -0.42544051501E+02  0.38563888711E+03  0.39199315795E+03  0.00000000000E+00 0.  1.
<mgrwt>
<rscale>  0 0.18847487E+04</rscale>
<asrwt>0</asrwt>
<pdfrwt beam="1">  1        1 0.97694126E-01 0.18847487E+04</pdfrwt>
<pdfrwt beam="2">  1       -1 0.21515515E+00 0.18847487E+04</pdfrwt>
<totfact> 0.35029734E+00</totfact>
</mgrwt>
</event>
<event>
12    1  0.1518126E-007  0.1399705E+04  0.7818608E-02  0.8954032E-01
          2   -1    0    0  501    0  0.00000000000E+00  0.00000000000E+00  0.15713875594E+04  0.15713875594E+04  0.00000000000E+00 0. -1.
         -2   -1    0    0    0  501 -0.00000000000E+00 -0.00000000000E+00 -0.31169493841E+03  0.31169493841E+03  0.00000000000E+00 0.  1.
         23    2    1    2    0    0 -0.35620279391E+03 -0.14225385628E+02  0.69379298711E+03  0.78546250262E+03  0.92302990599E+02 0.  0.
        254    2    1    2    0    0  0.35620279391E+03  0.14225385628E+02  0.56589963387E+03  0.10976199952E+04  0.87031285538E+03 0.  0.
        -24    2    4    4    0    0  0.20760870508E+03  0.37987778038E+03  0.53615112846E+03  0.69389925573E+03  0.81422614195E+02 0.  0.
         24    2    4    4    0    0  0.14859408882E+03 -0.36565239475E+03  0.29748505419E+02  0.40372073946E+03  0.79520971303E+02 0.  0.
         11    1    3    3    0    0 -0.69720573015E+02  0.34251423192E+02  0.14851599206E+03  0.16760405183E+03  0.00000000000E+00 0.  1.
        -11    1    3    3    0    0 -0.28648222089E+03 -0.48476808819E+02  0.54527699505E+03  0.61785845079E+03  0.00000000000E+00 0. -1.
          4    1    6    6  502    0  0.47889061199E+02 -0.43359410388E+02 -0.14880255340E+01  0.64618997761E+02  0.00000000000E+00 0. -1.
          3    1    5    5  503    0  0.64508649525E+02  0.52385039351E+02  0.99756058914E+02  0.12983385345E+03  0.00000000000E+00 0. -1.
         -4    1    5    5    0  503  0.14310005556E+03  0.32749274103E+03  0.43639506954E+03  0.56406540228E+03  0.00000000000E+00 0.  1.
         -3    1    6    6    0  502  0.10070502762E+03 -0.32229298436E+03  0.31236530953E+02  0.33910174170E+03  0.00000000000E+00 0.  1.
<mgrwt>
<rscale>  0 0.13997050E+04</rscale>
<asrwt>0</asrwt>
<pdfrwt beam="1">  1        2 0.24175193E+00 0.13997050E+04</pdfrwt>
<pdfrwt beam="2">  1       -2 0.47953068E-01 0.13997050E+04</pdfrwt>
<totfact> 0.46395422E+01</totfact>
</mgrwt>
</event>
<event>
12    1  0.1518126E-007  0.1687261E+04  0.7818608E-02  0.8768664E-01
          1   -1    0    0  501    0  0.00000000000E+00  0.00000000000E+00  0.13312335735E+04  0.13312335735E+04  0.00000000000E+00 0. -1.
         -1   -1    0    0    0  501 -0.00000000000E+00 -0.00000000000E+00 -0.53462612350E+03  0.53462612350E+03  0.00000000000E+00 0.  1.
         23    2    1    2    0    0  0.18935289588E+03 -0.37719806215E+03  0.74926449783E+03  0.86487851120E+03  0.92112182417E+02 0.  0.
        254    2    1    2    0    0 -0.18935289588E+03  0.37719806215E+03  0.47342952169E+02  0.10009811858E+04  0.90641551285E+03 0.  0.
        -24    2    4    4    0    0 -0.40680663982E+03 -0.13297644114E+03  0.61778287373E+02  0.44019011324E+03  0.82318909725E+02 0.  0.
         24    2    4    4    0    0  0.21745374394E+03  0.51017450330E+03 -0.14435335204E+02  0.56079107256E+03  0.81939572821E+02 0.  0.
         11    1    3    3    0    0  0.16247652791E+03 -0.33039093423E+03  0.57793856398E+03  0.68525161457E+03  0.00000000000E+00 0. -1.
        -11    1    3    3    0    0  0.26876367969E+02 -0.46807127922E+02  0.17132593385E+03  0.17962689662E+03  0.00000000000E+00 0.  1.
          2    1    6    6  502    0  0.76473505792E+02  0.16228282719E+03 -0.42523979463E+02  0.18436974242E+03  0.00000000000E+00 0. -1.
          1    1    5    5  503    0 -0.11533930578E+03 -0.69022202835E+02 -0.46082455012E+01  0.13449333020E+03  0.00000000000E+00 0. -1.
         -2    1    5    5    0  503 -0.29146733404E+03 -0.63954238306E+02  0.66386532874E+02  0.30569678304E+03  0.00000000000E+00 0.  1.
         -1    1    6    6    0  502  0.14098023815E+03  0.34789167610E+03  0.28088644259E+02  0.37642133014E+03  0.00000000000E+00 0.  1.
<mgrwt>
<rscale>  0 0.16872608E+04</rscale>
<asrwt>0</asrwt>
<pdfrwt beam="1">  1        1 0.20480516E+00 0.16872608E+04</pdfrwt>
<pdfrwt beam="2">  1       -1 0.82250173E-01 0.16872608E+04</pdfrwt>
<totfact> 0.12033267E+01</totfact>
</mgrwt>
</event>
<event>
12    1  0.1518126E-007  0.1671523E+04  0.7818608E-02  0.8777774E-01
          2   -1    0    0  501    0  0.00000000000E+00  0.00000000000E+00  0.67147021277E+03  0.67147021277E+03  0.00000000000E+00 0.  1.
         -2   -1    0    0    0  501 -0.00000000000E+00 -0.00000000000E+00 -0.10402508999E+04  0.10402508999E+04  0.00000000000E+00 0. -1.
         23    2    1    2    0    0 -0.49624297780E+03  0.30548253791E+03 -0.45655882681E+02  0.59181020629E+03  0.92618500642E+02 0.  0.
        254    2    1    2    0    0  0.49624297780E+03 -0.30548253791E+03 -0.32312480440E+03  0.11199109063E+04  0.90011895043E+03 0.  0.
        -24    2    4    4    0    0  0.16116496775E+03  0.41935212589E+02 -0.55058921624E+03  0.58074574091E+03  0.79902576087E+02 0.  0.
         24    2    4    4    0    0  0.33507801005E+03 -0.34741775050E+03  0.22746441183E+03  0.53916516542E+03  0.77347597070E+02 0.  0.
         13    1    3    3    0    0 -0.44802406681E+03  0.30105580852E+03 -0.28825718136E+02  0.54054702507E+03  0.00000000000E+00 0.  1.
        -13    1    3    3    0    0 -0.48218910994E+02  0.44267293891E+01 -0.16830164545E+02  0.51263181223E+02  0.00000000000E+00 0. -1.
          4    1    6    6  502    0  0.14376764811E+03 -0.20405420680E+03  0.10942742046E+03  0.27254653971E+03  0.00000000000E+00 0. -1.
          1    1    5    5  503    0  0.10768572845E+03  0.30692818085E+02 -0.23324474172E+03  0.25873031274E+03  0.00000000000E+00 0. -1.
         -2    1    5    5    0  503  0.53479239305E+02  0.11242394504E+02 -0.31734447452E+03  0.32201542817E+03  0.00000000000E+00 0.  1.
         -3    1    6    6    0  502  0.19131036194E+03 -0.14336354370E+03  0.11803699138E+03  0.26661862572E+03  0.00000000000E+00 0.  1.
<mgrwt>
<rscale>  0 0.16715232E+04</rscale>
<asrwt>0</asrwt>
<pdfrwt beam="1">  1        2 0.10330311E+00 0.16715232E+04</pdfrwt>
<pdfrwt beam="2">  1       -2 0.16003860E+00 0.16715232E+04</pdfrwt>
<totfact> 0.10358351E+01</totfact>
</mgrwt>
</event>
<event>
12    1  0.1518126E-007  0.1423628E+04  0.7818608E-02  0.8936891E-01
          1   -1    0    0  501    0  0.00000000000E+00  0.00000000000E+00  0.20598114310E+03  0.20598114310E+03  0.00000000000E+00 0. -1.
         -1   -1    0    0    0  501 -0.00000000000E+00 -0.00000000000E+00 -0.24598319965E+04  0.24598319965E+04  0.00000000000E+00 0.  1.
         23    2    1    2    0    0 -0.17133010126E+03  0.30818447930E+03 -0.26821692827E+03  0.45317934282E+03  0.95391400386E+02 0.  0.
        254    2    1    2    0    0  0.17133010126E+03 -0.30818447930E+03 -0.19856339252E+04  0.22126337968E+04  0.91031563601E+03 0.  0.
        -24    2    4    4    0    0 -0.14674584904E+03  0.25862710627E+03 -0.81679158821E+03  0.87277453560E+03  0.78514757289E+02 0.  0.
         24    2    4    4    0    0  0.31807595030E+03 -0.56681158558E+03 -0.11688423370E+04  0.13398592612E+04  0.81134132703E+02 0.  0.
         13    1    3    3    0    0 -0.82879805095E+02  0.23670528648E+03 -0.19790964883E+03  0.31947876900E+03  0.00000000000E+00 0. -1.
        -13    1    3    3    0    0 -0.88450296165E+02  0.71479192822E+02 -0.70307279441E+02  0.13370057382E+03  0.00000000000E+00 0.  1.
          4    1    6    6  502    0  0.30517761577E+03 -0.55907419728E+03 -0.11569167342E+04  0.13206641001E+04  0.00000000000E+00 0. -1.
          3    1    5    5  503    0 -0.15373360440E+03  0.22067014112E+03 -0.71700528871E+03  0.76578451038E+03  0.00000000000E+00 0. -1.
         -4    1    5    5    0  503  0.69877553513E+01  0.37956965158E+02 -0.99786299503E+02  0.10699002522E+03  0.00000000000E+00 0.  1.
         -3    1    6    6    0  502  0.12898334530E+02 -0.77373882973E+01 -0.11925602710E+02  0.19195161143E+02  0.00000000000E+00 0.  1.
<mgrwt>
<rscale>  0 0.14236278E+04</rscale>
<asrwt>0</asrwt>
<pdfrwt beam="1">  1        1 0.31689405E-01 0.14236278E+04</pdfrwt>
<pdfrwt beam="2">  1       -1 0.37843571E+00 0.14236278E+04</pdfrwt>
<totfact> 0.14076282E+00</totfact>
</mgrwt>
</event>
<event>
12    1  0.1518126E-007  0.1253828E+04  0.7818608E-02  0.9067003E-01
         -1   -1    0    0    0  501 -0.00000000000E+00  0.00000000000E+00  0.13390137565E+04  0.13390137565E+04  0.00000000000E+00 0.  1.
          1   -1    0    0  501    0  0.00000000000E+00 -0.00000000000E+00 -0.29351562066E+03  0.29351562066E+03  0.00000000000E+00 0. -1.
         23    2    1    2    0    0  0.26575378683E+03  0.97003161406E+02  0.15671823721E+03  0.33583904577E+03  0.90512818151E+02 0.  0.
        254    2    1    2    0    0 -0.26575378683E+03 -0.97003161406E+02  0.88877989859E+03  0.12966903314E+04  0.90080043226E+03 0.  0.
        -24    2    4    4    0    0  0.13546346905E+03  0.78529922539E+02 -0.10750387843E+03  0.20609526159E+03  0.80005454781E+02 0.  0.
         24    2    4    4    0    0 -0.40121725588E+03 -0.17553308394E+03  0.99628377702E+03  0.10905950698E+04  0.70916090411E+02 0.  0.
         13    1    3    3    0    0  0.16138712165E+03  0.72088904306E+02  0.14361010664E+03  0.22774212585E+03  0.00000000000E+00 0.  1.
        -13    1    3    3    0    0  0.10436666518E+03  0.24914257100E+02  0.13108130570E+02  0.10809691992E+03  0.00000000000E+00 0. -1.
          4    1    6    6  502    0 -0.30884291211E+03 -0.11174370999E+03  0.79403382097E+03  0.85927894768E+03  0.00000000000E+00 0. -1.
          3    1    5    5  503    0  0.19996047424E+02 -0.14455602735E+02 -0.33217003986E+01  0.24896587247E+02  0.00000000000E+00 0. -1.
         -4    1    5    5    0  503  0.11546742162E+03  0.92985525273E+02 -0.10418217803E+03  0.18119867435E+03  0.00000000000E+00 0.  1.
         -3    1    6    6    0  502 -0.92374343769E+02 -0.63789373954E+02  0.20224995605E+03  0.23131612209E+03  0.00000000000E+00 0.  1.
<mgrwt>
<rscale>  0 0.12538285E+04</rscale>
<asrwt>0</asrwt>
<pdfrwt beam="1">  1        1 0.45156250E-01 0.12538285E+04</pdfrwt>
<pdfrwt beam="2">  1       -1 0.20600211E+00 0.12538285E+04</pdfrwt>
<totfact> 0.12177029E+01</totfact>
</mgrwt>
</event>
<event>
12    1  0.1518126E-007  0.1947156E+04  0.7818608E-02  0.8631734E-01
         -1   -1    0    0    0  501 -0.00000000000E+00  0.00000000000E+00  0.10588425496E+04  0.10588425496E+04  0.00000000000E+00 0.  1.
          1   -1    0    0  501    0  0.00000000000E+00 -0.00000000000E+00 -0.89517921852E+03  0.89517921852E+03  0.00000000000E+00 0. -1.
         23    2    1    2    0    0 -0.87242934550E+02  0.20697678430E+03  0.77213098339E+03  0.80871368263E+03  0.85911850713E+02 0.  0.
        254    2    1    2    0    0  0.87242934550E+02 -0.20697678430E+03 -0.60846765234E+03  0.11453080855E+04  0.94395286313E+03 0.  0.
        -24    2    4    4    0    0  0.14383435079E+03 -0.40039350844E+03  0.65495470389E+02  0.43720502085E+03  0.76519876826E+02 0.  0.
         24    2    4    4    0    0 -0.56591416242E+02  0.19341672414E+03 -0.67396312272E+03  0.70810306461E+03  0.81061962420E+02 0.  0.
         11    1    3    3    0    0 -0.74446456671E+02  0.19835734099E+03  0.60795964179E+03  0.64381894635E+03  0.00000000000E+00 0.  1.
        -11    1    3    3    0    0 -0.12796477879E+02  0.86194433055E+01  0.16417134160E+03  0.16489473628E+03  0.00000000000E+00 0. -1.
          2    1    6    6  502    0 -0.38541637673E+02  0.30714038548E+02 -0.22207161352E+03  0.22747441951E+03  0.00000000000E+00 0. -1.
          3    1    5    5  503    0  0.10011081526E+03 -0.34778427642E+03  0.39621621157E+02  0.36406860771E+03  0.00000000000E+00 0. -1.
         -4    1    5    5    0  503  0.43723535532E+02 -0.52609232013E+02  0.25873849231E+02  0.73136413136E+02  0.00000000000E+00 0.  1.
         -1    1    6    6    0  502 -0.18049778569E+02  0.16270268559E+03 -0.45189150920E+03  0.48062864510E+03  0.00000000000E+00 0.  1.
<mgrwt>
<rscale>  0 0.19471557E+04</rscale>
<asrwt>0</asrwt>
<pdfrwt beam="1">  1        1 0.13771988E+00 0.19471557E+04</pdfrwt>
<pdfrwt beam="2">  1       -1 0.16289885E+00 0.19471557E+04</pdfrwt>
<totfact> 0.47552520E+00</totfact>
</mgrwt>
</event>
<event>
12    1  0.1518126E-007  0.1516576E+04  0.7818608E-02  0.8873504E-01
         -1   -1    0    0    0  501 -0.00000000000E+00  0.00000000000E+00  0.65503777747E+03  0.65503777747E+03  0.00000000000E+00 0.  1.
          1   -1    0    0  501    0  0.00000000000E+00 -0.00000000000E+00 -0.87781277795E+03  0.87781277795E+03  0.00000000000E+00 0. -1.
         23    2    1    2    0    0 -0.25443837174E+03 -0.51162212543E+02  0.33711844135E+03  0.43533755664E+03  0.92268562989E+02 0.  0.
        254    2    1    2    0    0  0.25443837174E+03  0.51162212543E+02 -0.55989344183E+03  0.10975129988E+04  0.90757790810E+03 0.  0.
        -24    2    4    4    0    0 -0.56856138838E+02 -0.34570123964E+03 -0.27325727945E+02  0.36003198043E+03  0.78322180242E+02 0.  0.
         24    2    4    4    0    0  0.31129451057E+03  0.39686345218E+03 -0.53256771389E+03  0.73748101834E+03  0.76452668691E+02 0.  0.
         13    1    3    3    0    0 -0.19693135798E+03 -0.74979806940E+02  0.28314230260E+03  0.35294970566E+03  0.00000000000E+00 0.  1.
        -13    1    3    3    0    0 -0.57507013758E+02  0.23817594397E+02  0.53976138751E+02  0.82387850977E+02  0.00000000000E+00 0. -1.
          2    1    6    6  502    0  0.79800278080E+02  0.60982874886E+02 -0.81750988967E+02  0.12949988266E+03  0.00000000000E+00 0. -1.
          1    1    5    5  503    0 -0.32789515521E+02 -0.37404889418E+02 -0.25732720102E+01  0.49808631876E+02  0.00000000000E+00 0. -1.
         -2    1    5    5    0  503 -0.24066623316E+02 -0.30829635022E+03 -0.24752455934E+02  0.31022334856E+03  0.00000000000E+00 0.  1.
         -1    1    6    6    0  502  0.23149423249E+03  0.33588057729E+03 -0.45081672492E+03  0.60798113569E+03  0.00000000000E+00 0.  1.
<mgrwt>
<rscale>  0 0.15165758E+04</rscale>
<asrwt>0</asrwt>
<pdfrwt beam="1">  1        1 0.13504812E+00 0.15165758E+04</pdfrwt>
<pdfrwt beam="2">  1       -1 0.10077504E+00 0.15165758E+04</pdfrwt>
<totfact> 0.17175575E+01</totfact>
</mgrwt>
</event>
<event>
12    1  0.1518126E-007  0.4165809E+04  0.7818608E-02  0.7971908E-01
         -2   -1    0    0    0  501 -0.00000000000E+00  0.00000000000E+00  0.10362848208E+04  0.10362848208E+04  0.00000000000E+00 0.  1.
          2   -1    0    0  501    0  0.00000000000E+00 -0.00000000000E+00 -0.41865809257E+04  0.41865809257E+04  0.00000000000E+00 0. -1.
         23    2    1    2    0    0  0.15202100230E+04 -0.17712337429E+03  0.54630958501E+02  0.15341634778E+04  0.90894615345E+02 0.  0.
        254    2    1    2    0    0 -0.15202100230E+04  0.17712337429E+03 -0.32049270634E+04  0.36887022688E+04  0.99627091800E+03 0.  0.
        -24    2    4    4    0    0 -0.97289695151E+03 -0.20716976309E+03 -0.25928105643E+04  0.27782504337E+04  0.81000379245E+02 0.  0.
         24    2    4    4    0    0 -0.54731307150E+03  0.38429313738E+03 -0.61211649914E+03  0.91045183502E+03  0.83684656303E+02 0.  0.
         13    1    3    3    0    0  0.21195229336E+03 -0.42360860784E+02 -0.18622352992E+02  0.21694471466E+03  0.00000000000E+00 0. -1.
        -13    1    3    3    0    0  0.13082577297E+04 -0.13476251351E+03  0.73253311493E+02  0.13172187631E+04  0.00000000000E+00 0.  1.
          2    1    6    6  502    0 -0.50460255342E+03  0.36310145224E+03 -0.53701261977E+03  0.82149190825E+03  0.00000000000E+00 0. -1.
          1    1    5    5  503    0 -0.44275710485E+03 -0.79696696002E+02 -0.12778356981E+04  0.13547138032E+04  0.00000000000E+00 0. -1.
         -2    1    5    5    0  503 -0.53013984666E+03 -0.12747306708E+03 -0.13149748662E+04  0.14235366306E+04  0.00000000000E+00 0.  1.
         -1    1    6    6    0  502 -0.42710518081E+02  0.21191685141E+02 -0.75103879368E+02  0.88959926765E+02  0.00000000000E+00 0.  1.
<mgrwt>
<rscale>  0 0.41658086E+04</rscale>
<asrwt>0</asrwt>
<pdfrwt beam="1">  1        2 0.64408938E+00 0.41658086E+04</pdfrwt>
<pdfrwt beam="2">  1       -2 0.15942843E+00 0.41658086E+04</pdfrwt>
<totfact> 0.47051764E-02</totfact>
</mgrwt>
</event>
<event>
12    1  0.1518126E-007  0.1427359E+04  0.7818608E-02  0.8934249E-01
         -1   -1    0    0    0  501 -0.00000000000E+00  0.00000000000E+00  0.38155274320E+03  0.38155274320E+03  0.00000000000E+00 0.  1.
          1   -1    0    0  501    0  0.00000000000E+00 -0.00000000000E+00 -0.13349101170E+04  0.13349101170E+04  0.00000000000E+00 0. -1.
         23    2    1    2    0    0 -0.23461560269E+03  0.27763487371E+02  0.13351640253E+03  0.28626089284E+03  0.91122866343E+02 0.  0.
        254    2    1    2    0    0  0.23461560269E+03 -0.27763487371E+02 -0.10868737763E+04  0.14302019674E+04  0.89909274801E+03 0.  0.
        -24    2    4    4    0    0 -0.10004227665E+03  0.33385199654E+03 -0.73715307485E+03  0.81934789242E+03  0.80440663534E+02 0.  0.
         24    2    4    4    0    0  0.33465787934E+03 -0.36161548392E+03 -0.34972070150E+03  0.61085407495E+03  0.89869223975E+02 0.  0.
         11    1    3    3    0    0 -0.11055712475E+02  0.26788766574E+02  0.89159603998E+01  0.30320968697E+02  0.00000000000E+00 0. -1.
        -11    1    3    3    0    0 -0.22355989021E+03  0.97472079715E+00  0.12460044213E+03  0.25593992414E+03  0.00000000000E+00 0.  1.
          2    1    6    6  502    0 -0.30528669954E+01 -0.16582233214E+02 -0.20237056568E+02  0.26340632373E+02  0.00000000000E+00 0. -1.
          3    1    5    5  503    0  0.99137477749E+01  0.71910944653E+02 -0.12647871822E+03  0.14582980669E+03  0.00000000000E+00 0. -1.
         -4    1    5    5    0  503 -0.10995602443E+03  0.26194105189E+03 -0.61067435662E+03  0.67351808573E+03  0.00000000000E+00 0.  1.
         -1    1    6    6    0  502  0.33771074633E+03 -0.34503325070E+03 -0.32948364493E+03  0.58451344258E+03  0.00000000000E+00 0.  1.
<mgrwt>
<rscale>  0 0.14273593E+04</rscale>
<asrwt>0</asrwt>
<pdfrwt beam="1">  1        1 0.20537079E+00 0.14273593E+04</pdfrwt>
<pdfrwt beam="2">  1       -1 0.58700422E-01 0.14273593E+04</pdfrwt>
<totfact> 0.24441658E+01</totfact>
</mgrwt>
</event>
<event>
12    1  0.1518126E-007  0.1771769E+04  0.7818608E-02  0.8721458E-01
         -2   -1    0    0    0  501 -0.00000000000E+00  0.00000000000E+00  0.16881810439E+04  0.16881810439E+04  0.00000000000E+00 0.  1.
          2   -1    0    0  501    0  0.00000000000E+00 -0.00000000000E+00 -0.46487374211E+03  0.46487374211E+03  0.00000000000E+00 0. -1.
         23    2    1    2    0    0 -0.56606241024E+03  0.21924126027E+03  0.15995903589E+03  0.63449082237E+03  0.92186376528E+02 0.  0.
        254    2    1    2    0    0  0.56606241024E+03 -0.21924126027E+03  0.10633482659E+04  0.15185639637E+04  0.89823916338E+03 0.  0.
        -24    2    4    4    0    0  0.28912523021E+01 -0.41250680368E+03  0.19421489215E+03  0.46209548790E+03  0.75117196305E+02 0.  0.
         24    2    4    4    0    0  0.56317115794E+03  0.19326554341E+03  0.86913337379E+03  0.10564684758E+04  0.78863778067E+02 0.  0.
         11    1    3    3    0    0 -0.33336561010E+02  0.35629653560E+02  0.26073734681E+02  0.55323034560E+02  0.00000000000E+00 0.  1.
        -11    1    3    3    0    0 -0.53272584923E+03  0.18361160671E+03  0.13388530121E+03  0.57916778781E+03  0.00000000000E+00 0. -1.
          2    1    6    6  502    0  0.54648093387E+03  0.17601241173E+03  0.85019943967E+03  0.10258951542E+04  0.00000000000E+00 0. -1.
          1    1    5    5  503    0 -0.87541640713E+01 -0.39321392568E+03  0.16844983368E+03  0.42786583552E+03  0.00000000000E+00 0. -1.
         -2    1    5    5    0  503  0.11645416373E+02 -0.19292877999E+02  0.25765058470E+02  0.34229652378E+02  0.00000000000E+00 0.  1.
         -1    1    6    6    0  502  0.16690224070E+02  0.17253131685E+02  0.18933934114E+02  0.30573321597E+02  0.00000000000E+00 0.  1.
<mgrwt>
<rscale>  0 0.17717687E+04</rscale>
<asrwt>0</asrwt>
<pdfrwt beam="1">  1        2 0.71519038E-01 0.17717687E+04</pdfrwt>
<pdfrwt beam="2">  1       -2 0.25972016E+00 0.17717687E+04</pdfrwt>
<totfact> 0.35518331E+00</totfact>
</mgrwt>
</event>
<event>
12    1  0.1518126E-007  0.1300295E+04  0.7818608E-02  0.9029331E-01
          2   -1    0    0  501    0  0.00000000000E+00  0.00000000000E+00  0.98218040705E+03  0.98218040705E+03  0.00000000000E+00 0. -1.
         -2   -1    0    0    0  501 -0.00000000000E+00 -0.00000000000E+00 -0.43036079204E+03  0.43036079204E+03  0.00000000000E+00 0.  1.
         23    2    1    2    0    0  0.58521410389E+02 -0.12215490599E+03 -0.17922390044E+03  0.24324384064E+03  0.93272627218E+02 0.  0.
        254    2    1    2    0    0 -0.58521410389E+02  0.12215490599E+03  0.73104351545E+03  0.11692973585E+04  0.90248829049E+03 0.  0.
        -24    2    4    4    0    0 -0.11617506289E+03  0.36152048761E+03 -0.64096967510E+01  0.38787729623E+03  0.78828957361E+02 0.  0.
         24    2    4    4    0    0  0.57653652500E+02 -0.23936558162E+03  0.73745321220E+03  0.78142006222E+03  0.78487248258E+02 0.  0.
         13    1    3    3    0    0 -0.20046844435E+02 -0.51666255732E+02 -0.86591614039E+02  0.10280751711E+03  0.00000000000E+00 0. -1.
        -13    1    3    3    0    0  0.78568254824E+02 -0.70488650262E+02 -0.92632286400E+02  0.14043632353E+03  0.00000000000E+00 0.  1.
          4    1    6    6  502    0  0.64970631669E+02 -0.24181491863E+03  0.72116266742E+03  0.76339454460E+03  0.00000000000E+00 0. -1.
          3    1    5    5  503    0 -0.10511806267E+03  0.23960488456E+03  0.20797062048E+02  0.26247442846E+03  0.00000000000E+00 0. -1.
         -4    1    5    5    0  503 -0.11057000219E+02  0.12191560305E+03 -0.27206758799E+02  0.12540286777E+03  0.00000000000E+00 0.  1.
         -3    1    6    6    0  502 -0.73169791692E+01  0.24493370103E+01  0.16290544787E+02  0.18025517619E+02  0.00000000000E+00 0.  1.
<mgrwt>
<rscale>  0 0.13002953E+04</rscale>
<asrwt>0</asrwt>
<pdfrwt beam="1">  1        2 0.15110468E+00 0.13002953E+04</pdfrwt>
<pdfrwt beam="2">  1       -2 0.66209353E-01 0.13002953E+04</pdfrwt>
<totfact> 0.53202028E+01</totfact>
</mgrwt>
</event>
<event>
12    1  0.1597007E-007  0.1902912E+04  0.7818608E-02  0.8653408E-01
          1   -1    0    0  501    0  0.00000000000E+00  0.00000000000E+00  0.15476367582E+04  0.15476367582E+04  0.00000000000E+00 0. -1.
         -1   -1    0    0    0  501 -0.00000000000E+00 -0.00000000000E+00 -0.58493581040E+03  0.58493581040E+03  0.00000000000E+00 0.  1.
         23    2    1    2    0    0  0.17864245640E+03 -0.70621659935E+02 -0.42056796415E+03  0.47131124040E+03  0.91412946434E+02 0.  0.
        254    2    1    2    0    0 -0.17864245640E+03  0.70621659935E+02  0.13832689120E+04  0.16612613282E+04  0.89969760018E+03 0.  0.
        -24    2    4    4    0    0 -0.53898648925E+03  0.76290568886E+02  0.83312278773E+03  0.99857595044E+03  0.82058898852E+02 0.  0.
         24    2    4    4    0    0  0.36034403285E+03 -0.56689089509E+01  0.55014612426E+03  0.66268537780E+03  0.81309245295E+02 0.  0.
         11    1    3    3    0    0  0.18620822928E+03 -0.56350343062E+02 -0.40265415898E+03  0.44719038178E+03  0.00000000000E+00 0.  1.
        -11    1    3    3    0    0 -0.75657728853E+01 -0.14271316873E+02 -0.17913805177E+02  0.24120858620E+02  0.00000000000E+00 0. -1.
          2    1    6    6  502    0  0.25464980590E+01 -0.40328831626E+01 -0.16419350979E+01  0.50442789211E+01  0.00000000000E+00 0. -1.
          1    1    5    5  503    0 -0.21336364601E+02  0.81604318212E+01  0.72377150278E+02  0.75896541319E+02  0.00000000000E+00 0. -1.
         -2    1    5    5    0  503 -0.51765012465E+03  0.68130137065E+02  0.76074563745E+03  0.92267940913E+03  0.00000000000E+00 0.  1.
         -1    1    6    6    0  502  0.35779753479E+03 -0.16360257883E+01  0.55178805936E+03  0.65764109888E+03  0.00000000000E+00 0.  1.
<mgrwt>
<rscale>  0 0.19029116E+04</rscale>
<asrwt>0</asrwt>
<pdfrwt beam="1">  1        1 0.23809796E+00 0.19029116E+04</pdfrwt>
<pdfrwt beam="2">  1       -1 0.89990125E-01 0.19029116E+04</pdfrwt>
<totfact> 0.68522140E+00</totfact>
</mgrwt>
</event>
<event>
12    1  0.1518126E-007  0.3009930E+04  0.7818608E-02  0.8240901E-01
          2   -1    0    0  501    0  0.00000000000E+00  0.00000000000E+00  0.22016879580E+04  0.22016879580E+04  0.00000000000E+00 0. -1.
         -2   -1    0    0    0  501 -0.00000000000E+00 -0.00000000000E+00 -0.10287196433E+04  0.10287196433E+04  0.00000000000E+00 0.  1.
         23    2    1    2    0    0  0.42220850920E+03  0.34718658559E+02 -0.86557655076E+03  0.96804802706E+03  0.91808534315E+02 0.  0.
        254    2    1    2    0    0 -0.42220850920E+03 -0.34718658559E+02  0.20385448655E+04  0.22623595742E+04  0.88495212536E+03 0.  0.
        -24    2    4    4    0    0 -0.45583539952E+03  0.17897837562E+03  0.49188684227E+03  0.69863640326E+03  0.79504641134E+02 0.  0.
         24    2    4    4    0    0  0.33626890324E+02 -0.21369703418E+03  0.15466580232E+04  0.15637231710E+04  0.79258593333E+02 0.  0.
         13    1    3    3    0    0  0.30220223006E+03 -0.17180919667E+02 -0.59928214290E+03  0.67138696640E+03  0.00000000000E+00 0.  1.
        -13    1    3    3    0    0  0.12000627914E+03  0.51899578226E+02 -0.26629440786E+03  0.29666106066E+03  0.00000000000E+00 0. -1.
          2    1    6    6  502    0  0.37950427672E+01 -0.65966340556E+02  0.25984856403E+03  0.26811795290E+03  0.00000000000E+00 0. -1.
          3    1    5    5  503    0 -0.44891584506E+00  0.91137576522E+01  0.15984760179E+02  0.18405832281E+02  0.00000000000E+00 0. -1.
         -4    1    5    5    0  503 -0.45538648368E+03  0.16986461796E+03  0.47590208209E+03  0.68023057098E+03  0.00000000000E+00 0.  1.
         -1    1    6    6    0  502  0.29831847557E+02 -0.14773069362E+03  0.12868094592E+04  0.12956052181E+04  0.00000000000E+00 0.  1.
<mgrwt>
<rscale>  0 0.30099300E+04</rscale>
<asrwt>0</asrwt>
<pdfrwt beam="1">  1        2 0.33872122E+00 0.30099300E+04</pdfrwt>
<pdfrwt beam="2">  1       -2 0.15826456E+00 0.30099300E+04</pdfrwt>
<totfact> 0.11435112E+00</totfact>
</mgrwt>
</event>
<event>
12    1  0.1518126E-007  0.2556906E+04  0.7818608E-02  0.8382988E-01
         -1   -1    0    0    0  501 -0.00000000000E+00  0.00000000000E+00  0.84602174976E+03  0.84602174976E+03  0.00000000000E+00 0.  1.
          1   -1    0    0  501    0  0.00000000000E+00 -0.00000000000E+00 -0.19319149476E+04  0.19319149476E+04  0.00000000000E+00 0. -1.
         23    2    1    2    0    0 -0.78074756432E+03  0.26856923780E+03 -0.13253582059E+04  0.15643451333E+04  0.94366982310E+02 0.  0.
        254    2    1    2    0    0  0.78074756432E+03 -0.26856923780E+03  0.23946500805E+03  0.12135915641E+04  0.85660072361E+03 0.  0.
        -24    2    4    4    0    0  0.25827370220E+03  0.14093385871E+03 -0.24216526681E+03  0.38945187753E+03  0.80380909922E+02 0.  0.
         24    2    4    4    0    0  0.52247386212E+03 -0.40950309651E+03  0.48163027486E+03  0.82413968657E+03  0.81035662954E+02 0.  0.
         11    1    3    3    0    0 -0.30568785830E+03  0.58877954059E+02 -0.47235526105E+03  0.56571297743E+03  0.00000000000E+00 0.  1.
        -11    1    3    3    0    0 -0.47505970602E+03  0.20969128374E+03 -0.85300294487E+03  0.99863215586E+03  0.00000000000E+00 0. -1.
          2    1    6    6  502    0  0.15916626867E+03 -0.10252058772E+03  0.98681819574E+02  0.21350052342E+03  0.00000000000E+00 0. -1.
          3    1    5    5  503    0  0.74172338811E+02  0.36025038473E+02 -0.25298542959E+02  0.86251698635E+02  0.00000000000E+00 0. -1.
         -4    1    5    5    0  503  0.18410136339E+03  0.10490882024E+03 -0.21686672385E+03  0.30320017889E+03  0.00000000000E+00 0.  1.
         -1    1    6    6    0  502  0.36330759345E+03 -0.30698250879E+03  0.38294845529E+03  0.61063916315E+03  0.00000000000E+00 0.  1.
<mgrwt>
<rscale>  0 0.25569060E+04</rscale>
<asrwt>0</asrwt>
<pdfrwt beam="1">  1        1 0.29721768E+00 0.25569060E+04</pdfrwt>
<pdfrwt beam="2">  1       -1 0.13015719E+00 0.25569060E+04</pdfrwt>
<totfact> 0.14813095E+00</totfact>
</mgrwt>
</event>
<event>
12    1  0.1518126E-007  0.3823798E+04  0.7818608E-02  0.8041067E-01
          2   -1    0    0  501    0  0.00000000000E+00  0.00000000000E+00  0.17346716035E+04  0.17346716035E+04  0.00000000000E+00 0. -1.
         -2   -1    0    0    0  501 -0.00000000000E+00 -0.00000000000E+00 -0.21072336544E+04  0.21072336544E+04  0.00000000000E+00 0.  1.
         23    2    1    2    0    0 -0.10226262972E+04 -0.14169833950E+04  0.26448503671E+03  0.17702243042E+04  0.10067406467E+03 0.  0.
        254    2    1    2    0    0  0.10226262972E+04  0.14169833950E+04 -0.63704708764E+03  0.20716809537E+04  0.91237409917E+03 0.  0.
        -24    2    4    4    0    0  0.18646341553E+03  0.61716131419E+02  0.18234173127E+03  0.27901872973E+03  0.77623826034E+02 0.  0.
         24    2    4    4    0    0  0.83616288164E+03  0.13552672635E+04 -0.81938881891E+03  0.17926622240E+04  0.79511587032E+02 0.  0.
         11    1    3    3    0    0 -0.54209306482E+03 -0.72069996746E+03  0.88867135948E+02  0.90618469523E+03  0.00000000000E+00 0. -1.
        -11    1    3    3    0    0 -0.48053323235E+03 -0.69628342751E+03  0.17561790077E+03  0.86403960898E+03  0.00000000000E+00 0.  1.
          2    1    6    6  502    0  0.59123573541E+03  0.99254008360E+03 -0.55950682061E+03  0.12836445749E+04  0.00000000000E+00 0. -1.
          3    1    5    5  503    0  0.99602667645E+02 -0.12440320509E+01  0.59922705297E+02  0.11624529938E+03  0.00000000000E+00 0. -1.
         -4    1    5    5    0  503  0.86860747887E+02  0.62960163470E+02  0.12241902597E+03  0.16277343035E+03  0.00000000000E+00 0.  1.
         -1    1    6    6    0  502  0.24492714622E+03  0.36272717995E+03 -0.25988199830E+03  0.50901764908E+03  0.00000000000E+00 0.  1.
<mgrwt>
<rscale>  0 0.38237983E+04</rscale>
<asrwt>0</asrwt>
<pdfrwt beam="1">  1        2 0.26687255E+00 0.38237983E+04</pdfrwt>
<pdfrwt beam="2">  1       -2 0.32418979E+00 0.38237983E+04</pdfrwt>
<totfact> 0.16930599E-01</totfact>
</mgrwt>
</event>
<event>
12    1  0.1518126E-007  0.2429718E+04  0.7818608E-02  0.8428461E-01
         -2   -1    0    0    0  501 -0.00000000000E+00  0.00000000000E+00  0.39078187445E+03  0.39078187445E+03  0.00000000000E+00 0.  1.
          2   -1    0    0  501    0  0.00000000000E+00 -0.00000000000E+00 -0.37767429235E+04  0.37767429235E+04  0.00000000000E+00 0. -1.
         23    2    1    2    0    0 -0.96646200153E+03 -0.14190613802E+03 -0.20979167206E+04  0.23160063758E+04  0.91895667680E+02 0.  0.
        254    2    1    2    0    0  0.96646200153E+03  0.14190613802E+03 -0.12880443285E+04  0.18515184222E+04  0.90270489263E+03 0.  0.
        -24    2    4    4    0    0  0.12269580527E+03  0.17803921848E+03 -0.87951711590E+03  0.90920506706E+03  0.79694873485E+02 0.  0.
         24    2    4    4    0    0  0.84376619626E+03 -0.36133080462E+02 -0.40852721262E+03  0.94231335516E+03  0.88391076521E+02 0.  0.
         11    1    3    3    0    0 -0.58556161809E+03 -0.95900269996E+02 -0.11688200325E+04  0.13108087346E+04  0.00000000000E+00 0. -1.
        -11    1    3    3    0    0 -0.38090038343E+03 -0.46005868024E+02 -0.92909668807E+03  0.10051976412E+04  0.00000000000E+00 0.  1.
          2    1    6    6  502    0  0.64704757130E+03  0.34411737805E+01 -0.33476228811E+03  0.72852466722E+03  0.00000000000E+00 0. -1.
          1    1    5    5  503    0  0.91271354274E+02  0.13777025467E+03 -0.78033463143E+03  0.79764230090E+03  0.00000000000E+00 0. -1.
         -2    1    5    5    0  503  0.31424450995E+02  0.40268963813E+02 -0.99182484470E+02  0.11156276616E+03  0.00000000000E+00 0.  1.
         -3    1    6    6    0  502  0.19671862496E+03 -0.39574254242E+02 -0.73764924511E+02  0.21378868794E+03  0.00000000000E+00 0.  1.
<mgrwt>
<rscale>  0 0.24297182E+04</rscale>
<asrwt>0</asrwt>
<pdfrwt beam="1">  1        2 0.58103739E+00 0.24297182E+04</pdfrwt>
<pdfrwt beam="2">  1       -2 0.60120287E-01 0.24297182E+04</pdfrwt>
<totfact> 0.11868387E+00</totfact>
</mgrwt>
</event>
<event>
12    1  0.1518126E-007  0.1803163E+04  0.7818608E-02  0.8704619E-01
         -2   -1    0    0    0  501 -0.00000000000E+00  0.00000000000E+00  0.92662868470E+03  0.92662868470E+03  0.00000000000E+00 0.  1.
          2   -1    0    0  501    0  0.00000000000E+00 -0.00000000000E+00 -0.87721096201E+03  0.87721096201E+03  0.00000000000E+00 0. -1.
         23    2    1    2    0    0  0.15779946412E+03 -0.66108536340E+03  0.75630793636E+02  0.68989644850E+03  0.91118407182E+02 0.  0.
        254    2    1    2    0    0 -0.15779946412E+03  0.66108536340E+03 -0.26213070950E+02  0.11139431982E+04  0.88218353827E+03 0.  0.
        -24    2    4    4    0    0  0.36616961886E+02  0.79218771860E+03  0.14770999542E+03  0.81079005099E+03  0.81609317087E+02 0.  0.
         24    2    4    4    0    0 -0.19441642601E+03 -0.13110235521E+03 -0.17392306637E+03  0.30315314723E+03  0.81651842682E+02 0.  0.
         11    1    3    3    0    0  0.16156801045E+03 -0.61530504647E+03  0.88258928367E+02  0.64225708299E+03  0.00000000000E+00 0.  1.
        -11    1    3    3    0    0 -0.37685463241E+01 -0.45780316923E+02 -0.12628134731E+02  0.47639365505E+02  0.00000000000E+00 0. -1.
          4    1    6    6  502    0 -0.25971688836E+02 -0.60032202211E+02 -0.42770630769E+02  0.78151908356E+02  0.00000000000E+00 0. -1.
          1    1    5    5  503    0 -0.50082646672E+01  0.96364337853E+02 -0.70437756461E+01  0.96751140046E+02  0.00000000000E+00 0. -1.
         -2    1    5    5    0  503  0.41625226553E+02  0.69582338075E+03  0.15475377107E+03  0.71403891095E+03  0.00000000000E+00 0.  1.
         -3    1    6    6    0  502 -0.16844473717E+03 -0.71070152996E+02 -0.13115243560E+03  0.22500123887E+03  0.00000000000E+00 0.  1.
<mgrwt>
<rscale>  0 0.18031626E+04</rscale>
<asrwt>0</asrwt>
<pdfrwt beam="1">  1        2 0.13495553E+00 0.18031626E+04</pdfrwt>
<pdfrwt beam="2">  1       -2 0.14255826E+00 0.18031626E+04</pdfrwt>
<totfact> 0.98246071E+00</totfact>
</mgrwt>
</event>
<event>
12    1  0.1518126E-007  0.1712186E+04  0.7818608E-02  0.8754445E-01
         -1   -1    0    0    0  501 -0.00000000000E+00  0.00000000000E+00  0.15977586391E+04  0.15977586391E+04  0.00000000000E+00 0.  1.
          1   -1    0    0  501    0  0.00000000000E+00 -0.00000000000E+00 -0.45870188217E+03  0.45870188217E+03  0.00000000000E+00 0. -1.
         23    2    1    2    0    0 -0.15915503210E+03  0.22724206158E+03  0.10705399971E+04  0.11096437809E+04  0.91017340240E+02 0.  0.
        254    2    1    2    0    0  0.15915503210E+03 -0.22724206158E+03  0.68516759797E+02  0.94681674038E+03  0.90266168341E+03 0.  0.
        -24    2    4    4    0    0 -0.71179554605E+02 -0.17194300218E+03  0.44829386840E+03  0.49219456977E+03  0.81591525770E+02 0.  0.
         24    2    4    4    0    0  0.23033458671E+03 -0.55299059397E+02 -0.37977710860E+03  0.45462217060E+03  0.79615689295E+02 0.  0.
         11    1    3    3    0    0  0.30128785714E+01 -0.20777281177E+01  0.93522326343E+00  0.37774374872E+01  0.00000000000E+00 0. -1.
        -11    1    3    3    0    0 -0.16216791068E+03  0.22931978970E+03  0.10696047739E+04  0.11058663434E+04  0.00000000000E+00 0.  1.
          4    1    6    6  502    0  0.20192498771E+03 -0.22768966971E+02 -0.28062026542E+03  0.34646768952E+03  0.00000000000E+00 0. -1.
          1    1    5    5  503    0 -0.22764765874E+02 -0.13416458176E+03  0.35804924856E+03  0.38303737932E+03  0.00000000000E+00 0. -1.
         -2    1    5    5    0  503 -0.48414788730E+02 -0.37778420420E+02  0.90244619845E+02  0.10915719046E+03  0.00000000000E+00 0.  1.
         -3    1    6    6    0  502  0.28409599003E+02 -0.32530092426E+02 -0.99156843181E+02  0.10815448108E+03  0.00000000000E+00 0.  1.
<mgrwt>
<rscale>  0 0.17121856E+04</rscale>
<asrwt>0</asrwt>
<pdfrwt beam="1">  1        1 0.70569521E-01 0.17121856E+04</pdfrwt>
<pdfrwt beam="2">  1       -1 0.24580902E+00 0.17121856E+04</pdfrwt>
<totfact> 0.35225027E+00</totfact>
</mgrwt>
</event>
<event>
12    1  0.1518126E-007  0.1558339E+04  0.7818608E-02  0.8846559E-01
         -2   -1    0    0    0  501 -0.00000000000E+00  0.00000000000E+00  0.32618007108E+03  0.32618007108E+03  0.00000000000E+00 0. -1.
          2   -1    0    0  501    0  0.00000000000E+00 -0.00000000000E+00 -0.18612563299E+04  0.18612563299E+04  0.00000000000E+00 0.  1.
         23    2    1    2    0    0  0.11756236665E+03  0.33653056638E+03 -0.10377786322E+04  0.11026643509E+04  0.10867589067E+03 0.  0.
        254    2    1    2    0    0 -0.11756236665E+03 -0.33653056638E+03 -0.49729762659E+03  0.10847720500E+04  0.89574088826E+03 0.  0.
        -24    2    4    4    0    0  0.10174121057E+03 -0.36413916283E+03 -0.68306573252E+03  0.78488894959E+03  0.80766728408E+02 0.  0.
         24    2    4    4    0    0 -0.21930357721E+03  0.27608596450E+02  0.18576810593E+03  0.29988310042E+03  0.81017227543E+02 0.  0.
         11    1    3    3    0    0  0.85077699387E+02  0.92008288997E+02 -0.31860472953E+03  0.34236342365E+03  0.00000000000E+00 0. -1.
        -11    1    3    3    0    0  0.32484667259E+02  0.24452227738E+03 -0.71917390269E+03  0.76030092730E+03  0.00000000000E+00 0.  1.
          2    1    6    6  502    0 -0.22540460237E+03  0.21993889193E+02  0.17455670867E+03  0.28593882295E+03  0.00000000000E+00 0. -1.
          1    1    5    5  503    0  0.78191446880E+02 -0.14025425447E+03 -0.25799917444E+03  0.30388934215E+03  0.00000000000E+00 0. -1.
         -2    1    5    5    0  503  0.23549763687E+02 -0.22388490836E+03 -0.42506655808E+03  0.48099960744E+03  0.00000000000E+00 0.  1.
         -1    1    6    6    0  502  0.61010251530E+01  0.56147072575E+01  0.11211397260E+02  0.13944277465E+02  0.00000000000E+00 0.  1.
<mgrwt>
<rscale>  0 0.15583385E+04</rscale>
<asrwt>0</asrwt>
<pdfrwt beam="1">  1        2 0.28634713E+00 0.15583385E+04</pdfrwt>
<pdfrwt beam="2">  1       -2 0.50181549E-01 0.15583385E+04</pdfrwt>
<totfact> 0.28832437E+01</totfact>
</mgrwt>
</event>
<event>
12    1  0.1518126E-007  0.2037085E+04  0.7818608E-02  0.8589476E-01
         -2   -1    0    0    0  501 -0.00000000000E+00  0.00000000000E+00  0.64236307338E+03  0.64236307338E+03  0.00000000000E+00 0.  1.
          2   -1    0    0  501    0  0.00000000000E+00 -0.00000000000E+00 -0.16150198068E+04  0.16150198068E+04  0.00000000000E+00 0. -1.
         23    2    1    2    0    0 -0.63020980356E+03 -0.21326893793E+03  0.13564167856E+03  0.68516956213E+03  0.91709473475E+02 0.  0.
        254    2    1    2    0    0  0.63020980356E+03  0.21326893793E+03 -0.11082984119E+04  0.15722133180E+04  0.89491972323E+03 0.  0.
        -24    2    4    4    0    0  0.13363838374E+03  0.49035949165E+03 -0.35315057970E+03  0.62407112637E+03  0.80235840890E+02 0.  0.
         24    2    4    4    0    0  0.49657141982E+03 -0.27709055372E+03 -0.75514783225E+03  0.94814219165E+03  0.73232623146E+02 0.  0.
         13    1    3    3    0    0 -0.88601671728E+02 -0.58750903535E+01 -0.30867860019E+01  0.88849879952E+02  0.00000000000E+00 0. -1.
        -13    1    3    3    0    0 -0.54160813183E+03 -0.20739384758E+03  0.13872846456E+03  0.59631968218E+03  0.00000000000E+00 0.  1.
          2    1    6    6  502    0  0.15118974252E+03 -0.86656096884E+02 -0.17797222328E+03  0.24908177297E+03  0.00000000000E+00 0. -1.
          3    1    5    5  503    0 -0.57693458583E+00  0.21390533036E+02  0.75989929638E+00  0.21411800579E+02  0.00000000000E+00 0. -1.
         -2    1    5    5    0  503  0.13421531832E+03  0.46896895861E+03 -0.35391047899E+03  0.60265932579E+03  0.00000000000E+00 0.  1.
         -1    1    6    6    0  502  0.34538167730E+03 -0.19043445683E+03 -0.57717560897E+03  0.69906041868E+03  0.00000000000E+00 0.  1.
<mgrwt>
<rscale>  0 0.20370853E+04</rscale>
<asrwt>0</asrwt>
<pdfrwt beam="1">  1        2 0.24846458E+00 0.20370853E+04</pdfrwt>
<pdfrwt beam="2">  1       -2 0.98825089E-01 0.20370853E+04</pdfrwt>
<totfact> 0.86067717E+00</totfact>
</mgrwt>
</event>
<event>
12    1  0.1518126E-007  0.2544465E+04  0.7818608E-02  0.8387314E-01
         -4   -1    0    0    0  501 -0.00000000000E+00  0.00000000000E+00  0.10655897189E+04  0.10655897189E+04  0.00000000000E+00 0.  1.
          4   -1    0    0  501    0  0.00000000000E+00 -0.00000000000E+00 -0.15189481584E+04  0.15189481584E+04  0.00000000000E+00 0. -1.
         23    2    1    2    0    0  0.10226995199E+04 -0.42764947246E+03 -0.12777182635E+03  0.11188611557E+04  0.82013820095E+02 0.  0.
        254    2    1    2    0    0 -0.10226995199E+04  0.42764947246E+03 -0.32558661311E+03  0.14656767216E+04  0.90188870169E+03 0.  0.
        -24    2    4    4    0    0 -0.56414442444E+03  0.38067275416E+03 -0.61035183400E+03  0.91799636133E+03  0.83769211348E+02 0.  0.
         24    2    4    4    0    0 -0.45855509549E+03  0.46976718301E+02  0.28476522089E+03  0.54768036026E+03  0.79893418576E+02 0.  0.
         11    1    3    3    0    0  0.55373091840E+03 -0.19967392972E+03 -0.39081708564E+02  0.58992795165E+03  0.00000000000E+00 0.  1.
        -11    1    3    3    0    0  0.46896860153E+03 -0.22797554275E+03 -0.88690117790E+02  0.52893320401E+03  0.00000000000E+00 0. -1.
          2    1    6    6  502    0 -0.33676377523E+03  0.16624183030E+02  0.24218399347E+03  0.41513767652E+03  0.00000000000E+00 0. -1.
          1    1    5    5  503    0 -0.36346001706E+03  0.26838947059E+03 -0.35692744917E+03  0.57578928081E+03  0.00000000000E+00 0. -1.
         -2    1    5    5    0  503 -0.20068440738E+03  0.11228328358E+03 -0.25342438483E+03  0.34220708053E+03  0.00000000000E+00 0.  1.
         -1    1    6    6    0  502 -0.12179132025E+03  0.30352535271E+02  0.42581227419E+02  0.13254268375E+03  0.00000000000E+00 0.  1.
<mgrwt>
<rscale>  0 0.25444650E+04</rscale>
<asrwt>0</asrwt>
<pdfrwt beam="1">  1        4 0.23368433E+00 0.25444650E+04</pdfrwt>
<pdfrwt beam="2">  1       -4 0.16393688E+00 0.25444650E+04</pdfrwt>
<totfact> 0.33119738E-02</totfact>
</mgrwt>
</event>
<event>
12    1  0.1518126E-007  0.2129466E+04  0.7818608E-02  0.8548373E-01
         -1   -1    0    0    0  501 -0.00000000000E+00  0.00000000000E+00  0.84590648117E+03  0.84590648117E+03  0.00000000000E+00 0.  1.
          1   -1    0    0  501    0  0.00000000000E+00 -0.00000000000E+00 -0.13401671011E+04  0.13401671011E+04  0.00000000000E+00 0. -1.
         23    2    1    2    0    0  0.67374793505E+03 -0.52610163012E+03 -0.27018252312E+01  0.85963621194E+03  0.90818014896E+02 0.  0.
        254    2    1    2    0    0 -0.67374793505E+03  0.52610163012E+03 -0.49155879470E+03  0.13264373703E+04  0.88717914965E+03 0.  0.
        -24    2    4    4    0    0  0.64030758896E+02  0.38102742993E+03 -0.40472552998E+03  0.56537203132E+03  0.80999621815E+02 0.  0.
         24    2    4    4    0    0 -0.73777869394E+03  0.14507420019E+03 -0.86833264723E+02  0.76106533902E+03  0.79476471957E+02 0.  0.
         13    1    3    3    0    0  0.22524594587E+03 -0.16168669025E+03 -0.41922357476E+02  0.28042076597E+03  0.00000000000E+00 0.  1.
        -13    1    3    3    0    0  0.44850198918E+03 -0.36441493987E+03  0.39220532245E+02  0.57921544597E+03  0.00000000000E+00 0. -1.
          2    1    6    6  502    0 -0.25996690602E+03  0.73874143332E+02 -0.13369409326E+00  0.27025950335E+03  0.00000000000E+00 0. -1.
          1    1    5    5  503    0  0.30869283637E+01  0.17452646149E+03 -0.22593754418E+03  0.28551145118E+03  0.00000000000E+00 0. -1.
         -2    1    5    5    0  503  0.60943830532E+02  0.20650096844E+03 -0.17878798581E+03  0.27986058014E+03  0.00000000000E+00 0.  1.
         -1    1    6    6    0  502 -0.47781178792E+03  0.71200056855E+02 -0.86699570629E+02  0.49080583566E+03  0.00000000000E+00 0.  1.
<mgrwt>
<rscale>  0 0.21294657E+04</rscale>
<asrwt>0</asrwt>
<pdfrwt beam="1">  1        1 0.20617955E+00 0.21294657E+04</pdfrwt>
<pdfrwt beam="2">  1       -1 0.13013946E+00 0.21294657E+04</pdfrwt>
<totfact> 0.39292244E+00</totfact>
</mgrwt>
</event>
<event>
12    1  0.1518126E-007  0.1940707E+04  0.7818608E-02  0.8634855E-01
         -1   -1    0    0    0  501 -0.00000000000E+00  0.00000000000E+00  0.77294298541E+03  0.77294298541E+03  0.00000000000E+00 0.  1.
          1   -1    0    0  501    0  0.00000000000E+00 -0.00000000000E+00 -0.12181833455E+04  0.12181833455E+04  0.00000000000E+00 0. -1.
         23    2    1    2    0    0 -0.67008287948E+03  0.13968001515E+03 -0.51354958736E+03  0.86063967298E+03  0.91901556149E+02 0.  0.
        254    2    1    2    0    0  0.67008287948E+03 -0.13968001515E+03  0.68309227271E+02  0.11304866579E+04  0.89711334916E+03 0.  0.
        -24    2    4    4    0    0  0.52525965161E+02 -0.32856687068E+03 -0.23231307895E+03  0.41342286553E+03  0.78955263058E+02 0.  0.
         24    2    4    4    0    0  0.61755691432E+03  0.18888685554E+03  0.30062230623E+03  0.71706379241E+03  0.82170096539E+02 0.  0.
         13    1    3    3    0    0 -0.21777648949E+03  0.56096574651E+02 -0.11787120909E+03  0.25390361753E+03  0.00000000000E+00 0.  1.
        -13    1    3    3    0    0 -0.45230638999E+03  0.83583440497E+02 -0.39567837827E+03  0.60673605545E+03  0.00000000000E+00 0. -1.
          2    1    6    6  502    0  0.51031923855E+03  0.18741847233E+03  0.25595098508E+03  0.60088461102E+03  0.00000000000E+00 0. -1.
          1    1    5    5  503    0  0.66421505056E+02 -0.31574854100E+03 -0.21453300123E+03  0.38747047126E+03  0.00000000000E+00 0. -1.
         -2    1    5    5    0  503 -0.13895539895E+02 -0.12818329684E+02 -0.17780077723E+02  0.25952394277E+02  0.00000000000E+00 0.  1.
         -1    1    6    6    0  502  0.10723767577E+03  0.14683832042E+01  0.44671321147E+02  0.11617918138E+03  0.00000000000E+00 0.  1.
<mgrwt>
<rscale>  0 0.19407074E+04</rscale>
<asrwt>0</asrwt>
<pdfrwt beam="1">  1        1 0.18741282E+00 0.19407074E+04</pdfrwt>
<pdfrwt beam="2">  1       -1 0.11891431E+00 0.19407074E+04</pdfrwt>
<totfact> 0.61173901E+00</totfact>
</mgrwt>
</event>
<event>
12    1  0.1518126E-007  0.1784004E+04  0.7818608E-02  0.8714852E-01
         -2   -1    0    0    0  501 -0.00000000000E+00  0.00000000000E+00  0.28561117132E+03  0.28561117132E+03  0.00000000000E+00 0. -1.
          2   -1    0    0  501    0  0.00000000000E+00 -0.00000000000E+00 -0.27858433332E+04  0.27858433332E+04  0.00000000000E+00 0.  1.
         23    2    1    2    0    0  0.49285359000E+03 -0.24926578231E+03 -0.15418348732E+04  0.16404278245E+04  0.93330485687E+02 0.  0.
        254    2    1    2    0    0 -0.49285359000E+03  0.24926578231E+03 -0.95839728863E+03  0.14310266800E+04  0.90789531594E+03 0.  0.
        -24    2    4    4    0    0 -0.22631571481E+03 -0.10492709067E+03 -0.94466086777E+03  0.98035263633E+03  0.80489995258E+02 0.  0.
         24    2    4    4    0    0 -0.26653787519E+03  0.35419287297E+03 -0.13736420859E+02  0.45067404370E+03  0.80145955804E+02 0.  0.
         11    1    3    3    0    0  0.87316140919E+02 -0.70238870421E+02 -0.40511294124E+03  0.42032618588E+03  0.00000000000E+00 0. -1.
        -11    1    3    3    0    0  0.40553744908E+03 -0.17902691189E+03 -0.11367219320E+04  0.12201016386E+04  0.00000000000E+00 0.  1.
          2    1    6    6  502    0 -0.10952010476E+03  0.11892694704E+03  0.30084930885E+02  0.16444870065E+03  0.00000000000E+00 0. -1.
          3    1    5    5  503    0 -0.22735809527E+03 -0.87344190286E+02 -0.89911771443E+03  0.93152207460E+03  0.00000000000E+00 0. -1.
         -4    1    5    5    0  503  0.10423804632E+01 -0.17582900380E+02 -0.45543153341E+02  0.48830561731E+02  0.00000000000E+00 0.  1.
         -1    1    6    6    0  502 -0.15701777043E+03  0.23526592593E+03 -0.43821351744E+02  0.28622534305E+03  0.00000000000E+00 0.  1.
<mgrwt>
<rscale>  0 0.17840045E+04</rscale>
<asrwt>0</asrwt>
<pdfrwt beam="1">  1        2 0.42859129E+00 0.17840045E+04</pdfrwt>
<pdfrwt beam="2">  1       -2 0.43940179E-01 0.17840045E+04</pdfrwt>
<totfact> 0.10978811E+01</totfact>
</mgrwt>
</event>
<event>
12    1  0.1518126E-007  0.1357001E+04  0.7818608E-02  0.8985545E-01
          2   -1    0    0  501    0  0.00000000000E+00  0.00000000000E+00  0.44637372033E+03  0.44637372033E+03  0.00000000000E+00 0.  1.
         -2   -1    0    0    0  501 -0.00000000000E+00 -0.00000000000E+00 -0.10313403743E+04  0.10313403743E+04  0.00000000000E+00 0. -1.
         23    2    1    2    0    0  0.28569560008E+03 -0.19679112176E+03 -0.23491312166E+02  0.35949655412E+03  0.91308319295E+02 0.  0.
        254    2    1    2    0    0 -0.28569560008E+03  0.19679112176E+03 -0.56147534176E+03  0.11182175405E+04  0.90266670864E+03 0.  0.
        -24    2    4    4    0    0 -0.14475507372E+03  0.46300395396E+03 -0.19890223718E+02  0.49212232042E+03  0.80386967241E+02 0.  0.
         24    2    4    4    0    0 -0.14094052636E+03 -0.26621283221E+03 -0.54158511804E+03  0.62609522004E+03  0.89147520859E+02 0.  0.
         11    1    3    3    0    0  0.69582603450E+02 -0.93510649255E+01  0.12009056515E+02  0.71227793427E+02  0.00000000000E+00 0. -1.
        -11    1    3    3    0    0  0.21611299663E+03 -0.18744005683E+03 -0.35500368681E+02  0.28826876070E+03  0.00000000000E+00 0.  1.
          2    1    6    6  502    0 -0.19178217029E+02 -0.30346960345E+01 -0.13556989455E+02  0.23681329175E+02  0.00000000000E+00 0. -1.
          3    1    5    5  503    0 -0.19817666700E+02  0.49949741324E+02 -0.27824084079E+02  0.60513603649E+02  0.00000000000E+00 0. -1.
         -4    1    5    5    0  503 -0.12493740702E+03  0.41305421264E+03  0.79338603608E+01  0.43160871677E+03  0.00000000000E+00 0.  1.
         -1    1    6    6    0  502 -0.12176230933E+03 -0.26317813617E+03 -0.52802812858E+03  0.60241389087E+03  0.00000000000E+00 0.  1.
<mgrwt>
<rscale>  0 0.13570015E+04</rscale>
<asrwt>0</asrwt>
<pdfrwt beam="1">  1        2 0.68672881E-01 0.13570015E+04</pdfrwt>
<pdfrwt beam="2">  1       -2 0.15866775E+00 0.13570015E+04</pdfrwt>
<totfact> 0.17640876E+01</totfact>
</mgrwt>
</event>
<event>
12    1  0.1518126E-007  0.1648348E+04  0.7818608E-02  0.8791385E-01
          1   -1    0    0  501    0  0.00000000000E+00  0.00000000000E+00  0.30229601799E+04  0.30229601799E+04  0.00000000000E+00 0. -1.
         -1   -1    0    0    0  501 -0.00000000000E+00 -0.00000000000E+00 -0.22470111671E+03  0.22470111671E+03  0.00000000000E+00 0.  1.
         23    2    1    2    0    0  0.15533566463E+03 -0.31371790752E+03  0.19172784815E+04  0.19510396994E+04  0.89727580824E+02 0.  0.
        254    2    1    2    0    0 -0.15533566463E+03  0.31371790752E+03  0.88098058174E+03  0.12966215973E+04  0.88462008055E+03 0.  0.
        -24    2    4    4    0    0  0.32656234794E+03  0.66875108349E+02  0.57664083419E+03  0.67086878202E+03  0.80218600265E+02 0.  0.
         24    2    4    4    0    0 -0.48189801258E+03  0.24684279917E+03  0.30433974755E+03  0.62575281525E+03  0.76071294407E+02 0.  0.
         11    1    3    3    0    0  0.93732390031E+02 -0.16458234095E+03  0.79674178278E+03  0.81894479443E+03  0.00000000000E+00 0.  1.
        -11    1    3    3    0    0  0.61603274602E+02 -0.14913556656E+03  0.11205366987E+04  0.11320949050E+04  0.00000000000E+00 0. -1.
          4    1    6    6  502    0 -0.48125399744E+03  0.24834766642E+03  0.29583147270E+03  0.61708851367E+03  0.00000000000E+00 0. -1.
          3    1    5    5  503    0  0.30642407364E+03  0.71609573653E+02  0.49427636324E+03  0.58594604462E+03  0.00000000000E+00 0. -1.
         -4    1    5    5    0  503  0.20138274298E+02 -0.47344653039E+01  0.82364470947E+02  0.84922737402E+02  0.00000000000E+00 0.  1.
         -3    1    6    6    0  502 -0.64401514044E+00 -0.15048672522E+01  0.85082748554E+01  0.86643015854E+01  0.00000000000E+00 0.  1.
<mgrwt>
<rscale>  0 0.16483477E+04</rscale>
<asrwt>0</asrwt>
<pdfrwt beam="1">  1        1 0.46507077E+00 0.16483477E+04</pdfrwt>
<pdfrwt beam="2">  1       -1 0.34569405E-01 0.16483477E+04</pdfrwt>
<totfact> 0.43809474E+00</totfact>
</mgrwt>
</event>
<event>
12    1  0.1518126E-007  0.1389280E+04  0.7818608E-02  0.8961615E-01
          2   -1    0    0  501    0  0.00000000000E+00  0.00000000000E+00  0.50063406674E+03  0.50063406674E+03  0.00000000000E+00 0. -1.
         -2   -1    0    0    0  501 -0.00000000000E+00 -0.00000000000E+00 -0.96382765651E+03  0.96382765651E+03  0.00000000000E+00 0.  1.
         23    2    1    2    0    0 -0.40578119615E+02  0.21253738454E+03  0.20341659487E+03  0.31089885407E+03  0.91984035436E+02 0.  0.
        254    2    1    2    0    0  0.40578119615E+02 -0.21253738454E+03 -0.66661018464E+03  0.11535628692E+04  0.91625292974E+03 0.  0.
        -24    2    4    4    0    0 -0.11810485707E+03 -0.43049944163E+03 -0.26102869245E+02  0.45408150953E+03  0.78931178884E+02 0.  0.
         24    2    4    4    0    0  0.15868297668E+03  0.21796205709E+03 -0.64050731540E+03  0.69948135965E+03  0.79604057713E+02 0.  0.
         13    1    3    3    0    0 -0.60439666235E+02  0.76712531490E+02  0.78499003944E+02  0.12529907965E+03  0.00000000000E+00 0.  1.
        -13    1    3    3    0    0  0.19861546620E+02  0.13582485305E+03  0.12491759092E+03  0.18559977442E+03  0.00000000000E+00 0. -1.
          4    1    6    6  502    0  0.13872784863E+03  0.17879979757E+03 -0.59322201151E+03  0.63492293905E+03  0.00000000000E+00 0. -1.
          3    1    5    5  503    0 -0.74772266673E+02 -0.19716072485E+03  0.21734016061E+02  0.21198021309E+03  0.00000000000E+00 0. -1.
         -4    1    5    5    0  503 -0.43332590396E+02 -0.23333871679E+03 -0.47836885307E+02  0.24210129644E+03  0.00000000000E+00 0.  1.
         -3    1    6    6    0  502  0.19955128053E+02  0.39162259526E+02 -0.47285303888E+02  0.64558420601E+02  0.00000000000E+00 0.  1.
<mgrwt>
<rscale>  0 0.13892803E+04</rscale>
<asrwt>0</asrwt>
<pdfrwt beam="1">  1        2 0.77020626E-01 0.13892803E+04</pdfrwt>
<pdfrwt beam="2">  1       -2 0.14828118E+00 0.13892803E+04</pdfrwt>
<totfact> 0.18485566E+01</totfact>
</mgrwt>
</event>
<event>
12    1  0.1518126E-007  0.2094470E+04  0.7818608E-02  0.8563683E-01
          1   -1    0    0  501    0  0.00000000000E+00  0.00000000000E+00  0.17582562836E+04  0.17582562836E+04  0.00000000000E+00 0. -1.
         -1   -1    0    0    0  501 -0.00000000000E+00 -0.00000000000E+00 -0.62374352014E+03  0.62374352014E+03  0.00000000000E+00 0.  1.
         23    2    1    2    0    0 -0.83358479088E+03 -0.11871524162E+03  0.58268220008E+03  0.10276196310E+04  0.86756254236E+02 0.  0.
        254    2    1    2    0    0  0.83358479088E+03  0.11871524162E+03  0.55183056341E+03  0.13543801727E+04  0.90601974004E+03 0.  0.
        -24    2    4    4    0    0  0.53790785192E+03  0.13956151942E+03 -0.15592892894E+03  0.58287114359E+03  0.81256779922E+02 0.  0.
         24    2    4    4    0    0  0.29567693896E+03 -0.20846277806E+02  0.70775949235E+03  0.77150902912E+03  0.80269941267E+02 0.  0.
         11    1    3    3    0    0 -0.55829455199E+03 -0.11672786252E+03  0.41359973630E+03  0.70454449295E+03  0.00000000000E+00 0. -1.
        -11    1    3    3    0    0 -0.27529023889E+03 -0.19873790979E+01  0.16908246378E+03  0.32307513810E+03  0.00000000000E+00 0.  1.
          2    1    6    6  502    0  0.11688119471E+03  0.19053533029E+02  0.20971794162E+03  0.24084406954E+03  0.00000000000E+00 0. -1.
          1    1    5    5  503    0  0.32245665282E+02  0.30205795727E+02 -0.94518434891E+01  0.45183076150E+02  0.00000000000E+00 0. -1.
         -2    1    5    5    0  503  0.50566218664E+03  0.10935572369E+03 -0.14647708545E+03  0.53768806744E+03  0.00000000000E+00 0.  1.
         -1    1    6    6    0  502  0.17879574425E+03 -0.39899810835E+02  0.49804155074E+03  0.53066495958E+03  0.00000000000E+00 0.  1.
<mgrwt>
<rscale>  0 0.20944698E+04</rscale>
<asrwt>0</asrwt>
<pdfrwt beam="1">  1        1 0.27050097E+00 0.20944698E+04</pdfrwt>
<pdfrwt beam="2">  1       -1 0.95960542E-01 0.20944698E+04</pdfrwt>
<totfact> 0.41886339E+00</totfact>
</mgrwt>
</event>
<event>
12    1  0.1518126E-007  0.2852721E+04  0.7818608E-02  0.8287085E-01
          1   -1    0    0  501    0  0.00000000000E+00  0.00000000000E+00  0.10807268468E+04  0.10807268468E+04  0.00000000000E+00 0. -1.
         -1   -1    0    0    0  501 -0.00000000000E+00 -0.00000000000E+00 -0.18825334858E+04  0.18825334858E+04  0.00000000000E+00 0.  1.
         23    2    1    2    0    0 -0.23655826250E+03  0.18681093284E+03  0.93676757857E+03  0.98831445309E+03  0.91508610169E+02 0.  0.
        254    2    1    2    0    0  0.23655826250E+03 -0.18681093284E+03 -0.17385742176E+04  0.19749458794E+04  0.88708104506E+03 0.  0.
        -24    2    4    4    0    0  0.49312622280E+03  0.68201288176E+02 -0.63420387864E+03  0.81023249830E+03  0.80232501498E+02 0.  0.
         24    2    4    4    0    0 -0.25656796030E+03 -0.25501222101E+03 -0.11043703389E+04  0.11647133811E+04  0.77878517978E+02 0.  0.
         13    1    3    3    0    0 -0.50586563758E+02  0.81773176778E+02  0.38023387909E+03  0.39220358958E+03  0.00000000000E+00 0.  1.
        -13    1    3    3    0    0 -0.18597169875E+03  0.10503775606E+03  0.55653369949E+03  0.59611086351E+03  0.00000000000E+00 0. -1.
          2    1    6    6  502    0 -0.11221644358E+03 -0.80835057031E+02 -0.32565975842E+03  0.35380943304E+03  0.00000000000E+00 0. -1.
          1    1    5    5  503    0  0.17677391127E+03 -0.14119682148E+02 -0.22646749590E+03  0.28763850199E+03  0.00000000000E+00 0. -1.
         -2    1    5    5    0  503  0.31635231153E+03  0.82320970324E+02 -0.40773638274E+03  0.52259399631E+03  0.00000000000E+00 0.  1.
         -1    1    6    6    0  502 -0.14435151672E+03 -0.17417716398E+03 -0.77871058052E+03  0.81090394810E+03  0.00000000000E+00 0.  1.
<mgrwt>
<rscale>  0 0.28527211E+04</rscale>
<asrwt>0</asrwt>
<pdfrwt beam="1">  1        1 0.16626567E+00 0.28527211E+04</pdfrwt>
<pdfrwt beam="2">  1       -1 0.28962053E+00 0.28527211E+04</pdfrwt>
<totfact> 0.43567544E-01</totfact>
</mgrwt>
</event>
<event>
12    1  0.1518126E-007  0.1597025E+04  0.7818608E-02  0.8822378E-01
         -2   -1    0    0    0  501 -0.00000000000E+00  0.00000000000E+00  0.47572554411E+03  0.47572554411E+03  0.00000000000E+00 0.  1.
          2   -1    0    0  501    0  0.00000000000E+00 -0.00000000000E+00 -0.13403152942E+04  0.13403152942E+04  0.00000000000E+00 0. -1.
         23    2    1    2    0    0 -0.52786505720E+03 -0.26386891884E+02 -0.43649756945E+03  0.69163672954E+03  0.92159919881E+02 0.  0.
        254    2    1    2    0    0  0.52786505720E+03  0.26386891884E+02 -0.42809218063E+03  0.11244041088E+04  0.89536802377E+03 0.  0.
        -24    2    4    4    0    0  0.39160697829E+03  0.43992232843E+03 -0.28749471815E+03  0.65995081834E+03  0.77422149085E+02 0.  0.
         24    2    4    4    0    0  0.13625807891E+03 -0.41353543655E+03 -0.14059746249E+03  0.46445329041E+03  0.79820994511E+02 0.  0.
         13    1    3    3    0    0 -0.25677395920E+03 -0.12075732251E+02 -0.15309829519E+03  0.29919521625E+03  0.00000000000E+00 0.  1.
        -13    1    3    3    0    0 -0.27109109800E+03 -0.14311159633E+02 -0.28339927426E+03  0.39244151329E+03  0.00000000000E+00 0. -1.
          4    1    6    6  502    0  0.90100936367E+02 -0.22385493480E+03 -0.39186501765E+02  0.24446838750E+03  0.00000000000E+00 0. -1.
          3    1    5    5  503    0  0.94296398313E+02  0.62648116858E+02 -0.44497564112E+02  0.12164140123E+03  0.00000000000E+00 0. -1.
         -4    1    5    5    0  503  0.29731057998E+03  0.37727421158E+03 -0.24299715403E+03  0.53830941712E+03  0.00000000000E+00 0.  1.
         -3    1    6    6    0  502  0.46157142542E+02 -0.18968050175E+03 -0.10141096072E+03  0.21998490291E+03  0.00000000000E+00 0.  1.
<mgrwt>
<rscale>  0 0.15970250E+04</rscale>
<asrwt>0</asrwt>
<pdfrwt beam="1">  1        2 0.20620235E+00 0.15970250E+04</pdfrwt>
<pdfrwt beam="2">  1       -2 0.73188547E-01 0.15970250E+04</pdfrwt>
<totfact> 0.25323254E+01</totfact>
</mgrwt>
</event>
<event>
12    1  0.1518126E-007  0.1497998E+04  0.7818608E-02  0.8885786E-01
          2   -1    0    0  501    0  0.00000000000E+00  0.00000000000E+00  0.36326289934E+03  0.36326289934E+03  0.00000000000E+00 0. -1.
         -2   -1    0    0    0  501 -0.00000000000E+00 -0.00000000000E+00 -0.15443339264E+04  0.15443339264E+04  0.00000000000E+00 0.  1.
         23    2    1    2    0    0 -0.36657217341E+03  0.30765166650E+03 -0.40077303613E+03  0.63077570927E+03  0.90742838257E+02 0.  0.
        254    2    1    2    0    0  0.36657217341E+03 -0.30765166650E+03 -0.78029799090E+03  0.12768211164E+04  0.89015869516E+03 0.  0.
        -24    2    4    4    0    0  0.18619460913E+03  0.30352816773E+03 -0.33829927925E+03  0.49744019357E+03  0.78756350590E+02 0.  0.
         24    2    4    4    0    0  0.18037756428E+03 -0.61117983422E+03 -0.44199871165E+03  0.77938092288E+03  0.77426780848E+02 0.  0.
         11    1    3    3    0    0 -0.24290246661E+02  0.26245485801E+02 -0.39968410962E+01  0.35983556613E+02  0.00000000000E+00 0. -1.
        -11    1    3    3    0    0 -0.34228192675E+03  0.28140618070E+03 -0.39677619503E+03  0.59479215265E+03  0.00000000000E+00 0.  1.
          2    1    6    6  502    0  0.33039697313E+02 -0.10681533152E+03 -0.43732044771E+02  0.12005677151E+03  0.00000000000E+00 0. -1.
          3    1    5    5  503    0  0.29164585635E+02  0.96773142893E+02 -0.12946909332E+03  0.16424938467E+03  0.00000000000E+00 0. -1.
         -4    1    5    5    0  503  0.15703002350E+03  0.20675502483E+03 -0.20883018594E+03  0.33319080889E+03  0.00000000000E+00 0.  1.
         -1    1    6    6    0  502  0.14733786697E+03 -0.50436450271E+03 -0.39826666688E+03  0.65932415137E+03  0.00000000000E+00 0.  1.
<mgrwt>
<rscale>  0 0.14979976E+04</rscale>
<asrwt>0</asrwt>
<pdfrwt beam="1">  1        2 0.55886599E-01 0.14979976E+04</pdfrwt>
<pdfrwt beam="2">  1       -2 0.23758984E+00 0.14979976E+04</pdfrwt>
<totfact> 0.65669815E+00</totfact>
</mgrwt>
</event>
<event>
12    1  0.1518126E-007  0.2507560E+04  0.7818608E-02  0.8400297E-01
          2   -1    0    0  501    0  0.00000000000E+00  0.00000000000E+00  0.93584688240E+03  0.93584688240E+03  0.00000000000E+00 0. -1.
         -2   -1    0    0    0  501 -0.00000000000E+00 -0.00000000000E+00 -0.16797241690E+04  0.16797241690E+04  0.00000000000E+00 0.  1.
         23    2    1    2    0    0 -0.92437119961E+03 -0.35799823180E+02 -0.92553020227E+03  0.13117778461E+04  0.91712704290E+02 0.  0.
        254    2    1    2    0    0  0.92437119961E+03  0.35799823180E+02  0.18165291567E+03  0.13037932053E+04  0.90063044502E+03 0.  0.
        -24    2    4    4    0    0 -0.16904707730E+03  0.25895926072E+02 -0.10041963046E+02  0.19003477552E+03  0.82248778438E+02 0.  0.
         24    2    4    4    0    0  0.10934182769E+04  0.99038971082E+01  0.19169487871E+03  0.11137584298E+04  0.89717880059E+02 0.  0.
         11    1    3    3    0    0 -0.36150580684E+02  0.15286888366E+02 -0.49693539043E+02  0.63324570763E+02  0.00000000000E+00 0. -1.
        -11    1    3    3    0    0 -0.88822061892E+03 -0.51086711546E+02 -0.87583666323E+03  0.12484532753E+04  0.00000000000E+00 0.  1.
          2    1    6    6  502    0  0.71891567306E+03  0.49076952127E+02  0.12713250591E+03  0.73171781874E+03  0.00000000000E+00 0. -1.
          1    1    5    5  503    0 -0.50601581197E+02 -0.18381312706E+02 -0.30597465644E+02  0.61924127610E+02  0.00000000000E+00 0. -1.
         -4    1    5    5    0  503 -0.11844549610E+03  0.44277238778E+02  0.20555502599E+02  0.12811064791E+03  0.00000000000E+00 0.  1.
         -1    1    6    6    0  502  0.37450260384E+03 -0.39173055019E+02  0.64562372807E+02  0.38204061107E+03  0.00000000000E+00 0.  1.
<mgrwt>
<rscale>  0 0.25075603E+04</rscale>
<asrwt>0</asrwt>
<pdfrwt beam="1">  1        2 0.14397644E+00 0.25075603E+04</pdfrwt>
<pdfrwt beam="2">  1       -2 0.25841910E+00 0.25075603E+04</pdfrwt>
<totfact> 0.14105574E+00</totfact>
</mgrwt>
</event>
<event>
12    1  0.2239791E-007  0.1658820E+04  0.7818608E-02  0.8785206E-01
         -1   -1    0    0    0  501 -0.00000000000E+00  0.00000000000E+00  0.85031097539E+03  0.85031097539E+03  0.00000000000E+00 0.  1.
          1   -1    0    0  501    0  0.00000000000E+00 -0.00000000000E+00 -0.80902242933E+03  0.80902242933E+03  0.00000000000E+00 0. -1.
         23    2    1    2    0    0  0.25473868577E+03 -0.50102617176E+03 -0.12437558740E+03  0.58289083252E+03  0.91506355361E+02 0.  0.
        254    2    1    2    0    0 -0.25473868577E+03  0.50102617176E+03  0.16566413346E+03  0.10764425722E+04  0.90297562721E+03 0.  0.
        -24    2    4    4    0    0 -0.13419105875E+03  0.64173210749E+03  0.39589561255E+03  0.77043031995E+03  0.83679171961E+02 0.  0.
         24    2    4    4    0    0 -0.12054762703E+03 -0.14070593573E+03 -0.23023147909E+03  0.30601225227E+03  0.79417087837E+02 0.  0.
         11    1    3    3    0    0  0.23006399794E+03 -0.48961909146E+03 -0.10966078481E+03  0.55197987789E+03  0.00000000000E+00 0. -1.
        -11    1    3    3    0    0  0.24674687832E+02 -0.11407080299E+02 -0.14714802587E+02  0.30910954623E+02  0.00000000000E+00 0.  1.
          2    1    6    6  502    0 -0.21474015924E+01  0.81446868532E+01 -0.15361311194E+01  0.85619481634E+01  0.00000000000E+00 0. -1.
          1    1    5    5  503    0 -0.97781103831E+01  0.29943024401E+02  0.42937904090E+02  0.53252791106E+02  0.00000000000E+00 0. -1.
         -2    1    5    5    0  503 -0.12441294836E+03  0.61178908309E+03  0.35295770846E+03  0.71717752884E+03  0.00000000000E+00 0.  1.
         -1    1    6    6    0  502 -0.11840022543E+03 -0.14885062258E+03 -0.22869534797E+03  0.29745030410E+03  0.00000000000E+00 0.  1.
<mgrwt>
<rscale>  0 0.16588196E+04</rscale>
<asrwt>0</asrwt>
<pdfrwt beam="1">  1        1 0.12446499E+00 0.16588196E+04</pdfrwt>
<pdfrwt beam="2">  1       -1 0.13081707E+00 0.16588196E+04</pdfrwt>
<totfact> 0.10351413E+01</totfact>
</mgrwt>
</event>
<event>
12    1  0.1518126E-007  0.1320002E+04  0.7818608E-02  0.9013852E-01
         -1   -1    0    0    0  501 -0.00000000000E+00  0.00000000000E+00  0.47780736592E+03  0.47780736592E+03  0.00000000000E+00 0.  1.
          1   -1    0    0  501    0  0.00000000000E+00 -0.00000000000E+00 -0.91166680808E+03  0.91166680808E+03  0.00000000000E+00 0. -1.
         23    2    1    2    0    0 -0.11932737676E+03 -0.16276136451E+03  0.18107061329E+03  0.28607256201E+03  0.91217646959E+02 0.  0.
        254    2    1    2    0    0  0.11932737676E+03  0.16276136451E+03 -0.61493005544E+03  0.11034016120E+04  0.89365869303E+03 0.  0.
        -24    2    4    4    0    0 -0.26964666597E+02  0.28952698768E+02 -0.80768192699E+03  0.81266254252E+03  0.80653337389E+02 0.  0.
         24    2    4    4    0    0  0.14629204335E+03  0.13380866574E+03  0.19275187154E+03  0.29073906946E+03  0.89832074183E+02 0.  0.
         13    1    3    3    0    0 -0.89456738297E+02 -0.15293315861E+03  0.11049061957E+03  0.20880430083E+03  0.00000000000E+00 0.  1.
        -13    1    3    3    0    0 -0.29870638459E+02 -0.98282058973E+01  0.70579993716E+02  0.77268261182E+02  0.00000000000E+00 0. -1.
          4    1    6    6  502    0  0.12329517952E+03  0.54176110836E+02  0.12358933565E+03  0.18278696935E+03  0.00000000000E+00 0. -1.
          1    1    5    5  503    0 -0.46039388351E+02  0.26018378359E+02 -0.74950057458E+03  0.75136388827E+03  0.00000000000E+00 0. -1.
         -2    1    5    5    0  503  0.19074721755E+02  0.29343204088E+01 -0.58181352402E+02  0.61298654256E+02  0.00000000000E+00 0.  1.
         -3    1    6    6    0  502  0.22996863834E+02  0.79632554908E+02  0.69162535894E+02  0.10795210011E+03  0.00000000000E+00 0.  1.
<mgrwt>
<rscale>  0 0.13200017E+04</rscale>
<asrwt>0</asrwt>
<pdfrwt beam="1">  1        1 0.14025643E+00 0.13200017E+04</pdfrwt>
<pdfrwt beam="2">  1       -1 0.73508826E-01 0.13200017E+04</pdfrwt>
<totfact> 0.32569706E+01</totfact>
</mgrwt>
</event>
<event>
12    1  0.1518126E-007  0.2490371E+04  0.7818608E-02  0.8406424E-01
         -2   -1    0    0    0  501 -0.00000000000E+00  0.00000000000E+00  0.57782340711E+03  0.57782340711E+03  0.00000000000E+00 0. -1.
          2   -1    0    0  501    0  0.00000000000E+00 -0.00000000000E+00 -0.26833230787E+04  0.26833230787E+04  0.00000000000E+00 0.  1.
         23    2    1    2    0    0  0.17688599003E+03 -0.27175581233E+03 -0.22656997898E+04  0.22905817844E+04  0.90716582177E+02 0.  0.
        254    2    1    2    0    0 -0.17688599003E+03  0.27175581233E+03  0.16020011820E+03  0.97056470146E+03  0.90066191595E+03 0.  0.
        -24    2    4    4    0    0 -0.18648457021E+03  0.12651119808E+03 -0.35596310671E+03  0.42775453555E+03  0.74044791731E+02 0.  0.
         24    2    4    4    0    0  0.95985801786E+01  0.14524461426E+03  0.51616322491E+03  0.54281016591E+03  0.83846709864E+02 0.  0.
         11    1    3    3    0    0 -0.52829896505E+01 -0.38100146419E+02 -0.19108844685E+03  0.19492133197E+03  0.00000000000E+00 0. -1.
        -11    1    3    3    0    0  0.18216897968E+03 -0.23365566591E+03 -0.20746113429E+04  0.20956604524E+04  0.00000000000E+00 0.  1.
          2    1    6    6  502    0  0.26791876659E+02  0.14412667614E+03  0.49019612415E+03  0.51164689343E+03  0.00000000000E+00 0. -1.
          3    1    5    5  503    0 -0.95891385249E+02  0.10640662859E+03 -0.23632458180E+03  0.27634550175E+03  0.00000000000E+00 0. -1.
         -2    1    5    5    0  503 -0.90593184962E+02  0.20104569490E+02 -0.11963852490E+03  0.15140903380E+03  0.00000000000E+00 0.  1.
         -1    1    6    6    0  502 -0.17193296480E+02  0.11179381116E+01  0.25967100763E+02  0.31163272477E+02  0.00000000000E+00 0.  1.
<mgrwt>
<rscale>  0 0.24903710E+04</rscale>
<asrwt>0</asrwt>
<pdfrwt beam="1">  1        2 0.41281893E+00 0.24903710E+04</pdfrwt>
<pdfrwt beam="2">  1       -2 0.88895910E-01 0.24903710E+04</pdfrwt>
<totfact> 0.26365738E+00</totfact>
</mgrwt>
</event>
<event>
12    1  0.1518126E-007  0.1939877E+04  0.7818608E-02  0.8635258E-01
         -1   -1    0    0    0  501 -0.00000000000E+00  0.00000000000E+00  0.71130252106E+03  0.71130252106E+03  0.00000000000E+00 0.  1.
          1   -1    0    0  501    0  0.00000000000E+00 -0.00000000000E+00 -0.13226164263E+04  0.13226164263E+04  0.00000000000E+00 0. -1.
         23    2    1    2    0    0  0.60807257572E+03  0.35500417920E+03 -0.50503425137E+03  0.87122602110E+03  0.90526019397E+02 0.  0.
        254    2    1    2    0    0 -0.60807257572E+03 -0.35500417920E+03 -0.10627965390E+03  0.11626929263E+04  0.91911873629E+03 0.  0.
        -24    2    4    4    0    0 -0.16368918272E+03  0.30528932955E+03 -0.64174836391E+02  0.36152699501E+03  0.81164248419E+02 0.  0.
         24    2    4    4    0    0 -0.44438339300E+03 -0.66029350875E+03 -0.42104817514E+02  0.80116593127E+03  0.81424296724E+02 0.  0.
         13    1    3    3    0    0  0.38447021757E+03  0.23240851027E+03 -0.26830336133E+03  0.52327598602E+03  0.00000000000E+00 0.  1.
        -13    1    3    3    0    0  0.22360235815E+03  0.12259566894E+03 -0.23673089005E+03  0.34795003508E+03  0.00000000000E+00 0. -1.
          4    1    6    6  502    0 -0.79559108696E+02 -0.13044243160E+03 -0.39677924409E+02  0.15785821937E+03  0.00000000000E+00 0. -1.
          3    1    5    5  503    0 -0.52330882027E+01  0.16326910147E+02  0.14789042388E+02  0.22642194722E+02  0.00000000000E+00 0. -1.
         -4    1    5    5    0  503 -0.15845609452E+03  0.28896241940E+03 -0.78963878779E+02  0.33888480029E+03  0.00000000000E+00 0.  1.
         -3    1    6    6    0  502 -0.36482428431E+03 -0.52985107715E+03 -0.24268931051E+01  0.64330771190E+03  0.00000000000E+00 0.  1.
<mgrwt>
<rscale>  0 0.19398767E+04</rscale>
<asrwt>0</asrwt>
<pdfrwt beam="1">  1        1 0.20347945E+00 0.19398767E+04</pdfrwt>
<pdfrwt beam="2">  1       -1 0.10943116E+00 0.19398767E+04</pdfrwt>
<totfact> 0.62789068E+00</totfact>
</mgrwt>
</event>
<event>
12    1  0.1518126E-007  0.1403569E+04  0.7818608E-02  0.8951239E-01
         -2   -1    0    0    0  501 -0.00000000000E+00  0.00000000000E+00  0.16229253512E+04  0.16229253512E+04  0.00000000000E+00 0.  1.
          2   -1    0    0  501    0  0.00000000000E+00 -0.00000000000E+00 -0.30346536926E+03  0.30346536926E+03  0.00000000000E+00 0. -1.
         23    2    1    2    0    0  0.51401960960E+02  0.99051304975E+02 -0.14968739439E+03  0.20645468427E+03  0.88112984352E+02 0.  0.
        254    2    1    2    0    0 -0.51401960960E+02 -0.99051304975E+02  0.14691473763E+04  0.17199360362E+04  0.88731766162E+03 0.  0.
        -24    2    4    4    0    0  0.36691716210E+03 -0.23795829569E+03  0.67651708531E+03  0.80954586383E+03  0.80229574338E+02 0.  0.
         24    2    4    4    0    0 -0.41831912306E+03  0.13890699072E+03  0.79263029098E+03  0.91039017233E+03  0.79129304969E+02 0.  0.
         13    1    3    3    0    0  0.37941409636E+02  0.11482863863E+03 -0.13361325180E+03  0.18021561495E+03  0.00000000000E+00 0. -1.
        -13    1    3    3    0    0  0.13460551324E+02 -0.15777333651E+02 -0.16074142583E+02  0.26239069322E+02  0.00000000000E+00 0.  1.
          2    1    6    6  502    0 -0.80411155073E+02  0.44832046625E+02  0.11455507438E+03  0.14696506841E+03  0.00000000000E+00 0. -1.
          3    1    5    5  503    0  0.69922967711E+02 -0.81284421276E+02  0.13543545621E+03  0.17274009771E+03  0.00000000000E+00 0. -1.
         -4    1    5    5    0  503  0.29699419439E+03 -0.15667387442E+03  0.54108162910E+03  0.63680576613E+03  0.00000000000E+00 0.  1.
         -1    1    6    6    0  502 -0.33790796799E+03  0.94074944094E+02  0.67807521660E+03  0.76342510392E+03  0.00000000000E+00 0.  1.
<mgrwt>
<rscale>  0 0.14035692E+04</rscale>
<asrwt>0</asrwt>
<pdfrwt beam="1">  1        2 0.46686981E-01 0.14035692E+04</pdfrwt>
<pdfrwt beam="2">  1       -2 0.24968082E+00 0.14035692E+04</pdfrwt>
<totfact> 0.68159009E+00</totfact>
</mgrwt>
</event>
<event>
12    1  0.1518126E-007  0.2748662E+04  0.7818608E-02  0.8319386E-01
         -1   -1    0    0    0  501 -0.00000000000E+00  0.00000000000E+00  0.47792152000E+03  0.47792152000E+03  0.00000000000E+00 0.  1.
          1   -1    0    0  501    0  0.00000000000E+00 -0.00000000000E+00 -0.39520819764E+04  0.39520819764E+04  0.00000000000E+00 0. -1.
         23    2    1    2    0    0 -0.19954758227E+03 -0.11997623470E+04 -0.14099097713E+04  0.18641492353E+04  0.89206957899E+02 0.  0.
        254    2    1    2    0    0  0.19954758227E+03  0.11997623470E+04 -0.20642506851E+04  0.25658542611E+04  0.91827461650E+03 0.  0.
        -24    2    4    4    0    0  0.16444233573E+03  0.10401580385E+04 -0.21259456538E+04  0.23736997496E+04  0.76390781317E+02 0.  0.
         24    2    4    4    0    0  0.35105246548E+02  0.15960430856E+03  0.61694968738E+02  0.19215451149E+03  0.80069803733E+02 0.  0.
         13    1    3    3    0    0 -0.48099389774E+02 -0.13617967278E+03 -0.18925927423E+03  0.23807042542E+03  0.00000000000E+00 0.  1.
        -13    1    3    3    0    0 -0.15144819250E+03 -0.10635826743E+04 -0.12206504971E+04  0.16260788099E+04  0.00000000000E+00 0. -1.
          4    1    6    6  502    0  0.31959103930E+02  0.21027220593E+02 -0.45494267519E+01  0.38525648776E+02  0.00000000000E+00 0. -1.
          3    1    5    5  503    0  0.17248596836E+02  0.47105656534E+02 -0.13394359553E+03  0.14302917099E+03  0.00000000000E+00 0. -1.
         -4    1    5    5    0  503  0.14719373889E+03  0.99305238194E+03 -0.19920020583E+04  0.22306705786E+04  0.00000000000E+00 0.  1.
         -3    1    6    6    0  502  0.31461426183E+01  0.13857708797E+03  0.66244395490E+02  0.15362886271E+03  0.00000000000E+00 0.  1.
<mgrwt>
<rscale>  0 0.27486615E+04</rscale>
<asrwt>0</asrwt>
<pdfrwt beam="1">  1        1 0.60801260E+00 0.27486615E+04</pdfrwt>
<pdfrwt beam="2">  1       -1 0.73526389E-01 0.27486615E+04</pdfrwt>
<totfact> 0.17134767E-01</totfact>
</mgrwt>
</event>
<event>
12    1  0.1518126E-007  0.2330212E+04  0.7818608E-02  0.8466103E-01
         -2   -1    0    0    0  501 -0.00000000000E+00  0.00000000000E+00  0.60454071683E+03  0.60454071683E+03  0.00000000000E+00 0.  1.
          2   -1    0    0  501    0  0.00000000000E+00 -0.00000000000E+00 -0.22454595277E+04  0.22454595277E+04  0.00000000000E+00 0. -1.
         23    2    1    2    0    0  0.98119948694E+02 -0.91655599221E+03 -0.11420414202E+04  0.14704501476E+04  0.90898954580E+02 0.  0.
        254    2    1    2    0    0 -0.98119948694E+02  0.91655599221E+03 -0.49887739072E+03  0.13795500970E+04  0.89698238996E+03 0.  0.
        -24    2    4    4    0    0 -0.39979692334E+02 -0.16685204011E+03 -0.23782601432E+02  0.19243982923E+03  0.83842093573E+02 0.  0.
         24    2    4    4    0    0 -0.58140256360E+02  0.10834080323E+04 -0.47509478929E+03  0.11871102677E+04  0.79765124303E+02 0.  0.
         13    1    3    3    0    0  0.97568705444E+02 -0.91013680002E+03 -0.11425379140E+04  0.14639882281E+04  0.00000000000E+00 0. -1.
        -13    1    3    3    0    0  0.55124324994E+00 -0.64191921830E+01  0.49649383144E+00  0.64619194925E+01  0.00000000000E+00 0.  1.
          4    1    6    6  502    0 -0.15370681277E+02  0.18842083530E+03 -0.11615750043E+03  0.22188112566E+03  0.00000000000E+00 0. -1.
          3    1    5    5  503    0  0.13076811670E+02  0.26527014980E+01 -0.20858662169E+01  0.13505208868E+02  0.00000000000E+00 0. -1.
         -4    1    5    5    0  503 -0.53056504003E+02 -0.16950474161E+03 -0.21696735215E+02  0.17893462036E+03  0.00000000000E+00 0.  1.
         -3    1    6    6    0  502 -0.42769575083E+02  0.89498719702E+03 -0.35893728885E+03  0.96522914208E+03  0.00000000000E+00 0.  1.
<mgrwt>
<rscale>  0 0.23302118E+04</rscale>
<asrwt>0</asrwt>
<pdfrwt beam="1">  1        2 0.34545531E+00 0.23302118E+04</pdfrwt>
<pdfrwt beam="2">  1       -2 0.93006264E-01 0.23302118E+04</pdfrwt>
<totfact> 0.43106018E+00</totfact>
</mgrwt>
</event>
<event>
12    1  0.1518126E-007  0.2126082E+04  0.7818608E-02  0.8549840E-01
          1   -1    0    0  501    0  0.00000000000E+00  0.00000000000E+00  0.89303875988E+03  0.89303875988E+03  0.00000000000E+00 0. -1.
         -1   -1    0    0    0  501 -0.00000000000E+00 -0.00000000000E+00 -0.12654049538E+04  0.12654049538E+04  0.00000000000E+00 0.  1.
         23    2    1    2    0    0  0.32987330912E+03  0.18668131732E+02 -0.97413422506E+03  0.10317885359E+04  0.80530709475E+02 0.  0.
        254    2    1    2    0    0 -0.32987330912E+03 -0.18668131732E+02  0.60176803113E+03  0.11266551778E+04  0.89334328628E+03 0.  0.
        -24    2    4    4    0    0 -0.14142031790E+03  0.40827941823E+03  0.45161428525E+03  0.63006871263E+03  0.79619911682E+02 0.  0.
         24    2    4    4    0    0 -0.18845299122E+03 -0.42694754996E+03  0.15015374588E+03  0.49658646516E+03  0.79077365003E+02 0.  0.
         11    1    3    3    0    0  0.19873123483E+03 -0.17395196143E+02 -0.49393437395E+03  0.53269865995E+03  0.00000000000E+00 0.  1.
        -11    1    3    3    0    0  0.13114207429E+03  0.36063327876E+02 -0.48019985111E+03  0.49908987595E+03  0.00000000000E+00 0. -1.
          4    1    6    6  502    0 -0.19962804439E+02 -0.97391601705E+02  0.58222904252E+02  0.11521086851E+03  0.00000000000E+00 0. -1.
          3    1    5    5  503    0 -0.23666931390E-01  0.48840907708E+00 -0.30953936323E+01  0.31337781174E+01  0.00000000000E+00 0. -1.
         -4    1    5    5    0  503 -0.14139665097E+03  0.40779100915E+03  0.45470967888E+03  0.62693493452E+03  0.00000000000E+00 0.  1.
         -3    1    6    6    0  502 -0.16849018678E+03 -0.32955594826E+03  0.91930841630E+02  0.38137559664E+03  0.00000000000E+00 0.  1.
<mgrwt>
<rscale>  0 0.21260815E+04</rscale>
<asrwt>0</asrwt>
<pdfrwt beam="1">  1        1 0.13739058E+00 0.21260815E+04</pdfrwt>
<pdfrwt beam="2">  1       -1 0.19467769E+00 0.21260815E+04</pdfrwt>
<totfact> 0.27722466E+00</totfact>
</mgrwt>
</event>
<event>
12    1  0.1518126E-007  0.1863093E+04  0.7818608E-02  0.8673449E-01
          2   -1    0    0  501    0  0.00000000000E+00  0.00000000000E+00  0.74342061899E+03  0.74342061899E+03  0.00000000000E+00 0. -1.
         -2   -1    0    0    0  501 -0.00000000000E+00 -0.00000000000E+00 -0.11672783443E+04  0.11672783443E+04  0.00000000000E+00 0.  1.
         23    2    1    2    0    0  0.10188287392E+03 -0.65871783043E+03  0.95720198646E+02  0.68200173247E+03  0.10804955592E+03 0.  0.
        254    2    1    2    0    0 -0.10188287392E+03  0.65871783043E+03 -0.51957792395E+03  0.12286972308E+04  0.89187799941E+03 0.  0.
        -24    2    4    4    0    0 -0.47508022491E+03  0.21508146824E+03 -0.26323804279E+03  0.58950708967E+03  0.79139645682E+02 0.  0.
         24    2    4    4    0    0  0.37319735099E+03  0.44363636219E+03 -0.25633988116E+03  0.63919014114E+03  0.82246077204E+02 0.  0.
         13    1    3    3    0    0  0.51462016724E+02 -0.56689887160E+03  0.95887515337E+02  0.57724958673E+03  0.00000000000E+00 0. -1.
        -13    1    3    3    0    0  0.50420857197E+02 -0.91818958837E+02 -0.16731669093E+00  0.10475214574E+03  0.00000000000E+00 0.  1.
          4    1    6    6  502    0  0.32128241792E+03  0.39316142623E+03 -0.19364657442E+03  0.54341263780E+03  0.00000000000E+00 0. -1.
          3    1    5    5  503    0 -0.37610253911E+03  0.14125161668E+03 -0.17772648367E+03  0.43930836793E+03  0.00000000000E+00 0. -1.
         -4    1    5    5    0  503 -0.98977685803E+02  0.73829851563E+02 -0.85511559124E+02  0.15019872174E+03  0.00000000000E+00 0.  1.
         -3    1    6    6    0  502  0.51914933066E+02  0.50474935966E+02 -0.62693306739E+02  0.95777503339E+02  0.00000000000E+00 0.  1.
<mgrwt>
<rscale>  0 0.18630929E+04</rscale>
<asrwt>0</asrwt>
<pdfrwt beam="1">  1        2 0.11437240E+00 0.18630929E+04</pdfrwt>
<pdfrwt beam="2">  1       -2 0.17958128E+00 0.18630929E+04</pdfrwt>
<totfact> 0.64998212E+00</totfact>
</mgrwt>
</event>
<event>
12    1  0.1518126E-007  0.4272803E+04  0.7818608E-02  0.7951666E-01
         -2   -1    0    0    0  501 -0.00000000000E+00  0.00000000000E+00  0.24455603213E+04  0.24455603213E+04  0.00000000000E+00 0. -1.
          2   -1    0    0  501    0  0.00000000000E+00 -0.00000000000E+00 -0.18663251577E+04  0.18663251577E+04  0.00000000000E+00 0.  1.
         23    2    1    2    0    0 -0.18801492863E+04  0.67834558098E+03  0.67493672165E+03  0.21115527638E+04  0.89450712831E+02 0.  0.
        254    2    1    2    0    0  0.18801492863E+04 -0.67834558098E+03 -0.95701558038E+02  0.22003327152E+04  0.91498153168E+03 0.  0.
        -24    2    4    4    0    0  0.13929111426E+04 -0.62587314069E+03 -0.44538799957E+03  0.15927412815E+04  0.80843554363E+02 0.  0.
         24    2    4    4    0    0  0.48723814378E+03 -0.52472440287E+02  0.34968644153E+03  0.60759143373E+03  0.82051064679E+02 0.  0.
         13    1    3    3    0    0 -0.10201854338E+04  0.33947439148E+03  0.40043586767E+03  0.11473317157E+04  0.00000000000E+00 0. -1.
        -13    1    3    3    0    0 -0.85996385258E+03  0.33887118950E+03  0.27450085397E+03  0.96422104813E+03  0.00000000000E+00 0.  1.
          2    1    6    6  502    0  0.16973662355E+03  0.14056266126E+02  0.14777822052E+03  0.22549169043E+03  0.00000000000E+00 0. -1.
          1    1    5    5  503    0  0.12380065326E+04 -0.55061795839E+03 -0.36855934241E+03  0.14041639148E+04  0.00000000000E+00 0. -1.
         -2    1    5    5    0  503  0.15490460996E+03 -0.75255182297E+02 -0.76828657160E+02  0.18857736665E+03  0.00000000000E+00 0.  1.
         -1    1    6    6    0  502  0.31750152022E+03 -0.66528706413E+02  0.20190822101E+03  0.38209974330E+03  0.00000000000E+00 0.  1.
<mgrwt>
<rscale>  0 0.42728027E+04</rscale>
<asrwt>0</asrwt>
<pdfrwt beam="1">  1        2 0.28712695E+00 0.42728027E+04</pdfrwt>
<pdfrwt beam="2">  1       -2 0.37624005E+00 0.42728027E+04</pdfrwt>
<totfact> 0.64755701E-02</totfact>
</mgrwt>
</event>
<event>
12    1  0.1518126E-007  0.2472889E+04  0.7818608E-02  0.8412708E-01
         -2   -1    0    0    0  501 -0.00000000000E+00  0.00000000000E+00  0.69572826816E+03  0.69572826816E+03  0.00000000000E+00 0.  1.
          2   -1    0    0  501    0  0.00000000000E+00 -0.00000000000E+00 -0.21974027551E+04  0.21974027551E+04  0.00000000000E+00 0. -1.
         23    2    1    2    0    0 -0.10332343990E+04 -0.28641822881E+03 -0.66007018853E+03  0.12625593749E+04  0.93567068641E+02 0.  0.
        254    2    1    2    0    0  0.10332343990E+04  0.28641822881E+03 -0.84160429841E+03  0.16305716483E+04  0.89490635275E+03 0.  0.
        -24    2    4    4    0    0  0.93530309728E+03 -0.13089046034E+03 -0.67379609579E+03  0.11634769828E+04  0.88052907364E+02 0.  0.
         24    2    4    4    0    0  0.97931301727E+02  0.41730868915E+03 -0.16780820262E+03  0.46709466551E+03  0.79251194177E+02 0.  0.
         11    1    3    3    0    0 -0.91809697490E+02 -0.19748058758E+02 -0.29190246335E+02  0.98341633396E+02  0.00000000000E+00 0.  1.
        -11    1    3    3    0    0 -0.94142470152E+03 -0.26667017006E+03 -0.63087994220E+03  0.11642177415E+04  0.00000000000E+00 0. -1.
          4    1    6    6  502    0  0.11083118693E+02  0.13123288289E+03 -0.85441782750E+02  0.15698790817E+03  0.00000000000E+00 0. -1.
          3    1    5    5  503    0  0.91597367764E+03 -0.11677625451E+03 -0.64671484821E+03  0.11273351616E+04  0.00000000000E+00 0. -1.
         -4    1    5    5    0  503  0.19329419644E+02 -0.14114205825E+02 -0.27081247584E+02  0.36141821212E+02  0.00000000000E+00 0.  1.
         -3    1    6    6    0  502  0.86848183034E+02  0.28607580626E+03 -0.82366419873E+02  0.31010675734E+03  0.00000000000E+00 0.  1.
<mgrwt>
<rscale>  0 0.24728892E+04</rscale>
<asrwt>0</asrwt>
<pdfrwt beam="1">  1        2 0.33806196E+00 0.24728892E+04</pdfrwt>
<pdfrwt beam="2">  1       -2 0.10703512E+00 0.24728892E+04</pdfrwt>
<totfact> 0.32502849E+00</totfact>
</mgrwt>
</event>
<event>
12    1  0.1518126E-007  0.1768626E+04  0.7818608E-02  0.8723164E-01
          2   -1    0    0  501    0  0.00000000000E+00  0.00000000000E+00  0.11041100943E+04  0.11041100943E+04  0.00000000000E+00 0. -1.
         -2   -1    0    0    0  501 -0.00000000000E+00 -0.00000000000E+00 -0.70827110412E+03  0.70827110412E+03  0.00000000000E+00 0.  1.
         23    2    1    2    0    0  0.47873698443E+03 -0.43825165055E+03  0.64956506495E+02  0.65903068368E+03  0.94066385190E+02 0.  0.
        254    2    1    2    0    0 -0.47873698443E+03  0.43825165055E+03  0.33088248367E+03  0.11533505147E+04  0.89413678057E+03 0.  0.
        -24    2    4    4    0    0  0.42323165734E+02  0.20215371855E+03 -0.25031347575E+03  0.33406450551E+03  0.79277244012E+02 0.  0.
         24    2    4    4    0    0 -0.52106015016E+03  0.23609793200E+03  0.58119595942E+03  0.81928600923E+03  0.78707738406E+02 0.  0.
         13    1    3    3    0    0  0.28841517598E+03 -0.31461917992E+03  0.67183934575E+02  0.43206738268E+03  0.00000000000E+00 0.  1.
        -13    1    3    3    0    0  0.19032180845E+03 -0.12363247063E+03 -0.22274280799E+01  0.22696330100E+03  0.00000000000E+00 0. -1.
          2    1    6    6  502    0 -0.28401762858E+03  0.14631486810E+03  0.27298482351E+03  0.42023180251E+03  0.00000000000E+00 0. -1.
          3    1    5    5  503    0  0.39886522583E+02  0.78583465177E+02 -0.15376947097E+03  0.17723246284E+03  0.00000000000E+00 0. -1.
         -4    1    5    5    0  503  0.24366431502E+01  0.12357025337E+03 -0.96544004784E+02  0.15683204267E+03  0.00000000000E+00 0.  1.
         -1    1    6    6    0  502 -0.23704252158E+03  0.89783063906E+02  0.30821113591E+03  0.39905420672E+03  0.00000000000E+00 0.  1.
<mgrwt>
<rscale>  0 0.17686258E+04</rscale>
<asrwt>0</asrwt>
<pdfrwt beam="1">  1        2 0.16986309E+00 0.17686258E+04</pdfrwt>
<pdfrwt beam="2">  1       -2 0.10896478E+00 0.17686258E+04</pdfrwt>
<totfact> 0.13782312E+01</totfact>
</mgrwt>
</event>
<event>
12    1  0.1518126E-007  0.1840268E+04  0.7818608E-02  0.8685174E-01
         -1   -1    0    0    0  501 -0.00000000000E+00  0.00000000000E+00  0.11361295399E+04  0.11361295399E+04  0.00000000000E+00 0.  1.
          1   -1    0    0  501    0  0.00000000000E+00 -0.00000000000E+00 -0.74520238485E+03  0.74520238485E+03  0.00000000000E+00 0. -1.
         23    2    1    2    0    0 -0.89507553958E+02  0.71569921047E+02 -0.55322423139E+03  0.57256000134E+03  0.92919584196E+02 0.  0.
        254    2    1    2    0    0  0.89507553958E+02 -0.71569921047E+02  0.94415138649E+03  0.13087719235E+04  0.89907077096E+03 0.  0.
        -24    2    4    4    0    0  0.20203314498E+03 -0.13004378807E+03 -0.86181142815E+02  0.26776027506E+03  0.80867775023E+02 0.  0.
         24    2    4    4    0    0 -0.11252559102E+03  0.58473867022E+02  0.10303325293E+04  0.10410116484E+04  0.77710548815E+02 0.  0.
         13    1    3    3    0    0 -0.85937422858E+02  0.26852716426E+02 -0.46443810702E+03  0.47308462697E+03  0.00000000000E+00 0. -1.
        -13    1    3    3    0    0 -0.35701310995E+01  0.44717204622E+02 -0.88786124368E+02  0.99475374367E+02  0.00000000000E+00 0.  1.
          4    1    6    6  502    0 -0.17184399267E+02  0.27662587351E+02  0.51501749957E+03  0.51604607079E+03  0.00000000000E+00 0. -1.
          1    1    5    5  503    0  0.65010911267E+02 -0.40928427303E+01 -0.70443220650E+01  0.65519404902E+02  0.00000000000E+00 0. -1.
         -2    1    5    5    0  503  0.13702223371E+03 -0.12595094534E+03 -0.79136820750E+02  0.20224087015E+03  0.00000000000E+00 0.  1.
         -3    1    6    6    0  502 -0.95341191752E+02  0.30811279671E+02  0.51531502974E+03  0.52496557761E+03  0.00000000000E+00 0.  1.
<mgrwt>
<rscale>  0 0.18402679E+04</rscale>
<asrwt>0</asrwt>
<pdfrwt beam="1">  1        1 0.11464652E+00 0.18402679E+04</pdfrwt>
<pdfrwt beam="2">  1       -1 0.17478916E+00 0.18402679E+04</pdfrwt>
<totfact> 0.52803762E+00</totfact>
</mgrwt>
</event>
<event>
12    1  0.1518126E-007  0.4110952E+04  0.7818608E-02  0.7982531E-01
          1   -1    0    0  501    0  0.00000000000E+00  0.00000000000E+00  0.22090920922E+04  0.22090920922E+04  0.00000000000E+00 0. -1.
         -1   -1    0    0    0  501 -0.00000000000E+00 -0.00000000000E+00 -0.19125418362E+04  0.19125418362E+04  0.00000000000E+00 0.  1.
         23    2    1    2    0    0 -0.10568627984E+04 -0.54654689170E+03  0.16856167127E+04  0.20652854660E+04  0.91803456082E+02 0.  0.
        254    2    1    2    0    0  0.10568627984E+04  0.54654689170E+03 -0.13890664567E+04  0.20563484624E+04  0.93988876903E+03 0.  0.
        -24    2    4    4    0    0  0.92675087094E+03  0.76413429682E+03 -0.90951023148E+03  0.15088030488E+04  0.80680720440E+02 0.  0.
         24    2    4    4    0    0  0.13011192742E+03 -0.21758740512E+03 -0.47955622521E+03  0.54754541352E+03  0.74554773167E+02 0.  0.
         13    1    3    3    0    0 -0.12793444255E+03 -0.76168305662E+02  0.26473493029E+03  0.30373247389E+03  0.00000000000E+00 0.  1.
        -13    1    3    3    0    0 -0.92892835581E+03 -0.47037858603E+03  0.14208817824E+04  0.17615529921E+04  0.00000000000E+00 0. -1.
          2    1    6    6  502    0  0.10098212813E+03 -0.10149060184E+03 -0.28891147654E+03  0.32244003123E+03  0.00000000000E+00 0. -1.
          3    1    5    5  503    0  0.86190652588E+03  0.72451139014E+03 -0.87148871791E+03  0.14238301160E+04  0.00000000000E+00 0. -1.
         -4    1    5    5    0  503  0.64844345066E+02  0.39622906677E+02 -0.38021513573E+02  0.84972932838E+02  0.00000000000E+00 0.  1.
         -3    1    6    6    0  502  0.29129799289E+02 -0.11609680328E+03 -0.19064474867E+03  0.22510538229E+03  0.00000000000E+00 0.  1.
<mgrwt>
<rscale>  0 0.41109517E+04</rscale>
<asrwt>0</asrwt>
<pdfrwt beam="1">  1        1 0.33986032E+00 0.41109517E+04</pdfrwt>
<pdfrwt beam="2">  1       -1 0.29423721E+00 0.41109517E+04</pdfrwt>
<totfact> 0.59952703E-02</totfact>
</mgrwt>
</event>
<event>
12    1  0.1518126E-007  0.1312409E+04  0.7818608E-02  0.9019783E-01
          1   -1    0    0  501    0  0.00000000000E+00  0.00000000000E+00  0.11932680045E+04  0.11932680045E+04  0.00000000000E+00 0. -1.
         -1   -1    0    0    0  501 -0.00000000000E+00 -0.00000000000E+00 -0.36086111489E+03  0.36086111489E+03  0.00000000000E+00 0.  1.
         23    2    1    2    0    0 -0.10001267762E+03 -0.21566373624E+03  0.50605573065E+03  0.56668522132E+03  0.92338262541E+02 0.  0.
        254    2    1    2    0    0  0.10001267762E+03  0.21566373624E+03  0.32635115896E+03  0.98744389806E+03  0.90112540196E+03 0.  0.
        -24    2    4    4    0    0  0.18192378177E+03  0.50892542235E+03  0.17640425718E+02  0.54644883436E+03  0.78700673845E+02 0.  0.
         24    2    4    4    0    0 -0.81911104151E+02 -0.29326168611E+03  0.30871073324E+03  0.44099506370E+03  0.80389575625E+02 0.  0.
         11    1    3    3    0    0 -0.31245247164E+02 -0.11210935692E+03  0.33923055325E+03  0.35863929182E+03  0.00000000000E+00 0.  1.
        -11    1    3    3    0    0 -0.68767430460E+02 -0.10355437932E+03  0.16682517740E+03  0.20804592950E+03  0.00000000000E+00 0. -1.
          2    1    6    6  502    0 -0.66300027274E+02 -0.21300893730E+03  0.27085221056E+03  0.35089802073E+03  0.00000000000E+00 0. -1.
          1    1    5    5  503    0  0.15602749835E+03  0.39447275069E+03 -0.15567947109E+02  0.42449463160E+03  0.00000000000E+00 0. -1.
         -2    1    5    5    0  503  0.25896283424E+02  0.11445267166E+03  0.33208372827E+02  0.12195420276E+03  0.00000000000E+00 0.  1.
         -1    1    6    6    0  502 -0.15611076877E+02 -0.80252748808E+02  0.37858522674E+02  0.90097042968E+02  0.00000000000E+00 0.  1.
<mgrwt>
<rscale>  0 0.13124085E+04</rscale>
<asrwt>0</asrwt>
<pdfrwt beam="1">  1        1 0.18357969E+00 0.13124085E+04</pdfrwt>
<pdfrwt beam="2">  1       -1 0.55517095E-01 0.13124085E+04</pdfrwt>
<totfact> 0.34802136E+01</totfact>
</mgrwt>
</event>
<event>
12    1  0.1518126E-007  0.1930902E+04  0.7818608E-02  0.8639625E-01
          2   -1    0    0  501    0  0.00000000000E+00  0.00000000000E+00  0.24048302360E+04  0.24048302360E+04  0.00000000000E+00 0. -1.
         -2   -1    0    0    0  501 -0.00000000000E+00 -0.00000000000E+00 -0.38759320033E+03  0.38759320033E+03  0.00000000000E+00 0.  1.
         23    2    1    2    0    0 -0.64309875288E+03 -0.10113101348E+02  0.12207295455E+04  0.13828223191E+04  0.91316276302E+02 0.  0.
        254    2    1    2    0    0  0.64309875288E+03  0.10113101348E+02  0.79650749017E+03  0.14096011172E+04  0.96895451229E+03 0.  0.
        -24    2    4    4    0    0  0.47627921746E+03 -0.32632321596E+03  0.69600567812E+02  0.58754868677E+03  0.83907604122E+02 0.  0.
         24    2    4    4    0    0  0.16681953543E+03  0.33643631731E+03  0.72690692236E+03  0.82205243041E+03  0.79739397855E+02 0.  0.
         13    1    3    3    0    0 -0.35573740166E+03  0.30822334846E+02  0.61514489853E+03  0.71126813612E+03  0.00000000000E+00 0. -1.
        -13    1    3    3    0    0 -0.28736135122E+03 -0.40935436194E+02  0.60558464693E+03  0.67155418301E+03  0.00000000000E+00 0.  1.
          4    1    6    6  502    0  0.10936918649E+03  0.27889961795E+03  0.52621323952E+03  0.60551382254E+03  0.00000000000E+00 0. -1.
          3    1    5    5  503    0  0.45375489957E+03 -0.32798759196E+03  0.73302748194E+02  0.56466154664E+03  0.00000000000E+00 0. -1.
         -4    1    5    5    0  503  0.22524317883E+02  0.16643759981E+01 -0.37021803818E+01  0.22887140126E+02  0.00000000000E+00 0.  1.
         -3    1    6    6    0  502  0.57450348936E+02  0.57536699357E+02  0.20069368284E+03  0.21653860787E+03  0.00000000000E+00 0.  1.
<mgrwt>
<rscale>  0 0.19309022E+04</rscale>
<asrwt>0</asrwt>
<pdfrwt beam="1">  1        2 0.36997387E+00 0.19309022E+04</pdfrwt>
<pdfrwt beam="2">  1       -2 0.59629725E-01 0.19309022E+04</pdfrwt>
<totfact> 0.96888502E+00</totfact>
</mgrwt>
</event>
<event>
12    1  0.1518126E-007  0.1512826E+04  0.7818608E-02  0.8875969E-01
          1   -1    0    0  501    0  0.00000000000E+00  0.00000000000E+00  0.15250577834E+04  0.15250577834E+04  0.00000000000E+00 0. -1.
         -1   -1    0    0    0  501 -0.00000000000E+00 -0.00000000000E+00 -0.37517291865E+03  0.37517291865E+03  0.00000000000E+00 0.  1.
         23    2    1    2    0    0  0.16984427090E+03 -0.28641796591E+03 -0.62243851818E+02  0.35092220749E+03  0.91595693505E+02 0.  0.
        254    2    1    2    0    0 -0.16984427090E+03  0.28641796591E+03  0.12121287165E+04  0.15493084945E+04  0.90565912916E+03 0.  0.
        -24    2    4    4    0    0 -0.40698454838E+03 -0.15647257447E+03  0.68914488174E+03  0.81978483679E+03  0.83704369209E+02 0.  0.
         24    2    4    4    0    0  0.23714027748E+03  0.44289054038E+03  0.52298383481E+03  0.72952365775E+03  0.79404872547E+02 0.  0.
         13    1    3    3    0    0  0.12818968830E+03 -0.20089636753E+03 -0.19906233134E+01  0.23831892341E+03  0.00000000000E+00 0.  1.
        -13    1    3    3    0    0  0.41654582595E+02 -0.85521598374E+02 -0.60253228505E+02  0.11260328408E+03  0.00000000000E+00 0. -1.
          2    1    6    6  502    0  0.13883541001E+03  0.22165045352E+03  0.32226901827E+03  0.41504399135E+03  0.00000000000E+00 0. -1.
          3    1    5    5  503    0 -0.38558934215E+03 -0.12852593525E+03  0.60808147209E+03  0.73141037285E+03  0.00000000000E+00 0. -1.
         -4    1    5    5    0  503 -0.21395206232E+02 -0.27946639222E+02  0.81063409645E+02  0.88374463940E+02  0.00000000000E+00 0.  1.
         -1    1    6    6    0  502  0.98304867473E+02  0.22124008686E+03  0.20071481654E+03  0.31447966640E+03  0.00000000000E+00 0.  1.
<mgrwt>
<rscale>  0 0.15128257E+04</rscale>
<asrwt>0</asrwt>
<pdfrwt beam="1">  1        1 0.23462427E+00 0.15128257E+04</pdfrwt>
<pdfrwt beam="2">  1       -1 0.57718911E-01 0.15128257E+04</pdfrwt>
<totfact> 0.18466128E+01</totfact>
</mgrwt>
</event>
<event>
12    1  0.1518126E-007  0.1187412E+04  0.7818608E-02  0.9123947E-01
         -2   -1    0    0    0  501 -0.00000000000E+00  0.00000000000E+00  0.82669767180E+02  0.82669767180E+02  0.00000000000E+00 0. -1.
          2   -1    0    0  501    0  0.00000000000E+00 -0.00000000000E+00 -0.42637948761E+04  0.42637948761E+04  0.00000000000E+00 0.  1.
         23    2    1    2    0    0 -0.16167914572E+02 -0.17168421517E+02 -0.29697425572E+02  0.98715443865E+02  0.91140801032E+02 0.  0.
        254    2    1    2    0    0  0.16167914572E+02  0.17168421517E+02 -0.41514276834E+04  0.42477491995E+04  0.89914698182E+03 0.  0.
        -24    2    4    4    0    0 -0.63983853354E+02 -0.42694824790E+03 -0.21098301185E+04  0.21553425081E+04  0.87974191340E+02 0.  0.
         24    2    4    4    0    0  0.80151767926E+02  0.44411666942E+03 -0.20415975649E+04  0.20924066914E+04  0.79882558744E+02 0.  0.
         13    1    3    3    0    0 -0.16278181757E+01 -0.52114111225E+02 -0.26728562687E+01  0.52207993080E+02  0.00000000000E+00 0. -1.
        -13    1    3    3    0    0 -0.14540096396E+02  0.34945689709E+02 -0.27024569304E+02  0.46507450785E+02  0.00000000000E+00 0.  1.
          2    1    6    6  502    0  0.65149009835E+02  0.20231516927E+03 -0.10837796737E+04  0.11044248288E+04  0.00000000000E+00 0. -1.
          1    1    5    5  503    0 -0.67585354257E+02 -0.42770791577E+03 -0.21059022609E+04  0.21499595749E+04  0.00000000000E+00 0. -1.
         -2    1    5    5    0  503  0.36015009024E+01  0.75966787239E+00 -0.39278575692E+01  0.53829331326E+01  0.00000000000E+00 0.  1.
         -1    1    6    6    0  502  0.15002758091E+02  0.24180150015E+03 -0.95781789118E+03  0.98798186263E+03  0.00000000000E+00 0.  1.
<mgrwt>
<rscale>  0 0.11874122E+04</rscale>
<asrwt>0</asrwt>
<pdfrwt beam="1">  1        2 0.65596845E+00 0.11874122E+04</pdfrwt>
<pdfrwt beam="2">  1       -2 0.12718426E-01 0.11874122E+04</pdfrwt>
<totfact> 0.98293495E+00</totfact>
</mgrwt>
</event>
<event>
12    1  0.1518126E-007  0.2624252E+04  0.7818608E-02  0.8360010E-01
          2   -1    0    0  501    0  0.00000000000E+00  0.00000000000E+00  0.30904823230E+04  0.30904823230E+04  0.00000000000E+00 0. -1.
         -2   -1    0    0    0  501 -0.00000000000E+00 -0.00000000000E+00 -0.55708935867E+03  0.55708935867E+03  0.00000000000E+00 0.  1.
         23    2    1    2    0    0  0.20351382444E+02  0.54087066560E+03 -0.29987155845E+03  0.62605125199E+03  0.95194342661E+02 0.  0.
        254    2    1    2    0    0 -0.20351382444E+02 -0.54087066560E+03  0.28332645228E+04  0.30215204297E+04  0.89957912124E+03 0.  0.
        -24    2    4    4    0    0  0.29536415313E+03  0.78940361338E+02  0.12687523724E+04  0.13075039954E+04  0.79765606911E+02 0.  0.
         24    2    4    4    0    0 -0.31571553557E+03 -0.61981102694E+03  0.15645121504E+04  0.17140164343E+04  0.79448471840E+02 0.  0.
         13    1    3    3    0    0 -0.36523697971E+02  0.27564215447E+03 -0.16125616211E+03  0.32142826206E+03  0.00000000000E+00 0.  1.
        -13    1    3    3    0    0  0.56875080415E+02  0.26522851113E+03 -0.13861539634E+03  0.30462298993E+03  0.00000000000E+00 0. -1.
          4    1    6    6  502    0 -0.73709286893E+02 -0.13909535507E+03  0.27816182483E+03  0.31961629741E+03  0.00000000000E+00 0. -1.
          1    1    5    5  503    0  0.69011179861E+02 -0.15118042069E+02  0.30369959824E+03  0.31180850551E+03  0.00000000000E+00 0. -1.
         -2    1    5    5    0  503  0.22635297327E+03  0.94058403407E+02  0.96505277415E+03  0.99569548992E+03  0.00000000000E+00 0.  1.
         -3    1    6    6    0  502 -0.24200624868E+03 -0.48071567186E+03  0.12863503256E+04  0.13944001369E+04  0.00000000000E+00 0.  1.
<mgrwt>
<rscale>  0 0.26242521E+04</rscale>
<asrwt>0</asrwt>
<pdfrwt beam="1">  1        2 0.47545881E+00 0.26242521E+04</pdfrwt>
<pdfrwt beam="2">  1       -2 0.85706056E-01 0.26242521E+04</pdfrwt>
<totfact> 0.15928142E+00</totfact>
</mgrwt>
</event>
<event>
12    1  0.1518126E-007  0.2140809E+04  0.7818608E-02  0.8543477E-01
          2   -1    0    0  501    0  0.00000000000E+00  0.00000000000E+00  0.21271589842E+04  0.21271589842E+04  0.00000000000E+00 0.  1.
         -2   -1    0    0    0  501 -0.00000000000E+00 -0.00000000000E+00 -0.53863644502E+03  0.53863644502E+03  0.00000000000E+00 0. -1.
         23    2    1    2    0    0  0.32390258700E+03  0.62263663956E+03 -0.36615953978E+01  0.70774671016E+03  0.91119304598E+02 0.  0.
        254    2    1    2    0    0 -0.32390258700E+03 -0.62263663956E+03  0.15921841345E+04  0.19580487190E+04  0.89795055375E+03 0.  0.
        -24    2    4    4    0    0 -0.42293074971E+03 -0.46471113002E+03  0.40101196279E+03  0.74979833824E+03  0.80994446152E+02 0.  0.
         24    2    4    4    0    0  0.99028162709E+02 -0.15792550954E+03  0.11911721718E+04  0.12082503808E+04  0.78935393450E+02 0.  0.
         13    1    3    3    0    0  0.70308080164E+02  0.14822222712E+03 -0.39078910870E+02  0.16864227235E+03  0.00000000000E+00 0.  1.
        -13    1    3    3    0    0  0.25359450683E+03  0.47441441245E+03  0.35417315472E+02  0.53910443781E+03  0.00000000000E+00 0. -1.
          2    1    6    6  502    0  0.69485507110E+02 -0.88889488376E+02  0.91933282957E+03  0.92623022428E+03  0.00000000000E+00 0. -1.
          3    1    5    5  503    0 -0.30298858927E+03 -0.37986533444E+03  0.29244275632E+03  0.56711773316E+03  0.00000000000E+00 0. -1.
         -4    1    5    5    0  503 -0.11994216044E+03 -0.84845795576E+02  0.10856920647E+03  0.18268060508E+03  0.00000000000E+00 0.  1.
         -1    1    6    6    0  502  0.29542655599E+02 -0.69036021168E+02  0.27183934218E+03  0.28202015651E+03  0.00000000000E+00 0.  1.
<mgrwt>
<rscale>  0 0.21408086E+04</rscale>
<asrwt>0</asrwt>
<pdfrwt beam="1">  1        2 0.32725522E+00 0.21408086E+04</pdfrwt>
<pdfrwt beam="2">  1       -2 0.82867147E-01 0.21408086E+04</pdfrwt>
<totfact> 0.66518479E+00</totfact>
</mgrwt>
</event>
<event>
12    1  0.1518126E-007  0.1472215E+04  0.7818608E-02  0.8903143E-01
          1   -1    0    0  501    0  0.00000000000E+00  0.00000000000E+00  0.71175646321E+03  0.71175646321E+03  0.00000000000E+00 0. -1.
         -1   -1    0    0    0  501 -0.00000000000E+00 -0.00000000000E+00 -0.76129161182E+03  0.76129161182E+03  0.00000000000E+00 0.  1.
         23    2    1    2    0    0  0.20185222894E+03 -0.30315674912E+03 -0.29243779835E+03  0.47601580100E+03  0.91776031876E+02 0.  0.
        254    2    1    2    0    0 -0.20185222894E+03  0.30315674912E+03  0.24290264974E+03  0.99703227404E+03  0.89578084449E+03 0.  0.
        -24    2    4    4    0    0  0.45671413373E+02 -0.22844196667E+03 -0.14884240144E+03  0.28752955373E+03  0.79041594540E+02 0.  0.
         24    2    4    4    0    0 -0.24752364232E+03  0.53159871579E+03  0.39174505118E+03  0.70950272031E+03  0.77876677223E+02 0.  0.
         13    1    3    3    0    0  0.91255508904E+01 -0.24578806703E+02  0.31885034689E+01  0.26411360668E+02  0.00000000000E+00 0. -1.
        -13    1    3    3    0    0  0.19272667805E+03 -0.27857794242E+03 -0.29562630182E+03  0.44960444033E+03  0.00000000000E+00 0.  1.
          4    1    6    6  502    0 -0.23313386052E+03  0.44796745037E+03  0.35344073474E+03  0.61639807469E+03  0.00000000000E+00 0. -1.
          3    1    5    5  503    0  0.52184962052E+02 -0.10960955797E+03 -0.10561895340E+03  0.16091267439E+03  0.00000000000E+00 0. -1.
         -4    1    5    5    0  503 -0.65135486797E+01 -0.11883240870E+03 -0.43223448048E+02  0.12661687934E+03  0.00000000000E+00 0.  1.
         -3    1    6    6    0  502 -0.14389781798E+02  0.83631265421E+02  0.38304316442E+02  0.93104645610E+02  0.00000000000E+00 0.  1.
<mgrwt>
<rscale>  0 0.14722150E+04</rscale>
<asrwt>0</asrwt>
<pdfrwt beam="1">  1        1 0.10950099E+00 0.14722150E+04</pdfrwt>
<pdfrwt beam="2">  1       -1 0.11712179E+00 0.14722150E+04</pdfrwt>
<totfact> 0.16918551E+01</totfact>
</mgrwt>
</event>
<event>
12    1  0.1518126E-007  0.1235558E+04  0.7818608E-02  0.9082290E-01
         -2   -1    0    0    0  501 -0.00000000000E+00  0.00000000000E+00  0.39690910431E+03  0.39690910431E+03  0.00000000000E+00 0.  1.
          2   -1    0    0  501    0  0.00000000000E+00 -0.00000000000E+00 -0.96155721492E+03  0.96155721492E+03  0.00000000000E+00 0. -1.
         23    2    1    2    0    0  0.97026489877E+02  0.85926733182E+02  0.13192596946E+03  0.20612575896E+03  0.91026500949E+02 0.  0.
        254    2    1    2    0    0 -0.97026489877E+02 -0.85926733182E+02 -0.69657408006E+03  0.11523405603E+04  0.90877707642E+03 0.  0.
        -24    2    4    4    0    0 -0.32385557150E+03  0.12573775276E+03  0.29930959997E+02  0.35835762503E+03  0.82655377293E+02 0.  0.
         24    2    4    4    0    0  0.22682908162E+03 -0.21166448594E+03 -0.72650504006E+03  0.79398293524E+03  0.79662044584E+02 0.  0.
         13    1    3    3    0    0  0.76770940016E+02  0.64669310028E+02  0.37359572520E+02  0.10710571670E+03  0.00000000000E+00 0. -1.
        -13    1    3    3    0    0  0.20255549861E+02  0.21257423154E+02  0.94566396936E+02  0.99020042258E+02  0.00000000000E+00 0.  1.
          2    1    6    6  502    0  0.21044525984E+03 -0.16869075290E+03 -0.56528524766E+03  0.62633153260E+03  0.00000000000E+00 0. -1.
          3    1    5    5  503    0 -0.15882806341E+03  0.37755817783E+02 -0.20824508651E+02  0.16457677741E+03  0.00000000000E+00 0. -1.
         -4    1    5    5    0  503 -0.16502750809E+03  0.87981934973E+02  0.50755468648E+02  0.19378084763E+03  0.00000000000E+00 0.  1.
         -1    1    6    6    0  502  0.16383821779E+02 -0.42973733038E+02 -0.16121979240E+03  0.16765140265E+03  0.00000000000E+00 0.  1.
<mgrwt>
<rscale>  0 0.12355579E+04</rscale>
<asrwt>0</asrwt>
<pdfrwt beam="1">  1        2 0.14793188E+00 0.12355579E+04</pdfrwt>
<pdfrwt beam="2">  1       -2 0.61062939E-01 0.12355579E+04</pdfrwt>
<totfact> 0.65547017E+01</totfact>
</mgrwt>
</event>
<event>
12    1  0.1518126E-007  0.1400938E+04  0.7818608E-02  0.8953140E-01
         -4   -1    0    0    0  501 -0.00000000000E+00  0.00000000000E+00  0.82974452673E+03  0.82974452673E+03  0.00000000000E+00 0. -1.
          4   -1    0    0  501    0  0.00000000000E+00 -0.00000000000E+00 -0.59133451262E+03  0.59133451262E+03  0.00000000000E+00 0.  1.
         23    2    1    2    0    0  0.27707914370E+03  0.26553755803E+03  0.21624426034E+03  0.44996899404E+03  0.91801246561E+02 0.  0.
        254    2    1    2    0    0 -0.27707914370E+03 -0.26553755803E+03  0.22165753765E+02  0.97111004530E+03  0.89178492522E+03 0.  0.
        -24    2    4    4    0    0 -0.24293295151E+03 -0.39226082282E+03 -0.33897476184E+03  0.57828014742E+03  0.81357652917E+02 0.  0.
         24    2    4    4    0    0 -0.34146192188E+02  0.12672326479E+03  0.36114051560E+03  0.39282989788E+03  0.81658486301E+02 0.  0.
         11    1    3    3    0    0  0.16189941153E+03  0.20368659779E+03  0.11432803331E+03  0.28420159882E+03  0.00000000000E+00 0. -1.
        -11    1    3    3    0    0  0.11517973218E+03  0.61850960241E+02  0.10191622703E+03  0.16576739522E+03  0.00000000000E+00 0.  1.
          4    1    6    6  502    0 -0.26399688737E+02  0.76895137243E+02  0.11060994381E+03  0.13727478052E+03  0.00000000000E+00 0. -1.
          3    1    5    5  503    0 -0.10663529657E+03 -0.13269522985E+03 -0.84419692744E+02  0.19001524945E+03  0.00000000000E+00 0. -1.
         -4    1    5    5    0  503 -0.13629765494E+03 -0.25956559297E+03 -0.25455506909E+03  0.38826489797E+03  0.00000000000E+00 0.  1.
         -3    1    6    6    0  502 -0.77465034508E+01  0.49828127544E+02  0.25053057179E+03  0.25555511736E+03  0.00000000000E+00 0.  1.
<mgrwt>
<rscale>  0 0.14009377E+04</rscale>
<asrwt>0</asrwt>
<pdfrwt beam="1">  1        4 0.90974541E-01 0.14009377E+04</pdfrwt>
<pdfrwt beam="2">  1       -4 0.12765300E+00 0.14009377E+04</pdfrwt>
<totfact> 0.90930661E-01</totfact>
</mgrwt>
</event>
<event>
12    1  0.1518126E-007  0.1722946E+04  0.7818608E-02  0.8748385E-01
         -1   -1    0    0    0  501 -0.00000000000E+00  0.00000000000E+00  0.36196272840E+03  0.36196272840E+03  0.00000000000E+00 0.  1.
          1   -1    0    0  501    0  0.00000000000E+00 -0.00000000000E+00 -0.20503092589E+04  0.20503092589E+04  0.00000000000E+00 0. -1.
         23    2    1    2    0    0 -0.46365017498E+03 -0.20649485601E+03 -0.10925075625E+04  0.12081007285E+04  0.91230398490E+02 0.  0.
        254    2    1    2    0    0  0.46365017498E+03  0.20649485601E+03 -0.59583896799E+03  0.12041712588E+04  0.91509165363E+03 0.  0.
        -24    2    4    4    0    0 -0.15824274574E+02  0.41058140896E+02  0.22076741215E+03  0.23974394736E+03  0.82478672568E+02 0.  0.
         24    2    4    4    0    0  0.47947444955E+03  0.16543671512E+03 -0.81660638014E+03  0.96442731149E+03  0.77517769498E+02 0.  0.
         13    1    3    3    0    0 -0.42902641196E+03 -0.19638768201E+03 -0.10567854360E+04  0.11573362699E+04  0.00000000000E+00 0. -1.
        -13    1    3    3    0    0 -0.34623763019E+02 -0.10107174007E+02 -0.35722126488E+02  0.50764458560E+02  0.00000000000E+00 0.  1.
          2    1    6    6  502    0  0.40976668853E+03  0.16898917054E+03 -0.70041646421E+03  0.82888437199E+03  0.00000000000E+00 0. -1.
          3    1    5    5  503    0 -0.41064508430E+02  0.41522283730E+02  0.19546302403E+03  0.20400045996E+03  0.00000000000E+00 0. -1.
         -4    1    5    5    0  503  0.25240233855E+02 -0.46414283381E+00  0.25304388114E+02  0.35743487399E+02  0.00000000000E+00 0.  1.
         -1    1    6    6    0  502  0.69707761018E+02 -0.35524554231E+01 -0.11618991592E+03  0.13554293950E+03  0.00000000000E+00 0.  1.
<mgrwt>
<rscale>  0 0.17229458E+04</rscale>
<asrwt>0</asrwt>
<pdfrwt beam="1">  1        1 0.31543219E+00 0.17229458E+04</pdfrwt>
<pdfrwt beam="2">  1       -1 0.55686574E-01 0.17229458E+04</pdfrwt>
<totfact> 0.85351274E+00</totfact>
</mgrwt>
</event>
<event>
12    1  0.1518126E-007  0.2265309E+04  0.7818608E-02  0.8491726E-01
         -1   -1    0    0    0  501 -0.00000000000E+00  0.00000000000E+00  0.10148364423E+04  0.10148364423E+04  0.00000000000E+00 0.  1.
          1   -1    0    0  501    0  0.00000000000E+00 -0.00000000000E+00 -0.12641508295E+04  0.12641508295E+04  0.00000000000E+00 0. -1.
         23    2    1    2    0    0 -0.50139870672E+03 -0.10879124038E+03 -0.89310646853E+03  0.10339669212E+04  0.90621371219E+02 0.  0.
        254    2    1    2    0    0  0.50139870672E+03  0.10879124038E+03  0.64379208136E+03  0.12450203506E+04  0.93400815432E+03 0.  0.
        -24    2    4    4    0    0  0.21799351544E+03 -0.44010484267E+02  0.83106016482E+03  0.86417004194E+03  0.81674771802E+02 0.  0.
         24    2    4    4    0    0  0.28340519129E+03  0.15280172464E+03 -0.18726808346E+03  0.38085030867E+03  0.79440248206E+02 0.  0.
         11    1    3    3    0    0 -0.28881502957E+03 -0.16598009578E+02 -0.49712840834E+03  0.57517499042E+03  0.00000000000E+00 0.  1.
        -11    1    3    3    0    0 -0.21258367715E+03 -0.92193230797E+02 -0.39597806020E+03  0.45879193079E+03  0.00000000000E+00 0. -1.
          4    1    6    6  502    0  0.11668288300E+03  0.28308506042E+02 -0.42493572327E+02  0.12736549921E+03  0.00000000000E+00 0. -1.
          3    1    5    5  503    0  0.87593918645E+02  0.77743807943E+01  0.44000726649E+03  0.44870873643E+03  0.00000000000E+00 0. -1.
         -4    1    5    5    0  503  0.13039959679E+03 -0.51784865061E+02  0.39105289832E+03  0.41546130552E+03  0.00000000000E+00 0.  1.
         -3    1    6    6    0  502  0.16672230829E+03  0.12449321860E+03 -0.14477451113E+03  0.25348480947E+03  0.00000000000E+00 0.  1.
<mgrwt>
<rscale>  0 0.22653091E+04</rscale>
<asrwt>0</asrwt>
<pdfrwt beam="1">  1        1 0.19448474E+00 0.22653091E+04</pdfrwt>
<pdfrwt beam="2">  1       -1 0.15612868E+00 0.22653091E+04</pdfrwt>
<totfact> 0.27221961E+00</totfact>
</mgrwt>
</event>
<event>
12    1  0.1518126E-007  0.3824210E+04  0.7818608E-02  0.8040979E-01
         -1   -1    0    0    0  501 -0.00000000000E+00  0.00000000000E+00  0.26683012105E+04  0.26683012105E+04  0.00000000000E+00 0.  1.
          1   -1    0    0  501    0  0.00000000000E+00 -0.00000000000E+00 -0.13702147618E+04  0.13702147618E+04  0.00000000000E+00 0. -1.
         23    2    1    2    0    0 -0.53530790360E+03  0.47543446053E+03 -0.11346331363E+04  0.13453551780E+04  0.99978613438E+02 0.  0.
        254    2    1    2    0    0  0.53530790360E+03 -0.47543446053E+03  0.24327195849E+04  0.26931607943E+04  0.90686162501E+03 0.  0.
        -24    2    4    4    0    0  0.14905724496E+03 -0.38459294380E+03  0.21705629238E+04  0.22108834979E+04  0.80824750911E+02 0.  0.
         24    2    4    4    0    0  0.38625065865E+03 -0.90841516734E+02  0.26215666118E+03  0.48227729642E+03  0.80146884997E+02 0.  0.
         11    1    3    3    0    0 -0.11631195297E+03  0.56935031225E+02 -0.17498256827E+03  0.21769007185E+03  0.00000000000E+00 0.  1.
        -11    1    3    3    0    0 -0.41899595064E+03  0.41849942931E+03 -0.95965056803E+03  0.11276651062E+04  0.00000000000E+00 0. -1.
          2    1    6    6  502    0  0.74028307528E+02 -0.40382576268E+02  0.28347350283E+02  0.88963560235E+02  0.00000000000E+00 0. -1.
          3    1    5    5  503    0  0.11343628398E+03 -0.21837914246E+03  0.11257413128E+04  0.11523240619E+04  0.00000000000E+00 0. -1.
         -4    1    5    5    0  503  0.35620960980E+02 -0.16621380134E+03  0.10448216110E+04  0.10585594360E+04  0.00000000000E+00 0.  1.
         -1    1    6    6    0  502  0.31222235112E+03 -0.50458940466E+02  0.23380931090E+03  0.39331373619E+03  0.00000000000E+00 0.  1.
<mgrwt>
<rscale>  0 0.38242101E+04</rscale>
<asrwt>0</asrwt>
<pdfrwt beam="1">  1        1 0.21080227E+00 0.38242101E+04</pdfrwt>
<pdfrwt beam="2">  1       -1 0.41050788E+00 0.38242101E+04</pdfrwt>
<totfact> 0.38773902E-02</totfact>
</mgrwt>
</event>
<event>
12    1  0.1518126E-007  0.1189892E+04  0.7818608E-02  0.9121750E-01
         -1   -1    0    0    0  501 -0.00000000000E+00  0.00000000000E+00  0.47519907925E+03  0.47519907925E+03  0.00000000000E+00 0.  1.
          1   -1    0    0  501    0  0.00000000000E+00 -0.00000000000E+00 -0.74486825105E+03  0.74486825105E+03  0.00000000000E+00 0. -1.
         23    2    1    2    0    0 -0.14327169803E+03 -0.18707987661E+03 -0.45706209025E+02  0.25751374507E+03  0.93266347979E+02 0.  0.
        254    2    1    2    0    0  0.14327169803E+03  0.18707987661E+03 -0.22396296277E+03  0.96255358523E+03  0.90599356292E+03 0.  0.
        -24    2    4    4    0    0 -0.12794981776E+03 -0.29859017625E+03 -0.22212250552E+03  0.40056197816E+03  0.74727783805E+02 0.  0.
         24    2    4    4    0    0  0.27122151579E+03  0.48567005286E+03 -0.18404572527E+01  0.56199160707E+03  0.79966669719E+02 0.  0.
         11    1    3    3    0    0 -0.67018379920E+02 -0.13258781131E+03  0.92783662045E+01  0.14885254124E+03  0.00000000000E+00 0.  1.
        -11    1    3    3    0    0 -0.76253318110E+02 -0.54492065307E+02 -0.54984575229E+02  0.10866120383E+03  0.00000000000E+00 0. -1.
          4    1    6    6  502    0  0.18181068421E+03  0.39370125858E+03  0.22237566518E+01  0.43365971798E+03  0.00000000000E+00 0. -1.
          1    1    5    5  503    0 -0.12424067143E+03 -0.25969225234E+03 -0.21832121111E+03  0.36130314362E+03  0.00000000000E+00 0. -1.
         -2    1    5    5    0  503 -0.37091463331E+01 -0.38897923904E+02 -0.38012944041E+01  0.39258834544E+02  0.00000000000E+00 0.  1.
         -3    1    6    6    0  502  0.89410831576E+02  0.91968794277E+02 -0.40642139044E+01  0.12833188909E+03  0.00000000000E+00 0.  1.
<mgrwt>
<rscale>  0 0.11898919E+04</rscale>
<asrwt>0</asrwt>
<pdfrwt beam="1">  1        1 0.11459511E+00 0.11898919E+04</pdfrwt>
<pdfrwt beam="2">  1       -1 0.73107551E-01 0.11898919E+04</pdfrwt>
<totfact> 0.46259382E+01</totfact>
</mgrwt>
</event>
<event>
12    1  0.1518126E-007  0.1779210E+04  0.7818608E-02  0.8717434E-01
          1   -1    0    0  501    0  0.00000000000E+00  0.00000000000E+00  0.48278982427E+03  0.48278982427E+03  0.00000000000E+00 0. -1.
         -1   -1    0    0    0  501 -0.00000000000E+00 -0.00000000000E+00 -0.16392169576E+04  0.16392169576E+04  0.00000000000E+00 0.  1.
         23    2    1    2    0    0 -0.49034165896E+03 -0.24078961766E+03 -0.86784377265E+03  0.10290375432E+04  0.85737209631E+02 0.  0.
        254    2    1    2    0    0  0.49034165896E+03  0.24078961766E+03 -0.28858336067E+03  0.10929692386E+04  0.90160236140E+03 0.  0.
        -24    2    4    4    0    0  0.36944077941E+02 -0.28407839970E+03  0.74020679693E+02  0.30617145843E+03  0.78717843361E+02 0.  0.
         24    2    4    4    0    0  0.45339758102E+03  0.52486801737E+03 -0.36260404036E+03  0.78679778021E+03  0.80704737994E+02 0.  0.
         13    1    3    3    0    0 -0.24473244962E+03 -0.11897912091E+03 -0.51209527700E+03  0.57990652336E+03  0.00000000000E+00 0.  1.
        -13    1    3    3    0    0 -0.24560920934E+03 -0.12181049675E+03 -0.35574849566E+03  0.44913101985E+03  0.00000000000E+00 0. -1.
          2    1    6    6  502    0  0.13482497295E+03  0.20850335135E+03 -0.10918091682E+03  0.27124139333E+03  0.00000000000E+00 0. -1.
          3    1    5    5  503    0  0.60304518049E+02 -0.23667158682E+03  0.60142077502E+02  0.25152960938E+03  0.00000000000E+00 0. -1.
         -4    1    5    5    0  503 -0.23360440108E+02 -0.47406812879E+02  0.13878602191E+02  0.54641849056E+02  0.00000000000E+00 0.  1.
         -1    1    6    6    0  502  0.31857260807E+03  0.31636466601E+03 -0.25342312354E+03  0.51555638689E+03  0.00000000000E+00 0.  1.
<mgrwt>
<rscale>  0 0.17792102E+04</rscale>
<asrwt>0</asrwt>
<pdfrwt beam="1">  1        1 0.74275359E-01 0.17792102E+04</pdfrwt>
<pdfrwt beam="2">  1       -1 0.25218722E+00 0.17792102E+04</pdfrwt>
<totfact> 0.29668252E+00</totfact>
</mgrwt>
</event>
<event>
12    1  0.1518126E-007  0.2438502E+04  0.7818608E-02  0.8425228E-01
          2   -1    0    0  501    0  0.00000000000E+00  0.00000000000E+00  0.23212917640E+04  0.23212917640E+04  0.00000000000E+00 0.  1.
         -2   -1    0    0    0  501 -0.00000000000E+00 -0.00000000000E+00 -0.64040744510E+03  0.64040744510E+03  0.00000000000E+00 0. -1.
         23    2    1    2    0    0 -0.22133216392E+03  0.36481180762E+03  0.19012916978E+04  0.19507248944E+04  0.91334068276E+02 0.  0.
        254    2    1    2    0    0  0.22133216392E+03 -0.36481180762E+03 -0.22040737886E+03  0.10109743147E+04  0.88961456288E+03 0.  0.
        -24    2    4    4    0    0  0.27388806303E+03 -0.63730801325E+03 -0.16777730574E+03  0.71820403953E+03  0.80570734457E+02 0.  0.
         24    2    4    4    0    0 -0.52555899101E+02  0.27249620563E+03 -0.52630073124E+02  0.29277027514E+03  0.76994836160E+02 0.  0.
         13    1    3    3    0    0 -0.55764942071E+02  0.31239933844E+02  0.26843896401E+03  0.27594408787E+03  0.00000000000E+00 0. -1.
        -13    1    3    3    0    0 -0.16556722185E+03  0.33357187378E+03  0.16328527337E+04  0.16747808066E+04  0.00000000000E+00 0.  1.
          4    1    6    6  502    0 -0.36101447207E+02  0.36880208086E+02 -0.13672110152E+02  0.53389051639E+02  0.00000000000E+00 0. -1.
          3    1    5    5  503    0  0.38126233241E+02 -0.43654222424E+02 -0.71882879358E+00  0.57963932850E+02  0.00000000000E+00 0. -1.
         -4    1    5    5    0  503  0.23576182978E+03 -0.59365379083E+03 -0.16705847694E+03  0.66024010668E+03  0.00000000000E+00 0.  1.
         -3    1    6    6    0  502 -0.16454451894E+02  0.23561599754E+03 -0.38957962971E+02  0.23938122350E+03  0.00000000000E+00 0.  1.
<mgrwt>
<rscale>  0 0.24385016E+04</rscale>
<asrwt>0</asrwt>
<pdfrwt beam="1">  1        2 0.35712181E+00 0.24385016E+04</pdfrwt>
<pdfrwt beam="2">  1       -2 0.98524223E-01 0.24385016E+04</pdfrwt>
<totfact> 0.33808897E+00</totfact>
</mgrwt>
</event>
<event>
12    1  0.1518126E-007  0.1742617E+04  0.7818608E-02  0.8737425E-01
          2   -1    0    0  501    0  0.00000000000E+00  0.00000000000E+00  0.51099066461E+03  0.51099066461E+03  0.00000000000E+00 0. -1.
         -2   -1    0    0    0  501 -0.00000000000E+00 -0.00000000000E+00 -0.14856987826E+04  0.14856987826E+04  0.00000000000E+00 0.  1.
         23    2    1    2    0    0 -0.77096463353E+02  0.55992252450E+02  0.35955165816E+03  0.38132829960E+03  0.83993334248E+02 0.  0.
        254    2    1    2    0    0  0.77096463353E+02 -0.55992252450E+02 -0.13342597761E+04  0.16153611476E+04  0.90557356959E+03 0.  0.
        -24    2    4    4    0    0 -0.25663432339E+03 -0.43439174196E+02 -0.41769332185E+02  0.27810096575E+03  0.88585169452E+02 0.  0.
         24    2    4    4    0    0  0.33373078674E+03 -0.12553078254E+02 -0.12924904439E+04  0.13372601818E+04  0.78736449377E+02 0.  0.
         11    1    3    3    0    0 -0.51009635857E+02  0.70085826883E+02  0.32210068787E+03  0.33356087781E+03  0.00000000000E+00 0. -1.
        -11    1    3    3    0    0 -0.26086827495E+02 -0.14093574433E+02  0.37450970286E+02  0.47767421790E+02  0.00000000000E+00 0.  1.
          2    1    6    6  502    0  0.24260252994E+02  0.20123963666E+02 -0.10117352141E+03  0.10596987885E+03  0.00000000000E+00 0. -1.
          1    1    5    5  503    0 -0.21147712648E+02  0.20000952042E+02  0.56508494199E+01  0.29651238287E+02  0.00000000000E+00 0. -1.
         -2    1    5    5    0  503 -0.23548661074E+03 -0.63440126238E+02 -0.47420181605E+02  0.24844972746E+03  0.00000000000E+00 0.  1.
         -1    1    6    6    0  502  0.30947053374E+03 -0.32677041920E+02 -0.11913169225E+04  0.12312903030E+04  0.00000000000E+00 0.  1.
<mgrwt>
<rscale>  0 0.17426167E+04</rscale>
<asrwt>0</asrwt>
<pdfrwt beam="1">  1        2 0.78613950E-01 0.17426167E+04</pdfrwt>
<pdfrwt beam="2">  1       -2 0.22856904E+00 0.17426167E+04</pdfrwt>
<totfact> 0.49669165E+00</totfact>
</mgrwt>
</event>
<event>
12    1  0.1518126E-007  0.1647339E+04  0.7818608E-02  0.8791982E-01
         -1   -1    0    0    0  501 -0.00000000000E+00  0.00000000000E+00  0.77572801140E+03  0.77572801140E+03  0.00000000000E+00 0.  1.
          1   -1    0    0  501    0  0.00000000000E+00 -0.00000000000E+00 -0.87457386452E+03  0.87457386452E+03  0.00000000000E+00 0. -1.
         23    2    1    2    0    0  0.40690522857E+03  0.10851379081E+03  0.34392025030E+03  0.55151750381E+03  0.92430030886E+02 0.  0.
        254    2    1    2    0    0 -0.40690522857E+03 -0.10851379081E+03 -0.44276610341E+03  0.10987843721E+04  0.91320214971E+03 0.  0.
        -24    2    4    4    0    0  0.41958602079E+02  0.81424229966E+02  0.23253053260E+03  0.26214045831E+03  0.79099568778E+02 0.  0.
         24    2    4    4    0    0 -0.44886383065E+03 -0.18993802078E+03 -0.67529663601E+03  0.83664391380E+03  0.79951871050E+02 0.  0.
         11    1    3    3    0    0  0.10616318736E+03 -0.39955443275E+01  0.55295702332E+02  0.11976728027E+03  0.00000000000E+00 0. -1.
        -11    1    3    3    0    0  0.30074204120E+03  0.11250933514E+03  0.28862454797E+03  0.43175022354E+03  0.00000000000E+00 0.  1.
          2    1    6    6  502    0 -0.38448105962E+03 -0.16103660152E+03 -0.61947027364E+03  0.74666049324E+03  0.00000000000E+00 0. -1.
          1    1    5    5  503    0  0.46796969925E+02  0.46811326246E+02  0.21088996888E+03  0.22103356224E+03  0.00000000000E+00 0. -1.
         -2    1    5    5    0  503 -0.48383678455E+01  0.34612903719E+02  0.21640563715E+02  0.41106896078E+02  0.00000000000E+00 0.  1.
         -1    1    6    6    0  502 -0.64382771023E+02 -0.28901419255E+02 -0.55826362368E+02  0.89983420555E+02  0.00000000000E+00 0.  1.
<mgrwt>
<rscale>  0 0.16473390E+04</rscale>
<asrwt>0</asrwt>
<pdfrwt beam="1">  1        1 0.13454982E+00 0.16473390E+04</pdfrwt>
<pdfrwt beam="2">  1       -1 0.11934277E+00 0.16473390E+04</pdfrwt>
<totfact> 0.11457306E+01</totfact>
</mgrwt>
</event>
<event>
12    1  0.1518126E-007  0.2447322E+04  0.7818608E-02  0.8421996E-01
          1   -1    0    0  501    0  0.00000000000E+00  0.00000000000E+00  0.30513705619E+04  0.30513705619E+04  0.00000000000E+00 0. -1.
         -1   -1    0    0    0  501 -0.00000000000E+00 -0.00000000000E+00 -0.49071281842E+03  0.49071281842E+03  0.00000000000E+00 0.  1.
         23    2    1    2    0    0  0.10251429417E+04  0.24649743622E+03  0.10595859641E+04  0.14971249195E+04  0.83555803255E+02 0.  0.
        254    2    1    2    0    0 -0.10251429417E+04 -0.24649743622E+03  0.15010717793E+04  0.20449584608E+04  0.90385816522E+03 0.  0.
        -24    2    4    4    0    0 -0.23149998347E+03  0.18166297934E+03  0.14968164141E+02  0.30487255188E+03  0.78291420649E+02 0.  0.
         24    2    4    4    0    0 -0.79364295820E+03 -0.42816041556E+03  0.14861036152E+04  0.17400859089E+04  0.78768831580E+02 0.  0.
         13    1    3    3    0    0  0.80628413324E+03  0.17707887884E+03  0.87058491543E+03  0.11997371078E+04  0.00000000000E+00 0. -1.
        -13    1    3    3    0    0  0.21885880842E+03  0.69418557372E+02  0.18900104871E+03  0.29738781170E+03  0.00000000000E+00 0.  1.
          4    1    6    6  502    0 -0.70603391082E+03 -0.35827401235E+03  0.13320572013E+04  0.15495872156E+04  0.00000000000E+00 0. -1.
          1    1    5    5  503    0 -0.60262059145E+02  0.95102174449E+02  0.80529278344E+01  0.11287510356E+03  0.00000000000E+00 0. -1.
         -2    1    5    5    0  503 -0.17123792432E+03  0.86560804890E+02  0.69152363062E+01  0.19199744832E+03  0.00000000000E+00 0.  1.
         -3    1    6    6    0  502 -0.87609047381E+02 -0.69886403210E+02  0.15404641389E+03  0.19049869336E+03  0.00000000000E+00 0.  1.
<mgrwt>
<rscale>  0 0.24473223E+04</rscale>
<asrwt>0</asrwt>
<pdfrwt beam="1">  1        1 0.46944161E+00 0.24473223E+04</pdfrwt>
<pdfrwt beam="2">  1       -1 0.75494282E-01 0.24473223E+04</pdfrwt>
<totfact> 0.86279659E-01</totfact>
</mgrwt>
</event>
<event>
12    1  0.1518126E-007  0.1401826E+04  0.7818608E-02  0.8952498E-01
         -2   -1    0    0    0  501 -0.00000000000E+00  0.00000000000E+00  0.12096433004E+04  0.12096433004E+04  0.00000000000E+00 0.  1.
          2   -1    0    0  501    0  0.00000000000E+00 -0.00000000000E+00 -0.40613544978E+03  0.40613544978E+03  0.00000000000E+00 0. -1.
         23    2    1    2    0    0  0.14980589111E+03  0.16992346177E+03 -0.15566567964E+03  0.28903183171E+03  0.89396912964E+02 0.  0.
        254    2    1    2    0    0 -0.14980589111E+03 -0.16992346177E+03  0.95917353028E+03  0.13267469185E+04  0.88821604166E+03 0.  0.
        -24    2    4    4    0    0 -0.98011776219E+01 -0.86204789815E+02 -0.15663074900E+03  0.19625574732E+03  0.80347980379E+02 0.  0.
         24    2    4    4    0    0 -0.14000471349E+03 -0.83718671959E+02  0.11158042793E+04  0.11304911712E+04  0.79880927641E+02 0.  0.
         11    1    3    3    0    0  0.67630774905E+02  0.10098193654E+03 -0.13153093021E+03  0.17908561869E+03  0.00000000000E+00 0. -1.
        -11    1    3    3    0    0  0.82175116209E+02  0.68941525237E+02 -0.24134749435E+02  0.10994621301E+03  0.00000000000E+00 0.  1.
          4    1    6    6  502    0 -0.50476108802E+01 -0.37569593117E+02  0.18748217293E+03  0.19127602534E+03  0.00000000000E+00 0. -1.
          3    1    5    5  503    0 -0.34979344429E+02 -0.11232216341E+02 -0.69300136871E+02  0.78436128098E+02  0.00000000000E+00 0. -1.
         -4    1    5    5    0  503  0.25178166807E+02 -0.74972573474E+02 -0.87330612133E+02  0.11781961922E+03  0.00000000000E+00 0.  1.
         -3    1    6    6    0  502 -0.13495710261E+03 -0.46149078841E+02  0.92832210635E+03  0.93921514583E+03  0.00000000000E+00 0.  1.
<mgrwt>
<rscale>  0 0.14018260E+04</rscale>
<asrwt>0</asrwt>
<pdfrwt beam="1">  1        2 0.62482377E-01 0.14018260E+04</pdfrwt>
<pdfrwt beam="2">  1       -2 0.18609897E+00 0.14018260E+04</pdfrwt>
<totfact> 0.12513112E+01</totfact>
</mgrwt>
</event>
<event>
12    1  0.1518126E-007  0.2819936E+04  0.7818608E-02  0.8297106E-01
         -2   -1    0    0    0  501 -0.00000000000E+00  0.00000000000E+00  0.18853839623E+04  0.18853839623E+04  0.00000000000E+00 0. -1.
          2   -1    0    0  501    0  0.00000000000E+00 -0.00000000000E+00 -0.10544323494E+04  0.10544323494E+04  0.00000000000E+00 0.  1.
         23    2    1    2    0    0  0.85669544884E+03  0.91377675301E+03  0.54562907773E+03  0.13692771758E+04  0.91070562025E+02 0.  0.
        254    2    1    2    0    0 -0.85669544884E+03 -0.91377675301E+03  0.28532253520E+03  0.15705391359E+04  0.90347616564E+03 0.  0.
        -24    2    4    4    0    0 -0.61437811050E+03 -0.25919544577E+02  0.93925017978E+02  0.62718740188E+03  0.80061492755E+02 0.  0.
         24    2    4    4    0    0 -0.24231733834E+03 -0.88785720843E+03  0.19139751723E+03  0.94335173401E+03  0.79191978393E+02 0.  0.
         13    1    3    3    0    0  0.85763661206E+03  0.91125331078E+03  0.54760096717E+03  0.13659392278E+04  0.00000000000E+00 0.  1.
        -13    1    3    3    0    0 -0.94116321777E+00  0.25234422261E+01 -0.19718894464E+01  0.33379480014E+01  0.00000000000E+00 0. -1.
          2    1    6    6  502    0 -0.50660996867E+02 -0.10391802132E+03  0.39377262146E+02  0.12213132494E+03  0.00000000000E+00 0. -1.
          3    1    5    5  503    0 -0.84001910212E+02 -0.22366962454E+02  0.34328801814E+02  0.93461588702E+02  0.00000000000E+00 0. -1.
         -4    1    5    5    0  503 -0.53037620029E+03 -0.35525821228E+01  0.59596216164E+02  0.53372581318E+03  0.00000000000E+00 0.  1.
         -1    1    6    6    0  502 -0.19165634147E+03 -0.78393918711E+03  0.15202025508E+03  0.82122040907E+03  0.00000000000E+00 0.  1.
<mgrwt>
<rscale>  0 0.28199361E+04</rscale>
<asrwt>0</asrwt>
<pdfrwt beam="1">  1        2 0.16222036E+00 0.28199361E+04</pdfrwt>
<pdfrwt beam="2">  1       -2 0.29005907E+00 0.28199361E+04</pdfrwt>
<totfact> 0.73868452E-01</totfact>
</mgrwt>
</event>
<event>
12    1  0.1518126E-007  0.1181563E+04  0.7818608E-02  0.9129149E-01
         -2   -1    0    0    0  501 -0.00000000000E+00  0.00000000000E+00  0.13166829818E+03  0.13166829818E+03  0.00000000000E+00 0.  1.
          2   -1    0    0  501    0  0.00000000000E+00 -0.00000000000E+00 -0.26507753019E+04  0.26507753019E+04  0.00000000000E+00 0. -1.
         23    2    1    2    0    0 -0.87978173135E+02  0.48452118004E+01 -0.10287783780E+04  0.10371689490E+04  0.97830683967E+02 0.  0.
        254    2    1    2    0    0  0.87978173135E+02 -0.48452118004E+01 -0.14903286257E+04  0.17452746510E+04  0.90395827336E+03 0.  0.
        -24    2    4    4    0    0  0.40740473346E+02 -0.29794399850E+03 -0.13860462331E+04  0.14206652525E+04  0.82068183519E+02 0.  0.
         24    2    4    4    0    0  0.47237699789E+02  0.29309878670E+03 -0.10428239255E+03  0.32460939857E+03  0.79737978401E+02 0.  0.
         11    1    3    3    0    0 -0.10334260938E+03 -0.16320369298E+02 -0.86704828961E+03  0.87333772728E+03  0.00000000000E+00 0. -1.
        -11    1    3    3    0    0  0.15364436247E+02  0.21165581099E+02 -0.16173008842E+03  0.16383122176E+03  0.00000000000E+00 0.  1.
          2    1    6    6  502    0  0.60495233048E+02  0.28120243679E+03 -0.88862930673E+02  0.30105000270E+03  0.00000000000E+00 0. -1.
          3    1    5    5  503    0  0.47844851794E+02 -0.11904257802E+03 -0.69878413163E+03  0.71046430441E+03  0.00000000000E+00 0. -1.
         -4    1    5    5    0  503 -0.71043784488E+01 -0.17890142048E+03 -0.68726210152E+03  0.71020094806E+03  0.00000000000E+00 0.  1.
         -1    1    6    6    0  502 -0.13257533259E+02  0.11896349908E+02 -0.15419461875E+02  0.23559395870E+02  0.00000000000E+00 0.  1.
<mgrwt>
<rscale>  0 0.11815635E+04</rscale>
<asrwt>0</asrwt>
<pdfrwt beam="1">  1        2 0.40781158E+00 0.11815635E+04</pdfrwt>
<pdfrwt beam="2">  1       -2 0.20256661E-01 0.11815635E+04</pdfrwt>
<totfact> 0.59180241E+01</totfact>
</mgrwt>
</event>
<event>
12    1  0.1518126E-007  0.2701037E+04  0.7818608E-02  0.8334669E-01
          2   -1    0    0  501    0  0.00000000000E+00  0.00000000000E+00  0.22274415330E+04  0.22274415330E+04  0.00000000000E+00 0. -1.
         -2   -1    0    0    0  501 -0.00000000000E+00 -0.00000000000E+00 -0.81883195459E+03  0.81883195459E+03  0.00000000000E+00 0.  1.
         23    2    1    2    0    0  0.88160974154E+03 -0.68657546176E+03  0.11399769575E+04  0.15988889606E+04  0.90977160176E+02 0.  0.
        254    2    1    2    0    0 -0.88160974154E+03  0.68657546176E+03  0.26863262088E+03  0.14473845269E+04  0.87985048886E+03 0.  0.
        -24    2    4    4    0    0 -0.10119894471E+04  0.62709226191E+03  0.78608887444E+02  0.11957924024E+04  0.79829609845E+02 0.  0.
         24    2    4    4    0    0  0.13037970554E+03  0.59483199855E+02  0.19002373344E+03  0.25159212450E+03  0.81562608836E+02 0.  0.
         13    1    3    3    0    0  0.14314871071E+03 -0.83566776104E+02  0.13651124098E+03  0.21473303975E+03  0.00000000000E+00 0.  1.
        -13    1    3    3    0    0  0.73846103083E+03 -0.60300868566E+03  0.10034657165E+04  0.13841559209E+04  0.00000000000E+00 0. -1.
          2    1    6    6  502    0  0.11030616433E+03  0.31114831491E+02  0.90064591711E+02  0.14576423879E+03  0.00000000000E+00 0. -1.
          1    1    5    5  503    0 -0.84833545009E+03  0.55781256700E+03  0.74583412199E+02  0.10180327014E+04  0.00000000000E+00 0. -1.
         -2    1    5    5    0  503 -0.16365399698E+03  0.69279694908E+02  0.40254752445E+01  0.17775970102E+03  0.00000000000E+00 0.  1.
         -1    1    6    6    0  502  0.20073541203E+02  0.28368368364E+02  0.99959141725E+02  0.10582788571E+03  0.00000000000E+00 0.  1.
<mgrwt>
<rscale>  0 0.27010371E+04</rscale>
<asrwt>0</asrwt>
<pdfrwt beam="1">  1        2 0.34268331E+00 0.27010371E+04</pdfrwt>
<pdfrwt beam="2">  1       -2 0.12597415E+00 0.27010371E+04</pdfrwt>
<totfact> 0.20552775E+00</totfact>
</mgrwt>
</event>
<event>
12    1  0.1518126E-007  0.1673232E+04  0.7818608E-02  0.8776780E-01
          1   -1    0    0  501    0  0.00000000000E+00  0.00000000000E+00  0.66956464464E+03  0.66956464464E+03  0.00000000000E+00 0. -1.
         -1   -1    0    0    0  501 -0.00000000000E+00 -0.00000000000E+00 -0.10453454336E+04  0.10453454336E+04  0.00000000000E+00 0.  1.
         23    2    1    2    0    0 -0.17034930353E+02  0.56666870905E+03  0.33284125499E+02  0.57489763345E+03  0.89419468062E+02 0.  0.
        254    2    1    2    0    0  0.17034930353E+02 -0.56666870905E+03 -0.40906491451E+03  0.11400124448E+04  0.90049467262E+03 0.  0.
        -24    2    4    4    0    0 -0.19513699866E+02 -0.80002697376E+03 -0.37764213219E+03  0.88861879416E+03  0.81276307113E+02 0.  0.
         24    2    4    4    0    0  0.36548630218E+02  0.23335826471E+03 -0.31422782323E+02  0.25139365067E+03  0.80121746541E+02 0.  0.
         11    1    3    3    0    0 -0.15305253011E+02  0.51555102096E+03  0.56240102190E+02  0.51883528703E+03  0.00000000000E+00 0. -1.
        -11    1    3    3    0    0 -0.17296773413E+01  0.51117688095E+02 -0.22955976691E+02  0.56062346416E+02  0.00000000000E+00 0.  1.
          4    1    6    6  502    0 -0.62793674425E+01  0.17705239107E+03 -0.34885999898E+02  0.18056581246E+03  0.00000000000E+00 0. -1.
          3    1    5    5  503    0 -0.37151854047E+02 -0.64955065251E+03 -0.33176911828E+03  0.73031983287E+03  0.00000000000E+00 0. -1.
         -4    1    5    5    0  503  0.17638154181E+02 -0.15047632126E+03 -0.45873013907E+02  0.15829896129E+03  0.00000000000E+00 0.  1.
         -3    1    6    6    0  502  0.42827997661E+02  0.56305873640E+02  0.34632175751E+01  0.70827838213E+02  0.00000000000E+00 0.  1.
<mgrwt>
<rscale>  0 0.16732320E+04</rscale>
<asrwt>0</asrwt>
<pdfrwt beam="1">  1        1 0.10300994E+00 0.16732320E+04</pdfrwt>
<pdfrwt beam="2">  1       -1 0.16082238E+00 0.16732320E+04</pdfrwt>
<totfact> 0.80056414E+00</totfact>
</mgrwt>
</event>
<event>
12    1  0.1518126E-007  0.1397044E+04  0.7818608E-02  0.8955961E-01
         -1   -1    0    0    0  501 -0.00000000000E+00  0.00000000000E+00  0.15636516648E+03  0.15636516648E+03  0.00000000000E+00 0.  1.
          1   -1    0    0  501    0  0.00000000000E+00 -0.00000000000E+00 -0.31204704047E+04  0.31204704047E+04  0.00000000000E+00 0. -1.
         23    2    1    2    0    0 -0.17395778723E+03 -0.14585496642E+03 -0.16536568956E+04  0.16716205151E+04  0.90548523617E+02 0.  0.
        254    2    1    2    0    0  0.17395778723E+03  0.14585496642E+03 -0.13104483426E+04  0.16052150560E+04  0.89883565496E+03 0.  0.
        -24    2    4    4    0    0  0.38265605954E+03  0.24744918389E+03 -0.12759541582E+04  0.13571716058E+04  0.78733699144E+02 0.  0.
         24    2    4    4    0    0 -0.20869827231E+03 -0.10159421747E+03 -0.34494184386E+02  0.24804345021E+03  0.80370084910E+02 0.  0.
         13    1    3    3    0    0 -0.39016009260E+02 -0.52065194992E+01 -0.13872626094E+03  0.14420240046E+03  0.00000000000E+00 0.  1.
        -13    1    3    3    0    0 -0.13494177797E+03 -0.14064844692E+03 -0.15149306347E+04  0.15274181147E+04  0.00000000000E+00 0. -1.
          4    1    6    6  502    0 -0.11559652459E+03 -0.78749970884E+02  0.14075228881E+02  0.14057818636E+03  0.00000000000E+00 0. -1.
          3    1    5    5  503    0  0.24853033261E+03  0.16982895341E+03 -0.72935640168E+03  0.78903102621E+03  0.00000000000E+00 0. -1.
         -4    1    5    5    0  503  0.13412572692E+03  0.77620230486E+02 -0.54659775649E+03  0.56814057961E+03  0.00000000000E+00 0.  1.
         -3    1    6    6    0  502 -0.93101747715E+02 -0.22844246591E+02 -0.48569413267E+02  0.10746526385E+03  0.00000000000E+00 0.  1.
<mgrwt>
<rscale>  0 0.13970438E+04</rscale>
<asrwt>0</asrwt>
<pdfrwt beam="1">  1        1 0.48007233E+00 0.13970438E+04</pdfrwt>
<pdfrwt beam="2">  1       -1 0.24056181E-01 0.13970438E+04</pdfrwt>
<totfact> 0.71784155E+00</totfact>
</mgrwt>
</event>
<event>
12    1  0.1518126E-007  0.1885072E+04  0.7818608E-02  0.8662323E-01
         -2   -1    0    0    0  501 -0.00000000000E+00  0.00000000000E+00  0.77535785998E+03  0.77535785998E+03  0.00000000000E+00 0.  1.
          2   -1    0    0  501    0  0.00000000000E+00 -0.00000000000E+00 -0.11457601557E+04  0.11457601557E+04  0.00000000000E+00 0. -1.
         23    2    1    2    0    0 -0.30719778703E+03 -0.57911065222E+03 -0.44801335783E+03  0.79915718293E+03  0.90535111210E+02 0.  0.
        254    2    1    2    0    0  0.30719778703E+03  0.57911065222E+03  0.77611062150E+02  0.11219608327E+04  0.90721166511E+03 0.  0.
        -24    2    4    4    0    0  0.24173696609E+03  0.60177555179E+03  0.41107075138E+03  0.77197069053E+03  0.79931276065E+02 0.  0.
         24    2    4    4    0    0  0.65460820941E+02 -0.22664899571E+02 -0.33345968923E+03  0.34999014219E+03  0.80615870268E+02 0.  0.
         13    1    3    3    0    0 -0.27741357652E+03 -0.49211062853E+03 -0.41684355226E+03  0.70206104450E+03  0.00000000000E+00 0. -1.
        -13    1    3    3    0    0 -0.29784210510E+02 -0.87000023691E+02 -0.31169805573E+02  0.97096138427E+02  0.00000000000E+00 0.  1.
          2    1    6    6  502    0  0.46331376512E+02  0.16575162641E+02 -0.25936584959E+03  0.26399237943E+03  0.00000000000E+00 0. -1.
          3    1    5    5  503    0  0.17815342778E+03  0.48988756969E+03  0.36004999065E+03  0.63353332235E+03  0.00000000000E+00 0. -1.
         -2    1    5    5    0  503  0.63583538306E+02  0.11188798210E+03  0.51020760728E+02  0.13843736818E+03  0.00000000000E+00 0.  1.
         -1    1    6    6    0  502  0.19129444429E+02 -0.39240062212E+02 -0.74093839638E+02  0.85997762755E+02  0.00000000000E+00 0.  1.
<mgrwt>
<rscale>  0 0.18850720E+04</rscale>
<asrwt>0</asrwt>
<pdfrwt beam="1">  1        2 0.17627079E+00 0.18850720E+04</pdfrwt>
<pdfrwt beam="2">  1       -2 0.11928582E+00 0.18850720E+04</pdfrwt>
<totfact> 0.10322486E+01</totfact>
</mgrwt>
</event>
<event>
12    1  0.1518126E-007  0.1065155E+04  0.7818608E-02  0.9239835E-01
          1   -1    0    0  501    0  0.00000000000E+00  0.00000000000E+00  0.15830763057E+04  0.15830763057E+04  0.00000000000E+00 0. -1.
         -1   -1    0    0    0  501 -0.00000000000E+00 -0.00000000000E+00 -0.17916948979E+03  0.17916948979E+03  0.00000000000E+00 0.  1.
         23    2    1    2    0    0 -0.89187140201E+02  0.65407153165E+02  0.45991732820E+03  0.48182702216E+03  0.91656362804E+02 0.  0.
        254    2    1    2    0    0  0.89187140201E+02 -0.65407153165E+02  0.94398948776E+03  0.12804187734E+04  0.85797648018E+03 0.  0.
        -24    2    4    4    0    0  0.46180745979E+03 -0.69059828957E+01  0.61591148556E+03  0.77398126436E+03  0.79913809972E+02 0.  0.
         24    2    4    4    0    0 -0.37262031958E+03 -0.58501170270E+02  0.32807800219E+03  0.50643750901E+03  0.81089367454E+02 0.  0.
         11    1    3    3    0    0 -0.94113248659E+02  0.41345154976E+02  0.24755204492E+03  0.26804615341E+03  0.00000000000E+00 0. -1.
        -11    1    3    3    0    0  0.49261084577E+01  0.24061998190E+02  0.21236528328E+03  0.21378086875E+03  0.00000000000E+00 0.  1.
          2    1    6    6  502    0 -0.30055829099E+03 -0.22711624802E+02  0.22748672232E+03  0.37762589029E+03  0.00000000000E+00 0. -1.
          1    1    5    5  503    0  0.91394268344E+02 -0.61676146426E+01  0.17982535835E+03  0.20181206917E+03  0.00000000000E+00 0. -1.
         -2    1    5    5    0  503  0.37041319144E+03 -0.73836825303E+00  0.43608612721E+03  0.57216919519E+03  0.00000000000E+00 0.  1.
         -1    1    6    6    0  502 -0.72062028596E+02 -0.35789545467E+02  0.10059127988E+03  0.12881161872E+03  0.00000000000E+00 0.  1.
<mgrwt>
<rscale>  0 0.10651553E+04</rscale>
<asrwt>0</asrwt>
<pdfrwt beam="1">  1        1 0.24355019E+00 0.10651553E+04</pdfrwt>
<pdfrwt beam="2">  1       -1 0.27564538E-01 0.10651553E+04</pdfrwt>
<totfact> 0.67740353E+01</totfact>
</mgrwt>
</event>
<event>
12    1  0.1518126E-007  0.1661017E+04  0.7818608E-02  0.8783915E-01
         -2   -1    0    0    0  501 -0.00000000000E+00  0.00000000000E+00  0.23818894668E+03  0.23818894668E+03  0.00000000000E+00 0.  1.
          2   -1    0    0  501    0  0.00000000000E+00 -0.00000000000E+00 -0.28957872614E+04  0.28957872614E+04  0.00000000000E+00 0. -1.
         23    2    1    2    0    0 -0.12176905274E+03  0.18549619401E+03 -0.18934409105E+04  0.19085904247E+04  0.91446090923E+02 0.  0.
        254    2    1    2    0    0  0.12176905274E+03 -0.18549619401E+03 -0.76415740420E+03  0.12253857833E+04  0.93187833940E+03 0.  0.
        -24    2    4    4    0    0  0.21446723341E+03  0.12041830759E+03  0.11794198208E+03  0.28398365614E+03  0.78991409740E+02 0.  0.
         24    2    4    4    0    0 -0.92698180666E+02 -0.30591450160E+03 -0.88209938627E+03  0.94140212721E+03  0.77214006858E+02 0.  0.
         11    1    3    3    0    0 -0.50918428631E+02  0.10359598886E+03 -0.62773353499E+03  0.63825872985E+03  0.00000000000E+00 0. -1.
        -11    1    3    3    0    0 -0.70850624109E+02  0.81900205152E+02 -0.12657073755E+04  0.12703316949E+04  0.00000000000E+00 0.  1.
          4    1    6    6  502    0 -0.57217939274E+02 -0.22283950291E+03 -0.52772455787E+03  0.57569483722E+03  0.00000000000E+00 0. -1.
          1    1    5    5  503    0  0.10910359338E+03  0.10469144312E+03  0.59660528624E+02  0.16255236396E+03  0.00000000000E+00 0. -1.
         -2    1    5    5    0  503  0.10536364003E+03  0.15726864462E+02  0.58281453452E+02  0.12143129219E+03  0.00000000000E+00 0.  1.
         -3    1    6    6    0  502 -0.35480241393E+02 -0.83074998691E+02 -0.35437482841E+03  0.36570728998E+03  0.00000000000E+00 0.  1.
<mgrwt>
<rscale>  0 0.16610172E+04</rscale>
<asrwt>0</asrwt>
<pdfrwt beam="1">  1        2 0.44550573E+00 0.16610172E+04</pdfrwt>
<pdfrwt beam="2">  1       -2 0.36644453E-01 0.16610172E+04</pdfrwt>
<totfact> 0.13588571E+01</totfact>
</mgrwt>
</event>
<event>
12    1  0.1518126E-007  0.1818455E+04  0.7818608E-02  0.8696546E-01
          4   -1    0    0  501    0  0.00000000000E+00  0.00000000000E+00  0.87791346085E+03  0.87791346085E+03  0.00000000000E+00 0. -1.
         -4   -1    0    0    0  501 -0.00000000000E+00 -0.00000000000E+00 -0.94165855371E+03  0.94165855371E+03  0.00000000000E+00 0.  1.
         23    2    1    2    0    0  0.25128519926E+03  0.56909889425E+03 -0.46179570739E+03  0.78013336461E+03  0.91296157724E+02 0.  0.
        254    2    1    2    0    0 -0.25128519926E+03 -0.56909889425E+03  0.39805061453E+03  0.10394386500E+04  0.73141685275E+03 0.  0.
        -24    2    4    4    0    0  0.22159582796E+03 -0.27307127112E+03  0.29035635547E+03  0.46480087532E+03  0.89779788645E+02 0.  0.
         24    2    4    4    0    0 -0.47288102722E+03 -0.29602762313E+03  0.10769425906E+03  0.57463777463E+03  0.85800344077E+02 0.  0.
         13    1    3    3    0    0  0.17528605716E+03  0.39479726517E+03 -0.26648574791E+03  0.50754776746E+03  0.00000000000E+00 0.  1.
        -13    1    3    3    0    0  0.75999142097E+02  0.17430162908E+03 -0.19530995948E+03  0.27258559715E+03  0.00000000000E+00 0. -1.
          2    1    6    6  502    0 -0.54915923837E+02 -0.29874967772E+02 -0.14726453115E+02  0.64227259101E+02  0.00000000000E+00 0. -1.
          3    1    5    5  503    0  0.84990200237E+02 -0.11411081730E+03  0.17505513460E+03  0.22558571079E+03  0.00000000000E+00 0. -1.
         -4    1    5    5    0  503  0.13660562773E+03 -0.15896045383E+03  0.11530122087E+03  0.23921516453E+03  0.00000000000E+00 0.  1.
         -1    1    6    6    0  502 -0.41796510338E+03 -0.26615265535E+03  0.12242071217E+03  0.51041051553E+03  0.00000000000E+00 0.  1.
<mgrwt>
<rscale>  0 0.18184551E+04</rscale>
<asrwt>0</asrwt>
<pdfrwt beam="1">  1        4 0.13506361E+00 0.18184551E+04</pdfrwt>
<pdfrwt beam="2">  1       -4 0.14487055E+00 0.18184551E+04</pdfrwt>
<totfact> 0.24173970E-01</totfact>
</mgrwt>
</event>
<event>
12    1  0.1518126E-007  0.2790055E+04  0.7818608E-02  0.8306363E-01
          2   -1    0    0  501    0  0.00000000000E+00  0.00000000000E+00  0.96418919688E+03  0.96418919688E+03  0.00000000000E+00 0. -1.
         -2   -1    0    0    0  501 -0.00000000000E+00 -0.00000000000E+00 -0.20183812418E+04  0.20183812418E+04  0.00000000000E+00 0.  1.
         23    2    1    2    0    0 -0.46950632490E+03  0.66732030181E+03  0.53776264448E+03  0.98126638387E+03  0.89120592367E+02 0.  0.
        254    2    1    2    0    0  0.46950632490E+03 -0.66732030181E+03 -0.15919546894E+04  0.20013040548E+04  0.89729906518E+03 0.  0.
        -24    2    4    4    0    0  0.18666358176E+03  0.11539200036E+03 -0.85654216179E+03  0.88782613928E+03  0.80076039809E+02 0.  0.
         24    2    4    4    0    0  0.28284274314E+03 -0.78271230216E+03 -0.73541252763E+03  0.11134779156E+04  0.79767896569E+02 0.  0.
         11    1    3    3    0    0 -0.91541963100E+02  0.14707979158E+03  0.15790775542E+03  0.23440830899E+03  0.00000000000E+00 0.  1.
        -11    1    3    3    0    0 -0.37796436180E+03  0.52024051023E+03  0.37985488906E+03  0.74685807488E+03  0.00000000000E+00 0. -1.
          4    1    6    6  502    0  0.49620929697E+02 -0.10152351328E+03 -0.13441274155E+03  0.17560195188E+03  0.00000000000E+00 0. -1.
          1    1    5    5  503    0  0.32172549734E+02  0.40698483172E+02 -0.10729176992E+03  0.11917618630E+03  0.00000000000E+00 0. -1.
         -2    1    5    5    0  503  0.15449103203E+03  0.74693517186E+02 -0.74925039187E+03  0.76864995297E+03  0.00000000000E+00 0.  1.
         -3    1    6    6    0  502  0.23322181344E+03 -0.68118878889E+03 -0.60099978607E+03  0.93787596367E+03  0.00000000000E+00 0.  1.
<mgrwt>
<rscale>  0 0.27900548E+04</rscale>
<asrwt>0</asrwt>
<pdfrwt beam="1">  1        2 0.14833680E+00 0.27900548E+04</pdfrwt>
<pdfrwt beam="2">  1       -2 0.31052019E+00 0.27900548E+04</pdfrwt>
<totfact> 0.63391301E-01</totfact>
</mgrwt>
</event>
<event>
12    1  0.1518126E-007  0.2494849E+04  0.7818608E-02  0.8404823E-01
         -1   -1    0    0    0  501 -0.00000000000E+00  0.00000000000E+00  0.19498621322E+04  0.19498621322E+04  0.00000000000E+00 0.  1.
          1   -1    0    0  501    0  0.00000000000E+00 -0.00000000000E+00 -0.79803985908E+03  0.79803985908E+03  0.00000000000E+00 0. -1.
         23    2    1    2    0    0  0.60052394620E+03  0.58126953104E+03  0.12606477567E+04  0.15151768317E+04  0.89581176116E+02 0.  0.
        254    2    1    2    0    0 -0.60052394620E+03 -0.58126953104E+03 -0.10882548357E+03  0.12327251596E+04  0.89959160489E+03 0.  0.
        -24    2    4    4    0    0 -0.62408474723E+03 -0.20799226976E+01 -0.15054951306E+03  0.64627600132E+03  0.74306232627E+02 0.  0.
         24    2    4    4    0    0  0.23560801022E+02 -0.57918960834E+03  0.41724029487E+02  0.58644915828E+03  0.78523925411E+02 0.  0.
         13    1    3    3    0    0  0.23289285081E+03  0.19481811183E+03  0.39198730230E+03  0.49582983151E+03  0.00000000000E+00 0.  1.
        -13    1    3    3    0    0  0.36763109539E+03  0.38645141921E+03  0.86866045443E+03  0.10193470002E+04  0.00000000000E+00 0. -1.
          2    1    6    6  502    0  0.26846447032E+01 -0.38157878655E+03 -0.77708159285E+01  0.38166734631E+03  0.00000000000E+00 0. -1.
          1    1    5    5  503    0 -0.55899310707E+03  0.19177162558E+02 -0.14351732567E+03  0.57744114858E+03  0.00000000000E+00 0. -1.
         -2    1    5    5    0  503 -0.65091640160E+02 -0.21257085256E+02 -0.70321873899E+01  0.68834852741E+02  0.00000000000E+00 0.  1.
         -1    1    6    6    0  502  0.20876156319E+02 -0.19761082179E+03  0.49494845416E+02  0.20478181197E+03  0.00000000000E+00 0.  1.
<mgrwt>
<rscale>  0 0.24948489E+04</rscale>
<asrwt>0</asrwt>
<pdfrwt beam="1">  1        1 0.12277536E+00 0.24948489E+04</pdfrwt>
<pdfrwt beam="2">  1       -1 0.29997879E+00 0.24948489E+04</pdfrwt>
<totfact> 0.65180917E-01</totfact>
</mgrwt>
</event>
<event>
12    1  0.1518126E-007  0.1797705E+04  0.7818608E-02  0.8707521E-01
          1   -1    0    0  501    0  0.00000000000E+00  0.00000000000E+00  0.39223523043E+04  0.39223523043E+04  0.00000000000E+00 0. -1.
         -1   -1    0    0    0  501 -0.00000000000E+00 -0.00000000000E+00 -0.20598242753E+03  0.20598242753E+03  0.00000000000E+00 0.  1.
         23    2    1    2    0    0 -0.61934063241E+01  0.18504903026E+03  0.29403108794E+04  0.29476108341E+04  0.93274109365E+02 0.  0.
        254    2    1    2    0    0  0.61934063241E+01 -0.18504903026E+03  0.77605899728E+03  0.11807238977E+04  0.87037914354E+03 0.  0.
        -24    2    4    4    0    0  0.71019212443E+02 -0.51914002269E+03  0.55150473553E+03  0.76507608684E+03  0.81448472272E+02 0.  0.
         24    2    4    4    0    0 -0.64825806119E+02  0.33409099244E+03  0.22455426175E+03  0.41564781088E+03  0.80742243329E+02 0.  0.
         13    1    3    3    0    0  0.33609441163E+02  0.15145458717E+03  0.22395025348E+04  0.22448696376E+04  0.00000000000E+00 0. -1.
        -13    1    3    3    0    0 -0.39802847487E+02  0.33594443089E+02  0.70080834463E+03  0.70274119645E+03  0.00000000000E+00 0.  1.
          2    1    6    6  502    0 -0.79948948756E+02  0.20908788359E+03  0.14452786015E+03  0.26645427343E+03  0.00000000000E+00 0. -1.
          1    1    5    5  503    0  0.65169574758E+02 -0.48211432512E+03  0.47524853363E+03  0.68010474537E+03  0.00000000000E+00 0. -1.
         -2    1    5    5    0  503  0.58496376849E+01 -0.37025697575E+02  0.76256201898E+02  0.84971341462E+02  0.00000000000E+00 0.  1.
         -1    1    6    6    0  502  0.15123142637E+02  0.12500310885E+03  0.80026401598E+02  0.14919353745E+03  0.00000000000E+00 0.  1.
<mgrwt>
<rscale>  0 0.17977048E+04</rscale>
<asrwt>0</asrwt>
<pdfrwt beam="1">  1        1 0.60343876E+00 0.17977048E+04</pdfrwt>
<pdfrwt beam="2">  1       -1 0.31689607E-01 0.17977048E+04</pdfrwt>
<totfact> 0.99106042E-01</totfact>
</mgrwt>
</event>
<event>
12    1  0.1518126E-007  0.1311384E+04  0.7818608E-02  0.9020586E-01
         -2   -1    0    0    0  501 -0.00000000000E+00  0.00000000000E+00  0.38552633322E+03  0.38552633322E+03  0.00000000000E+00 0. -1.
          2   -1    0    0  501    0  0.00000000000E+00 -0.00000000000E+00 -0.11151822677E+04  0.11151822677E+04  0.00000000000E+00 0.  1.
         23    2    1    2    0    0  0.11132299398E+02  0.35357581564E+03 -0.17101903989E+03  0.40387082971E+03  0.93404226824E+02 0.  0.
        254    2    1    2    0    0 -0.11132299398E+02 -0.35357581564E+03 -0.55863689461E+03  0.10968377712E+04  0.87512178062E+03 0.  0.
        -24    2    4    4    0    0  0.35060454886E+03 -0.21960292363E+02 -0.14837985614E+02  0.35999557487E+03  0.77271236509E+02 0.  0.
         24    2    4    4    0    0 -0.36173684825E+03 -0.33161552327E+03 -0.54379890899E+03  0.73684219637E+03  0.79979786589E+02 0.  0.
         11    1    3    3    0    0 -0.11354921352E+02  0.29020079587E+03 -0.10280026744E+03  0.30808007262E+03  0.00000000000E+00 0. -1.
        -11    1    3    3    0    0  0.22487220750E+02  0.63375019769E+02 -0.68218772452E+02  0.95790757083E+02  0.00000000000E+00 0.  1.
          4    1    6    6  502    0 -0.12247952118E+03 -0.12976164734E+03 -0.14539351131E+03  0.23017078737E+03  0.00000000000E+00 0. -1.
          1    1    5    5  503    0  0.90161008636E+02  0.27956284338E+02  0.19780211127E-01  0.94395771640E+02  0.00000000000E+00 0. -1.
         -2    1    5    5    0  503  0.26044354022E+03 -0.49916576701E+02 -0.14857765826E+02  0.26559980323E+03  0.00000000000E+00 0.  1.
         -3    1    6    6    0  502 -0.23925732708E+03 -0.20185387594E+03 -0.39840539769E+03  0.50667140900E+03  0.00000000000E+00 0.  1.
<mgrwt>
<rscale>  0 0.13113842E+04</rscale>
<asrwt>0</asrwt>
<pdfrwt beam="1">  1        2 0.17156650E+00 0.13113842E+04</pdfrwt>
<pdfrwt beam="2">  1       -2 0.59311744E-01 0.13113842E+04</pdfrwt>
<totfact> 0.55422136E+01</totfact>
</mgrwt>
</event>
<event>
12    1  0.1518126E-007  0.1317974E+04  0.7818608E-02  0.9015432E-01
          1   -1    0    0  501    0  0.00000000000E+00  0.00000000000E+00  0.36404412497E+04  0.36404412497E+04  0.00000000000E+00 0. -1.
         -1   -1    0    0    0  501 -0.00000000000E+00 -0.00000000000E+00 -0.11928871589E+03  0.11928871589E+03  0.00000000000E+00 0.  1.
         23    2    1    2    0    0  0.14519251039E+03 -0.13781656403E+03  0.36341998645E+03  0.42476009012E+03  0.90954808623E+02 0.  0.
        254    2    1    2    0    0 -0.14519251039E+03  0.13781656403E+03  0.31577325473E+04  0.33349698755E+04  0.10538856481E+04 0.  0.
        -24    2    4    4    0    0  0.23411027936E+03  0.31848713289E+03  0.49667174932E+03  0.63972524570E+03  0.79522868999E+02 0.  0.
         24    2    4    4    0    0 -0.37930278975E+03 -0.18067056886E+03  0.26610607980E+04  0.26952446298E+04  0.81157764255E+02 0.  0.
         11    1    3    3    0    0  0.75497438151E+02 -0.40881478156E+02  0.23113758528E+03  0.24656792523E+03  0.00000000000E+00 0. -1.
        -11    1    3    3    0    0  0.69695072237E+02 -0.96935085876E+02  0.13228240117E+03  0.17819216489E+03  0.00000000000E+00 0.  1.
          4    1    6    6  502    0 -0.15157094865E+03 -0.42419908801E+02  0.81495420058E+03  0.83001418673E+03  0.00000000000E+00 0. -1.
          3    1    5    5  503    0  0.15096998871E+03  0.14421634210E+03  0.23208816359E+03  0.31217816467E+03  0.00000000000E+00 0. -1.
         -4    1    5    5    0  503  0.83140290654E+02  0.17427079079E+03  0.26458358573E+03  0.32754708103E+03  0.00000000000E+00 0.  1.
         -3    1    6    6    0  502 -0.22773184109E+03 -0.13825066006E+03  0.18461065974E+04  0.18652304430E+04  0.00000000000E+00 0.  1.
<mgrwt>
<rscale>  0 0.13179735E+04</rscale>
<asrwt>0</asrwt>
<pdfrwt beam="1">  1        1 0.56006780E+00 0.13179735E+04</pdfrwt>
<pdfrwt beam="2">  1       -1 0.18352113E-01 0.13179735E+04</pdfrwt>
<totfact> 0.45596618E+00</totfact>
</mgrwt>
</event>
<event>
12    1  0.1518126E-007  0.1318091E+04  0.7818608E-02  0.9015340E-01
         -2   -1    0    0    0  501 -0.00000000000E+00  0.00000000000E+00  0.43424161236E+03  0.43424161236E+03  0.00000000000E+00 0.  1.
          2   -1    0    0  501    0  0.00000000000E+00 -0.00000000000E+00 -0.10002292523E+04  0.10002292523E+04  0.00000000000E+00 0. -1.
         23    2    1    2    0    0 -0.22676633301E+03  0.21620482172E+02 -0.42357981405E+03  0.48997685910E+03  0.93632518659E+02 0.  0.
        254    2    1    2    0    0  0.22676633301E+03 -0.21620482172E+02 -0.14240782590E+03  0.94449400556E+03  0.90548248058E+03 0.  0.
        -24    2    4    4    0    0 -0.20072218232E+02 -0.42354693417E+03 -0.17404970527E+03  0.46536528578E+03  0.80477636103E+02 0.  0.
         24    2    4    4    0    0  0.24683855124E+03  0.40192645200E+03  0.31641879369E+02  0.47912871978E+03  0.78031906257E+02 0.  0.
         13    1    3    3    0    0 -0.15813107768E+03 -0.80235835555E+01 -0.20540262984E+03  0.25934543753E+03  0.00000000000E+00 0. -1.
        -13    1    3    3    0    0 -0.68635255323E+02  0.29644065728E+02 -0.21817718422E+03  0.23063142158E+03  0.00000000000E+00 0.  1.
          2    1    6    6  502    0  0.16667781935E+03  0.32187830988E+03  0.38914575427E+01  0.36249453138E+03  0.00000000000E+00 0. -1.
          3    1    5    5  503    0  0.69324400321E+01 -0.36972158609E+03 -0.16310041564E+03  0.40415820606E+03  0.00000000000E+00 0. -1.
         -4    1    5    5    0  503 -0.27004658264E+02 -0.53825348086E+02 -0.10949289631E+02  0.61207079721E+02  0.00000000000E+00 0.  1.
         -1    1    6    6    0  502  0.80160731887E+02  0.80048142119E+02  0.27750421826E+02  0.11663418840E+03  0.00000000000E+00 0.  1.
<mgrwt>
<rscale>  0 0.13180913E+04</rscale>
<asrwt>0</asrwt>
<pdfrwt beam="1">  1        2 0.15388142E+00 0.13180913E+04</pdfrwt>
<pdfrwt beam="2">  1       -2 0.66806402E-01 0.13180913E+04</pdfrwt>
<totfact> 0.50733398E+01</totfact>
</mgrwt>
</event>
<event>
12    1  0.1518126E-007  0.1210304E+04  0.7818608E-02  0.9103885E-01
          2   -1    0    0  501    0  0.00000000000E+00  0.00000000000E+00  0.40155758944E+04  0.40155758944E+04  0.00000000000E+00 0. -1.
         -2   -1    0    0    0  501 -0.00000000000E+00 -0.00000000000E+00 -0.91197060090E+02  0.91197060090E+02  0.00000000000E+00 0.  1.
         23    2    1    2    0    0  0.48186119999E+02  0.48967957457E+02  0.18042821436E+04  0.18078565007E+04  0.90505859281E+02 0.  0.
        254    2    1    2    0    0 -0.48186119999E+02 -0.48967957457E+02  0.21200966907E+04  0.22989164538E+04  0.88627711260E+03 0.  0.
        -24    2    4    4    0    0 -0.30195900035E+03  0.49044886005E+02  0.24007045114E+03  0.39763610956E+03  0.83042250555E+02 0.  0.
         24    2    4    4    0    0  0.25377288035E+03 -0.98012843462E+02  0.18800262396E+04  0.19012803442E+04  0.79756463211E+02 0.  0.
         13    1    3    3    0    0 -0.40432185408E+01  0.42622287163E+02  0.34792637208E+03  0.35055066306E+03  0.00000000000E+00 0.  1.
        -13    1    3    3    0    0  0.52229338540E+02  0.63456702940E+01  0.14563557715E+04  0.14573058377E+04  0.00000000000E+00 0. -1.
          4    1    6    6  502    0  0.11683758681E+03 -0.37618231212E+02  0.11163096381E+04  0.11230375600E+04  0.00000000000E+00 0. -1.
          1    1    5    5  503    0 -0.13295638300E+03 -0.91696986952E+01  0.68390040088E+02  0.14979546301E+03  0.00000000000E+00 0. -1.
         -2    1    5    5    0  503 -0.16900261735E+03  0.58214584700E+02  0.17168041105E+03  0.24784064655E+03  0.00000000000E+00 0.  1.
         -3    1    6    6    0  502  0.13693529354E+03 -0.60394612249E+02  0.76371660154E+03  0.77824278427E+03  0.00000000000E+00 0.  1.
<mgrwt>
<rscale>  0 0.12103036E+04</rscale>
<asrwt>0</asrwt>
<pdfrwt beam="1">  1        2 0.61778077E+00 0.12103036E+04</pdfrwt>
<pdfrwt beam="2">  1       -2 0.14030320E-01 0.12103036E+04</pdfrwt>
<totfact> 0.13405385E+01</totfact>
</mgrwt>
</event>
<event>
12    1  0.1900302E-007  0.1640114E+04  0.7818608E-02  0.8796276E-01
          2   -1    0    0  501    0  0.00000000000E+00  0.00000000000E+00  0.11801917920E+04  0.11801917920E+04  0.00000000000E+00 0.  1.
         -2   -1    0    0    0  501 -0.00000000000E+00 -0.00000000000E+00 -0.56981737205E+03  0.56981737205E+03  0.00000000000E+00 0. -1.
         23    2    1    2    0    0  0.32757532087E+03  0.27353821879E+03 -0.19495368918E+03  0.47804179541E+03  0.91587495052E+02 0.  0.
        254    2    1    2    0    0 -0.32757532087E+03 -0.27353821879E+03  0.80532810912E+03  0.12719673686E+04  0.88725355763E+03 0.  0.
        -24    2    4    4    0    0  0.61601363588E+01 -0.36978579417E+03 -0.14020641029E+02  0.37841846554E+03  0.78895347400E+02 0.  0.
         24    2    4    4    0    0 -0.33373545723E+03  0.96247575379E+02  0.81934875015E+03  0.89354890308E+03  0.80338761779E+02 0.  0.
         11    1    3    3    0    0  0.88843296084E+02  0.90087351302E+02 -0.15323732561E+02  0.12745069205E+03  0.00000000000E+00 0.  1.
        -11    1    3    3    0    0  0.23873202479E+03  0.18345086749E+03 -0.17962995662E+03  0.35059110336E+03  0.00000000000E+00 0. -1.
          2    1    6    6  502    0 -0.39503397450E+00  0.34411475151E+01  0.48237351066E+02  0.48361550698E+02  0.00000000000E+00 0. -1.
          3    1    5    5  503    0  0.10829102749E+02 -0.32944783207E+01 -0.30947958961E+01  0.11734599072E+02  0.00000000000E+00 0. -1.
         -4    1    5    5    0  503 -0.46689663900E+01 -0.36649131585E+03 -0.10925845133E+02  0.36668386647E+03  0.00000000000E+00 0.  1.
         -1    1    6    6    0  502 -0.33334042326E+03  0.92806427864E+02  0.77111139909E+03  0.84518735239E+03  0.00000000000E+00 0.  1.
<mgrwt>
<rscale>  0 0.16401144E+04</rscale>
<asrwt>0</asrwt>
<pdfrwt beam="1">  1        2 0.18156797E+00 0.16401144E+04</pdfrwt>
<pdfrwt beam="2">  1       -2 0.87664211E-01 0.16401144E+04</pdfrwt>
<totfact> 0.20897953E+01</totfact>
</mgrwt>
</event>
<event>
12    1  0.1518126E-007  0.1502866E+04  0.7818608E-02  0.8882549E-01
         -1   -1    0    0    0  501 -0.00000000000E+00  0.00000000000E+00  0.79089993988E+03  0.79089993988E+03  0.00000000000E+00 0.  1.
          1   -1    0    0  501    0  0.00000000000E+00 -0.00000000000E+00 -0.71393584843E+03  0.71393584843E+03  0.00000000000E+00 0. -1.
         23    2    1    2    0    0 -0.29714705144E+02 -0.40729896870E+03 -0.19137613374E+03  0.46012489373E+03  0.91184865257E+02 0.  0.
        254    2    1    2    0    0  0.29714705144E+02  0.40729896870E+03  0.26834022519E+03  0.10447108946E+04  0.92338451535E+03 0.  0.
        -24    2    4    4    0    0  0.18560475316E+03  0.66132745627E+03  0.11789661744E+03  0.70149300946E+03  0.79935605962E+02 0.  0.
         24    2    4    4    0    0 -0.15589004802E+03 -0.25402848757E+03  0.15044360775E+03  0.34321788512E+03  0.79580512603E+02 0.  0.
         13    1    3    3    0    0 -0.41823235262E+01 -0.36056340917E+03 -0.14212304880E+03  0.38758537751E+03  0.00000000000E+00 0. -1.
        -13    1    3    3    0    0 -0.25532381618E+02 -0.46735559536E+02 -0.49253084945E+02  0.72539516216E+02  0.00000000000E+00 0.  1.
          2    1    6    6  502    0 -0.10158620634E+03 -0.13517562122E+03  0.44115033362E+02  0.17475223048E+03  0.00000000000E+00 0. -1.
          3    1    5    5  503    0  0.94088524853E+02  0.36868998761E+03  0.25951249164E+02  0.38139012154E+03  0.00000000000E+00 0. -1.
         -4    1    5    5    0  503  0.91516228307E+02  0.29263746866E+03  0.91945368272E+02  0.32010288792E+03  0.00000000000E+00 0.  1.
         -1    1    6    6    0  502 -0.54303841674E+02 -0.11885286635E+03  0.10632857439E+03  0.16846565464E+03  0.00000000000E+00 0.  1.
<mgrwt>
<rscale>  0 0.15028664E+04</rscale>
<asrwt>0</asrwt>
<pdfrwt beam="1">  1        1 0.10983628E+00 0.15028664E+04</pdfrwt>
<pdfrwt beam="2">  1       -1 0.12167691E+00 0.15028664E+04</pdfrwt>
<totfact> 0.15300884E+01</totfact>
</mgrwt>
</event>
<event>
12    1  0.1518126E-007  0.1855574E+04  0.7818608E-02  0.8677292E-01
         -2   -1    0    0    0  501 -0.00000000000E+00  0.00000000000E+00  0.90866773063E+03  0.90866773063E+03  0.00000000000E+00 0. -1.
          2   -1    0    0  501    0  0.00000000000E+00 -0.00000000000E+00 -0.94730819664E+03  0.94730819664E+03  0.00000000000E+00 0.  1.
         23    2    1    2    0    0 -0.26081083033E+03 -0.28024850008E+02  0.63972599900E+03  0.69761286038E+03  0.92772128030E+02 0.  0.
        254    2    1    2    0    0  0.26081083033E+03  0.28024850008E+02 -0.67836646500E+03  0.11583630669E+04  0.90156322711E+03 0.  0.
        -24    2    4    4    0    0  0.39078136865E+02 -0.32326730585E+03  0.27753625486E+02  0.33503336376E+03  0.73812189332E+02 0.  0.
         24    2    4    4    0    0  0.22173269347E+03  0.35129215586E+03 -0.70612009049E+03  0.82332970313E+03  0.81820851567E+02 0.  0.
         11    1    3    3    0    0 -0.12402762956E+02 -0.27110317525E+02  0.66576807782E+02  0.72947029958E+02  0.00000000000E+00 0.  1.
        -11    1    3    3    0    0 -0.24840806737E+03 -0.91453248312E+00  0.57314919121E+03  0.62466583042E+03  0.00000000000E+00 0. -1.
          2    1    6    6  502    0  0.33767612576E+02  0.12176531519E+03 -0.19547642410E+03  0.23276184400E+03  0.00000000000E+00 0. -1.
          1    1    5    5  503    0  0.46788883181E+02 -0.27903274043E+03  0.13253610106E+01  0.28293148712E+03  0.00000000000E+00 0. -1.
         -2    1    5    5    0  503 -0.77107463157E+01 -0.44234565418E+02  0.26428264475E+02  0.52101876642E+02  0.00000000000E+00 0.  1.
         -1    1    6    6    0  502  0.18796508089E+03  0.22952684067E+03 -0.51064366639E+03  0.59056785914E+03  0.00000000000E+00 0.  1.
<mgrwt>
<rscale>  0 0.18555736E+04</rscale>
<asrwt>0</asrwt>
<pdfrwt beam="1">  1        2 0.14573972E+00 0.18555736E+04</pdfrwt>
<pdfrwt beam="2">  1       -2 0.13979504E+00 0.18555736E+04</pdfrwt>
<totfact> 0.92367215E+00</totfact>
</mgrwt>
</event>
<event>
12    1  0.1518126E-007  0.1799011E+04  0.7818608E-02  0.8706826E-01
          1   -1    0    0  501    0  0.00000000000E+00  0.00000000000E+00  0.18355370229E+04  0.18355370229E+04  0.00000000000E+00 0. -1.
         -1   -1    0    0    0  501 -0.00000000000E+00 -0.00000000000E+00 -0.44080289636E+03  0.44080289636E+03  0.00000000000E+00 0.  1.
         23    2    1    2    0    0  0.52989911023E+03 -0.41852337426E+03  0.48163296844E+03  0.83446333302E+03  0.91672547900E+02 0.  0.
        254    2    1    2    0    0 -0.52989911023E+03  0.41852337426E+03  0.91310115808E+03  0.14418765862E+04  0.88842528284E+03 0.  0.
        -24    2    4    4    0    0  0.19699851042E+03  0.12678692341E+03  0.15581597995E+02  0.24799507303E+03  0.79846308609E+02 0.  0.
         24    2    4    4    0    0 -0.72689762065E+03  0.29173645085E+03  0.89751956009E+03  0.11938815132E+04  0.79507226999E+02 0.  0.
         11    1    3    3    0    0  0.26447645577E+03 -0.16571801702E+03  0.18411583333E+03  0.36236569499E+03  0.00000000000E+00 0.  1.
        -11    1    3    3    0    0  0.26542265446E+03 -0.25280535723E+03  0.29751713511E+03  0.47209763803E+03  0.00000000000E+00 0. -1.
          4    1    6    6  502    0 -0.44580466825E+02  0.17682151860E+02  0.88366269686E+02  0.10054190238E+03  0.00000000000E+00 0. -1.
          1    1    5    5  503    0  0.95484063670E+02  0.33673746233E+02 -0.25195457591E+02  0.10433570186E+03  0.00000000000E+00 0. -1.
         -2    1    5    5    0  503  0.10151444675E+03  0.93113177178E+02  0.40777055586E+02  0.14365937117E+03  0.00000000000E+00 0.  1.
         -3    1    6    6    0  502 -0.68231715382E+03  0.27405429899E+03  0.80915329040E+03  0.10933396108E+04  0.00000000000E+00 0.  1.
<mgrwt>
<rscale>  0 0.17990109E+04</rscale>
<asrwt>0</asrwt>
<pdfrwt beam="1">  1        1 0.28239031E+00 0.17990109E+04</pdfrwt>
<pdfrwt beam="2">  1       -1 0.67815831E-01 0.17990109E+04</pdfrwt>
<totfact> 0.80065632E+00</totfact>
</mgrwt>
</event>
<event>
12    1  0.1518126E-007  0.1381560E+04  0.7818608E-02  0.8967275E-01
         -1   -1    0    0    0  501 -0.00000000000E+00  0.00000000000E+00  0.19248283103E+04  0.19248283103E+04  0.00000000000E+00 0.  1.
          1   -1    0    0  501    0  0.00000000000E+00 -0.00000000000E+00 -0.24790641691E+03  0.24790641691E+03  0.00000000000E+00 0. -1.
         23    2    1    2    0    0 -0.31296489648E+03  0.68711420572E+02  0.83023197341E+03  0.89453546862E+03  0.90776038698E+02 0.  0.
        254    2    1    2    0    0  0.31296489648E+03 -0.68711420572E+02  0.84668991997E+03  0.12781992586E+04  0.90235316717E+03 0.  0.
        -24    2    4    4    0    0  0.52666965500E+03  0.21905476190E+03  0.40495006390E+03  0.70443044580E+03  0.82896227279E+02 0.  0.
         24    2    4    4    0    0 -0.21370475852E+03 -0.28776618248E+03  0.44173985606E+03  0.57376881278E+03  0.74816111168E+02 0.  0.
         11    1    3    3    0    0 -0.20864604571E+03  0.88732017632E+02  0.57423750083E+03  0.61737772125E+03  0.00000000000E+00 0.  1.
        -11    1    3    3    0    0 -0.10431885077E+03 -0.20020597060E+02  0.25599447258E+03  0.27715774736E+03  0.00000000000E+00 0. -1.
          2    1    6    6  502    0 -0.21235191095E+03 -0.28072361198E+03  0.44367120498E+03  0.56634196255E+03  0.00000000000E+00 0. -1.
          3    1    5    5  503    0  0.50985073463E+03  0.21370321543E+03  0.36983015391E+03  0.66512493460E+03  0.00000000000E+00 0. -1.
         -4    1    5    5    0  503  0.16818920367E+02  0.53515464730E+01  0.35119909996E+02  0.39305511192E+02  0.00000000000E+00 0.  1.
         -1    1    6    6    0  502 -0.13528475660E+01 -0.70425704918E+01 -0.19313489207E+01  0.74268502289E+01  0.00000000000E+00 0.  1.
<mgrwt>
<rscale>  0 0.13815604E+04</rscale>
<asrwt>0</asrwt>
<pdfrwt beam="1">  1        1 0.38139450E-01 0.13815604E+04</pdfrwt>
<pdfrwt beam="2">  1       -1 0.29612742E+00 0.13815604E+04</pdfrwt>
<totfact> 0.38548287E+00</totfact>
</mgrwt>
</event>
<event>
12    1  0.1518126E-007  0.1334130E+04  0.7818608E-02  0.9002929E-01
          2   -1    0    0  501    0  0.00000000000E+00  0.00000000000E+00  0.66870858311E+03  0.66870858311E+03  0.00000000000E+00 0. -1.
         -2   -1    0    0    0  501 -0.00000000000E+00 -0.00000000000E+00 -0.66542548256E+03  0.66542548256E+03  0.00000000000E+00 0.  1.
         23    2    1    2    0    0  0.14942765040E+03  0.12355942089E+03  0.30835044318E+03  0.38158535732E+03  0.11371823034E+03 0.  0.
        254    2    1    2    0    0 -0.14942765040E+03 -0.12355942089E+03 -0.30506734263E+03  0.95254870835E+03  0.88129870364E+03 0.  0.
        -24    2    4    4    0    0  0.21269666896E+03 -0.39802380004E+02  0.21014888407E+03  0.31222679485E+03  0.80615851443E+02 0.  0.
         24    2    4    4    0    0 -0.36212431936E+03 -0.83757040884E+02 -0.51521622670E+03  0.64032191350E+03  0.80094494730E+02 0.  0.
         13    1    3    3    0    0  0.39092889123E+02  0.62195128524E+02  0.36891495831E+02  0.82203834806E+02  0.00000000000E+00 0.  1.
        -13    1    3    3    0    0  0.11033476128E+03  0.61364292364E+02  0.27145894735E+03  0.29938152251E+03  0.00000000000E+00 0. -1.
          4    1    6    6  502    0 -0.12995043763E+03  0.70624418794E+01 -0.19636479173E+03  0.23557615702E+03  0.00000000000E+00 0. -1.
          1    1    5    5  503    0  0.43194555289E+02  0.19075869154E+02  0.70497434070E+02  0.84850142021E+02  0.00000000000E+00 0. -1.
         -2    1    5    5    0  503  0.16950211367E+03 -0.58878249159E+02  0.13965145000E+03  0.22737665282E+03  0.00000000000E+00 0.  1.
         -3    1    6    6    0  502 -0.23217388173E+03 -0.90819482763E+02 -0.31885143497E+03  0.40474575648E+03  0.00000000000E+00 0.  1.
<mgrwt>
<rscale>  0 0.13341300E+04</rscale>
<asrwt>0</asrwt>
<pdfrwt beam="1">  1        2 0.10287824E+00 0.13341300E+04</pdfrwt>
<pdfrwt beam="2">  1       -2 0.10237315E+00 0.13341300E+04</pdfrwt>
<totfact> 0.33157271E+01</totfact>
</mgrwt>
</event>
<event>
12    1  0.1518126E-007  0.2844301E+04  0.7818608E-02  0.8289645E-01
         -2   -1    0    0    0  501 -0.00000000000E+00  0.00000000000E+00  0.83189367418E+03  0.83189367418E+03  0.00000000000E+00 0.  1.
          2   -1    0    0  501    0  0.00000000000E+00 -0.00000000000E+00 -0.24312150051E+04  0.24312150051E+04  0.00000000000E+00 0. -1.
         23    2    1    2    0    0  0.52911474280E+03 -0.11574379129E+04 -0.58099912844E+03  0.14019200391E+04  0.90525551953E+02 0.  0.
        254    2    1    2    0    0 -0.52911474280E+03  0.11574379129E+04 -0.10183222025E+04  0.18611886401E+04  0.89856447342E+03 0.  0.
        -24    2    4    4    0    0  0.38713058024E+02 -0.48200752789E+02  0.82563897115E+02  0.13079266413E+03  0.80423320327E+02 0.  0.
         24    2    4    4    0    0 -0.56782780082E+03  0.12056386657E+04 -0.11008860996E+04  0.17303959760E+04  0.79542604656E+02 0.  0.
         11    1    3    3    0    0  0.19288874493E+03 -0.47228848019E+03 -0.27597613972E+03  0.58002181522E+03  0.00000000000E+00 0.  1.
        -11    1    3    3    0    0  0.33622599787E+03 -0.68514943272E+03 -0.30502298872E+03  0.82189822390E+03  0.00000000000E+00 0. -1.
          2    1    6    6  502    0 -0.37871180600E+03  0.75433814098E+03 -0.73792962270E+03  0.11211551146E+04  0.00000000000E+00 0. -1.
          1    1    5    5  503    0  0.20953662901E+00 -0.29151997703E+02  0.82854692808E+02  0.87833837421E+02  0.00000000000E+00 0. -1.
         -2    1    5    5    0  503  0.38503521395E+02 -0.19048755085E+02 -0.29079569301E+00  0.42958826709E+02  0.00000000000E+00 0.  1.
         -1    1    6    6    0  502 -0.18911599482E+03  0.45130052472E+03 -0.36295647688E+03  0.60924086142E+03  0.00000000000E+00 0.  1.
<mgrwt>
<rscale>  0 0.28443012E+04</rscale>
<asrwt>0</asrwt>
<pdfrwt beam="1">  1        2 0.37403308E+00 0.28443012E+04</pdfrwt>
<pdfrwt beam="2">  1       -2 0.12798364E+00 0.28443012E+04</pdfrwt>
<totfact> 0.14940640E+00</totfact>
</mgrwt>
</event>
<event>
12    1  0.1518126E-007  0.1492797E+04  0.7818608E-02  0.8889257E-01
          1   -1    0    0  501    0  0.00000000000E+00  0.00000000000E+00  0.22384256359E+04  0.22384256359E+04  0.00000000000E+00 0. -1.
         -1   -1    0    0    0  501 -0.00000000000E+00 -0.00000000000E+00 -0.24888501375E+03  0.24888501375E+03  0.00000000000E+00 0.  1.
         23    2    1    2    0    0  0.44834634818E+03  0.81577244328E+02  0.68145386092E+03  0.82484739244E+03  0.91239035161E+02 0.  0.
        254    2    1    2    0    0 -0.44834634818E+03 -0.81577244328E+02  0.13080867612E+04  0.16624632572E+04  0.91925176744E+03 0.  0.
        -24    2    4    4    0    0 -0.72291973049E+02 -0.76725067701E+02 -0.12311939592E+03  0.18056553337E+03  0.79578017118E+02 0.  0.
         24    2    4    4    0    0 -0.37605437513E+03 -0.48521766274E+01  0.14312061571E+04  0.14818977238E+04  0.78926313650E+02 0.  0.
         13    1    3    3    0    0  0.35383257928E+03  0.34330722609E+02  0.47931487956E+03  0.59675694084E+03  0.00000000000E+00 0. -1.
        -13    1    3    3    0    0  0.94513768900E+02  0.47246521720E+02  0.20213898136E+03  0.22809045160E+03  0.00000000000E+00 0.  1.
          2    1    6    6  502    0 -0.27520657500E+03  0.19556953364E+02  0.11347021822E+04  0.11677628935E+04  0.00000000000E+00 0. -1.
          3    1    5    5  503    0 -0.53454721804E+02 -0.92538057439E+02 -0.92893876954E+02  0.14159792277E+03  0.00000000000E+00 0. -1.
         -4    1    5    5    0  503 -0.18837251245E+02  0.15812989739E+02 -0.30225518966E+02  0.38967610598E+02  0.00000000000E+00 0.  1.
         -1    1    6    6    0  502 -0.10084780013E+03 -0.24409129992E+02  0.29650397498E+03  0.31413483029E+03  0.00000000000E+00 0.  1.
<mgrwt>
<rscale>  0 0.14927968E+04</rscale>
<asrwt>0</asrwt>
<pdfrwt beam="1">  1        1 0.34437316E+00 0.14927968E+04</pdfrwt>
<pdfrwt beam="2">  1       -1 0.38290004E-01 0.14927968E+04</pdfrwt>
<totfact> 0.13113743E+01</totfact>
</mgrwt>
</event>
<event>
12    1  0.1518126E-007  0.1677907E+04  0.7818608E-02  0.8774066E-01
          1   -1    0    0  501    0  0.00000000000E+00  0.00000000000E+00  0.57700477690E+03  0.57700477690E+03  0.00000000000E+00 0. -1.
         -1   -1    0    0    0  501 -0.00000000000E+00 -0.00000000000E+00 -0.12198214448E+04  0.12198214448E+04  0.00000000000E+00 0.  1.
         23    2    1    2    0    0  0.10938881641E+03 -0.45978610816E+03 -0.58865247742E+03  0.76048718121E+03  0.91977362429E+02 0.  0.
        254    2    1    2    0    0 -0.10938881641E+03  0.45978610816E+03 -0.54164190499E+02  0.10363390405E+04  0.92070389862E+03 0.  0.
        -24    2    4    4    0    0  0.72684951265E+02  0.53926228157E+03 -0.36323821228E+03  0.65910390668E+03  0.79931536201E+02 0.  0.
         24    2    4    4    0    0 -0.18207376768E+03 -0.79476173412E+02  0.30907402178E+03  0.37723513382E+03  0.85511848484E+02 0.  0.
         13    1    3    3    0    0  0.23360957549E+02 -0.17113656930E+03 -0.28173624478E+03  0.33046750417E+03  0.00000000000E+00 0. -1.
        -13    1    3    3    0    0  0.86027858865E+02 -0.28864953886E+03 -0.30691623264E+03  0.43001967704E+03  0.00000000000E+00 0.  1.
          4    1    6    6  502    0 -0.16659596160E+03 -0.66863310010E+02  0.30889421779E+03  0.35726818278E+03  0.00000000000E+00 0. -1.
          3    1    5    5  503    0  0.87792355369E+02  0.38480517752E+03 -0.25529831578E+03  0.47006356203E+03  0.00000000000E+00 0. -1.
         -4    1    5    5    0  503 -0.15107404104E+02  0.15445710405E+03 -0.10793989650E+03  0.18904034465E+03  0.00000000000E+00 0.  1.
         -3    1    6    6    0  502 -0.15477806082E+02 -0.12612863401E+02  0.17980399446E+00  0.19966951038E+02  0.00000000000E+00 0.  1.
<mgrwt>
<rscale>  0 0.16779068E+04</rscale>
<asrwt>0</asrwt>
<pdfrwt beam="1">  1        1 0.88769967E-01 0.16779068E+04</pdfrwt>
<pdfrwt beam="2">  1       -1 0.18766484E+00 0.16779068E+04</pdfrwt>
<totfact> 0.63381627E+00</totfact>
</mgrwt>
</event>
<event>
12    1  0.1518126E-007  0.1452796E+04  0.7818608E-02  0.8916465E-01
         -1   -1    0    0    0  501 -0.00000000000E+00  0.00000000000E+00  0.20878558369E+03  0.20878558369E+03  0.00000000000E+00 0.  1.
          1   -1    0    0  501    0  0.00000000000E+00 -0.00000000000E+00 -0.25272524027E+04  0.25272524027E+04  0.00000000000E+00 0. -1.
         23    2    1    2    0    0 -0.39650985169E+03  0.17795812354E+03 -0.58845168342E+03  0.73728826590E+03  0.91812020410E+02 0.  0.
        254    2    1    2    0    0  0.39650985169E+03 -0.17795812354E+03 -0.17300151356E+04  0.19987497205E+04  0.90175324759E+03 0.  0.
        -24    2    4    4    0    0 -0.19459657544E+03 -0.64167261023E+02 -0.11081225006E+04  0.11297089430E+04  0.79508207409E+02 0.  0.
         24    2    4    4    0    0  0.59110642713E+03 -0.11379086252E+03 -0.62189263500E+03  0.86904077747E+03  0.78270395809E+02 0.  0.
         13    1    3    3    0    0 -0.39132523241E+03  0.16954253267E+03 -0.58922976319E+03  0.72737323413E+03  0.00000000000E+00 0. -1.
        -13    1    3    3    0    0 -0.51846192808E+01  0.84155908673E+01  0.77807977294E+00  0.99150317632E+01  0.00000000000E+00 0.  1.
          4    1    6    6  502    0  0.35097509713E+02 -0.22978750505E+01 -0.66840554077E+02  0.75529961519E+02  0.00000000000E+00 0. -1.
          3    1    5    5  503    0 -0.10989562803E+03  0.32044058856E+01 -0.48993546964E+03  0.50211958903E+03  0.00000000000E+00 0. -1.
         -4    1    5    5    0  503 -0.84700947403E+02 -0.67371666909E+02 -0.61818703092E+03  0.62758935395E+03  0.00000000000E+00 0.  1.
         -3    1    6    6    0  502  0.55600891742E+03 -0.11149298747E+03 -0.55505208092E+03  0.79351081596E+03  0.00000000000E+00 0.  1.
<mgrwt>
<rscale>  0 0.14527957E+04</rscale>
<asrwt>0</asrwt>
<pdfrwt beam="1">  1        1 0.38880808E+00 0.14527957E+04</pdfrwt>
<pdfrwt beam="2">  1       -1 0.32120858E-01 0.14527957E+04</pdfrwt>
<totfact> 0.11426409E+01</totfact>
</mgrwt>
</event>
<event>
12    1  0.1518126E-007  0.1398480E+04  0.7818608E-02  0.8954920E-01
          2   -1    0    0  501    0  0.00000000000E+00  0.00000000000E+00  0.87221795564E+03  0.87221795564E+03  0.00000000000E+00 0. -1.
         -2   -1    0    0    0  501 -0.00000000000E+00 -0.00000000000E+00 -0.56056674179E+03  0.56056674179E+03  0.00000000000E+00 0.  1.
         23    2    1    2    0    0 -0.13258471588E+03  0.35114077790E+03  0.26209930260E+03  0.46619500587E+03  0.88108945579E+02 0.  0.
        254    2    1    2    0    0  0.13258471588E+03 -0.35114077790E+03  0.49551911253E+02  0.96658969156E+03  0.88936026847E+03 0.  0.
        -24    2    4    4    0    0 -0.20917132923E+03 -0.45522322303E+03 -0.17757617563E+03  0.53698949265E+03  0.76443373202E+02 0.  0.
         24    2    4    4    0    0  0.34175604510E+03  0.10408244513E+03  0.22712808689E+03  0.42960019891E+03  0.73067183477E+02 0.  0.
         11    1    3    3    0    0 -0.13610264516E+01  0.10250183513E+03  0.91044389174E+02  0.13710419176E+03  0.00000000000E+00 0.  1.
        -11    1    3    3    0    0 -0.13122368942E+03  0.24863894277E+03  0.17105491343E+03  0.32909081412E+03  0.00000000000E+00 0. -1.
          2    1    6    6  502    0  0.62097394617E+02  0.34779834648E+02  0.76480483818E+02  0.10447481860E+03  0.00000000000E+00 0. -1.
          1    1    5    5  503    0 -0.90074430404E+02 -0.26863061269E+03 -0.12376074790E+03  0.30918041951E+03  0.00000000000E+00 0. -1.
         -2    1    5    5    0  503 -0.11909689882E+03 -0.18659261034E+03 -0.53815427729E+02  0.22780907314E+03  0.00000000000E+00 0.  1.
         -1    1    6    6    0  502  0.27965865048E+03  0.69302610487E+02  0.15064760307E+03  0.32512538031E+03  0.00000000000E+00 0.  1.
<mgrwt>
<rscale>  0 0.13984797E+04</rscale>
<asrwt>0</asrwt>
<pdfrwt beam="1">  1        2 0.13418738E+00 0.13984797E+04</pdfrwt>
<pdfrwt beam="2">  1       -2 0.86241038E-01 0.13984797E+04</pdfrwt>
<totfact> 0.34768854E+01</totfact>
</mgrwt>
</event>
<event>
12    1  0.1518126E-007  0.4504874E+04  0.7818608E-02  0.7909784E-01
         -2   -1    0    0    0  501 -0.00000000000E+00  0.00000000000E+00  0.17772897443E+04  0.17772897443E+04  0.00000000000E+00 0. -1.
          2   -1    0    0  501    0  0.00000000000E+00 -0.00000000000E+00 -0.28546122891E+04  0.28546122891E+04  0.00000000000E+00 0.  1.
         23    2    1    2    0    0  0.11094181351E+04  0.10148023367E+04 -0.21065093801E+04  0.25896064830E+04  0.89708346117E+02 0.  0.
        254    2    1    2    0    0 -0.11094181351E+04 -0.10148023367E+04  0.10291868352E+04  0.20422955504E+04  0.92255796142E+03 0.  0.
        -24    2    4    4    0    0  0.29132235175E+02 -0.28672727565E+03  0.51259430433E+03  0.59338240515E+03  0.79300316403E+02 0.  0.
         24    2    4    4    0    0 -0.11385503703E+04 -0.72807506107E+03  0.51659253090E+03  0.14489131452E+04  0.78046263363E+02 0.  0.
         13    1    3    3    0    0  0.55502077051E+03  0.52920362702E+03 -0.10020114551E+04  0.12617969293E+04  0.00000000000E+00 0.  1.
        -13    1    3    3    0    0  0.55439736459E+03  0.48559870970E+03 -0.11044979250E+04  0.13278095537E+04  0.00000000000E+00 0. -1.
          4    1    6    6  502    0 -0.42908202870E+03 -0.28069370303E+03  0.23633032070E+03  0.56458158202E+03  0.00000000000E+00 0. -1.
          3    1    5    5  503    0  0.24317364986E+02 -0.13438043624E+03  0.16742522412E+03  0.21605703311E+03  0.00000000000E+00 0. -1.
         -4    1    5    5    0  503  0.48148701896E+01 -0.15234683941E+03  0.34516908021E+03  0.37732537205E+03  0.00000000000E+00 0.  1.
         -3    1    6    6    0  502 -0.70946834158E+03 -0.44738135804E+03  0.28026221021E+03  0.88433156321E+03  0.00000000000E+00 0.  1.
<mgrwt>
<rscale>  0 0.45048743E+04</rscale>
<asrwt>0</asrwt>
<pdfrwt beam="1">  1        2 0.43917112E+00 0.45048743E+04</pdfrwt>
<pdfrwt beam="2">  1       -2 0.27342919E+00 0.45048743E+04</pdfrwt>
<totfact> 0.74911939E-02</totfact>
</mgrwt>
</event>
<event>
12    1  0.1518126E-007  0.2187885E+04  0.7818608E-02  0.8523487E-01
         -1   -1    0    0    0  501 -0.00000000000E+00  0.00000000000E+00  0.16407455268E+04  0.16407455268E+04  0.00000000000E+00 0.  1.
          1   -1    0    0  501    0  0.00000000000E+00 -0.00000000000E+00 -0.72937000877E+03  0.72937000877E+03  0.00000000000E+00 0. -1.
         23    2    1    2    0    0 -0.18426382448E+02 -0.20395614290E+03  0.13679414195E+04  0.13861852991E+04  0.91149967631E+02 0.  0.
        254    2    1    2    0    0  0.18426382448E+02  0.20395614290E+03 -0.45656590146E+03  0.98393023642E+03  0.84718867318E+03 0.  0.
        -24    2    4    4    0    0 -0.40326443379E+03  0.98720876367E+02 -0.16265963272E+03  0.45301212440E+03  0.79961326558E+02 0.  0.
         24    2    4    4    0    0  0.42169081623E+03  0.10523526653E+03 -0.29390626874E+03  0.53091811202E+03  0.81212936437E+02 0.  0.
         11    1    3    3    0    0 -0.50722883139E+02 -0.14874694747E+03  0.10678947920E+04  0.10793969391E+04  0.00000000000E+00 0.  1.
        -11    1    3    3    0    0  0.32296500692E+02 -0.55209195427E+02  0.30004662747E+03  0.30678836007E+03  0.00000000000E+00 0. -1.
          4    1    6    6  502    0  0.17258488928E+02 -0.49384060161E+01  0.16503454103E+01  0.18026839269E+02  0.00000000000E+00 0. -1.
          3    1    5    5  503    0 -0.32900849526E+02 -0.76817589082E+01  0.22555445590E+01  0.33860933253E+02  0.00000000000E+00 0. -1.
         -4    1    5    5    0  503 -0.37036358426E+03  0.10640263527E+03 -0.16491517728E+03  0.41915119114E+03  0.00000000000E+00 0.  1.
         -1    1    6    6    0  502  0.40443232731E+03  0.11017367255E+03 -0.29555661415E+03  0.51289127275E+03  0.00000000000E+00 0.  1.
<mgrwt>
<rscale>  0 0.21878854E+04</rscale>
<asrwt>0</asrwt>
<pdfrwt beam="1">  1        1 0.11221077E+00 0.21878854E+04</pdfrwt>
<pdfrwt beam="2">  1       -1 0.25242239E+00 0.21878854E+04</pdfrwt>
<totfact> 0.15693009E+00</totfact>
</mgrwt>
</event>
<event>
12    1  0.1518126E-007  0.2251017E+04  0.7818608E-02  0.8497489E-01
          1   -1    0    0  501    0  0.00000000000E+00  0.00000000000E+00  0.29359711677E+04  0.29359711677E+04  0.00000000000E+00 0. -1.
         -1   -1    0    0    0  501 -0.00000000000E+00 -0.00000000000E+00 -0.43146532064E+03  0.43146532064E+03  0.00000000000E+00 0.  1.
         23    2    1    2    0    0 -0.41117980952E+03  0.53125150875E+03  0.20658096605E+04  0.21741823113E+04  0.90565823268E+02 0.  0.
        254    2    1    2    0    0  0.41117980952E+03 -0.53125150875E+03  0.43869618658E+03  0.11932541770E+04  0.88323506807E+03 0.  0.
        -24    2    4    4    0    0  0.11798144636E+03  0.61912547270E+02 -0.21133571372E+03  0.26244994279E+03  0.80401513570E+02 0.  0.
         24    2    4    4    0    0  0.29319836316E+03 -0.59316405602E+03  0.65003190029E+03  0.93080423420E+03  0.77757144206E+02 0.  0.
         11    1    3    3    0    0 -0.34908664238E+03  0.39103230170E+03  0.16260059882E+04  0.17084095582E+04  0.00000000000E+00 0. -1.
        -11    1    3    3    0    0 -0.62093167139E+02  0.14021920706E+03  0.43980367222E+03  0.46577275310E+03  0.00000000000E+00 0.  1.
          4    1    6    6  502    0  0.69644352001E+02 -0.21837702641E+03  0.20504010809E+03  0.30753911516E+03  0.00000000000E+00 0. -1.
          1    1    5    5  503    0  0.11359227573E+03  0.78442959421E+02 -0.19395631877E+03  0.23806628610E+03  0.00000000000E+00 0. -1.
         -2    1    5    5    0  503  0.43891706269E+01 -0.16530412152E+02 -0.17379394951E+02  0.24383656689E+02  0.00000000000E+00 0.  1.
         -3    1    6    6    0  502  0.22355401116E+03 -0.37478702961E+03  0.44499179220E+03  0.62326511903E+03  0.00000000000E+00 0.  1.
<mgrwt>
<rscale>  0 0.22510173E+04</rscale>
<asrwt>0</asrwt>
<pdfrwt beam="1">  1        1 0.45168786E+00 0.22510173E+04</pdfrwt>
<pdfrwt beam="2">  1       -1 0.66379282E-01 0.22510173E+04</pdfrwt>
<totfact> 0.13898764E+00</totfact>
</mgrwt>
</event>
<event>
12    1  0.1518126E-007  0.1784152E+04  0.7818608E-02  0.8714773E-01
         -2   -1    0    0    0  501 -0.00000000000E+00  0.00000000000E+00  0.29750143409E+03  0.29750143409E+03  0.00000000000E+00 0.  1.
          2   -1    0    0  501    0  0.00000000000E+00 -0.00000000000E+00 -0.26749438873E+04  0.26749438873E+04  0.00000000000E+00 0. -1.
         23    2    1    2    0    0 -0.38677402273E+03 -0.20339187730E+03 -0.15808647440E+04  0.16426181761E+04  0.89992962216E+02 0.  0.
        254    2    1    2    0    0  0.38677402273E+03  0.20339187730E+03 -0.79657770922E+03  0.13298271453E+04  0.97105189825E+03 0.  0.
        -24    2    4    4    0    0 -0.13726319637E+03 -0.28668636813E+03 -0.14997334898E+03  0.36081268623E+03  0.81630450137E+02 0.  0.
         24    2    4    4    0    0  0.52403721910E+03  0.49007824543E+03 -0.64660436023E+03  0.96901445905E+03  0.78103325998E+02 0.  0.
         11    1    3    3    0    0 -0.37029829797E+03 -0.21041255633E+03 -0.15435043844E+04  0.16011870778E+04  0.00000000000E+00 0. -1.
        -11    1    3    3    0    0 -0.16475724758E+02  0.70206790242E+01 -0.37360359559E+02  0.41431098303E+02  0.00000000000E+00 0.  1.
          4    1    6    6  502    0  0.47753474551E+03  0.41740414387E+03 -0.55013859946E+03  0.83959402756E+03  0.00000000000E+00 0. -1.
          3    1    5    5  503    0 -0.12116658597E+03 -0.18864882140E+03 -0.75255873876E+02  0.23650193641E+03  0.00000000000E+00 0. -1.
         -2    1    5    5    0  503 -0.16096610402E+02 -0.98037546723E+02 -0.74717475108E+02  0.12431074982E+03  0.00000000000E+00 0.  1.
         -3    1    6    6    0  502  0.46502473594E+02  0.72674101559E+02 -0.96465760770E+02  0.12942043150E+03  0.00000000000E+00 0.  1.
<mgrwt>
<rscale>  0 0.17841521E+04</rscale>
<asrwt>0</asrwt>
<pdfrwt beam="1">  1        2 0.41152982E+00 0.17841521E+04</pdfrwt>
<pdfrwt beam="2">  1       -2 0.45769452E-01 0.17841521E+04</pdfrwt>
<totfact> 0.11783189E+01</totfact>
</mgrwt>
</event>
<event>
12    1  0.1518126E-007  0.1137300E+04  0.7818608E-02  0.9169580E-01
         -2   -1    0    0    0  501 -0.00000000000E+00  0.00000000000E+00  0.19921931282E+04  0.19921931282E+04  0.00000000000E+00 0.  1.
          2   -1    0    0  501    0  0.00000000000E+00 -0.00000000000E+00 -0.16231504893E+03  0.16231504893E+03  0.00000000000E+00 0. -1.
         23    2    1    2    0    0  0.13168595753E+03  0.47651859138E+02  0.61600358919E+03  0.63828693977E+03  0.91312126713E+02 0.  0.
        254    2    1    2    0    0 -0.13168595753E+03 -0.47651859138E+02  0.12138744900E+04  0.15162212373E+04  0.89767681929E+03 0.  0.
        -24    2    4    4    0    0 -0.52896123372E+02  0.37088504569E+03  0.90932164398E+03  0.98671167873E+03  0.79877204251E+02 0.  0.
         24    2    4    4    0    0 -0.78789834160E+02 -0.41853690483E+03  0.30455284605E+03  0.52950955859E+03  0.79037699435E+02 0.  0.
         13    1    3    3    0    0  0.77604218681E+01  0.22137372012E+02  0.26644516126E+02  0.35499544036E+02  0.00000000000E+00 0. -1.
        -13    1    3    3    0    0  0.12392553566E+03  0.25514487126E+02  0.58935907307E+03  0.60278739573E+03  0.00000000000E+00 0.  1.
          4    1    6    6  502    0 -0.25428929314E+02 -0.35577817168E+02  0.14227844369E+02  0.45987423018E+02  0.00000000000E+00 0. -1.
          1    1    5    5  503    0  0.51178445351E+00  0.16895084619E+03  0.32711700614E+03  0.36817140853E+03  0.00000000000E+00 0. -1.
         -2    1    5    5    0  503 -0.53407907826E+02  0.20193419950E+03  0.58220463784E+03  0.61854027020E+03  0.00000000000E+00 0.  1.
         -3    1    6    6    0  502 -0.53360904846E+02 -0.38295908766E+03  0.29032500168E+03  0.48352213557E+03  0.00000000000E+00 0.  1.
<mgrwt>
<rscale>  0 0.11373002E+04</rscale>
<asrwt>0</asrwt>
<pdfrwt beam="1">  1        2 0.24971547E-01 0.11373002E+04</pdfrwt>
<pdfrwt beam="2">  1       -2 0.30649123E+00 0.11373002E+04</pdfrwt>
<totfact> 0.63804173E+00</totfact>
</mgrwt>
</event>
<event>
12    1  0.1518126E-007  0.1860063E+04  0.7818608E-02  0.8674995E-01
          2   -1    0    0  501    0  0.00000000000E+00  0.00000000000E+00  0.32406475419E+04  0.32406475419E+04  0.00000000000E+00 0. -1.
         -2   -1    0    0    0  501 -0.00000000000E+00 -0.00000000000E+00 -0.26690926372E+03  0.26690926372E+03  0.00000000000E+00 0.  1.
         23    2    1    2    0    0 -0.17271039234E+03 -0.49963718190E+03  0.19130084345E+04  0.19865226090E+04  0.84879988107E+02 0.  0.
        254    2    1    2    0    0  0.17271039234E+03  0.49963718190E+03  0.10607298436E+04  0.15210341966E+04  0.95337874577E+03 0.  0.
        -24    2    4    4    0    0 -0.42841480197E+02 -0.24483218101E+03  0.48992387478E+03  0.55518038215E+03  0.80135287895E+02 0.  0.
         24    2    4    4    0    0  0.21555187254E+03  0.74446936290E+03  0.57080596885E+03  0.96585381444E+03  0.79730136960E+02 0.  0.
         11    1    3    3    0    0 -0.14319867628E+03 -0.35207701347E+03  0.14834638370E+04  0.15313814156E+04  0.00000000000E+00 0. -1.
        -11    1    3    3    0    0 -0.29511716058E+02 -0.14756016843E+03  0.42954459753E+03  0.45514119343E+03  0.00000000000E+00 0.  1.
          2    1    6    6  502    0  0.13467820573E+03  0.58318513142E+03  0.42982085948E+03  0.73687793280E+03  0.00000000000E+00 0. -1.
          3    1    5    5  503    0  0.23841468786E+02 -0.54963014314E+02  0.11315764461E+03  0.12803906088E+03  0.00000000000E+00 0. -1.
         -2    1    5    5    0  503 -0.66682948983E+02 -0.18986916669E+03  0.37676623017E+03  0.42714132128E+03  0.00000000000E+00 0.  1.
         -1    1    6    6    0  502  0.80873666804E+02  0.16128423148E+03  0.14098510937E+03  0.22897588164E+03  0.00000000000E+00 0.  1.
<mgrwt>
<rscale>  0 0.18600633E+04</rscale>
<asrwt>0</asrwt>
<pdfrwt beam="1">  1        2 0.49856113E+00 0.18600633E+04</pdfrwt>
<pdfrwt beam="2">  1       -2 0.41062966E-01 0.18600633E+04</pdfrwt>
<totfact> 0.64689281E+00</totfact>
</mgrwt>
</event>
<event>
12    1  0.1518126E-007  0.1318681E+04  0.7818608E-02  0.9014881E-01
          2   -1    0    0  501    0  0.00000000000E+00  0.00000000000E+00  0.48220184084E+03  0.48220184084E+03  0.00000000000E+00 0. -1.
         -2   -1    0    0    0  501 -0.00000000000E+00 -0.00000000000E+00 -0.90155145647E+03  0.90155145647E+03  0.00000000000E+00 0.  1.
         23    2    1    2    0    0 -0.89437893069E+02 -0.85120779437E+02  0.21999932038E+03  0.26772091197E+03  0.89610835996E+02 0.  0.
        254    2    1    2    0    0  0.89437893069E+02  0.85120779437E+02 -0.63934893601E+03  0.11160323853E+04  0.90637549578E+03 0.  0.
        -24    2    4    4    0    0  0.19945826816E+03 -0.28806263276E+03  0.36292266776E+01  0.36025349644E+03  0.83700234655E+02 0.  0.
         24    2    4    4    0    0 -0.11002037509E+03  0.37318341220E+03 -0.64297816268E+03  0.75577888890E+03  0.80065405357E+02 0.  0.
         11    1    3    3    0    0 -0.53966698689E+02  0.67527969260E+00  0.47827187520E+02  0.72113108629E+02  0.00000000000E+00 0.  1.
        -11    1    3    3    0    0 -0.35471194380E+02 -0.85796059130E+02  0.17217213286E+03  0.19560780334E+03  0.00000000000E+00 0. -1.
          4    1    6    6  502    0  0.38605260764E+01  0.45571476030E+02 -0.43069695911E+02  0.62822462504E+02  0.00000000000E+00 0. -1.
          1    1    5    5  503    0  0.37837455165E+02 -0.28366840929E+02  0.25250797374E+02  0.53609266416E+02  0.00000000000E+00 0. -1.
         -2    1    5    5    0  503  0.16162081300E+03 -0.25969579183E+03 -0.21621570696E+02  0.30664423003E+03  0.00000000000E+00 0.  1.
         -3    1    6    6    0  502 -0.11388090117E+03  0.32761193617E+03 -0.59990846677E+03  0.69295642639E+03  0.00000000000E+00 0.  1.
<mgrwt>
<rscale>  0 0.13186808E+04</rscale>
<asrwt>0</asrwt>
<pdfrwt beam="1">  1        2 0.74184900E-01 0.13186808E+04</pdfrwt>
<pdfrwt beam="2">  1       -2 0.13870022E+00 0.13186808E+04</pdfrwt>
<totfact> 0.23118161E+01</totfact>
</mgrwt>
</event>
<event>
12    1  0.1518126E-007  0.1454029E+04  0.7818608E-02  0.8915612E-01
          2   -1    0    0  501    0  0.00000000000E+00  0.00000000000E+00  0.16692403286E+04  0.16692403286E+04  0.00000000000E+00 0. -1.
         -2   -1    0    0    0  501 -0.00000000000E+00 -0.00000000000E+00 -0.31664105322E+03  0.31664105322E+03  0.00000000000E+00 0.  1.
         23    2    1    2    0    0  0.10217652642E+03  0.27041660359E+03 -0.43730537432E+02  0.30552253043E+03  0.88693148802E+02 0.  0.
        254    2    1    2    0    0 -0.10217652642E+03 -0.27041660359E+03  0.13963298128E+04  0.16803588514E+04  0.88899029312E+03 0.  0.
        -24    2    4    4    0    0  0.35689402412E+03  0.43888252848E+02  0.62401638706E+03  0.72518360126E+03  0.84825002318E+02 0.  0.
         24    2    4    4    0    0 -0.45907055054E+03 -0.31430485644E+03  0.77231342571E+03  0.95517525011E+03  0.79739687316E+02 0.  0.
         13    1    3    3    0    0 -0.11609840118E+01  0.52556421274E+02 -0.37032839109E+02  0.64303627219E+02  0.00000000000E+00 0. -1.
        -13    1    3    3    0    0  0.10333751043E+03  0.21786018232E+03 -0.66976983235E+01  0.24121890321E+03  0.00000000000E+00 0.  1.
          2    1    6    6  502    0 -0.31025002971E+03 -0.23401923049E+03  0.48132261120E+03  0.61862067313E+03  0.00000000000E+00 0. -1.
          1    1    5    5  503    0  0.19330474193E+03  0.66230222610E+02  0.34273050506E+03  0.39902050666E+03  0.00000000000E+00 0. -1.
         -2    1    5    5    0  503  0.16358928219E+03 -0.22341969762E+02  0.28128588201E+03  0.32616309460E+03  0.00000000000E+00 0.  1.
         -1    1    6    6    0  502 -0.14882052082E+03 -0.80285625953E+02  0.29099081451E+03  0.33655457698E+03  0.00000000000E+00 0.  1.
<mgrwt>
<rscale>  0 0.14540289E+04</rscale>
<asrwt>0</asrwt>
<pdfrwt beam="1">  1        2 0.25680620E+00 0.14540289E+04</pdfrwt>
<pdfrwt beam="2">  1       -2 0.48714009E-01 0.14540289E+04</pdfrwt>
<totfact> 0.39463129E+01</totfact>
</mgrwt>
</event>
<event>
12    1  0.1518126E-007  0.3794168E+04  0.7818608E-02  0.8047408E-01
          1   -1    0    0  501    0  0.00000000000E+00  0.00000000000E+00  0.19436811134E+04  0.19436811134E+04  0.00000000000E+00 0. -1.
         -1   -1    0    0    0  501 -0.00000000000E+00 -0.00000000000E+00 -0.18516036497E+04  0.18516036497E+04  0.00000000000E+00 0.  1.
         23    2    1    2    0    0 -0.63081346208E+03  0.37055198617E+03 -0.15886654234E+04  0.17504237915E+04  0.69937287274E+02 0.  0.
        254    2    1    2    0    0  0.63081346208E+03 -0.37055198617E+03  0.16807428871E+04  0.20448609716E+04  0.90627001612E+03 0.  0.
        -24    2    4    4    0    0  0.10735457440E+03  0.15949080202E+03  0.37228279507E+01  0.20807758551E+03  0.79499066469E+02 0.  0.
         24    2    4    4    0    0  0.52345888767E+03 -0.53004278819E+03  0.16770200591E+04  0.18367833860E+04  0.80139653804E+02 0.  0.
         13    1    3    3    0    0 -0.57611551977E+03  0.32403582233E+03 -0.13893993289E+04  0.15386158720E+04  0.00000000000E+00 0.  1.
        -13    1    3    3    0    0 -0.54697942308E+02  0.46516163840E+02 -0.19926609447E+03  0.21180791958E+03  0.00000000000E+00 0. -1.
          2    1    6    6  502    0  0.33593528417E+02 -0.63701146664E+02  0.18943549689E+03  0.20266269691E+03  0.00000000000E+00 0. -1.
          1    1    5    5  503    0  0.70947202584E+01 -0.46217576800E+00  0.17408650837E+02  0.18804515041E+02  0.00000000000E+00 0. -1.
         -2    1    5    5    0  503  0.10025985415E+03  0.15995297779E+03 -0.13685822886E+02  0.18927307047E+03  0.00000000000E+00 0.  1.
         -1    1    6    6    0  502  0.48986535926E+03 -0.46634164152E+03  0.14875845622E+04  0.16341206891E+04  0.00000000000E+00 0.  1.
<mgrwt>
<rscale>  0 0.37941677E+04</rscale>
<asrwt>0</asrwt>
<pdfrwt beam="1">  1        1 0.29902786E+00 0.37941677E+04</pdfrwt>
<pdfrwt beam="2">  1       -1 0.28486210E+00 0.37941677E+04</pdfrwt>
<totfact> 0.10723530E-01</totfact>
</mgrwt>
</event>
<event>
12    1  0.1518126E-007  0.1976272E+04  0.7818608E-02  0.8617795E-01
          2   -1    0    0  501    0  0.00000000000E+00  0.00000000000E+00  0.18258090552E+04  0.18258090552E+04  0.00000000000E+00 0.  1.
         -2   -1    0    0    0  501 -0.00000000000E+00 -0.00000000000E+00 -0.53478349743E+03  0.53478349743E+03  0.00000000000E+00 0. -1.
         23    2    1    2    0    0  0.65400249250E+03 -0.80172418930E+02  0.12792647007E+02  0.66529230029E+03  0.91122533222E+02 0.  0.
        254    2    1    2    0    0 -0.65400249249E+03  0.80172418930E+02  0.12782329107E+04  0.16953002523E+04  0.89778432515E+03 0.  0.
        -24    2    4    4    0    0  0.16631562763E+03  0.13058652037E+03  0.54881426593E+03  0.59346785298E+03  0.79330112423E+02 0.  0.
         24    2    4    4    0    0 -0.82031812013E+03 -0.50414101440E+02  0.72941864479E+03  0.11018323993E+04  0.80744516848E+02 0.  0.
         13    1    3    3    0    0  0.31544461996E+03 -0.56427047934E+02  0.48217249794E+02  0.32405898102E+03  0.00000000000E+00 0.  1.
        -13    1    3    3    0    0  0.33855787254E+03 -0.23745370996E+02 -0.35424602787E+02  0.34123331927E+03  0.00000000000E+00 0. -1.
          4    1    6    6  502    0 -0.63162571605E+03 -0.95120280368E+01  0.53463312270E+03  0.82757120524E+03  0.00000000000E+00 0. -1.
          1    1    5    5  503    0  0.10687061762E+03  0.48170373460E+02  0.36593571932E+03  0.38425338575E+03  0.00000000000E+00 0. -1.
         -2    1    5    5    0  503  0.59445010016E+02  0.82416146910E+02  0.18287854661E+03  0.20921446723E+03  0.00000000000E+00 0.  1.
         -3    1    6    6    0  502 -0.18869240408E+03 -0.40902073403E+02  0.19478552209E+03  0.27426119409E+03  0.00000000000E+00 0.  1.
<mgrwt>
<rscale>  0 0.19762718E+04</rscale>
<asrwt>0</asrwt>
<pdfrwt beam="1">  1        2 0.28089370E+00 0.19762718E+04</pdfrwt>
<pdfrwt beam="2">  1       -2 0.82274385E-01 0.19762718E+04</pdfrwt>
<totfact> 0.10082705E+01</totfact>
</mgrwt>
</event>
<event>
12    1  0.1518126E-007  0.2579598E+04  0.7818608E-02  0.8375164E-01
         -2   -1    0    0    0  501 -0.00000000000E+00  0.00000000000E+00  0.10451686069E+04  0.10451686069E+04  0.00000000000E+00 0. -1.
          2   -1    0    0  501    0  0.00000000000E+00 -0.00000000000E+00 -0.15916876823E+04  0.15916876823E+04  0.00000000000E+00 0.  1.
         23    2    1    2    0    0  0.91303980024E+03 -0.48750954036E+03  0.13891482156E+03  0.10482560805E+04  0.90753809087E+02 0.  0.
        254    2    1    2    0    0 -0.91303980024E+03  0.48750954036E+03 -0.68543389690E+03  0.15886002088E+04  0.99122336911E+03 0.  0.
        -24    2    4    4    0    0 -0.93403834623E+02 -0.77784568527E+02  0.20617238992E+03  0.24963924625E+03  0.70978753703E+02 0.  0.
         24    2    4    4    0    0 -0.81963596562E+03  0.56529410889E+03 -0.89160628683E+03  0.13389609625E+04  0.80586243989E+02 0.  0.
         11    1    3    3    0    0  0.30939905687E+03 -0.15228743239E+03  0.88048491998E+02  0.35590978548E+03  0.00000000000E+00 0. -1.
        -11    1    3    3    0    0  0.60364074337E+03 -0.33522210798E+03  0.50866329560E+02  0.69234629501E+03  0.00000000000E+00 0.  1.
          2    1    6    6  502    0 -0.15359304254E+03  0.69367650495E+02 -0.15095485804E+03  0.22625221064E+03  0.00000000000E+00 0. -1.
          1    1    5    5  503    0 -0.32508297763E+02 -0.19889961127E+02  0.15255403999E+02  0.41050302414E+02  0.00000000000E+00 0. -1.
         -2    1    5    5    0  503 -0.60895536861E+02 -0.57894607400E+02  0.19091698593E+03  0.20858894384E+03  0.00000000000E+00 0.  1.
         -1    1    6    6    0  502 -0.66604292307E+03  0.49592645840E+03 -0.74065142879E+03  0.11127087519E+04  0.00000000000E+00 0.  1.
<mgrwt>
<rscale>  0 0.25795984E+04</rscale>
<asrwt>0</asrwt>
<pdfrwt beam="1">  1        2 0.24487503E+00 0.25795984E+04</pdfrwt>
<pdfrwt beam="2">  1       -2 0.16079517E+00 0.25795984E+04</pdfrwt>
<totfact> 0.24824296E+00</totfact>
</mgrwt>
</event>
<event>
12    1  0.1518126E-007  0.1751453E+04  0.7818608E-02  0.8732551E-01
          1   -1    0    0  501    0  0.00000000000E+00  0.00000000000E+00  0.55651434554E+03  0.55651434554E+03  0.00000000000E+00 0. -1.
         -1   -1    0    0    0  501 -0.00000000000E+00 -0.00000000000E+00 -0.13780364743E+04  0.13780364743E+04  0.00000000000E+00 0.  1.
         23    2    1    2    0    0  0.32865659948E+03 -0.33858477210E+03 -0.77976352410E+03  0.91603206205E+03  0.91808370612E+02 0.  0.
        254    2    1    2    0    0 -0.32865659948E+03  0.33858477210E+03 -0.41758604679E+02  0.10185187578E+04  0.90165507299E+03 0.  0.
        -24    2    4    4    0    0 -0.47421598362E+03 -0.13282029864E+03 -0.11855940708E+03  0.51284130785E+03  0.80173830984E+02 0.  0.
         24    2    4    4    0    0  0.14555938414E+03  0.47140507074E+03  0.76800802404E+02  0.50567744996E+03  0.80006531695E+02 0.  0.
         13    1    3    3    0    0  0.28885634137E+03 -0.32968168345E+03 -0.69021586895E+03  0.81763435844E+03  0.00000000000E+00 0.  1.
        -13    1    3    3    0    0  0.39800258104E+02 -0.89030886429E+01 -0.89547655155E+02  0.98397703613E+02  0.00000000000E+00 0. -1.
          4    1    6    6  502    0  0.67271828666E+02  0.13330212957E+03 -0.39154050509E+01  0.14936628494E+03  0.00000000000E+00 0. -1.
          3    1    5    5  503    0 -0.30386474970E+02 -0.70637968627E+01 -0.29671235929E+02  0.43053656393E+02  0.00000000000E+00 0. -1.
         -4    1    5    5    0  503 -0.44382950865E+03 -0.12575650178E+03 -0.88888171154E+02  0.46978765145E+03  0.00000000000E+00 0.  1.
         -3    1    6    6    0  502  0.78287555478E+02  0.33810294117E+03  0.80716207455E+02  0.35631116502E+03  0.00000000000E+00 0.  1.
<mgrwt>
<rscale>  0 0.17514532E+04</rscale>
<asrwt>0</asrwt>
<pdfrwt beam="1">  1        1 0.85617593E-01 0.17514532E+04</pdfrwt>
<pdfrwt beam="2">  1       -1 0.21200561E+00 0.17514532E+04</pdfrwt>
<totfact> 0.45027425E+00</totfact>
</mgrwt>
</event>
<event>
12    1  0.1518126E-007  0.1944066E+04  0.7818608E-02  0.8633227E-01
         -1   -1    0    0    0  501 -0.00000000000E+00  0.00000000000E+00  0.16985788376E+04  0.16985788376E+04  0.00000000000E+00 0.  1.
          1   -1    0    0  501    0  0.00000000000E+00 -0.00000000000E+00 -0.55625821492E+03  0.55625821492E+03  0.00000000000E+00 0. -1.
         23    2    1    2    0    0  0.72185341285E+03  0.10499372283E+03  0.80160018470E+03  0.10875514800E+04  0.90051841325E+02 0.  0.
        254    2    1    2    0    0 -0.72185341285E+03 -0.10499372283E+03  0.34072043802E+03  0.11672855725E+04  0.84520362013E+03 0.  0.
        -24    2    4    4    0    0 -0.25865315690E+03 -0.37218732518E+03  0.41681184968E+03  0.62132360423E+03  0.82982182022E+02 0.  0.
         24    2    4    4    0    0 -0.46320025595E+03  0.26719360235E+03 -0.76091411652E+02  0.54596196831E+03  0.79609482250E+02 0.  0.
         13    1    3    3    0    0  0.24038445694E+03  0.13114429453E+02  0.31941653047E+03  0.39997949364E+03  0.00000000000E+00 0.  1.
        -13    1    3    3    0    0  0.48146895591E+03  0.91879293376E+02  0.48218365423E+03  0.68757198639E+03  0.00000000000E+00 0. -1.
          4    1    6    6  502    0 -0.56990866962E+02  0.65864258294E+02 -0.72323263756E+01  0.87397745866E+02  0.00000000000E+00 0. -1.
          3    1    5    5  503    0 -0.66170939381E+02 -0.65527371097E+02  0.49090567596E+02  0.10527256722E+03  0.00000000000E+00 0. -1.
         -4    1    5    5    0  503 -0.19248221752E+03 -0.30665995409E+03  0.36772128208E+03  0.51605103701E+03  0.00000000000E+00 0.  1.
         -3    1    6    6    0  502 -0.40620938899E+03  0.20132934406E+03 -0.68859085277E+02  0.45856422244E+03  0.00000000000E+00 0.  1.
<mgrwt>
<rscale>  0 0.19440663E+04</rscale>
<asrwt>0</asrwt>
<pdfrwt beam="1">  1        1 0.85578188E-01 0.19440663E+04</pdfrwt>
<pdfrwt beam="2">  1       -1 0.26131982E+00 0.19440663E+04</pdfrwt>
<totfact> 0.20935311E+00</totfact>
</mgrwt>
</event>
<event>
12    1  0.1518126E-007  0.1314444E+04  0.7818608E-02  0.9018189E-01
         -2   -1    0    0    0  501 -0.00000000000E+00  0.00000000000E+00  0.12703372807E+03  0.12703372807E+03  0.00000000000E+00 0.  1.
          2   -1    0    0  501    0  0.00000000000E+00 -0.00000000000E+00 -0.34002065938E+04  0.34002065938E+04  0.00000000000E+00 0. -1.
         23    2    1    2    0    0 -0.31996207184E+03 -0.25264794248E+01 -0.10870895197E+04  0.11368479845E+04  0.90981346675E+02 0.  0.
        254    2    1    2    0    0  0.31996207184E+03  0.25264794248E+01 -0.21860833461E+04  0.23903923374E+04  0.91248727136E+03 0.  0.
        -24    2    4    4    0    0  0.63058443572E+03 -0.60184355903E+02 -0.13699790037E+04  0.15113475614E+04  0.77910804909E+02 0.  0.
         24    2    4    4    0    0 -0.31062236388E+03  0.62710835328E+02 -0.81610434236E+03  0.87904477602E+03  0.79211860321E+02 0.  0.
         13    1    3    3    0    0 -0.20533256095E+03 -0.15880002172E+02 -0.54507539022E+03  0.58268414779E+03  0.00000000000E+00 0.  1.
        -13    1    3    3    0    0 -0.11462951089E+03  0.13353522748E+02 -0.54201412948E+03  0.55416383669E+03  0.00000000000E+00 0. -1.
          4    1    6    6  502    0 -0.21189808811E+03  0.63206368035E+02 -0.64043480816E+03  0.67753419708E+03  0.00000000000E+00 0. -1.
          3    1    5    5  503    0  0.48410830980E+03 -0.79109992701E+02 -0.10531138975E+04  0.11617521800E+04  0.00000000000E+00 0. -1.
         -4    1    5    5    0  503  0.14647612593E+03  0.18925636798E+02 -0.31686510615E+03  0.34959538139E+03  0.00000000000E+00 0.  1.
         -1    1    6    6    0  502 -0.98724275773E+02 -0.49553270719E+00 -0.17566953420E+03  0.20151057894E+03  0.00000000000E+00 0.  1.
<mgrwt>
<rscale>  0 0.13144442E+04</rscale>
<asrwt>0</asrwt>
<pdfrwt beam="1">  1        2 0.52310880E+00 0.13144442E+04</pdfrwt>
<pdfrwt beam="2">  1       -2 0.19543647E-01 0.13144442E+04</pdfrwt>
<totfact> 0.21156419E+01</totfact>
</mgrwt>
</event>
<event>
12    1  0.1518126E-007  0.1516188E+04  0.7818608E-02  0.8873759E-01
          1   -1    0    0  501    0  0.00000000000E+00  0.00000000000E+00  0.13488822174E+04  0.13488822174E+04  0.00000000000E+00 0. -1.
         -1   -1    0    0    0  501 -0.00000000000E+00 -0.00000000000E+00 -0.42606137295E+03  0.42606137295E+03  0.00000000000E+00 0.  1.
         23    2    1    2    0    0  0.12070562663E+03  0.11245740533E+03 -0.23478038604E+03  0.30108025148E+03  0.91164531748E+02 0.  0.
        254    2    1    2    0    0 -0.12070562663E+03 -0.11245740533E+03  0.11576012305E+04  0.14738633389E+04  0.89722684788E+03 0.  0.
        -24    2    4    4    0    0  0.15040838198E+03 -0.37067892921E+03  0.95990541111E+03  0.10429214336E+04  0.79001065725E+02 0.  0.
         24    2    4    4    0    0 -0.27111400860E+03  0.25822152387E+03  0.19769581938E+03  0.43094190531E+03  0.80287780521E+02 0.  0.
         13    1    3    3    0    0  0.86707167692E+02  0.12080065447E+03 -0.21327703723E+03  0.25999620317E+03  0.00000000000E+00 0.  1.
        -13    1    3    3    0    0  0.33998458935E+02 -0.83432491331E+01 -0.21503348801E+02  0.41084048312E+02  0.00000000000E+00 0. -1.
          2    1    6    6  502    0 -0.11342859514E+03  0.14211056001E+03  0.59687655238E+02  0.19137417185E+03  0.00000000000E+00 0. -1.
          1    1    5    5  503    0 -0.42059489452E+00 -0.82440018420E+02  0.19451516986E+03  0.21126449026E+03  0.00000000000E+00 0. -1.
         -2    1    5    5    0  503  0.15082897687E+03 -0.28823891079E+03  0.76539024125E+03  0.83165694331E+03  0.00000000000E+00 0.  1.
         -1    1    6    6    0  502 -0.15768541346E+03  0.11611096386E+03  0.13800816414E+03  0.23956773346E+03  0.00000000000E+00 0.  1.
<mgrwt>
<rscale>  0 0.15161881E+04</rscale>
<asrwt>0</asrwt>
<pdfrwt beam="1">  1        1 0.20752034E+00 0.15161881E+04</pdfrwt>
<pdfrwt beam="2">  1       -1 0.65547904E-01 0.15161881E+04</pdfrwt>
<totfact> 0.19028381E+01</totfact>
</mgrwt>
</event>
<event>
12    1  0.2158396E-007  0.2274318E+04  0.7818608E-02  0.8488116E-01
          1   -1    0    0  501    0  0.00000000000E+00  0.00000000000E+00  0.12256865430E+04  0.12256865430E+04  0.00000000000E+00 0.  1.
         -1   -1    0    0    0  501 -0.00000000000E+00 -0.00000000000E+00 -0.10550258430E+04  0.10550258430E+04  0.00000000000E+00 0. -1.
         23    2    1    2    0    0  0.52183441154E+00  0.92408606167E+03  0.30756728318E+03  0.97819941551E+03  0.91329848040E+02 0.  0.
        254    2    1    2    0    0 -0.52183441154E+00 -0.92408606167E+03 -0.13690658312E+03  0.13025129705E+04  0.90766805833E+03 0.  0.
        -24    2    4    4    0    0  0.75312208763E+02 -0.10668047746E+04  0.74998263289E+01  0.10723802666E+04  0.78732666863E+02 0.  0.
         24    2    4    4    0    0 -0.75834043174E+02  0.14271871296E+03 -0.14440640945E+03  0.23013270389E+03  0.77384864011E+02 0.  0.
         13    1    3    3    0    0  0.25163673005E+01  0.90019374536E+03  0.31397746435E+03  0.95338185394E+03  0.00000000000E+00 0.  1.
        -13    1    3    3    0    0 -0.19945328889E+01  0.23892316305E+02 -0.64101811707E+01  0.24817561575E+02  0.00000000000E+00 0. -1.
          2    1    6    6  502    0 -0.49645923119E+02  0.12869187369E+03 -0.14538650684E+03  0.20040846390E+03  0.00000000000E+00 0. -1.
          1    1    5    5  503    0  0.20141743492E+02 -0.74803380037E+03  0.20844167466E+02  0.74859517474E+03  0.00000000000E+00 0. -1.
         -2    1    5    5    0  503  0.55170465271E+02 -0.31877097425E+03 -0.13344341137E+02  0.32378509185E+03  0.00000000000E+00 0.  1.
         -1    1    6    6    0  502 -0.26188120056E+02  0.14026839272E+02  0.98009738320E+00  0.29724239988E+02  0.00000000000E+00 0.  1.
<mgrwt>
<rscale>  0 0.22743183E+04</rscale>
<asrwt>0</asrwt>
<pdfrwt beam="1">  1        1 0.18856716E+00 0.22743183E+04</pdfrwt>
<pdfrwt beam="2">  1       -1 0.16231167E+00 0.22743183E+04</pdfrwt>
<totfact> 0.26027329E+00</totfact>
</mgrwt>
</event>
<event>
12    1  0.1518126E-007  0.1594692E+04  0.7818608E-02  0.8823816E-01
          2   -1    0    0  501    0  0.00000000000E+00  0.00000000000E+00  0.15997515479E+04  0.15997515479E+04  0.00000000000E+00 0.  1.
         -2   -1    0    0    0  501 -0.00000000000E+00 -0.00000000000E+00 -0.39741210736E+03  0.39741210736E+03  0.00000000000E+00 0. -1.
         23    2    1    2    0    0  0.18853292759E+03 -0.50046009319E+03  0.47958067233E+03  0.72394207257E+03  0.89941834014E+02 0.  0.
        254    2    1    2    0    0 -0.18853292759E+03  0.50046009319E+03  0.72275876822E+03  0.12732215827E+04  0.90150318467E+03 0.  0.
        -24    2    4    4    0    0  0.10252388162E+02 -0.32714416008E+02  0.69232658335E+03  0.69769745604E+03  0.79311396865E+02 0.  0.
         24    2    4    4    0    0 -0.19878531575E+03  0.53317450920E+03  0.30432184870E+02  0.57552412667E+03  0.80692276481E+02 0.  0.
         11    1    3    3    0    0  0.61695363679E+02 -0.23548890525E+03  0.26707699101E+03  0.36137440629E+03  0.00000000000E+00 0.  1.
        -11    1    3    3    0    0  0.12683756391E+03 -0.26497118794E+03  0.21250368132E+03  0.36256766628E+03  0.00000000000E+00 0. -1.
          2    1    6    6  502    0 -0.74991429855E+02  0.13074926364E+03 -0.17621761949E+02  0.15175510201E+03  0.00000000000E+00 0. -1.
          3    1    5    5  503    0 -0.43833238895E+01 -0.20559967228E+02  0.40837691250E+02  0.45930848102E+02  0.00000000000E+00 0. -1.
         -4    1    5    5    0  503  0.14635712052E+02 -0.12154448780E+02  0.65148889210E+03  0.65176660794E+03  0.00000000000E+00 0.  1.
         -1    1    6    6    0  502 -0.12379388589E+03  0.40242524556E+03  0.48053946819E+02  0.42376902465E+03  0.00000000000E+00 0.  1.
<mgrwt>
<rscale>  0 0.15946920E+04</rscale>
<asrwt>0</asrwt>
<pdfrwt beam="1">  1        2 0.24611562E+00 0.15946920E+04</pdfrwt>
<pdfrwt beam="2">  1       -2 0.61140325E-01 0.15946920E+04</pdfrwt>
<totfact> 0.26628231E+01</totfact>
</mgrwt>
</event>
<event>
12    1  0.1518126E-007  0.1484431E+04  0.7818608E-02  0.8894873E-01
         -1   -1    0    0    0  501 -0.00000000000E+00  0.00000000000E+00  0.86274275845E+03  0.86274275845E+03  0.00000000000E+00 0.  1.
          1   -1    0    0  501    0  0.00000000000E+00 -0.00000000000E+00 -0.63852590018E+03  0.63852590018E+03  0.00000000000E+00 0. -1.
         23    2    1    2    0    0  0.34090793830E+03 -0.15245398573E+03  0.34084079731E+03  0.51356023561E+03  0.90062346897E+02 0.  0.
        254    2    1    2    0    0 -0.34090793830E+03  0.15245398573E+03 -0.11662393904E+03  0.98770842302E+03  0.90692135579E+03 0.  0.
        -24    2    4    4    0    0 -0.21307879104E+03 -0.33291286092E+03  0.12824310839E+03  0.42320693245E+03  0.80151535633E+02 0.  0.
         24    2    4    4    0    0 -0.12782914726E+03  0.48536684665E+03 -0.24486704742E+03  0.56450149057E+03  0.82345584160E+02 0.  0.
         13    1    3    3    0    0  0.24660555461E+03 -0.10883868098E+03  0.18757696262E+03  0.32839804346E+03  0.00000000000E+00 0.  1.
        -13    1    3    3    0    0  0.94302383683E+02 -0.43615304746E+02  0.15326383469E+03  0.18516219214E+03  0.00000000000E+00 0. -1.
          4    1    6    6  502    0 -0.12177542719E+03  0.48661693836E+03 -0.23786773314E+03  0.55516336140E+03  0.00000000000E+00 0. -1.
          3    1    5    5  503    0 -0.19192860994E+03 -0.32880317114E+03  0.11416364692E+03  0.39746881002E+03  0.00000000000E+00 0. -1.
         -4    1    5    5    0  503 -0.21150181095E+02 -0.41096897843E+01  0.14079461473E+02  0.25738122423E+02  0.00000000000E+00 0.  1.
         -3    1    6    6    0  502 -0.60537200698E+01 -0.12500917189E+01 -0.69993142833E+01  0.93381291716E+01  0.00000000000E+00 0.  1.
<mgrwt>
<rscale>  0 0.14844307E+04</rscale>
<asrwt>0</asrwt>
<pdfrwt beam="1">  1        1 0.98234754E-01 0.14844307E+04</pdfrwt>
<pdfrwt beam="2">  1       -1 0.13272966E+00 0.14844307E+04</pdfrwt>
<totfact> 0.14573665E+01</totfact>
</mgrwt>
</event>
<event>
12    1  0.1518126E-007  0.1640217E+04  0.7818608E-02  0.8796215E-01
          2   -1    0    0  501    0  0.00000000000E+00  0.00000000000E+00  0.14193948415E+04  0.14193948415E+04  0.00000000000E+00 0. -1.
         -2   -1    0    0    0  501 -0.00000000000E+00 -0.00000000000E+00 -0.47384854222E+03  0.47384854222E+03  0.00000000000E+00 0.  1.
         23    2    1    2    0    0 -0.45408552290E+03 -0.31887130565E+03  0.20935658118E+03  0.60556872184E+03  0.12251827261E+03 0.  0.
        254    2    1    2    0    0  0.45408552290E+03  0.31887130565E+03  0.73618971811E+03  0.12876746619E+04  0.89903179152E+03 0.  0.
        -24    2    4    4    0    0  0.33417318356E+03 -0.23179545088E+03  0.85313117011E+02  0.42324229244E+03  0.80342159002E+02 0.  0.
         24    2    4    4    0    0  0.11991233934E+03  0.55066675652E+03  0.65087660109E+03  0.86443236945E+03  0.77395901975E+02 0.  0.
         11    1    3    3    0    0 -0.32247858574E+02 -0.18671342770E+02 -0.16432572798E+02  0.40725580072E+02  0.00000000000E+00 0. -1.
        -11    1    3    3    0    0 -0.42183766432E+03 -0.30019996288E+03  0.22578915398E+03  0.56484314177E+03  0.00000000000E+00 0.  1.
          2    1    6    6  502    0  0.10171547904E+03  0.51691413950E+03  0.62826531747E+03  0.81991681006E+03  0.00000000000E+00 0. -1.
          3    1    5    5  503    0  0.18230662375E+03 -0.15663491366E+03  0.18387338492E+02  0.24105662293E+03  0.00000000000E+00 0. -1.
         -4    1    5    5    0  503  0.15186655981E+03 -0.75160537216E+02  0.66925778519E+02  0.18218566951E+03  0.00000000000E+00 0.  1.
         -1    1    6    6    0  502  0.18196860295E+02  0.33752617024E+02  0.22611283623E+02  0.44515559388E+02  0.00000000000E+00 0.  1.
<mgrwt>
<rscale>  0 0.16402173E+04</rscale>
<asrwt>0</asrwt>
<pdfrwt beam="1">  1        2 0.21836843E+00 0.16402173E+04</pdfrwt>
<pdfrwt beam="2">  1       -2 0.72899777E-01 0.16402173E+04</pdfrwt>
<totfact> 0.22928483E+01</totfact>
</mgrwt>
</event>
<event>
12    1  0.1518126E-007  0.1548018E+04  0.7818608E-02  0.8853134E-01
         -2   -1    0    0    0  501 -0.00000000000E+00  0.00000000000E+00  0.26948095210E+03  0.26948095210E+03  0.00000000000E+00 0.  1.
          2   -1    0    0  501    0  0.00000000000E+00 -0.00000000000E+00 -0.22231265394E+04  0.22231265394E+04  0.00000000000E+00 0. -1.
         23    2    1    2    0    0 -0.85508020401E+02  0.34552993250E+03 -0.11601865980E+03  0.38569288188E+03  0.92715230169E+02 0.  0.
        254    2    1    2    0    0  0.85508020401E+02 -0.34552993250E+03 -0.18376269275E+04  0.21069146096E+04  0.96721967090E+03 0.  0.
        -24    2    4    4    0    0  0.35422131778E+03 -0.16308499734E+03 -0.16994610782E+04  0.17455147275E+04  0.81143387180E+02 0.  0.
         24    2    4    4    0    0 -0.26871329738E+03 -0.18244493515E+03 -0.13816584936E+03  0.36139988218E+03  0.77634285971E+02 0.  0.
         11    1    3    3    0    0  0.33702863741E+01  0.88447539666E+02 -0.62789950058E+02  0.10852144457E+03  0.00000000000E+00 0. -1.
        -11    1    3    3    0    0 -0.88878306775E+02  0.25708239283E+03 -0.53228709745E+02  0.27717143731E+03  0.00000000000E+00 0.  1.
          4    1    6    6  502    0 -0.59394392956E+02 -0.43813104928E+02  0.20512369058E+01  0.73834203801E+02  0.00000000000E+00 0. -1.
          1    1    5    5  503    0  0.96945706052E+02 -0.73893017687E+02 -0.64812988982E+03  0.65949298864E+03  0.00000000000E+00 0. -1.
         -2    1    5    5    0  503  0.25727561173E+03 -0.89191979658E+02 -0.10513311883E+04  0.10860217388E+04  0.00000000000E+00 0.  1.
         -3    1    6    6    0  502 -0.20931890442E+03 -0.13863183022E+03 -0.14021708626E+03  0.28756567838E+03  0.00000000000E+00 0.  1.
<mgrwt>
<rscale>  0 0.15480184E+04</rscale>
<asrwt>0</asrwt>
<pdfrwt beam="1">  1        2 0.34201947E+00 0.15480184E+04</pdfrwt>
<pdfrwt beam="2">  1       -2 0.41458608E-01 0.15480184E+04</pdfrwt>
<totfact> 0.26618518E+01</totfact>
</mgrwt>
</event>
<event>
12    1  0.1518126E-007  0.2708882E+04  0.7818608E-02  0.8332129E-01
          2   -1    0    0  501    0  0.00000000000E+00  0.00000000000E+00  0.19759805529E+04  0.19759805529E+04  0.00000000000E+00 0. -1.
         -2   -1    0    0    0  501 -0.00000000000E+00 -0.00000000000E+00 -0.92840497711E+03  0.92840497711E+03  0.00000000000E+00 0.  1.
         23    2    1    2    0    0 -0.32679812926E+03  0.10359925520E+04 -0.86715532442E+02  0.10932287166E+04  0.86901428243E+02 0.  0.
        254    2    1    2    0    0  0.32679812926E+03 -0.10359925520E+04  0.11342911082E+04  0.18111568134E+04  0.90199506617E+03 0.  0.
        -24    2    4    4    0    0  0.48335681660E+03 -0.25451278497E+03  0.21761093681E+03  0.59378418620E+03  0.82550409434E+02 0.  0.
         24    2    4    4    0    0 -0.15655868734E+03 -0.78147976702E+03  0.91668017140E+03  0.12173726272E+04  0.80450779356E+02 0.  0.
         13    1    3    3    0    0 -0.15743597064E+03  0.60706134631E+03 -0.78131011140E+02  0.63199210275E+03  0.00000000000E+00 0.  1.
        -13    1    3    3    0    0 -0.16936215862E+03  0.42893120567E+03 -0.85845213016E+01  0.46123661387E+03  0.00000000000E+00 0. -1.
          4    1    6    6  502    0 -0.17525006198E+02 -0.66911061540E+02  0.49021427860E+02  0.84778041898E+02  0.00000000000E+00 0. -1.
          1    1    5    5  503    0  0.34568622506E+02 -0.16446116883E+02  0.40613414074E+02  0.55811413037E+02  0.00000000000E+00 0. -1.
         -2    1    5    5    0  503  0.44878819410E+03 -0.23806666808E+03  0.17699752274E+03  0.53797277317E+03  0.00000000000E+00 0.  1.
         -3    1    6    6    0  502 -0.13903368115E+03 -0.71456870548E+03  0.86765874354E+03  0.11325945853E+04  0.00000000000E+00 0.  1.
<mgrwt>
<rscale>  0 0.27088818E+04</rscale>
<asrwt>0</asrwt>
<pdfrwt beam="1">  1        2 0.30399701E+00 0.27088818E+04</pdfrwt>
<pdfrwt beam="2">  1       -2 0.14283154E+00 0.27088818E+04</pdfrwt>
<totfact> 0.20591390E+00</totfact>
</mgrwt>
</event>
<event>
12    1  0.1518126E-007  0.2306818E+04  0.7818608E-02  0.8475238E-01
         -2   -1    0    0    0  501 -0.00000000000E+00  0.00000000000E+00  0.12201408790E+04  0.12201408790E+04  0.00000000000E+00 0.  1.
          2   -1    0    0  501    0  0.00000000000E+00 -0.00000000000E+00 -0.10903265308E+04  0.10903265308E+04  0.00000000000E+00 0. -1.
         23    2    1    2    0    0 -0.62340462418E+03 -0.28538835173E+03 -0.64276397800E+03  0.94407522292E+03  0.89736605580E+02 0.  0.
        254    2    1    2    0    0  0.62340462418E+03  0.28538835173E+03  0.77257832622E+03  0.13663921868E+04  0.89446660160E+03 0.  0.
        -24    2    4    4    0    0  0.57599122162E+03  0.37347234316E+03  0.93328720252E+03  0.11613939961E+04  0.81015635807E+02 0.  0.
         24    2    4    4    0    0  0.47413402557E+02 -0.88083991437E+02 -0.16070887629E+03  0.20499819077E+03  0.78677156861E+02 0.  0.
         11    1    3    3    0    0 -0.72437662728E+02 -0.17768318864E+02 -0.10620008102E+03  0.12977436321E+03  0.00000000000E+00 0.  1.
        -11    1    3    3    0    0 -0.55096696145E+03 -0.26762003286E+03 -0.53656389698E+03  0.81430085972E+03  0.00000000000E+00 0. -1.
          4    1    6    6  502    0  0.33456301140E+02 -0.10183514680E+03 -0.12897453838E+03  0.16770257231E+03  0.00000000000E+00 0. -1.
          3    1    5    5  503    0  0.33095741498E+03  0.20367674660E+03  0.46164077455E+03  0.60343121594E+03  0.00000000000E+00 0. -1.
         -4    1    5    5    0  503  0.24503380663E+03  0.16979559657E+03  0.47164642796E+03  0.55796278014E+03  0.00000000000E+00 0.  1.
         -3    1    6    6    0  502  0.13957101416E+02  0.13751155362E+02 -0.31734337908E+02  0.37295618459E+02  0.00000000000E+00 0.  1.
<mgrwt>
<rscale>  0 0.23068177E+04</rscale>
<asrwt>0</asrwt>
<pdfrwt beam="1">  1        2 0.16774254E+00 0.23068177E+04</pdfrwt>
<pdfrwt beam="2">  1       -2 0.18771398E+00 0.23068177E+04</pdfrwt>
<totfact> 0.32139231E+00</totfact>
</mgrwt>
</event>
<event>
12    1  0.1518126E-007  0.1522946E+04  0.7818608E-02  0.8869336E-01
         -2   -1    0    0    0  501 -0.00000000000E+00  0.00000000000E+00  0.36213146482E+03  0.36213146482E+03  0.00000000000E+00 0.  1.
          2   -1    0    0  501    0  0.00000000000E+00 -0.00000000000E+00 -0.16011895058E+04  0.16011895058E+04  0.00000000000E+00 0. -1.
         23    2    1    2    0    0 -0.12129957641E+03  0.26036924190E+03  0.11065396558E+03  0.32132735681E+03  0.92202173378E+02 0.  0.
        254    2    1    2    0    0  0.12129957641E+03 -0.26036924190E+03 -0.13497120066E+04  0.16419936138E+04  0.88989594773E+03 0.  0.
        -24    2    4    4    0    0  0.48320491052E+03 -0.21159749870E+03 -0.98255742414E+03  0.11179665588E+04  0.78547105664E+02 0.  0.
         24    2    4    4    0    0 -0.36190533411E+03 -0.48771743193E+02 -0.36715458244E+03  0.52402705506E+03  0.80297653930E+02 0.  0.
         13    1    3    3    0    0 -0.95377909144E+02  0.14508761989E+03  0.10525978993E+03  0.20304429658E+03  0.00000000000E+00 0.  1.
        -13    1    3    3    0    0 -0.25921667264E+02  0.11528162201E+03  0.53941756433E+01  0.11828306023E+03  0.00000000000E+00 0. -1.
          2    1    6    6  502    0 -0.18574044362E+02 -0.85284385069E+01 -0.53442871000E+02  0.57217740676E+02  0.00000000000E+00 0. -1.
          1    1    5    5  503    0  0.67478070162E+02 -0.55508895542E+02 -0.12899914985E+03  0.15580535324E+03  0.00000000000E+00 0. -1.
         -2    1    5    5    0  503  0.41572684036E+03 -0.15608860316E+03 -0.85355827429E+03  0.96216120553E+03  0.00000000000E+00 0.  1.
         -1    1    6    6    0  502 -0.34333128975E+03 -0.40243304686E+02 -0.31371171144E+03  0.46680931438E+03  0.00000000000E+00 0.  1.
<mgrwt>
<rscale>  0 0.15229460E+04</rscale>
<asrwt>0</asrwt>
<pdfrwt beam="1">  1        2 0.24633685E+00 0.15229460E+04</pdfrwt>
<pdfrwt beam="2">  1       -2 0.55712533E-01 0.15229460E+04</pdfrwt>
<totfact> 0.32500971E+01</totfact>
</mgrwt>
</event>
<event>
12    1  0.1518126E-007  0.2756684E+04  0.7818608E-02  0.8316844E-01
         -2   -1    0    0    0  501 -0.00000000000E+00  0.00000000000E+00  0.78899394379E+03  0.78899394379E+03  0.00000000000E+00 0.  1.
          2   -1    0    0  501    0  0.00000000000E+00 -0.00000000000E+00 -0.24079100824E+04  0.24079100824E+04  0.00000000000E+00 0. -1.
         23    2    1    2    0    0  0.68888002667E+03 -0.96874334542E+03 -0.10898860812E+04  0.16152616099E+04  0.90548540658E+02 0.  0.
        254    2    1    2    0    0 -0.68888002667E+03  0.96874334542E+03 -0.52903005740E+03  0.15816424162E+04  0.89927780504E+03 0.  0.
        -24    2    4    4    0    0 -0.11614695594E+03  0.82822966419E+03 -0.51705133601E+03  0.98656766865E+03  0.80741493206E+02 0.  0.
         24    2    4    4    0    0 -0.57273307073E+03  0.14051368123E+03 -0.11978721387E+02  0.59507474755E+03  0.78760399269E+02 0.  0.
         11    1    3    3    0    0  0.14184700423E+03 -0.24287792613E+03 -0.21906871525E+03  0.35651277903E+03  0.00000000000E+00 0. -1.
        -11    1    3    3    0    0  0.54703302244E+03 -0.72586541929E+03 -0.87081736591E+03  0.12587488309E+04  0.00000000000E+00 0.  1.
          2    1    6    6  502    0 -0.51983362557E+03  0.14746106285E+03 -0.21983459133E+02  0.54079112031E+03  0.00000000000E+00 0. -1.
          3    1    5    5  503    0 -0.96869805256E+02  0.78804737940E+03 -0.50273371168E+03  0.93975721131E+03  0.00000000000E+00 0. -1.
         -4    1    5    5    0  503 -0.19277150687E+02  0.40182284786E+02 -0.14317624338E+02  0.46810457335E+02  0.00000000000E+00 0.  1.
         -1    1    6    6    0  502 -0.52899445154E+02 -0.69473816237E+01  0.10004737746E+02  0.54283627241E+02  0.00000000000E+00 0.  1.
<mgrwt>
<rscale>  0 0.27566839E+04</rscale>
<asrwt>0</asrwt>
<pdfrwt beam="1">  1        2 0.37044770E+00 0.27566839E+04</pdfrwt>
<pdfrwt beam="2">  1       -2 0.12138369E+00 0.27566839E+04</pdfrwt>
<totfact> 0.17725577E+00</totfact>
</mgrwt>
</event>
<event>
12    1  0.1518126E-007  0.1374933E+04  0.7818608E-02  0.8972166E-01
         -2   -1    0    0    0  501 -0.00000000000E+00  0.00000000000E+00  0.28189493981E+03  0.28189493981E+03  0.00000000000E+00 0.  1.
          2   -1    0    0  501    0  0.00000000000E+00 -0.00000000000E+00 -0.16765481990E+04  0.16765481990E+04  0.00000000000E+00 0. -1.
         23    2    1    2    0    0  0.57021285082E+01  0.16801521295E+03  0.87286348730E+02  0.21063533716E+03  0.92123354998E+02 0.  0.
        254    2    1    2    0    0 -0.57021285082E+01 -0.16801521295E+03 -0.14819396079E+04  0.17478078017E+04  0.91127684263E+03 0.  0.
        -24    2    4    4    0    0  0.30943337487E+03  0.20025236180E+03 -0.95693371519E+03  0.10286770706E+04  0.81267204328E+02 0.  0.
         24    2    4    4    0    0 -0.31513550338E+03 -0.36826757475E+03 -0.52500589274E+03  0.71913073102E+03  0.81156815947E+02 0.  0.
         11    1    3    3    0    0 -0.96358845628E+01  0.88450896298E+02 -0.33783968399E+01  0.89038333837E+02  0.00000000000E+00 0. -1.
        -11    1    3    3    0    0  0.15338013071E+02  0.79564316649E+02  0.90664745569E+02  0.12159700333E+03  0.00000000000E+00 0.  1.
          4    1    6    6  502    0 -0.21367097708E+03 -0.26444482337E+03 -0.41789431436E+03  0.53872257149E+03  0.00000000000E+00 0. -1.
          1    1    5    5  503    0  0.10728560541E+03  0.76183418727E+02 -0.24247938072E+03  0.27588106947E+03  0.00000000000E+00 0. -1.
         -2    1    5    5    0  503  0.20214776946E+03  0.12406894308E+03 -0.71445433447E+03  0.75279600117E+03  0.00000000000E+00 0.  1.
         -3    1    6    6    0  502 -0.10146452630E+03 -0.10382275138E+03 -0.10711157838E+03  0.18040815953E+03  0.00000000000E+00 0.  1.
<mgrwt>
<rscale>  0 0.13749334E+04</rscale>
<asrwt>0</asrwt>
<pdfrwt beam="1">  1        2 0.25793050E+00 0.13749334E+04</pdfrwt>
<pdfrwt beam="2">  1       -2 0.43368451E-01 0.13749334E+04</pdfrwt>
<totfact> 0.49671709E+01</totfact>
</mgrwt>
</event>
<event>
12    1  0.1518126E-007  0.1729163E+04  0.7818608E-02  0.8744904E-01
          2   -1    0    0  501    0  0.00000000000E+00  0.00000000000E+00  0.10618897060E+04  0.10618897060E+04  0.00000000000E+00 0.  1.
         -2   -1    0    0    0  501 -0.00000000000E+00 -0.00000000000E+00 -0.70393492410E+03  0.70393492410E+03  0.00000000000E+00 0. -1.
         23    2    1    2    0    0 -0.48093671344E+03  0.41595854540E+03  0.22528678986E+03  0.68046575606E+03  0.89206914820E+02 0.  0.
        254    2    1    2    0    0  0.48093671344E+03 -0.41595854540E+03  0.13266799207E+03  0.10853588741E+04  0.86952944493E+03 0.  0.
        -24    2    4    4    0    0 -0.14387946949E+03 -0.31777353901E+03 -0.14957005827E+03  0.38823662327E+03  0.81701588010E+02 0.  0.
         24    2    4    4    0    0  0.62481618292E+03 -0.98185006391E+02  0.28223805034E+03  0.69712225080E+03  0.79281508472E+02 0.  0.
         13    1    3    3    0    0 -0.91511770688E+01  0.28864577726E+02  0.10209238737E+01  0.30297692563E+02  0.00000000000E+00 0.  1.
        -13    1    3    3    0    0 -0.47178553637E+03  0.38709396768E+03  0.22426586599E+03  0.65016806349E+03  0.00000000000E+00 0. -1.
          4    1    6    6  502    0  0.25885327397E+02  0.95197865640E+01  0.35598754716E+01  0.27809157198E+02  0.00000000000E+00 0. -1.
          3    1    5    5  503    0 -0.23579029823E+01  0.35895051795E+01 -0.90534609228E+01  0.10020449520E+02  0.00000000000E+00 0. -1.
         -4    1    5    5    0  503 -0.14152156650E+03 -0.32136304419E+03 -0.14051659734E+03  0.37821617375E+03  0.00000000000E+00 0.  1.
         -1    1    6    6    0  502  0.59893085553E+03 -0.10770479295E+03  0.27867817487E+03  0.66931309361E+03  0.00000000000E+00 0.  1.
<mgrwt>
<rscale>  0 0.17291631E+04</rscale>
<asrwt>0</asrwt>
<pdfrwt beam="1">  1        2 0.16336765E+00 0.17291631E+04</pdfrwt>
<pdfrwt beam="2">  1       -2 0.10829768E+00 0.17291631E+04</pdfrwt>
<totfact> 0.14906610E+01</totfact>
</mgrwt>
</event>
<event>
12    1  0.1518126E-007  0.2084848E+04  0.7818608E-02  0.8567948E-01
          2   -1    0    0  501    0  0.00000000000E+00  0.00000000000E+00  0.18223160187E+04  0.18223160187E+04  0.00000000000E+00 0. -1.
         -2   -1    0    0    0  501 -0.00000000000E+00 -0.00000000000E+00 -0.59630036466E+03  0.59630036466E+03  0.00000000000E+00 0.  1.
         23    2    1    2    0    0  0.64875033449E+03 -0.58046335600E+02 -0.12840767008E+03  0.66943175415E+03  0.86046325580E+02 0.  0.
        254    2    1    2    0    0 -0.64875033449E+03  0.58046335600E+02  0.13544233241E+04  0.17491846292E+04  0.89495136886E+03 0.  0.
        -24    2    4    4    0    0  0.35285176912E+02 -0.10746685613E+03 -0.71493576981E+02  0.15704702425E+03  0.82208682017E+02 0.  0.
         24    2    4    4    0    0 -0.68403551140E+03  0.16551319173E+03  0.14259169011E+04  0.15921376050E+04  0.79774349470E+02 0.  0.
         13    1    3    3    0    0  0.29252721102E+03 -0.35896061144E+02 -0.15666072445E+02  0.29513746326E+03  0.00000000000E+00 0. -1.
        -13    1    3    3    0    0  0.35622312347E+03 -0.22150274456E+02 -0.11274159764E+03  0.37429429088E+03  0.00000000000E+00 0.  1.
          2    1    6    6  502    0 -0.57685370878E+03  0.14819536725E+03  0.12626212116E+04  0.13960424034E+04  0.00000000000E+00 0. -1.
          1    1    5    5  503    0 -0.37448170292E+01 -0.97125274242E+02 -0.62873823731E+02  0.11576035704E+03  0.00000000000E+00 0. -1.
         -2    1    5    5    0  503  0.39029993942E+02 -0.10341581888E+02 -0.86197532495E+01  0.41286667208E+02  0.00000000000E+00 0.  1.
         -1    1    6    6    0  502 -0.10718180262E+03  0.17317824476E+02  0.16329568954E+03  0.19609520157E+03  0.00000000000E+00 0.  1.
<mgrwt>
<rscale>  0 0.20848479E+04</rscale>
<asrwt>0</asrwt>
<pdfrwt beam="1">  1        2 0.28035631E+00 0.20848479E+04</pdfrwt>
<pdfrwt beam="2">  1       -2 0.91738518E-01 0.20848479E+04</pdfrwt>
<totfact> 0.78228295E+00</totfact>
</mgrwt>
</event>
<event>
12    1  0.1518126E-007  0.1573061E+04  0.7818608E-02  0.8837270E-01
          2   -1    0    0  501    0  0.00000000000E+00  0.00000000000E+00  0.99875073510E+03  0.99875073510E+03  0.00000000000E+00 0. -1.
         -2   -1    0    0    0  501 -0.00000000000E+00 -0.00000000000E+00 -0.61940438494E+03  0.61940438494E+03  0.00000000000E+00 0.  1.
         23    2    1    2    0    0 -0.15829392118E+03  0.11880024048E+03  0.62691188817E+03  0.66388918529E+03  0.92519577373E+02 0.  0.
        254    2    1    2    0    0  0.15829392118E+03 -0.11880024048E+03 -0.24756553800E+03  0.95426593475E+03  0.90009128204E+03 0.  0.
        -24    2    4    4    0    0 -0.10804951755E+03 -0.10689523228E+03 -0.53049479607E+03  0.55749921837E+03  0.79242418510E+02 0.  0.
         24    2    4    4    0    0  0.26634343873E+03 -0.11905008198E+02  0.28292925807E+03  0.39676671639E+03  0.79336659773E+02 0.  0.
         13    1    3    3    0    0 -0.15942206193E+03  0.12476327546E+03  0.53890672674E+03  0.57567502018E+03  0.00000000000E+00 0. -1.
        -13    1    3    3    0    0  0.11281407476E+01 -0.59630349885E+01  0.88005161430E+02  0.88214165111E+02  0.00000000000E+00 0.  1.
          2    1    6    6  502    0  0.23996472664E+03  0.12516494507E+02  0.26047394289E+03  0.35438172581E+03  0.00000000000E+00 0. -1.
          1    1    5    5  503    0 -0.78462046510E+02 -0.10483082734E+03 -0.49068278995E+03  0.50785371462E+03  0.00000000000E+00 0. -1.
         -2    1    5    5    0  503 -0.29587471043E+02 -0.20644049427E+01 -0.39812006123E+02  0.49645503744E+02  0.00000000000E+00 0.  1.
         -1    1    6    6    0  502  0.26378712087E+02 -0.24421502706E+02  0.22455315185E+02  0.42384990573E+02  0.00000000000E+00 0.  1.
<mgrwt>
<rscale>  0 0.15730615E+04</rscale>
<asrwt>0</asrwt>
<pdfrwt beam="1">  1        2 0.15365396E+00 0.15730615E+04</pdfrwt>
<pdfrwt beam="2">  1       -2 0.95292983E-01 0.15730615E+04</pdfrwt>
<totfact> 0.22442287E+01</totfact>
</mgrwt>
</event>
<event>
12    1  0.1518126E-007  0.1212323E+04  0.7818608E-02  0.9102138E-01
          2   -1    0    0  501    0  0.00000000000E+00  0.00000000000E+00  0.15532636857E+04  0.15532636857E+04  0.00000000000E+00 0. -1.
         -2   -1    0    0    0  501 -0.00000000000E+00 -0.00000000000E+00 -0.23655454643E+03  0.23655454643E+03  0.00000000000E+00 0.  1.
         23    2    1    2    0    0  0.11122972245E+03 -0.23129597487E+03  0.36805807359E+03  0.45787060895E+03  0.91153002435E+02 0.  0.
        254    2    1    2    0    0 -0.11122972245E+03  0.23129597487E+03  0.94865106563E+03  0.13319476231E+04  0.89904157152E+03 0.  0.
        -24    2    4    4    0    0  0.31096739883E+03  0.45168190247E+02  0.76120756888E+03  0.82744217507E+03  0.80515226001E+02 0.  0.
         24    2    4    4    0    0 -0.42219712128E+03  0.18612778462E+03  0.18744349675E+03  0.50450544807E+03  0.80602240866E+02 0.  0.
         13    1    3    3    0    0  0.12466372165E+03 -0.20429767421E+03  0.30263691796E+03  0.38583375603E+03  0.00000000000E+00 0. -1.
        -13    1    3    3    0    0 -0.13433999202E+02 -0.26998300662E+02  0.65421155634E+02  0.72036852914E+02  0.00000000000E+00 0.  1.
          2    1    6    6  502    0 -0.25310878556E+03  0.11569783403E+03  0.70165247984E+02  0.28700733118E+03  0.00000000000E+00 0. -1.
          3    1    5    5  503    0  0.50285252292E+02  0.38416811715E+02  0.13428837699E+03  0.14845142712E+03  0.00000000000E+00 0. -1.
         -4    1    5    5    0  503  0.26068214654E+03  0.67513785317E+01  0.62691919190E+03  0.67899074795E+03  0.00000000000E+00 0.  1.
         -1    1    6    6    0  502 -0.16908833572E+03  0.70429950591E+02  0.11727824876E+03  0.21749811689E+03  0.00000000000E+00 0.  1.
<mgrwt>
<rscale>  0 0.12123227E+04</rscale>
<asrwt>0</asrwt>
<pdfrwt beam="1">  1        2 0.23896364E+00 0.12123227E+04</pdfrwt>
<pdfrwt beam="2">  1       -2 0.36393008E-01 0.12123227E+04</pdfrwt>
<totfact> 0.82968460E+01</totfact>
</mgrwt>
</event>
<event>
12    1  0.1518126E-007  0.1741177E+04  0.7818608E-02  0.8738222E-01
          1   -1    0    0  501    0  0.00000000000E+00  0.00000000000E+00  0.49764327597E+03  0.49764327597E+03  0.00000000000E+00 0. -1.
         -1   -1    0    0    0  501 -0.00000000000E+00 -0.00000000000E+00 -0.15230272635E+04  0.15230272635E+04  0.00000000000E+00 0.  1.
         23    2    1    2    0    0 -0.39605752896E+03 -0.49156591201E+03 -0.38088007660E+03  0.74280022872E+03  0.90465103430E+02 0.  0.
        254    2    1    2    0    0  0.39605752896E+03  0.49156591201E+03 -0.64450391096E+03  0.12778703108E+04  0.90502410347E+03 0.  0.
        -24    2    4    4    0    0  0.22583671684E+03  0.22906017905E+03 -0.83767536676E+03  0.90118833709E+03  0.83484193291E+02 0.  0.
         24    2    4    4    0    0  0.17022081212E+03  0.26250573296E+03  0.19317145580E+03  0.37668197370E+03  0.81790667331E+02 0.  0.
         11    1    3    3    0    0 -0.37446114139E+03 -0.42155939601E+03 -0.34708792224E+03  0.66212045470E+03  0.00000000000E+00 0.  1.
        -11    1    3    3    0    0 -0.21596387569E+02 -0.70006515999E+02 -0.33792154361E+02  0.80679774013E+02  0.00000000000E+00 0. -1.
          2    1    6    6  502    0  0.59923037086E+02  0.15824189339E+03  0.78913873694E+02  0.18670475800E+03  0.00000000000E+00 0. -1.
          3    1    5    5  503    0 -0.38634365247E+01  0.44010395513E+01 -0.25493704241E+01  0.63870635249E+01  0.00000000000E+00 0. -1.
         -4    1    5    5    0  503  0.22970015336E+03  0.22465913950E+03 -0.83512599633E+03  0.89480127356E+03  0.00000000000E+00 0.  1.
         -1    1    6    6    0  502  0.11029777503E+03  0.10426383957E+03  0.11425758211E+03  0.18997721570E+03  0.00000000000E+00 0.  1.
<mgrwt>
<rscale>  0 0.17411769E+04</rscale>
<asrwt>0</asrwt>
<pdfrwt beam="1">  1        1 0.76560504E-01 0.17411769E+04</pdfrwt>
<pdfrwt beam="2">  1       -1 0.23431189E+00 0.17411769E+04</pdfrwt>
<totfact> 0.37392429E+00</totfact>
</mgrwt>
</event>
<event>
12    1  0.1518126E-007  0.2163373E+04  0.7818608E-02  0.8533829E-01
          2   -1    0    0  501    0  0.00000000000E+00  0.00000000000E+00  0.24448748785E+04  0.24448748785E+04  0.00000000000E+00 0. -1.
         -2   -1    0    0    0  501 -0.00000000000E+00 -0.00000000000E+00 -0.47857092862E+03  0.47857092862E+03  0.00000000000E+00 0.  1.
         23    2    1    2    0    0  0.28083864306E+03 -0.62410485507E+03  0.42255420149E+02  0.69195940833E+03  0.92978969115E+02 0.  0.
        254    2    1    2    0    0 -0.28083864306E+03  0.62410485507E+03  0.19240485298E+04  0.22314863988E+04  0.89955077104E+03 0.  0.
        -24    2    4    4    0    0 -0.41736513423E+03 -0.11054905545E+02  0.45215333311E+03  0.62030725703E+03  0.77605349552E+02 0.  0.
         24    2    4    4    0    0  0.13652649117E+03  0.63515976061E+03  0.14718951967E+04  0.16111791418E+04  0.85763352976E+02 0.  0.
         11    1    3    3    0    0  0.14523777264E+03 -0.25116094414E+03 -0.17484165257E+02  0.29065705995E+03  0.00000000000E+00 0. -1.
        -11    1    3    3    0    0  0.13560087041E+03 -0.37294391093E+03  0.59739585406E+02  0.40130234838E+03  0.00000000000E+00 0.  1.
          4    1    6    6  502    0  0.13482434124E+03  0.62340791473E+03  0.14640351552E+04  0.15969389365E+04  0.00000000000E+00 0. -1.
          1    1    5    5  503    0 -0.39272741662E+03  0.57451914685E+01  0.43424584480E+03  0.58552308640E+03  0.00000000000E+00 0. -1.
         -2    1    5    5    0  503 -0.24637717611E+02 -0.16800097013E+02  0.17907488316E+02  0.34784170632E+02  0.00000000000E+00 0.  1.
         -3    1    6    6    0  502  0.17021499323E+01  0.11751845883E+02  0.78600414563E+01  0.14240205327E+02  0.00000000000E+00 0.  1.
<mgrwt>
<rscale>  0 0.21633733E+04</rscale>
<asrwt>0</asrwt>
<pdfrwt beam="1">  1        2 0.37613459E+00 0.21633733E+04</pdfrwt>
<pdfrwt beam="2">  1       -2 0.73626298E-01 0.21633733E+04</pdfrwt>
<totfact> 0.57139870E+00</totfact>
</mgrwt>
</event>
<event>
12    1  0.1518126E-007  0.1525948E+04  0.7818608E-02  0.8867379E-01
          2   -1    0    0  501    0  0.00000000000E+00  0.00000000000E+00  0.27846554733E+03  0.27846554733E+03  0.00000000000E+00 0.  1.
         -2   -1    0    0    0  501 -0.00000000000E+00 -0.00000000000E+00 -0.20904901608E+04  0.20904901608E+04  0.00000000000E+00 0. -1.
         23    2    1    2    0    0 -0.19672281742E+03 -0.37399464297E+03 -0.20341586429E+03  0.47734990248E+03  0.88955357811E+02 0.  0.
        254    2    1    2    0    0  0.19672281742E+03  0.37399464297E+03 -0.16086087492E+04  0.18916058057E+04  0.90109852748E+03 0.  0.
        -24    2    4    4    0    0 -0.28729326703E+03 -0.98290791375E+02 -0.53378137159E+03  0.61896184573E+03  0.77412614328E+02 0.  0.
         24    2    4    4    0    0  0.48401608445E+03  0.47228543435E+03 -0.10748273776E+04  0.12726439600E+04  0.83926489572E+02 0.  0.
         11    1    3    3    0    0 -0.21880002022E+02 -0.11796175190E+03 -0.76833724816E+02  0.14246799876E+03  0.00000000000E+00 0.  1.
        -11    1    3    3    0    0 -0.17484281539E+03 -0.25603289107E+03 -0.12658213948E+03  0.33488190372E+03  0.00000000000E+00 0. -1.
          4    1    6    6  502    0  0.44883167266E+03  0.40066529490E+03 -0.94857502652E+03  0.11232885337E+04  0.00000000000E+00 0. -1.
          1    1    5    5  503    0 -0.12949074628E+03 -0.62348344759E+01 -0.24648305512E+03  0.27849707897E+03  0.00000000000E+00 0. -1.
         -2    1    5    5    0  503 -0.15780252075E+03 -0.92055956899E+02 -0.28729831647E+03  0.34046476676E+03  0.00000000000E+00 0.  1.
         -3    1    6    6    0  502  0.35184411784E+02  0.71620139451E+02 -0.12625235109E+03  0.14935542629E+03  0.00000000000E+00 0.  1.
<mgrwt>
<rscale>  0 0.15259482E+04</rscale>
<asrwt>0</asrwt>
<pdfrwt beam="1">  1        2 0.42840854E-01 0.15259482E+04</pdfrwt>
<pdfrwt beam="2">  1       -2 0.32161387E+00 0.15259482E+04</pdfrwt>
<totfact> 0.27054936E+00</totfact>
</mgrwt>
</event>
<event>
12    1  0.1518126E-007  0.2256837E+04  0.7818608E-02  0.8495137E-01
         -1   -1    0    0    0  501 -0.00000000000E+00  0.00000000000E+00  0.16256987823E+04  0.16256987823E+04  0.00000000000E+00 0.  1.
          1   -1    0    0  501    0  0.00000000000E+00 -0.00000000000E+00 -0.78325003215E+03  0.78325003215E+03  0.00000000000E+00 0. -1.
         23    2    1    2    0    0 -0.63368988432E+03 -0.63283989455E+02 -0.39299164300E+03  0.75402598654E+03  0.92439299504E+02 0.  0.
        254    2    1    2    0    0  0.63368988432E+03  0.63283989455E+02  0.12354403931E+04  0.16549228279E+04  0.89826993076E+03 0.  0.
        -24    2    4    4    0    0 -0.17206335826E+03 -0.17022822422E+03  0.22286713628E+03  0.33748246174E+03  0.75107948797E+02 0.  0.
         24    2    4    4    0    0  0.80575324259E+03  0.23351221367E+03  0.10125732568E+04  0.13174403661E+04  0.81106571969E+02 0.  0.
         13    1    3    3    0    0 -0.39423828697E+03 -0.12353249891E+02 -0.28408034205E+03  0.48608442727E+03  0.00000000000E+00 0. -1.
        -13    1    3    3    0    0 -0.23945159736E+03 -0.50930739564E+02 -0.10891130094E+03  0.26794155927E+03  0.00000000000E+00 0.  1.
          4    1    6    6  502    0  0.31105003408E+03  0.49831256987E+02  0.38838523711E+03  0.50007836414E+03  0.00000000000E+00 0. -1.
          1    1    5    5  503    0 -0.75940135400E+02 -0.27320678444E+02  0.81082712169E+02  0.11440161646E+03  0.00000000000E+00 0. -1.
         -2    1    5    5    0  503 -0.96123222863E+02 -0.14290754577E+03  0.14178442412E+03  0.22308084529E+03  0.00000000000E+00 0.  1.
         -3    1    6    6    0  502  0.49470320851E+03  0.18368095669E+03  0.62418801973E+03  0.81736200201E+03  0.00000000000E+00 0.  1.
<mgrwt>
<rscale>  0 0.22568373E+04</rscale>
<asrwt>0</asrwt>
<pdfrwt beam="1">  1        1 0.12050001E+00 0.22568373E+04</pdfrwt>
<pdfrwt beam="2">  1       -1 0.25010750E+00 0.22568373E+04</pdfrwt>
<totfact> 0.14442794E+00</totfact>
</mgrwt>
</event>
<event>
12    1  0.1518126E-007  0.1489046E+04  0.7818608E-02  0.8891770E-01
          2   -1    0    0  501    0  0.00000000000E+00  0.00000000000E+00  0.35051352908E+04  0.35051352908E+04  0.00000000000E+00 0. -1.
         -2   -1    0    0    0  501 -0.00000000000E+00 -0.00000000000E+00 -0.15814359442E+03  0.15814359442E+03  0.00000000000E+00 0.  1.
         23    2    1    2    0    0  0.35108157843E+02  0.23306075289E+03  0.76664786759E+02  0.26459596172E+03  0.92647914974E+02 0.  0.
        254    2    1    2    0    0 -0.35108157843E+02 -0.23306075289E+03  0.32703269097E+04  0.33986829235E+04  0.89468297256E+03 0.  0.
        -24    2    4    4    0    0  0.25043605061E+02 -0.51753816607E+03  0.12395821774E+04  0.13458690090E+04  0.79539167391E+02 0.  0.
         24    2    4    4    0    0 -0.60151762904E+02  0.28447741318E+03  0.20307447322E+04  0.20528139146E+04  0.74667042600E+02 0.  0.
         13    1    3    3    0    0  0.39432953462E+02  0.96440178885E+02  0.74152669992E+02  0.12788387071E+03  0.00000000000E+00 0. -1.
        -13    1    3    3    0    0 -0.43247956193E+01  0.13662057400E+03  0.25121167677E+01  0.13671209101E+03  0.00000000000E+00 0.  1.
          2    1    6    6  502    0 -0.18527934176E+02  0.23335571000E+03  0.16138279596E+04  0.16307172824E+04  0.00000000000E+00 0. -1.
          1    1    5    5  503    0  0.23842283723E+02 -0.46202858552E+03  0.10313836764E+04  0.11303942482E+04  0.00000000000E+00 0. -1.
         -2    1    5    5    0  503  0.12013213382E+01 -0.55509580553E+02  0.20819850100E+03  0.21547476076E+03  0.00000000000E+00 0.  1.
         -1    1    6    6    0  502 -0.41623828728E+02  0.51121703180E+02  0.41691677258E+03  0.42209663219E+03  0.00000000000E+00 0.  1.
<mgrwt>
<rscale>  0 0.14890463E+04</rscale>
<asrwt>0</asrwt>
<pdfrwt beam="1">  1        2 0.53925153E+00 0.14890463E+04</pdfrwt>
<pdfrwt beam="2">  1       -2 0.24329786E-01 0.14890463E+04</pdfrwt>
<totfact> 0.11922301E+01</totfact>
</mgrwt>
</event>
<event>
12    1  0.1518126E-007  0.1347265E+04  0.7818608E-02  0.8992901E-01
         -2   -1    0    0    0  501 -0.00000000000E+00  0.00000000000E+00  0.16059438001E+04  0.16059438001E+04  0.00000000000E+00 0.  1.
          2   -1    0    0  501    0  0.00000000000E+00 -0.00000000000E+00 -0.28256327490E+03  0.28256327490E+03  0.00000000000E+00 0. -1.
         23    2    1    2    0    0 -0.40859072934E+01  0.36769195754E+03  0.49105146870E+03  0.62025333676E+03  0.91479979050E+02 0.  0.
        254    2    1    2    0    0  0.40859072934E+01 -0.36769195754E+03  0.83232905646E+03  0.12682537382E+04  0.88344881908E+03 0.  0.
        -24    2    4    4    0    0 -0.86064680452E+01 -0.22326591767E+03  0.10023579438E+04  0.10301103788E+04  0.80524553046E+02 0.  0.
         24    2    4    4    0    0  0.12692375339E+02 -0.14442603987E+03 -0.17002888733E+03  0.23814335944E+03  0.82355690347E+02 0.  0.
         13    1    3    3    0    0  0.22985513830E+02  0.25028313365E+03  0.27265375620E+03  0.37082347769E+03  0.00000000000E+00 0.  1.
        -13    1    3    3    0    0 -0.27071421123E+02  0.11740882389E+03  0.21839771250E+03  0.24942985906E+03  0.00000000000E+00 0. -1.
          2    1    6    6  502    0  0.36358993677E+02 -0.46182550562E+02 -0.31540013967E+02  0.66705148816E+02  0.00000000000E+00 0. -1.
          3    1    5    5  503    0  0.21050873353E+02 -0.19586178158E+03  0.84427025790E+03  0.86694708324E+03  0.00000000000E+00 0. -1.
         -4    1    5    5    0  503 -0.29657341398E+02 -0.27404136094E+02  0.15808768589E+03  0.16316329551E+03  0.00000000000E+00 0.  1.
         -1    1    6    6    0  502 -0.23666618338E+02 -0.98243489309E+02 -0.13848887337E+03  0.17143821062E+03  0.00000000000E+00 0.  1.
<mgrwt>
<rscale>  0 0.13472650E+04</rscale>
<asrwt>0</asrwt>
<pdfrwt beam="1">  1        2 0.43471274E-01 0.13472650E+04</pdfrwt>
<pdfrwt beam="2">  1       -2 0.24706827E+00 0.13472650E+04</pdfrwt>
<totfact> 0.76918581E+00</totfact>
</mgrwt>
</event>
<event>
12    1  0.1518126E-007  0.2835201E+04  0.7818608E-02  0.8292422E-01
          1   -1    0    0  501    0  0.00000000000E+00  0.00000000000E+00  0.34312668061E+04  0.34312668061E+04  0.00000000000E+00 0. -1.
         -1   -1    0    0    0  501 -0.00000000000E+00 -0.00000000000E+00 -0.58567051707E+03  0.58567051707E+03  0.00000000000E+00 0.  1.
         23    2    1    2    0    0 -0.12468354762E+04 -0.23893535297E+03  0.14119893934E+04  0.19010247933E+04  0.92154274454E+02 0.  0.
        254    2    1    2    0    0  0.12468354762E+04  0.23893535297E+03  0.14336068956E+04  0.21159125298E+04  0.90009349232E+03 0.  0.
        -24    2    4    4    0    0  0.52702499289E+03  0.40787258737E+03  0.11267690147E+04  0.13115516698E+04  0.80274400162E+02 0.  0.
         24    2    4    4    0    0  0.71981048332E+03 -0.16893723440E+03  0.30683788093E+03  0.80436086003E+03  0.78612892756E+02 0.  0.
         13    1    3    3    0    0 -0.11260023884E+04 -0.21380391903E+03  0.13126224446E+04  0.17425760175E+04  0.00000000000E+00 0.  1.
        -13    1    3    3    0    0 -0.12083308777E+03 -0.25131433939E+02  0.99366948770E+02  0.15844877589E+03  0.00000000000E+00 0. -1.
          4    1    6    6  502    0  0.12014028312E+03 -0.58189738872E+02  0.47399621869E+02  0.14165612409E+03  0.00000000000E+00 0. -1.
          1    1    5    5  503    0  0.97423945873E+02  0.61302333868E+02  0.14362195534E+03  0.18405615290E+03  0.00000000000E+00 0. -1.
         -2    1    5    5    0  503  0.42960104702E+03  0.34657025351E+03  0.98314705937E+03  0.11274955169E+04  0.00000000000E+00 0.  1.
         -3    1    6    6    0  502  0.59967020020E+03 -0.11074749553E+03  0.25943825906E+03  0.66270473594E+03  0.00000000000E+00 0.  1.
<mgrwt>
<rscale>  0 0.28352014E+04</rscale>
<asrwt>0</asrwt>
<pdfrwt beam="1">  1        1 0.52788719E+00 0.28352014E+04</pdfrwt>
<pdfrwt beam="2">  1       -1 0.90103158E-01 0.28352014E+04</pdfrwt>
<totfact> 0.29407923E-01</totfact>
</mgrwt>
</event>
<event>
12    1  0.1518126E-007  0.1851104E+04  0.7818608E-02  0.8679585E-01
          2   -1    0    0  501    0  0.00000000000E+00  0.00000000000E+00  0.77830817182E+03  0.77830817182E+03  0.00000000000E+00 0. -1.
         -2   -1    0    0    0  501 -0.00000000000E+00 -0.00000000000E+00 -0.11006520860E+04  0.11006520860E+04  0.00000000000E+00 0.  1.
         23    2    1    2    0    0 -0.19716029534E+03 -0.66144901848E+03 -0.38519854077E+03  0.79480531464E+03  0.83370176105E+02 0.  0.
        254    2    1    2    0    0  0.19716029534E+03  0.66144901848E+03  0.62854626579E+02  0.10841549432E+04  0.83369913677E+03 0.  0.
        -24    2    4    4    0    0 -0.26840136926E+03  0.45439892273E+02  0.11658108087E+03  0.30607839333E+03  0.77387050727E+02 0.  0.
         24    2    4    4    0    0  0.46556166460E+03  0.61600912621E+03 -0.53726454291E+02  0.77807654986E+03  0.79383111725E+02 0.  0.
         11    1    3    3    0    0 -0.54755104442E+02 -0.32832984600E+03 -0.17844836578E+03  0.37768032579E+03  0.00000000000E+00 0. -1.
        -11    1    3    3    0    0 -0.14240519090E+03 -0.33311917249E+03 -0.20675017499E+03  0.41712498886E+03  0.00000000000E+00 0.  1.
          4    1    6    6  502    0  0.39370526904E+03  0.52016569729E+03 -0.74138585024E+02  0.65656128525E+03  0.00000000000E+00 0. -1.
          3    1    5    5  503    0 -0.18153308045E+03 -0.50765056522E+01  0.86717169117E+02  0.20124586363E+03  0.00000000000E+00 0. -1.
         -4    1    5    5    0  503 -0.86868288806E+02  0.50516397925E+02  0.29863911753E+02  0.10483252971E+03  0.00000000000E+00 0.  1.
         -3    1    6    6    0  502  0.71856395561E+02  0.95843428922E+02  0.20412130733E+02  0.12151526460E+03  0.00000000000E+00 0.  1.
<mgrwt>
<rscale>  0 0.18511040E+04</rscale>
<asrwt>0</asrwt>
<pdfrwt beam="1">  1        2 0.11973972E+00 0.18511040E+04</pdfrwt>
<pdfrwt beam="2">  1       -2 0.16933109E+00 0.18511040E+04</pdfrwt>
<totfact> 0.72341615E+00</totfact>
</mgrwt>
</event>
<event>
12    1  0.1518126E-007  0.2221664E+04  0.7818608E-02  0.8509465E-01
          1   -1    0    0  501    0  0.00000000000E+00  0.00000000000E+00  0.21102953725E+04  0.21102953725E+04  0.00000000000E+00 0. -1.
         -1   -1    0    0    0  501 -0.00000000000E+00 -0.00000000000E+00 -0.58472733557E+03  0.58472733557E+03  0.00000000000E+00 0.  1.
         23    2    1    2    0    0  0.50347611240E+03  0.75449885921E+03  0.85263953035E+03  0.12483664560E+04  0.93101640786E+02 0.  0.
        254    2    1    2    0    0 -0.50347611240E+03 -0.75449885921E+03  0.67292850658E+03  0.14466562520E+04  0.90400487406E+03 0.  0.
        -24    2    4    4    0    0 -0.40192543983E+03 -0.32160630878E+01 -0.28940307962E+02  0.41035321414E+03  0.77445572375E+02 0.  0.
         24    2    4    4    0    0 -0.10155067257E+03 -0.75128279612E+03  0.70186881454E+03  0.10363030379E+04  0.81029468173E+02 0.  0.
         13    1    3    3    0    0  0.38453635981E+03  0.52653275145E+03  0.56716699879E+03  0.86416627734E+03  0.00000000000E+00 0.  1.
        -13    1    3    3    0    0  0.11893975259E+03  0.22796610775E+03  0.28547253156E+03  0.38420017869E+03  0.00000000000E+00 0. -1.
          4    1    6    6  502    0  0.11443650012E+01 -0.50510928368E+02  0.24021505516E+02  0.55943687608E+02  0.00000000000E+00 0. -1.
          1    1    5    5  503    0 -0.24580718857E+02  0.13935251745E+02 -0.15837304942E+02  0.32391715122E+02  0.00000000000E+00 0. -1.
         -4    1    5    5    0  503 -0.37734472098E+03 -0.17151314833E+02 -0.13103003020E+02  0.37796149902E+03  0.00000000000E+00 0.  1.
         -3    1    6    6    0  502 -0.10269503757E+03 -0.70077186775E+03  0.67784730902E+03  0.98035935030E+03  0.00000000000E+00 0.  1.
<mgrwt>
<rscale>  0 0.22216637E+04</rscale>
<asrwt>0</asrwt>
<pdfrwt beam="1">  1        1 0.32466082E+00 0.22216637E+04</pdfrwt>
<pdfrwt beam="2">  1       -1 0.89958053E-01 0.22216637E+04</pdfrwt>
<totfact> 0.27588631E+00</totfact>
</mgrwt>
</event>
<event>
12    1  0.1518126E-007  0.1314143E+04  0.7818608E-02  0.9018424E-01
         -2   -1    0    0    0  501 -0.00000000000E+00  0.00000000000E+00  0.12004763067E+03  0.12004763067E+03  0.00000000000E+00 0.  1.
          2   -1    0    0  501    0  0.00000000000E+00 -0.00000000000E+00 -0.35964328437E+04  0.35964328437E+04  0.00000000000E+00 0. -1.
         23    2    1    2    0    0 -0.28042769502E+02 -0.32847430547E+03 -0.71672967300E+03  0.79421852925E+03  0.91650868953E+02 0.  0.
        254    2    1    2    0    0  0.28042769502E+02  0.32847430547E+03 -0.27596555400E+04  0.29222619451E+04  0.90290332258E+03 0.  0.
        -24    2    4    4    0    0  0.43226384134E+03  0.32572741559E+03 -0.14685168801E+04  0.15669763838E+04  0.76959615572E+02 0.  0.
         24    2    4    4    0    0 -0.40422107184E+03  0.27468898875E+01 -0.12911386599E+04  0.13552855613E+04  0.79735144223E+02 0.  0.
         11    1    3    3    0    0  0.20334328791E+02 -0.16602770154E+02 -0.46450760009E+02  0.53355505898E+02  0.00000000000E+00 0. -1.
        -11    1    3    3    0    0 -0.48377098293E+02 -0.31187153532E+03 -0.67027891299E+03  0.74086302336E+03  0.00000000000E+00 0.  1.
          2    1    6    6  502    0 -0.24068504042E+03 -0.36346790050E+02 -0.73185003637E+03  0.77126834083E+03  0.00000000000E+00 0. -1.
          3    1    5    5  503    0  0.12719403448E+03  0.13868248012E+03 -0.46982579772E+03  0.50611009959E+03  0.00000000000E+00 0. -1.
         -4    1    5    5    0  503  0.30506980686E+03  0.18704493547E+03 -0.99869108234E+03  0.10608662842E+04  0.00000000000E+00 0.  1.
         -1    1    6    6    0  502 -0.16353603142E+03  0.39093679938E+02 -0.55928862356E+03  0.58401722049E+03  0.00000000000E+00 0.  1.
<mgrwt>
<rscale>  0 0.13141434E+04</rscale>
<asrwt>0</asrwt>
<pdfrwt beam="1">  1        2 0.55329733E+00 0.13141434E+04</pdfrwt>
<pdfrwt beam="2">  1       -2 0.18468867E-01 0.13141434E+04</pdfrwt>
<totfact> 0.17089337E+01</totfact>
</mgrwt>
</event>
<event>
12    1  0.1518126E-007  0.2895757E+04  0.7818608E-02  0.8274141E-01
          2   -1    0    0  501    0  0.00000000000E+00  0.00000000000E+00  0.82592859773E+03  0.82592859773E+03  0.00000000000E+00 0. -1.
         -2   -1    0    0    0  501 -0.00000000000E+00 -0.00000000000E+00 -0.25381752080E+04  0.25381752080E+04  0.00000000000E+00 0.  1.
         23    2    1    2    0    0  0.40004259698E+03 -0.75886863079E+03 -0.19207920164E+04  0.21056054561E+04  0.90645951436E+02 0.  0.
        254    2    1    2    0    0 -0.40004259698E+03  0.75886863079E+03  0.20854540615E+03  0.12584983496E+04  0.89688975422E+03 0.  0.
        -24    2    4    4    0    0  0.69671202845E+02 -0.43072898579E+01  0.33367985041E+03  0.35020119353E+03  0.80162361078E+02 0.  0.
         24    2    4    4    0    0 -0.46971379982E+03  0.76317592065E+03 -0.12513444426E+03  0.90829715602E+03  0.79224711397E+02 0.  0.
         11    1    3    3    0    0  0.37712365927E+03 -0.70644311326E+03 -0.18389434619E+04  0.20057410557E+04  0.00000000000E+00 0.  1.
        -11    1    3    3    0    0  0.22918937703E+02 -0.52425517535E+02 -0.81848554514E+02  0.99864400415E+02  0.00000000000E+00 0. -1.
          2    1    6    6  502    0 -0.65664992202E+02  0.15554382031E+03 -0.41102829805E+02  0.17376770084E+03  0.00000000000E+00 0. -1.
          3    1    5    5  503    0 -0.41945267446E+01 -0.25293713529E+02  0.13049955524E+03  0.13299436046E+03  0.00000000000E+00 0. -1.
         -4    1    5    5    0  503  0.73865729590E+02  0.20986423672E+02  0.20318029517E+03  0.21720683307E+03  0.00000000000E+00 0.  1.
         -1    1    6    6    0  502 -0.40404880762E+03  0.60763210035E+03 -0.84031614454E+02  0.73452945519E+03  0.00000000000E+00 0.  1.
<mgrwt>
<rscale>  0 0.28957565E+04</rscale>
<asrwt>0</asrwt>
<pdfrwt beam="1">  1        2 0.12706594E+00 0.28957565E+04</pdfrwt>
<pdfrwt beam="2">  1       -2 0.39048849E+00 0.28957565E+04</pdfrwt>
<totfact> 0.24385105E-01</totfact>
</mgrwt>
</event>
<event>
12    1  0.1518126E-007  0.1571162E+04  0.7818608E-02  0.8838463E-01
          1   -1    0    0  501    0  0.00000000000E+00  0.00000000000E+00  0.75469090655E+03  0.75469090655E+03  0.00000000000E+00 0. -1.
         -1   -1    0    0    0  501 -0.00000000000E+00 -0.00000000000E+00 -0.81773550146E+03  0.81773550146E+03  0.00000000000E+00 0.  1.
         23    2    1    2    0    0  0.35461366828E+03 -0.45622974734E+02  0.36351800588E+03  0.51807867334E+03  0.91803385626E+02 0.  0.
        254    2    1    2    0    0 -0.35461366828E+03  0.45622974734E+02 -0.42656260079E+03  0.10543477347E+04  0.89546701987E+03 0.  0.
        -24    2    4    4    0    0 -0.63089629000E+03  0.15643971922E+03 -0.31468831462E+03  0.72635060345E+03  0.77800702338E+02 0.  0.
         24    2    4    4    0    0  0.27628262172E+03 -0.11081674448E+03 -0.11187428617E+03  0.32799713123E+03  0.80335697338E+02 0.  0.
         13    1    3    3    0    0  0.32003355365E+03 -0.11317790770E+02  0.32103199530E+03  0.45344361265E+03  0.00000000000E+00 0. -1.
        -13    1    3    3    0    0  0.34580114638E+02 -0.34305183964E+02  0.42486010579E+02  0.64635060688E+02  0.00000000000E+00 0.  1.
          4    1    6    6  502    0  0.27257565044E+03 -0.10292042303E+03 -0.12089800580E+03  0.31544639243E+03  0.00000000000E+00 0. -1.
          3    1    5    5  503    0 -0.24747452017E+03  0.52911008845E+02 -0.81840782707E+02  0.26597204121E+03  0.00000000000E+00 0. -1.
         -4    1    5    5    0  503 -0.38342176984E+03  0.10352871037E+03 -0.23284753191E+03  0.46037856224E+03  0.00000000000E+00 0.  1.
         -3    1    6    6    0  502  0.37069712777E+01 -0.78963214562E+01  0.90237196263E+01  0.12550738802E+02  0.00000000000E+00 0.  1.
<mgrwt>
<rscale>  0 0.15711621E+04</rscale>
<asrwt>0</asrwt>
<pdfrwt beam="1">  1        1 0.11610629E+00 0.15711621E+04</pdfrwt>
<pdfrwt beam="2">  1       -1 0.12580546E+00 0.15711621E+04</pdfrwt>
<totfact> 0.12850663E+01</totfact>
</mgrwt>
</event>
<event>
12    1  0.1518126E-007  0.1469519E+04  0.7818608E-02  0.8904980E-01
         -1   -1    0    0    0  501 -0.00000000000E+00  0.00000000000E+00  0.35141425924E+03  0.35141425924E+03  0.00000000000E+00 0.  1.
          1   -1    0    0  501    0  0.00000000000E+00 -0.00000000000E+00 -0.15362816427E+04  0.15362816427E+04  0.00000000000E+00 0. -1.
         23    2    1    2    0    0 -0.44074511441E+03  0.12958718274E+03 -0.45536776525E+03  0.65242216536E+03  0.85122185264E+02 0.  0.
        254    2    1    2    0    0  0.44074511441E+03 -0.12958718274E+03 -0.72949961818E+03  0.12352737365E+04  0.88469340308E+03 0.  0.
        -24    2    4    4    0    0 -0.25483626579E+03  0.51637470436E+02 -0.23655762923E+03  0.36005525930E+03  0.77925137729E+02 0.  0.
         24    2    4    4    0    0  0.69558138020E+03 -0.18122465318E+03 -0.49294198895E+03  0.87521847724E+03  0.79622528458E+02 0.  0.
         11    1    3    3    0    0 -0.29102192765E+03  0.85661904711E+02 -0.35467978366E+03  0.46672205136E+03  0.00000000000E+00 0.  1.
        -11    1    3    3    0    0 -0.14972318676E+03  0.43925278028E+02 -0.10068798159E+03  0.18570011400E+03  0.00000000000E+00 0. -1.
          4    1    6    6  502    0  0.61607322775E+03 -0.15754355356E+03 -0.40292987829E+03  0.75280719977E+03  0.00000000000E+00 0. -1.
          3    1    5    5  503    0 -0.25397556046E+03  0.38427345332E+02 -0.23178395033E+03  0.34598272473E+03  0.00000000000E+00 0. -1.
         -4    1    5    5    0  503 -0.86070532364E+00  0.13210125104E+02 -0.47736788934E+01  0.14072534565E+02  0.00000000000E+00 0.  1.
         -3    1    6    6    0  502  0.79508152449E+02 -0.23681099612E+02 -0.90012110663E+02  0.12241127747E+03  0.00000000000E+00 0.  1.
<mgrwt>
<rscale>  0 0.14695187E+04</rscale>
<asrwt>0</asrwt>
<pdfrwt beam="1">  1        1 0.23635102E+00 0.14695187E+04</pdfrwt>
<pdfrwt beam="2">  1       -1 0.54063733E-01 0.14695187E+04</pdfrwt>
<totfact> 0.20679511E+01</totfact>
</mgrwt>
</event>
<event>
12    1  0.1518126E-007  0.2610991E+04  0.7818608E-02  0.8364477E-01
         -2   -1    0    0    0  501 -0.00000000000E+00  0.00000000000E+00  0.44387600550E+03  0.44387600550E+03  0.00000000000E+00 0.  1.
          2   -1    0    0  501    0  0.00000000000E+00 -0.00000000000E+00 -0.38396287304E+04  0.38396287304E+04  0.00000000000E+00 0. -1.
         23    2    1    2    0    0  0.63719545205E+03  0.27385020713E+03 -0.30408470584E+04  0.31202756611E+04  0.91418753579E+02 0.  0.
        254    2    1    2    0    0 -0.63719545205E+03 -0.27385020713E+03 -0.35490566653E+03  0.11632290748E+04  0.86378924997E+03 0.  0.
        -24    2    4    4    0    0 -0.41455597608E+03 -0.29270479538E+03  0.20661395631E+03  0.55368467422E+03  0.79653229600E+02 0.  0.
         24    2    4    4    0    0 -0.22263947597E+03  0.18854588248E+02 -0.56151962284E+03  0.60954440062E+03  0.79474887438E+02 0.  0.
         13    1    3    3    0    0  0.63751407008E+03  0.27779888618E+03 -0.30281860924E+04  0.31070094015E+04  0.00000000000E+00 0. -1.
        -13    1    3    3    0    0 -0.31861802787E+00 -0.39486790457E+01 -0.12660965964E+02  0.13266259563E+02  0.00000000000E+00 0.  1.
          4    1    6    6  502    0 -0.28261656657E+02 -0.55280280432E+00 -0.22216098674E+02  0.35952494604E+02  0.00000000000E+00 0. -1.
          3    1    5    5  503    0 -0.20743984027E+03 -0.17429425811E+03  0.14490643977E+03  0.30725828228E+03  0.00000000000E+00 0. -1.
         -4    1    5    5    0  503 -0.20711613581E+03 -0.11841053727E+03  0.61707516538E+02  0.24642639194E+03  0.00000000000E+00 0.  1.
         -3    1    6    6    0  502 -0.19437781931E+03  0.19407391052E+02 -0.53930352417E+03  0.57359190602E+03  0.00000000000E+00 0.  1.
<mgrwt>
<rscale>  0 0.26109914E+04</rscale>
<asrwt>0</asrwt>
<pdfrwt beam="1">  1        2 0.59071213E+00 0.26109914E+04</pdfrwt>
<pdfrwt beam="2">  1       -2 0.68288614E-01 0.26109914E+04</pdfrwt>
<totfact> 0.79545325E-01</totfact>
</mgrwt>
</event>
<event>
12    1  0.1518126E-007  0.1790278E+04  0.7818608E-02  0.8711487E-01
         -1   -1    0    0    0  501 -0.00000000000E+00  0.00000000000E+00  0.66132405966E+03  0.66132405966E+03  0.00000000000E+00 0.  1.
          1   -1    0    0  501    0  0.00000000000E+00 -0.00000000000E+00 -0.12116207470E+04  0.12116207470E+04  0.00000000000E+00 0. -1.
         23    2    1    2    0    0 -0.26460615829E+03  0.43735236181E+03  0.24863692788E+03  0.57307128253E+03  0.72779568349E+02 0.  0.
        254    2    1    2    0    0  0.26460615829E+03 -0.43735236181E+03 -0.79893361518E+03  0.12998735241E+04  0.88886599089E+03 0.  0.
        -24    2    4    4    0    0  0.37037701630E+03 -0.49904248984E+03 -0.91845630222E+03  0.11117009329E+04  0.78066921616E+02 0.  0.
         24    2    4    4    0    0 -0.10577085802E+03  0.61690128031E+02  0.11952268704E+03  0.18817259118E+03  0.78294987404E+02 0.  0.
         11    1    3    3    0    0 -0.89742205428E+01  0.52495825407E+02  0.37239145017E+02  0.64985400215E+02  0.00000000000E+00 0. -1.
        -11    1    3    3    0    0 -0.25563193774E+03  0.38485653641E+03  0.21139778286E+03  0.50808588231E+03  0.00000000000E+00 0.  1.
          4    1    6    6  502    0  0.17915041441E+01  0.12614639616E+02  0.48733130153E+02  0.50371188136E+02  0.00000000000E+00 0. -1.
          1    1    5    5  503    0  0.35861239405E+03 -0.49119110986E+03 -0.91192975922E+03  0.10961238257E+04  0.00000000000E+00 0. -1.
         -2    1    5    5    0  503  0.11764622260E+02 -0.78513799793E+01 -0.65265430041E+01  0.15577107179E+02  0.00000000000E+00 0.  1.
         -3    1    6    6    0  502 -0.10756236216E+03  0.49075488415E+02  0.70789556887E+02  0.13780140305E+03  0.00000000000E+00 0.  1.
<mgrwt>
<rscale>  0 0.17902781E+04</rscale>
<asrwt>0</asrwt>
<pdfrwt beam="1">  1        1 0.18640319E+00 0.17902781E+04</pdfrwt>
<pdfrwt beam="2">  1       -1 0.10174216E+00 0.17902781E+04</pdfrwt>
<totfact> 0.90653078E+00</totfact>
</mgrwt>
</event>
<event>
12    1  0.1518126E-007  0.1661299E+04  0.7818608E-02  0.8783750E-01
         -2   -1    0    0    0  501 -0.00000000000E+00  0.00000000000E+00  0.80895542991E+03  0.80895542991E+03  0.00000000000E+00 0.  1.
          2   -1    0    0  501    0  0.00000000000E+00 -0.00000000000E+00 -0.85292557702E+03  0.85292557702E+03  0.00000000000E+00 0. -1.
         23    2    1    2    0    0 -0.22259562662E+03  0.51486939806E+03  0.13954747720E+03  0.58428908180E+03  0.85328322829E+02 0.  0.
        254    2    1    2    0    0  0.22259562662E+03 -0.51486939806E+03 -0.18351762431E+03  0.10775919251E+04  0.90160208995E+03 0.  0.
        -24    2    4    4    0    0  0.55966100568E+03 -0.22752978782E+03 -0.14044666125E+03  0.62571536000E+03  0.82487583690E+02 0.  0.
         24    2    4    4    0    0 -0.33706537906E+03 -0.28733961024E+03 -0.43070963064E+02  0.45187656512E+03  0.78486947158E+02 0.  0.
         13    1    3    3    0    0 -0.51603238683E+01  0.12706780447E+02 -0.10038618441E+02  0.16996031065E+02  0.00000000000E+00 0. -1.
        -13    1    3    3    0    0 -0.21743530275E+03  0.50216261761E+03  0.14958609564E+03  0.56729305074E+03  0.00000000000E+00 0.  1.
          2    1    6    6  502    0 -0.20752085711E+03 -0.18189326906E+03  0.11388127167E+02  0.27618790145E+03  0.00000000000E+00 0. -1.
          1    1    5    5  503    0  0.49649431569E+03 -0.18978221308E+03 -0.97145019177E+02  0.54033420090E+03  0.00000000000E+00 0. -1.
         -2    1    5    5    0  503  0.63166689987E+02 -0.37747574739E+02 -0.43301642072E+02  0.85381159097E+02  0.00000000000E+00 0.  1.
         -1    1    6    6    0  502 -0.12954452194E+03 -0.10544634117E+03 -0.54459090231E+02  0.17568866367E+03  0.00000000000E+00 0.  1.
<mgrwt>
<rscale>  0 0.16612992E+04</rscale>
<asrwt>0</asrwt>
<pdfrwt beam="1">  1        2 0.13121932E+00 0.16612992E+04</pdfrwt>
<pdfrwt beam="2">  1       -2 0.12445468E+00 0.16612992E+04</pdfrwt>
<totfact> 0.14614815E+01</totfact>
</mgrwt>
</event>
<event>
12    1  0.1518126E-007  0.1478469E+04  0.7818608E-02  0.8898899E-01
          2   -1    0    0  501    0  0.00000000000E+00  0.00000000000E+00  0.21121822272E+04  0.21121822272E+04  0.00000000000E+00 0. -1.
         -2   -1    0    0    0  501 -0.00000000000E+00 -0.00000000000E+00 -0.25872171964E+03  0.25872171964E+03  0.00000000000E+00 0.  1.
         23    2    1    2    0    0  0.45095066000E+03  0.85915798154E+02  0.64172535741E+03  0.79488007429E+03  0.96358061584E+02 0.  0.
        254    2    1    2    0    0 -0.45095066000E+03 -0.85915798154E+02  0.12117351501E+04  0.15760238725E+04  0.89711267443E+03 0.  0.
        -24    2    4    4    0    0 -0.59503466858E+03  0.12491755364E+03  0.42733959397E+03  0.74738686500E+03  0.79355814999E+02 0.  0.
         24    2    4    4    0    0  0.14408400857E+03 -0.21083335180E+03  0.78439555615E+03  0.82863700754E+03  0.78434673394E+02 0.  0.
         13    1    3    3    0    0  0.34739114174E+03  0.75221184388E+02  0.55654178955E+03  0.66036171562E+03  0.00000000000E+00 0.  1.
        -13    1    3    3    0    0  0.10355951826E+03  0.10694613767E+02  0.85183567861E+02  0.13451835867E+03  0.00000000000E+00 0. -1.
          2    1    6    6  502    0  0.10723495096E+03 -0.14605816765E+03  0.43224780329E+03  0.46869018178E+03  0.00000000000E+00 0. -1.
          3    1    5    5  503    0 -0.39040944646E+03  0.11171927149E+03  0.31220958344E+03  0.51222607850E+03  0.00000000000E+00 0. -1.
         -4    1    5    5    0  503 -0.20462522212E+03  0.13198282153E+02  0.11513001054E+03  0.23516078650E+03  0.00000000000E+00 0.  1.
         -1    1    6    6    0  502  0.36849057613E+02 -0.64775184145E+02  0.35214775286E+03  0.35994682576E+03  0.00000000000E+00 0.  1.
<mgrwt>
<rscale>  0 0.14784687E+04</rscale>
<asrwt>0</asrwt>
<pdfrwt beam="1">  1        2 0.32495110E+00 0.14784687E+04</pdfrwt>
<pdfrwt beam="2">  1       -2 0.39803343E-01 0.14784687E+04</pdfrwt>
<totfact> 0.33455131E+01</totfact>
</mgrwt>
</event>
<event>
12    1  0.1518126E-007  0.1421475E+04  0.7818608E-02  0.8938419E-01
         -2   -1    0    0    0  501 -0.00000000000E+00  0.00000000000E+00  0.19755204551E+03  0.19755204551E+03  0.00000000000E+00 0.  1.
          2   -1    0    0  501    0  0.00000000000E+00 -0.00000000000E+00 -0.25570378918E+04  0.25570378918E+04  0.00000000000E+00 0. -1.
         23    2    1    2    0    0  0.19116282091E+03 -0.76910555304E+02 -0.13780289118E+04  0.13964242439E+04  0.92620351708E+02 0.  0.
        254    2    1    2    0    0 -0.19116282091E+03  0.76910555304E+02 -0.98145693443E+03  0.13581656934E+04  0.91591368528E+03 0.  0.
        -24    2    4    4    0    0 -0.55271708999E+03  0.57543563679E+02 -0.66805572639E+03  0.87260978712E+03  0.79636321708E+02 0.  0.
         24    2    4    4    0    0  0.36155426908E+03  0.19366991625E+02 -0.31340120804E+03  0.48555590625E+03  0.80297266672E+02 0.  0.
         13    1    3    3    0    0  0.27038221113E+02 -0.11146709996E+02 -0.49526195174E+03  0.49612469741E+03  0.00000000000E+00 0.  1.
        -13    1    3    3    0    0  0.16412459979E+03 -0.65763845308E+02 -0.88276696011E+03  0.90029954652E+03  0.00000000000E+00 0. -1.
          4    1    6    6  502    0  0.17772097970E+02 -0.15052607687E+01  0.27392014176E+01  0.18044846927E+02  0.00000000000E+00 0. -1.
          1    1    5    5  503    0 -0.14886694734E+02  0.94513780194E+00 -0.26430222434E+01  0.15149010930E+02  0.00000000000E+00 0. -1.
         -2    1    5    5    0  503 -0.53783039525E+03  0.56598425877E+02 -0.66541270414E+03  0.85746077619E+03  0.00000000000E+00 0.  1.
         -3    1    6    6    0  502  0.34378217111E+03  0.20872252394E+02 -0.31614040946E+03  0.46751105932E+03  0.00000000000E+00 0.  1.
<mgrwt>
<rscale>  0 0.14214754E+04</rscale>
<asrwt>0</asrwt>
<pdfrwt beam="1">  1        2 0.39339044E+00 0.14214754E+04</pdfrwt>
<pdfrwt beam="2">  1       -2 0.30392623E-01 0.14214754E+04</pdfrwt>
<totfact> 0.31488790E+01</totfact>
</mgrwt>
</event>
<event>
12    1  0.1518126E-007  0.2169081E+04  0.7818608E-02  0.8531408E-01
          1   -1    0    0  501    0  0.00000000000E+00  0.00000000000E+00  0.90640785818E+03  0.90640785818E+03  0.00000000000E+00 0. -1.
         -1   -1    0    0    0  501 -0.00000000000E+00 -0.00000000000E+00 -0.12976810554E+04  0.12976810554E+04  0.00000000000E+00 0.  1.
         23    2    1    2    0    0 -0.45073974168E+03  0.32372241046E+03 -0.87292056012E+03  0.10383912510E+04  0.91123937713E+02 0.  0.
        254    2    1    2    0    0  0.45073974168E+03 -0.32372241046E+03  0.48164736288E+03  0.11656976626E+04  0.90493333718E+03 0.  0.
        -24    2    4    4    0    0  0.31194232800E+03  0.74718704541E+02 -0.17864375275E+03  0.37808350345E+03  0.90236602212E+02 0.  0.
         24    2    4    4    0    0  0.13879741368E+03 -0.39844111500E+03  0.66029111563E+03  0.78761415919E+03  0.79571742528E+02 0.  0.
         13    1    3    3    0    0 -0.87214493111E+02  0.26227591726E+02 -0.11478134425E+03  0.14652307451E+03  0.00000000000E+00 0. -1.
        -13    1    3    3    0    0 -0.36352524857E+03  0.29749481874E+03 -0.75813921587E+03  0.89186817645E+03  0.00000000000E+00 0.  1.
          4    1    6    6  502    0 -0.11145644127E+01 -0.96875537850E+02  0.15346251774E+03  0.18148514109E+03  0.00000000000E+00 0. -1.
          1    1    5    5  503    0  0.28162642180E+03  0.77691484351E+02 -0.12793892013E+03  0.31893224278E+03  0.00000000000E+00 0. -1.
         -2    1    5    5    0  503  0.30315906196E+02 -0.29727798095E+01 -0.50704832620E+02  0.59151260674E+02  0.00000000000E+00 0.  1.
         -3    1    6    6    0  502  0.13991197809E+03 -0.30156557715E+03  0.50682859789E+03  0.60612901810E+03  0.00000000000E+00 0.  1.
<mgrwt>
<rscale>  0 0.21690812E+04</rscale>
<asrwt>0</asrwt>
<pdfrwt beam="1">  1        1 0.13944736E+00 0.21690812E+04</pdfrwt>
<pdfrwt beam="2">  1       -1 0.19964324E+00 0.21690812E+04</pdfrwt>
<totfact> 0.24874518E+00</totfact>
</mgrwt>
</event>
<event>
12    1  0.1518126E-007  0.3064933E+04  0.7818608E-02  0.8225428E-01
          1   -1    0    0  501    0  0.00000000000E+00  0.00000000000E+00  0.30432431026E+04  0.30432431026E+04  0.00000000000E+00 0. -1.
         -1   -1    0    0    0  501 -0.00000000000E+00 -0.00000000000E+00 -0.77169452881E+03  0.77169452881E+03  0.00000000000E+00 0.  1.
         23    2    1    2    0    0  0.18517980221E+03 -0.84350984756E+03 -0.32828418583E+03  0.92841020319E+03  0.91512713056E+02 0.  0.
        254    2    1    2    0    0 -0.18517980221E+03  0.84350984756E+03  0.25998327596E+04  0.28865274282E+04  0.90945576788E+03 0.  0.
        -24    2    4    4    0    0  0.59097620010E+02  0.48746938359E+03  0.38629113265E+03  0.62984599128E+03  0.79788501358E+02 0.  0.
         24    2    4    4    0    0 -0.24427742222E+03  0.35604046397E+03  0.22135416269E+04  0.22566814369E+04  0.80051873488E+02 0.  0.
         13    1    3    3    0    0  0.48753012939E+02 -0.22488232882E+03 -0.45008338649E+02  0.23446677512E+03  0.00000000000E+00 0.  1.
        -13    1    3    3    0    0  0.13642678927E+03 -0.61862751873E+03 -0.28327584719E+03  0.69394342807E+03  0.00000000000E+00 0. -1.
          4    1    6    6  502    0 -0.24614720295E+03  0.34650323164E+03  0.20913254740E+04  0.21340794674E+04  0.00000000000E+00 0. -1.
          3    1    5    5  503    0  0.42520827576E+02  0.12458812783E+03  0.75366978301E+02  0.15169180529E+03  0.00000000000E+00 0. -1.
         -4    1    5    5    0  503  0.16576792434E+02  0.36288125575E+03  0.31092415435E+03  0.47815418599E+03  0.00000000000E+00 0.  1.
         -3    1    6    6    0  502  0.18697807285E+01  0.95372323298E+01  0.12221615295E+03  0.12260196949E+03  0.00000000000E+00 0.  1.
<mgrwt>
<rscale>  0 0.30649333E+04</rscale>
<asrwt>0</asrwt>
<pdfrwt beam="1">  1        1 0.46819124E+00 0.30649333E+04</pdfrwt>
<pdfrwt beam="2">  1       -1 0.11872224E+00 0.30649333E+04</pdfrwt>
<totfact> 0.29866125E-01</totfact>
</mgrwt>
</event>
<event>
12    1  0.1518126E-007  0.1616398E+04  0.7818608E-02  0.8810537E-01
         -2   -1    0    0    0  501 -0.00000000000E+00  0.00000000000E+00  0.15785206657E+04  0.15785206657E+04  0.00000000000E+00 0.  1.
          2   -1    0    0  501    0  0.00000000000E+00 -0.00000000000E+00 -0.41379623386E+03  0.41379623386E+03  0.00000000000E+00 0. -1.
         23    2    1    2    0    0 -0.45394497868E+03 -0.43252932614E+02  0.17550772381E+02  0.46543635777E+03  0.91575726468E+02 0.  0.
        254    2    1    2    0    0  0.45394497868E+03  0.43252932614E+02  0.11471736595E+04  0.15268805418E+04  0.89856548123E+03 0.  0.
        -24    2    4    4    0    0  0.25498221584E+03  0.39105033121E+03  0.97477285268E+03  0.10838951607E+04  0.81916500582E+02 0.  0.
         24    2    4    4    0    0  0.19896276284E+03 -0.34779739859E+03  0.17240080679E+03  0.44298538112E+03  0.77232106259E+02 0.  0.
         11    1    3    3    0    0 -0.21735411521E+02 -0.23636246438E+02 -0.32989288624E+01  0.32279764424E+02  0.00000000000E+00 0.  1.
        -11    1    3    3    0    0 -0.43220956716E+03 -0.19616686176E+02  0.20849701243E+02  0.43315659335E+03  0.00000000000E+00 0. -1.
          4    1    6    6  502    0  0.81909198293E+02 -0.21656162000E+03  0.85338026129E+02  0.24676026975E+03  0.00000000000E+00 0. -1.
          3    1    5    5  503    0  0.17597897714E+03  0.26446742410E+03  0.74530295451E+03  0.81017782789E+03  0.00000000000E+00 0. -1.
         -4    1    5    5    0  503  0.79003238697E+02  0.12658290711E+03  0.22946989817E+03  0.27371733278E+03  0.00000000000E+00 0.  1.
         -3    1    6    6    0  502  0.11705356455E+03 -0.13123577859E+03  0.87062780657E+02  0.19622511137E+03  0.00000000000E+00 0.  1.
<mgrwt>
<rscale>  0 0.16163984E+04</rscale>
<asrwt>0</asrwt>
<pdfrwt beam="1">  1        2 0.63660960E-01 0.16163984E+04</pdfrwt>
<pdfrwt beam="2">  1       -2 0.24284933E+00 0.16163984E+04</pdfrwt>
<totfact> 0.52128593E+00</totfact>
</mgrwt>
</event>
<event>
12    1  0.1518126E-007  0.1569347E+04  0.7818608E-02  0.8839604E-01
          2   -1    0    0  501    0  0.00000000000E+00  0.00000000000E+00  0.29420475098E+04  0.29420475098E+04  0.00000000000E+00 0. -1.
         -2   -1    0    0    0  501 -0.00000000000E+00 -0.00000000000E+00 -0.20928023419E+03  0.20928023419E+03  0.00000000000E+00 0.  1.
         23    2    1    2    0    0 -0.51485044927E+03  0.44768305195E+02  0.74979009192E+03  0.91543580583E+03  0.93607405616E+02 0.  0.
        254    2    1    2    0    0  0.51485044927E+03 -0.44768305195E+02  0.19829771837E+04  0.22358919381E+04  0.89439312488E+03 0.  0.
        -24    2    4    4    0    0  0.31147080592E+03  0.17581190804E+03  0.18281287417E+03  0.40914801207E+03  0.77830963442E+02 0.  0.
         24    2    4    4    0    0  0.20337964334E+03 -0.22058021324E+03  0.18001643095E+04  0.18267439261E+04  0.79893181403E+02 0.  0.
         13    1    3    3    0    0 -0.40189384763E+03  0.40796115875E+02  0.64646105542E+03  0.76229579823E+03  0.00000000000E+00 0.  1.
        -13    1    3    3    0    0 -0.11295660163E+03  0.39721893202E+01  0.10332903651E+03  0.15314000759E+03  0.00000000000E+00 0. -1.
          2    1    6    6  502    0  0.34569587316E+02 -0.21785348576E+02  0.12799633429E+03  0.13436040849E+03  0.00000000000E+00 0. -1.
          1    1    5    5  503    0  0.74573282241E+02  0.61201372180E+02  0.16603668783E+02  0.97890061793E+02  0.00000000000E+00 0. -1.
         -4    1    5    5    0  503  0.23689752368E+03  0.11461053586E+03  0.16620920539E+03  0.31125795028E+03  0.00000000000E+00 0.  1.
         -1    1    6    6    0  502  0.16881005603E+03 -0.19879486466E+03  0.16721679752E+04  0.16923835176E+04  0.00000000000E+00 0.  1.
<mgrwt>
<rscale>  0 0.15693469E+04</rscale>
<asrwt>0</asrwt>
<pdfrwt beam="1">  1        2 0.45262266E+00 0.15693469E+04</pdfrwt>
<pdfrwt beam="2">  1       -2 0.32196961E-01 0.15693469E+04</pdfrwt>
<totfact> 0.16426838E+01</totfact>
</mgrwt>
</event>
<event>
12    1  0.1518126E-007  0.1914399E+04  0.7818608E-02  0.8647722E-01
          1   -1    0    0  501    0  0.00000000000E+00  0.00000000000E+00  0.61641245324E+03  0.61641245324E+03  0.00000000000E+00 0. -1.
         -1   -1    0    0    0  501 -0.00000000000E+00 -0.00000000000E+00 -0.14863930743E+04  0.14863930743E+04  0.00000000000E+00 0.  1.
         23    2    1    2    0    0  0.58306533343E+03  0.16535281898E+03 -0.82122253830E+03  0.10246714600E+04  0.90765664256E+02 0.  0.
        254    2    1    2    0    0 -0.58306533343E+03 -0.16535281898E+03 -0.48758082743E+02  0.10781340675E+04  0.89033082563E+03 0.  0.
        -24    2    4    4    0    0  0.16499311567E+03  0.32513635285E+02  0.18783633197E+03  0.26587890444E+03  0.84434824103E+02 0.  0.
         24    2    4    4    0    0 -0.74805844911E+03 -0.19786645427E+03 -0.23659441471E+03  0.81225516305E+03  0.70985602972E+02 0.  0.
         13    1    3    3    0    0  0.30160744957E+03  0.10355928821E+03 -0.50102848838E+03  0.59390329682E+03  0.00000000000E+00 0. -1.
        -13    1    3    3    0    0  0.28145788387E+03  0.61793530770E+02 -0.32019404993E+03  0.43076816322E+03  0.00000000000E+00 0.  1.
          2    1    6    6  502    0 -0.52915136572E+02 -0.29486471668E+02 -0.65693042960E+01  0.60931268236E+02  0.00000000000E+00 0. -1.
          1    1    5    5  503    0  0.10274509901E+03  0.58276403010E+02  0.97348437295E+02  0.15306669384E+03  0.00000000000E+00 0. -1.
         -2    1    5    5    0  503  0.62248016660E+02 -0.25762767725E+02  0.90487894672E+02  0.11281221060E+03  0.00000000000E+00 0.  1.
         -1    1    6    6    0  502 -0.69514331253E+03 -0.16837998260E+03 -0.23002511041E+03  0.75132389482E+03  0.00000000000E+00 0.  1.
<mgrwt>
<rscale>  0 0.19143993E+04</rscale>
<asrwt>0</asrwt>
<pdfrwt beam="1">  1        1 0.94832686E-01 0.19143993E+04</pdfrwt>
<pdfrwt beam="2">  1       -1 0.22867586E+00 0.19143993E+04</pdfrwt>
<totfact> 0.29637448E+00</totfact>
</mgrwt>
</event>
<event>
12    1  0.1518126E-007  0.1861478E+04  0.7818608E-02  0.8674273E-01
          2   -1    0    0  501    0  0.00000000000E+00  0.00000000000E+00  0.49241132055E+04  0.49241132055E+04  0.00000000000E+00 0. -1.
         -2   -1    0    0    0  501 -0.00000000000E+00 -0.00000000000E+00 -0.17592501414E+03  0.17592501414E+03  0.00000000000E+00 0.  1.
         23    2    1    2    0    0  0.24544911006E+03 -0.38691120972E+03  0.33222150275E+04  0.33552555112E+04  0.10335040763E+03 0.  0.
        254    2    1    2    0    0 -0.24544911006E+03  0.38691120972E+03  0.14259731639E+04  0.17447827084E+04  0.89494228067E+03 0.  0.
        -24    2    4    4    0    0 -0.78478311702E+02 -0.27568114186E+03  0.28252426549E+03  0.41029821360E+03  0.79785500641E+02 0.  0.
         24    2    4    4    0    0 -0.16697079836E+03  0.66259235157E+03  0.11434488984E+04  0.13344844948E+04  0.80409028519E+02 0.  0.
         11    1    3    3    0    0 -0.68005886043E+01 -0.41139890829E+02  0.28983400142E+03  0.29281818079E+03  0.00000000000E+00 0.  1.
        -11    1    3    3    0    0  0.25224969867E+03 -0.34577131889E+03  0.30323810261E+04  0.30624373304E+04  0.00000000000E+00 0. -1.
          4    1    6    6  502    0 -0.93099504005E+02  0.38631352486E+03  0.58712267713E+03  0.70895606009E+03  0.00000000000E+00 0. -1.
          1    1    5    5  503    0 -0.59610534817E+02 -0.19408700507E+03  0.24591136116E+03  0.31889744268E+03  0.00000000000E+00 0. -1.
         -2    1    5    5    0  503 -0.18867776886E+02 -0.81594136787E+02  0.36612904332E+02  0.91400770928E+02  0.00000000000E+00 0.  1.
         -3    1    6    6    0  502 -0.73871294357E+02  0.27627882671E+03  0.55632622126E+03  0.62552843475E+03  0.00000000000E+00 0.  1.
<mgrwt>
<rscale>  0 0.18614776E+04</rscale>
<asrwt>0</asrwt>
<pdfrwt beam="1">  1        2 0.75755577E+00 0.18614776E+04</pdfrwt>
<pdfrwt beam="2">  1       -2 0.27065391E-01 0.18614776E+04</pdfrwt>
<totfact> 0.51146348E-01</totfact>
</mgrwt>
</event>
<event>
12    1  0.1518126E-007  0.2195323E+04  0.7818608E-02  0.8520377E-01
         -1   -1    0    0    0  501 -0.00000000000E+00  0.00000000000E+00  0.93340180836E+03  0.93340180836E+03  0.00000000000E+00 0.  1.
          1   -1    0    0  501    0  0.00000000000E+00 -0.00000000000E+00 -0.12908281160E+04  0.12908281160E+04  0.00000000000E+00 0. -1.
         23    2    1    2    0    0 -0.50221740373E+03  0.77090310658E+02  0.61071126115E+03  0.80008460783E+03  0.94878335750E+02 0.  0.
        254    2    1    2    0    0  0.50221740373E+03 -0.77090310658E+02 -0.96813756877E+03  0.14241453165E+04  0.91254276278E+03 0.  0.
        -24    2    4    4    0    0  0.24093384918E+03  0.27710382943E+03 -0.20516053018E+02  0.37615769099E+03  0.78981314854E+02 0.  0.
         24    2    4    4    0    0  0.26128355455E+03 -0.35419414009E+03 -0.94762151576E+03  0.10479876255E+04  0.81049006063E+02 0.  0.
         13    1    3    3    0    0 -0.37889768858E+03  0.16180103095E+02  0.44126285102E+03  0.58184031988E+03  0.00000000000E+00 0.  1.
        -13    1    3    3    0    0 -0.12331971515E+03  0.60910207563E+02  0.16944841013E+03  0.21824428795E+03  0.00000000000E+00 0. -1.
          2    1    6    6  502    0  0.22808688643E+02 -0.67314892469E+02 -0.20419103099E+03  0.21620709554E+03  0.00000000000E+00 0. -1.
          1    1    5    5  503    0  0.11138033639E+03  0.13125035341E+03 -0.49066791405E+02  0.17899660506E+03  0.00000000000E+00 0. -1.
         -2    1    5    5    0  503  0.12955351278E+03  0.14585347602E+03  0.28550738387E+02  0.19716108593E+03  0.00000000000E+00 0.  1.
         -1    1    6    6    0  502  0.23847486591E+03 -0.28687924762E+03 -0.74343048476E+03  0.83178052999E+03  0.00000000000E+00 0.  1.
<mgrwt>
<rscale>  0 0.21953235E+04</rscale>
<asrwt>0</asrwt>
<pdfrwt beam="1">  1        1 0.19858894E+00 0.21953235E+04</pdfrwt>
<pdfrwt beam="2">  1       -1 0.14360028E+00 0.21953235E+04</pdfrwt>
<totfact> 0.32841086E+00</totfact>
</mgrwt>
</event>
<event>
12    1  0.1518126E-007  0.1330812E+04  0.7818608E-02  0.9005482E-01
          1   -1    0    0  501    0  0.00000000000E+00  0.00000000000E+00  0.10486112153E+04  0.10486112153E+04  0.00000000000E+00 0. -1.
         -1   -1    0    0    0  501 -0.00000000000E+00 -0.00000000000E+00 -0.42223940275E+03  0.42223940275E+03  0.00000000000E+00 0.  1.
         23    2    1    2    0    0  0.41919294584E+02  0.33400787844E+03  0.26430440229E+03  0.43779025839E+03  0.92114076872E+02 0.  0.
        254    2    1    2    0    0 -0.41919294584E+02 -0.33400787844E+03  0.36206741030E+03  0.10330603597E+04  0.90708456443E+03 0.  0.
        -24    2    4    4    0    0  0.19515391175E+03  0.23975470773E+03  0.22303675256E+02  0.32070606346E+03  0.82386625496E+02 0.  0.
         24    2    4    4    0    0 -0.23707320633E+03 -0.57376258617E+03  0.33976373505E+03  0.71235429622E+03  0.81252921437E+02 0.  0.
         11    1    3    3    0    0  0.19951813079E+02  0.30892310993E+03  0.21002854001E+03  0.37409029701E+03  0.00000000000E+00 0.  1.
        -11    1    3    3    0    0  0.21967481505E+02  0.25084768505E+02  0.54275862277E+02  0.63699961386E+02  0.00000000000E+00 0. -1.
          2    1    6    6  502    0 -0.21985447204E+02 -0.44229102389E+02  0.54566829361E+02  0.73601034323E+02  0.00000000000E+00 0. -1.
          1    1    5    5  503    0  0.62938578581E+02  0.57551992269E+02 -0.28508511677E+02  0.89923477057E+02  0.00000000000E+00 0. -1.
         -2    1    5    5    0  503  0.13221533317E+03  0.18220271546E+03  0.50812186933E+02  0.23078258641E+03  0.00000000000E+00 0.  1.
         -1    1    6    6    0  502 -0.21508775913E+03 -0.52953348378E+03  0.28519690568E+03  0.63875326190E+03  0.00000000000E+00 0.  1.
<mgrwt>
<rscale>  0 0.13308117E+04</rscale>
<asrwt>0</asrwt>
<pdfrwt beam="1">  1        1 0.16132480E+00 0.13308117E+04</pdfrwt>
<pdfrwt beam="2">  1       -1 0.64959908E-01 0.13308117E+04</pdfrwt>
<totfact> 0.32677371E+01</totfact>
</mgrwt>
</event>
<event>
12    1  0.1518126E-007  0.1393721E+04  0.7818608E-02  0.8958376E-01
         -2   -1    0    0    0  501 -0.00000000000E+00  0.00000000000E+00  0.27117700031E+03  0.27117700031E+03  0.00000000000E+00 0.  1.
          2   -1    0    0  501    0  0.00000000000E+00 -0.00000000000E+00 -0.17907650850E+04  0.17907650850E+04  0.00000000000E+00 0. -1.
         23    2    1    2    0    0  0.37222660499E+03 -0.52672905263E+02 -0.25012927418E+03  0.46079287659E+03  0.91860442530E+02 0.  0.
        254    2    1    2    0    0 -0.37222660499E+03  0.52672905263E+02 -0.12694588105E+04  0.16011492087E+04  0.90045879228E+03 0.  0.
        -24    2    4    4    0    0 -0.48044131820E+03 -0.22153417455E+03 -0.36740020256E+03  0.64891852230E+03  0.78810462541E+02 0.  0.
         24    2    4    4    0    0  0.10821471322E+03  0.27420707981E+03 -0.90205860793E+03  0.95223068641E+03  0.78317311144E+02 0.  0.
         11    1    3    3    0    0  0.32402673549E+03 -0.23608809048E+02 -0.23923153035E+03  0.40346304204E+03  0.00000000000E+00 0. -1.
        -11    1    3    3    0    0  0.48199869502E+02 -0.29064096216E+02 -0.10897743822E+02  0.57329834547E+02  0.00000000000E+00 0.  1.
          4    1    6    6  502    0  0.10520255590E+03  0.20779680187E+03 -0.76887051538E+03  0.80337348603E+03  0.00000000000E+00 0. -1.
          1    1    5    5  503    0 -0.46763413357E+03 -0.22816679813E+03 -0.35495803502E+03  0.62987060359E+03  0.00000000000E+00 0. -1.
         -2    1    5    5    0  503 -0.12807184636E+02  0.66326235756E+01 -0.12442167548E+02  0.19047918707E+02  0.00000000000E+00 0.  1.
         -3    1    6    6    0  502  0.30121573155E+01  0.66410277941E+02 -0.13318809256E+03  0.14885720039E+03  0.00000000000E+00 0.  1.
<mgrwt>
<rscale>  0 0.13937206E+04</rscale>
<asrwt>0</asrwt>
<pdfrwt beam="1">  1        2 0.27550232E+00 0.13937206E+04</pdfrwt>
<pdfrwt beam="2">  1       -2 0.41719539E-01 0.13937206E+04</pdfrwt>
<totfact> 0.46287082E+01</totfact>
</mgrwt>
</event>
<event>
12    1  0.1518126E-007  0.2375357E+04  0.7818608E-02  0.8448788E-01
         -2   -1    0    0    0  501 -0.00000000000E+00  0.00000000000E+00  0.89264593039E+03  0.89264593039E+03  0.00000000000E+00 0.  1.
          2   -1    0    0  501    0  0.00000000000E+00 -0.00000000000E+00 -0.15802233839E+04  0.15802233839E+04  0.00000000000E+00 0. -1.
         23    2    1    2    0    0  0.60974335542E+03  0.70479963254E+03 -0.12034838069E+03  0.94400348827E+03  0.90163027958E+02 0.  0.
        254    2    1    2    0    0 -0.60974335542E+03 -0.70479963254E+03 -0.56722907281E+03  0.15288658260E+04  0.10710520115E+04 0.  0.
        -24    2    4    4    0    0 -0.71821594824E+03 -0.52881126908E+03  0.26030247611E+02  0.89549797885E+03  0.75918046141E+02 0.  0.
         24    2    4    4    0    0  0.10847259282E+03 -0.17598836346E+03 -0.59325932042E+03  0.63336784716E+03  0.80374131933E+02 0.  0.
         11    1    3    3    0    0  0.18505280439E+03  0.23090409780E+03  0.24374828774E+01  0.29591752925E+03  0.00000000000E+00 0.  1.
        -11    1    3    3    0    0  0.42469055103E+03  0.47389553475E+03 -0.12278586357E+03  0.64808595902E+03  0.00000000000E+00 0. -1.
          2    1    6    6  502    0  0.11731236402E+03 -0.14503402180E+03 -0.53792296762E+03  0.56934890649E+03  0.00000000000E+00 0. -1.
          1    1    5    5  503    0 -0.60335840546E+03 -0.47140949918E+03  0.71514361652E+01  0.76571497595E+03  0.00000000000E+00 0. -1.
         -2    1    5    5    0  503 -0.11485754278E+03 -0.57401769901E+02  0.18878811445E+02  0.12978300291E+03  0.00000000000E+00 0.  1.
         -1    1    6    6    0  502 -0.88397712062E+01 -0.30954341666E+02 -0.55336352799E+02  0.64018940666E+02  0.00000000000E+00 0.  1.
<mgrwt>
<rscale>  0 0.23753568E+04</rscale>
<asrwt>0</asrwt>
<pdfrwt beam="1">  1        2 0.24311129E+00 0.23753568E+04</pdfrwt>
<pdfrwt beam="2">  1       -2 0.13733014E+00 0.23753568E+04</pdfrwt>
<totfact> 0.38925273E+00</totfact>
</mgrwt>
</event>
<event>
12    1  0.1518126E-007  0.1679990E+04  0.7818608E-02  0.8772860E-01
         -1   -1    0    0    0  501 -0.00000000000E+00  0.00000000000E+00  0.27999303363E+04  0.27999303363E+04  0.00000000000E+00 0.  1.
          1   -1    0    0  501    0  0.00000000000E+00 -0.00000000000E+00 -0.25200338412E+03  0.25200338412E+03  0.00000000000E+00 0. -1.
         23    2    1    2    0    0 -0.90420788949E+02  0.17639969497E+03 -0.10572975453E+03  0.24083438177E+03  0.86773538541E+02 0.  0.
        254    2    1    2    0    0  0.90420788949E+02 -0.17639969497E+03  0.26536567068E+04  0.28110993387E+04  0.90614171252E+03 0.  0.
        -24    2    4    4    0    0 -0.27447014149E+03  0.32152855877E+02  0.28907488850E+03  0.40809834356E+03  0.81316063239E+02 0.  0.
         24    2    4    4    0    0  0.36489093044E+03 -0.20855255084E+03  0.23645818183E+04  0.24030009951E+04  0.80790158871E+02 0.  0.
         11    1    3    3    0    0 -0.28976007550E+00  0.87643320553E+02 -0.60490523852E+02  0.10649196718E+03  0.00000000000E+00 0.  1.
        -11    1    3    3    0    0 -0.90131028874E+02  0.88756374414E+02 -0.45239230681E+02  0.13434241459E+03  0.00000000000E+00 0. -1.
          2    1    6    6  502    0  0.31072131066E+03 -0.17209743165E+03  0.21337491270E+04  0.21631113231E+04  0.00000000000E+00 0. -1.
          3    1    5    5  503    0 -0.11325581683E+03 -0.19246076915E+02  0.84485213723E+02  0.14260099179E+03  0.00000000000E+00 0. -1.
         -4    1    5    5    0  503 -0.16121432466E+03  0.51398932792E+02  0.20458967478E+03  0.26549735177E+03  0.00000000000E+00 0.  1.
         -1    1    6    6    0  502  0.54169619777E+02 -0.36455119190E+02  0.23083269124E+03  0.23988967207E+03  0.00000000000E+00 0.  1.
<mgrwt>
<rscale>  0 0.16799904E+04</rscale>
<asrwt>0</asrwt>
<pdfrwt beam="1">  1        1 0.38769753E-01 0.16799904E+04</pdfrwt>
<pdfrwt beam="2">  1       -1 0.43075849E+00 0.16799904E+04</pdfrwt>
<totfact> 0.46290927E-01</totfact>
</mgrwt>
</event>
<event>
12    1  0.1518126E-007  0.1513066E+04  0.7818608E-02  0.8875811E-01
          2   -1    0    0  501    0  0.00000000000E+00  0.00000000000E+00  0.19547745015E+04  0.19547745015E+04  0.00000000000E+00 0. -1.
         -2   -1    0    0    0  501 -0.00000000000E+00 -0.00000000000E+00 -0.29279176128E+03  0.29279176128E+03  0.00000000000E+00 0.  1.
         23    2    1    2    0    0 -0.78324048223E+02  0.16286606596E+03  0.12054584609E+04  0.12227367234E+04  0.96410486297E+02 0.  0.
        254    2    1    2    0    0  0.78324048223E+02 -0.16286606596E+03  0.45652427933E+03  0.10248295394E+04  0.89955608785E+03 0.  0.
        -24    2    4    4    0    0  0.95001197763E+01  0.34583243326E+03  0.34149256783E+03  0.49249523216E+03  0.79019337182E+02 0.  0.
         24    2    4    4    0    0  0.68823928447E+02 -0.50869849922E+03  0.11503171150E+03  0.53233430722E+03  0.81465475794E+02 0.  0.
         11    1    3    3    0    0 -0.71897437560E+02  0.82884903462E+02  0.45690311850E+03  0.46989318833E+03  0.00000000000E+00 0. -1.
        -11    1    3    3    0    0 -0.64266106627E+01  0.79981162499E+02  0.74855534237E+03  0.75284353505E+03  0.00000000000E+00 0.  1.
          2    1    6    6  502    0 -0.36495494794E+01 -0.66992078118E+02 -0.94037324178E+01  0.67747235555E+02  0.00000000000E+00 0. -1.
          3    1    5    5  503    0 -0.68818184087E+01 -0.93722676236E+00  0.27958794619E+01  0.74869727246E+01  0.00000000000E+00 0. -1.
         -4    1    5    5    0  503  0.16381938185E+02  0.34676966003E+03  0.33869668837E+03  0.48500825944E+03  0.00000000000E+00 0.  1.
         -1    1    6    6    0  502  0.72473477926E+02 -0.44170642111E+03  0.12443544392E+03  0.46458707166E+03  0.00000000000E+00 0.  1.
<mgrwt>
<rscale>  0 0.15130656E+04</rscale>
<asrwt>0</asrwt>
<pdfrwt beam="1">  1        2 0.30073453E+00 0.15130656E+04</pdfrwt>
<pdfrwt beam="2">  1       -2 0.45044888E-01 0.15130656E+04</pdfrwt>
<totfact> 0.31946756E+01</totfact>
</mgrwt>
</event>
<event>
12    1  0.1518126E-007  0.1664981E+04  0.7818608E-02  0.8781593E-01
          2   -1    0    0  501    0  0.00000000000E+00  0.00000000000E+00  0.77874627461E+03  0.77874627461E+03  0.00000000000E+00 0. -1.
         -2   -1    0    0    0  501 -0.00000000000E+00 -0.00000000000E+00 -0.88994397225E+03  0.88994397225E+03  0.00000000000E+00 0.  1.
         23    2    1    2    0    0 -0.71476023601E+02  0.64568372242E+02 -0.61539827379E+03  0.63074187080E+03  0.99208747361E+02 0.  0.
        254    2    1    2    0    0  0.71476023601E+02 -0.64568372242E+02  0.50420057615E+03  0.10379483761E+04  0.90213120650E+03 0.  0.
        -24    2    4    4    0    0 -0.71381708029E+02 -0.42880618997E+03  0.45640485108E+03  0.63532946406E+03  0.79800018844E+02 0.  0.
         24    2    4    4    0    0  0.14285773163E+03  0.36423781773E+03  0.47795725065E+02  0.40261891201E+03  0.82097732121E+02 0.  0.
         11    1    3    3    0    0  0.23455608684E+01 -0.12830048596E+02 -0.11327461470E+02  0.17274929410E+02  0.00000000000E+00 0. -1.
        -11    1    3    3    0    0 -0.73821584470E+02  0.77398420838E+02 -0.60407081231E+03  0.61346694139E+03  0.00000000000E+00 0.  1.
          4    1    6    6  502    0  0.10483073331E+03  0.26289637750E+03  0.71269226092E+02  0.29186176615E+03  0.00000000000E+00 0. -1.
          1    1    5    5  503    0 -0.57961775258E+02 -0.40451674398E+03  0.39688641382E+03  0.56965971336E+03  0.00000000000E+00 0. -1.
         -2    1    5    5    0  503 -0.13419932771E+02 -0.24289445989E+02  0.59518437263E+02  0.65669750694E+02  0.00000000000E+00 0.  1.
         -3    1    6    6    0  502  0.38026998318E+02  0.10134144023E+03 -0.23473501026E+02  0.11075714586E+03  0.00000000000E+00 0.  1.
<mgrwt>
<rscale>  0 0.16649811E+04</rscale>
<asrwt>0</asrwt>
<pdfrwt beam="1">  1        2 0.11980712E+00 0.16649811E+04</pdfrwt>
<pdfrwt beam="2">  1       -2 0.13691446E+00 0.16649811E+04</pdfrwt>
<totfact> 0.12957304E+01</totfact>
</mgrwt>
</event>
<event>
12    1  0.1518126E-007  0.2271654E+04  0.7818608E-02  0.8489182E-01
          2   -1    0    0  501    0  0.00000000000E+00  0.00000000000E+00  0.99002839144E+03  0.99002839144E+03  0.00000000000E+00 0. -1.
         -2   -1    0    0    0  501 -0.00000000000E+00 -0.00000000000E+00 -0.13030970166E+04  0.13030970166E+04  0.00000000000E+00 0.  1.
         23    2    1    2    0    0 -0.75614987751E+03 -0.20080646941E+03  0.41318020724E+03  0.88991345278E+03  0.95614822993E+02 0.  0.
        254    2    1    2    0    0  0.75614987751E+03  0.20080646941E+03 -0.72624883243E+03  0.14032119553E+04  0.91075822777E+03 0.  0.
        -24    2    4    4    0    0  0.49098610038E+03  0.41787440541E+03 -0.63344771761E+02  0.65281781323E+03  0.80449783750E+02 0.  0.
         24    2    4    4    0    0  0.26516377713E+03 -0.21706793599E+03 -0.66290406067E+03  0.75039414205E+03  0.78862267518E+02 0.  0.
         13    1    3    3    0    0 -0.68870005412E+03 -0.17078016618E+03  0.40116274810E+03  0.81511053249E+03  0.00000000000E+00 0. -1.
        -13    1    3    3    0    0 -0.67449823387E+02 -0.30026303232E+02  0.12017459139E+02  0.74802920296E+02  0.00000000000E+00 0.  1.
          4    1    6    6  502    0  0.22253408888E+01  0.53624345672E+01 -0.44673510195E+01  0.73256447969E+01  0.00000000000E+00 0. -1.
          1    1    5    5  503    0  0.21001697351E+03  0.20370649081E+03  0.66853563913E+01  0.29265706475E+03  0.00000000000E+00 0. -1.
         -2    1    5    5    0  503  0.28096912687E+03  0.21416791460E+03 -0.70030128152E+02  0.36016074848E+03  0.00000000000E+00 0.  1.
         -3    1    6    6    0  502  0.26293843624E+03 -0.22243037056E+03 -0.65843670965E+03  0.74306849726E+03  0.00000000000E+00 0.  1.
<mgrwt>
<rscale>  0 0.22716541E+04</rscale>
<asrwt>0</asrwt>
<pdfrwt beam="1">  1        2 0.15231206E+00 0.22716541E+04</pdfrwt>
<pdfrwt beam="2">  1       -2 0.20047646E+00 0.22716541E+04</pdfrwt>
<totfact> 0.30667459E+00</totfact>
</mgrwt>
</event>
<event>
12    1  0.1518126E-007  0.2431913E+04  0.7818608E-02  0.8427652E-01
         -1   -1    0    0    0  501 -0.00000000000E+00  0.00000000000E+00  0.61131070628E+03  0.61131070628E+03  0.00000000000E+00 0.  1.
          1   -1    0    0  501    0  0.00000000000E+00 -0.00000000000E+00 -0.24186556733E+04  0.24186556733E+04  0.00000000000E+00 0. -1.
         23    2    1    2    0    0 -0.66901158804E+02  0.63752810561E+03 -0.18151801249E+04  0.19270891912E+04  0.88746912915E+02 0.  0.
        254    2    1    2    0    0  0.66901158804E+02 -0.63752810561E+03  0.78351578587E+01  0.11028771884E+04  0.89741788063E+03 0.  0.
        -24    2    4    4    0    0  0.28056828870E+03 -0.26101717798E+03  0.36555158147E+03  0.53552095679E+03  0.79411615196E+02 0.  0.
         24    2    4    4    0    0 -0.21366712989E+03 -0.37651092763E+03 -0.35771642361E+03  0.56735623159E+03  0.80733715326E+02 0.  0.
         13    1    3    3    0    0 -0.31135133301E+02  0.41334177020E+03 -0.12894133831E+04  0.13544030744E+04  0.00000000000E+00 0.  1.
        -13    1    3    3    0    0 -0.35766025503E+02  0.22418633540E+03 -0.52576674178E+03  0.57268611675E+03  0.00000000000E+00 0. -1.
          2    1    6    6  502    0 -0.94955779639E+02 -0.23663059151E+03 -0.18151626580E+03  0.31298369235E+03  0.00000000000E+00 0. -1.
          1    1    5    5  503    0  0.31716120622E+02 -0.58781210787E+02  0.94052631306E+02  0.11535614637E+03  0.00000000000E+00 0. -1.
         -2    1    5    5    0  503  0.24885216807E+03 -0.20223596719E+03  0.27149895016E+03  0.42016481043E+03  0.00000000000E+00 0.  1.
         -1    1    6    6    0  502 -0.11871135025E+03 -0.13988033611E+03 -0.17620015780E+03  0.25437253924E+03  0.00000000000E+00 0.  1.
<mgrwt>
<rscale>  0 0.24319129E+04</rscale>
<asrwt>0</asrwt>
<pdfrwt beam="1">  1        1 0.37210087E+00 0.24319129E+04</pdfrwt>
<pdfrwt beam="2">  1       -1 0.94047801E-01 0.24319129E+04</pdfrwt>
<totfact> 0.15091688E+00</totfact>
</mgrwt>
</event>
<event>
12    1  0.1518126E-007  0.1934283E+04  0.7818608E-02  0.8637977E-01
         -2   -1    0    0    0  501 -0.00000000000E+00  0.00000000000E+00  0.56315393971E+03  0.56315393971E+03  0.00000000000E+00 0. -1.
          2   -1    0    0  501    0  0.00000000000E+00 -0.00000000000E+00 -0.16609363712E+04  0.16609363712E+04  0.00000000000E+00 0.  1.
         23    2    1    2    0    0 -0.26920890525E+02 -0.63269045180E+03  0.37493098796E+02  0.64054916102E+03  0.88744312930E+02 0.  0.
        254    2    1    2    0    0  0.26920890525E+02  0.63269045180E+03 -0.11352755303E+04  0.15835411499E+04  0.90428430353E+03 0.  0.
        -24    2    4    4    0    0  0.42719290551E+03  0.39081719514E+03 -0.39935524017E+03  0.70782634249E+03  0.79383025506E+02 0.  0.
         24    2    4    4    0    0 -0.40027201498E+03  0.24187325666E+03 -0.73592029017E+03  0.87571480744E+03  0.81101123478E+02 0.  0.
         13    1    3    3    0    0 -0.28615646314E+02 -0.26015647797E+03  0.55621348963E+02  0.26757051913E+03  0.00000000000E+00 0.  1.
        -13    1    3    3    0    0  0.16947557890E+01 -0.37253397383E+03 -0.18128250167E+02  0.37297864189E+03  0.00000000000E+00 0. -1.
          4    1    6    6  502    0 -0.20528589260E+03  0.16664911685E+03 -0.37928316682E+03  0.46235262136E+03  0.00000000000E+00 0. -1.
          1    1    5    5  503    0  0.36797678007E+03  0.30398921440E+03 -0.34901910060E+03  0.59129576839E+03  0.00000000000E+00 0. -1.
         -2    1    5    5    0  503  0.59216125440E+02  0.86827980743E+02 -0.50336139570E+02  0.11653057409E+03  0.00000000000E+00 0.  1.
         -3    1    6    6    0  502 -0.19498612238E+03  0.75224139812E+02 -0.35663712335E+03  0.41336218609E+03  0.00000000000E+00 0.  1.
<mgrwt>
<rscale>  0 0.19342832E+04</rscale>
<asrwt>0</asrwt>
<pdfrwt beam="1">  1        2 0.25552867E+00 0.19342832E+04</pdfrwt>
<pdfrwt beam="2">  1       -2 0.86639069E-01 0.19342832E+04</pdfrwt>
<totfact> 0.11108107E+01</totfact>
</mgrwt>
</event>
<event>
12    1  0.1518126E-007  0.1170460E+04  0.7818608E-02  0.9139113E-01
          2   -1    0    0  501    0  0.00000000000E+00  0.00000000000E+00  0.80417979492E+03  0.80417979492E+03  0.00000000000E+00 0. -1.
         -2   -1    0    0    0  501 -0.00000000000E+00 -0.00000000000E+00 -0.42589257996E+03  0.42589257996E+03  0.00000000000E+00 0.  1.
         23    2    1    2    0    0  0.19271720068E+03 -0.46025685850E+02  0.20196745911E+03  0.29749939421E+03  0.91960599274E+02 0.  0.
        254    2    1    2    0    0 -0.19271720068E+03  0.46025685850E+02  0.17631975585E+03  0.93257298067E+03  0.89406119744E+03 0.  0.
        -24    2    4    4    0    0 -0.23868410720E+03 -0.18586842742E+03 -0.27513976171E+03  0.41629087259E+03  0.77968113918E+02 0.  0.
         24    2    4    4    0    0  0.45966906521E+02  0.23189411327E+03  0.45145951757E+03  0.51628210807E+03  0.82726554699E+02 0.  0.
         11    1    3    3    0    0  0.18871991698E+03 -0.54622381535E+02  0.15685267926E+03  0.25139923353E+03  0.00000000000E+00 0. -1.
        -11    1    3    3    0    0  0.39972837034E+01  0.85966956849E+01  0.45114779848E+02  0.46100160677E+02  0.00000000000E+00 0.  1.
          2    1    6    6  502    0 -0.67738494624E+01  0.12615523971E+02  0.83394896310E+02  0.84615277652E+02  0.00000000000E+00 0. -1.
          1    1    5    5  503    0 -0.34679218461E+02 -0.51954644862E+02 -0.91913451338E+02  0.11113062518E+03  0.00000000000E+00 0. -1.
         -2    1    5    5    0  503 -0.20400488874E+03 -0.13391378256E+03 -0.18322631037E+03  0.30516024741E+03  0.00000000000E+00 0.  1.
         -1    1    6    6    0  502  0.52740755983E+02  0.21927858930E+03  0.36806462126E+03  0.43166683042E+03  0.00000000000E+00 0.  1.
<mgrwt>
<rscale>  0 0.11704601E+04</rscale>
<asrwt>0</asrwt>
<pdfrwt beam="1">  1        2 0.12371997E+00 0.11704601E+04</pdfrwt>
<pdfrwt beam="2">  1       -2 0.65521935E-01 0.11704601E+04</pdfrwt>
<totfact> 0.72597525E+01</totfact>
</mgrwt>
</event>
<event>
12    1  0.1518126E-007  0.1407391E+04  0.7818608E-02  0.8948486E-01
          2   -1    0    0  501    0  0.00000000000E+00  0.00000000000E+00  0.13889776489E+04  0.13889776489E+04  0.00000000000E+00 0. -1.
         -2   -1    0    0    0  501 -0.00000000000E+00 -0.00000000000E+00 -0.35651230400E+03  0.35651230400E+03  0.00000000000E+00 0.  1.
         23    2    1    2    0    0  0.27925252805E+03 -0.26641691805E+03  0.12616124364E+03  0.41655663796E+03  0.92966792956E+02 0.  0.
        254    2    1    2    0    0 -0.27925252805E+03  0.26641691805E+03  0.90630410123E+03  0.13289333149E+04  0.89202953029E+03 0.  0.
        -24    2    4    4    0    0 -0.32383216049E+03 -0.24229098960E+03  0.21294414479E+03  0.46414770192E+03  0.80719815355E+02 0.  0.
         24    2    4    4    0    0  0.44579632442E+02  0.50870790765E+03  0.69335995644E+03  0.86478561298E+03  0.79593016571E+02 0.  0.
         11    1    3    3    0    0  0.17153818184E+03 -0.21101010638E+03  0.11382966148E+03  0.29480129691E+03  0.00000000000E+00 0. -1.
        -11    1    3    3    0    0  0.10771434621E+03 -0.55406811667E+02  0.12331582157E+02  0.12175534106E+03  0.00000000000E+00 0.  1.
          4    1    6    6  502    0  0.43064623275E+01  0.30570692133E+03  0.46595040265E+03  0.55730157464E+03  0.00000000000E+00 0. -1.
          3    1    5    5  503    0 -0.27032627905E+03 -0.20484060365E+03  0.14193259102E+03  0.36766945813E+03  0.00000000000E+00 0. -1.
         -4    1    5    5    0  503 -0.53505881441E+02 -0.37450385952E+02  0.71011553769E+02  0.96478243794E+02  0.00000000000E+00 0.  1.
         -3    1    6    6    0  502  0.40273170115E+02  0.20300098632E+03  0.22740955379E+03  0.30748403834E+03  0.00000000000E+00 0.  1.
<mgrwt>
<rscale>  0 0.14073914E+04</rscale>
<asrwt>0</asrwt>
<pdfrwt beam="1">  1        2 0.21368887E+00 0.14073914E+04</pdfrwt>
<pdfrwt beam="2">  1       -2 0.54848047E-01 0.14073914E+04</pdfrwt>
<totfact> 0.44655458E+01</totfact>
</mgrwt>
</event>
<event>
12    1  0.1518126E-007  0.1070426E+04  0.7818608E-02  0.9234506E-01
         -2   -1    0    0    0  501 -0.00000000000E+00  0.00000000000E+00  0.16989641965E+03  0.16989641965E+03  0.00000000000E+00 0.  1.
          2   -1    0    0  501    0  0.00000000000E+00 -0.00000000000E+00 -0.16860445841E+04  0.16860445841E+04  0.00000000000E+00 0. -1.
         23    2    1    2    0    0 -0.65231567303E+02 -0.70202868133E+02 -0.61721153154E+02  0.14581202226E+03  0.90928790937E+02 0.  0.
        254    2    1    2    0    0  0.65231567303E+02  0.70202868133E+02 -0.14544270113E+04  0.17101289815E+04  0.89442696858E+03 0.  0.
        -24    2    4    4    0    0  0.43752353370E+01 -0.90505682150E+02  0.93503262267E+02  0.15058939735E+03  0.75656363613E+02 0.  0.
         24    2    4    4    0    0  0.60856331966E+02  0.16070855028E+03 -0.15479302736E+04  0.15595395842E+04  0.80900256018E+02 0.  0.
         13    1    3    3    0    0 -0.70405264655E+02 -0.77168249689E+02 -0.24100662316E+02  0.10720392705E+03  0.00000000000E+00 0.  1.
        -13    1    3    3    0    0  0.51736973519E+01  0.69653815567E+01 -0.37620490838E+02  0.38608095206E+02  0.00000000000E+00 0. -1.
          4    1    6    6  502    0  0.32780477596E+02  0.95979874602E+02 -0.12144202225E+04  0.12186480923E+04  0.00000000000E+00 0. -1.
          1    1    5    5  503    0  0.15390258189E+02 -0.10040435959E+03  0.72109231306E+02  0.12456980658E+03  0.00000000000E+00 0. -1.
         -2    1    5    5    0  503 -0.11015022852E+02  0.98986774368E+01  0.21394030961E+02  0.26019590777E+02  0.00000000000E+00 0.  1.
         -1    1    6    6    0  502  0.28075854370E+02  0.64728675681E+02 -0.33351005107E+03  0.34089149185E+03  0.00000000000E+00 0.  1.
<mgrwt>
<rscale>  0 0.10704260E+04</rscale>
<asrwt>0</asrwt>
<pdfrwt beam="1">  1        2 0.25939148E+00 0.10704260E+04</pdfrwt>
<pdfrwt beam="2">  1       -2 0.26137910E-01 0.10704260E+04</pdfrwt>
<totfact> 0.13135367E+02</totfact>
</mgrwt>
</event>
<event>
12    1  0.1518126E-007  0.1653107E+04  0.7818608E-02  0.8788571E-01
         -2   -1    0    0    0  501 -0.00000000000E+00  0.00000000000E+00  0.45622378432E+03  0.45622378432E+03  0.00000000000E+00 0.  1.
          2   -1    0    0  501    0  0.00000000000E+00 -0.00000000000E+00 -0.14974896483E+04  0.14974896483E+04  0.00000000000E+00 0. -1.
         23    2    1    2    0    0 -0.25799887274E+03  0.38080907135E+03  0.41484035751E+02  0.47069669505E+03  0.90859706950E+02 0.  0.
        254    2    1    2    0    0  0.25799887274E+03 -0.38080907135E+03 -0.10827498997E+04  0.14830167376E+04  0.90300184462E+03 0.  0.
        -24    2    4    4    0    0  0.56777995571E+03 -0.34872031090E+03 -0.86507373273E+03  0.10948402734E+04  0.79641245112E+02 0.  0.
         24    2    4    4    0    0 -0.30978108297E+03 -0.32088760451E+02 -0.21767616698E+03  0.38817646413E+03  0.79398020862E+02 0.  0.
         11    1    3    3    0    0 -0.15928825907E+03  0.25097736480E+03  0.69343566955E+02  0.30523911511E+03  0.00000000000E+00 0.  1.
        -11    1    3    3    0    0 -0.98710613674E+02  0.12983170656E+03 -0.27859531204E+02  0.16545757994E+03  0.00000000000E+00 0. -1.
          2    1    6    6  502    0 -0.33378019381E+02 -0.97775667030E+01 -0.59536841308E+02  0.68951638569E+02  0.00000000000E+00 0. -1.
          1    1    5    5  503    0  0.11701060062E+03 -0.38974952246E+02 -0.13913511794E+03  0.18592769725E+03  0.00000000000E+00 0. -1.
         -2    1    5    5    0  503  0.45076935509E+03 -0.30974535865E+03 -0.72593861478E+03  0.90891257618E+03  0.00000000000E+00 0.  1.
         -1    1    6    6    0  502 -0.27640306359E+03 -0.22311193748E+02 -0.15813932568E+03  0.31922482556E+03  0.00000000000E+00 0.  1.
<mgrwt>
<rscale>  0 0.16531066E+04</rscale>
<asrwt>0</asrwt>
<pdfrwt beam="1">  1        2 0.23038302E+00 0.16531066E+04</pdfrwt>
<pdfrwt beam="2">  1       -2 0.70188275E-01 0.16531066E+04</pdfrwt>
<totfact> 0.22475428E+01</totfact>
</mgrwt>
</event>
<event>
12    1  0.1518126E-007  0.1268020E+04  0.7818608E-02  0.9055317E-01
          1   -1    0    0  501    0  0.00000000000E+00  0.00000000000E+00  0.40784261712E+03  0.40784261712E+03  0.00000000000E+00 0. -1.
         -1   -1    0    0    0  501 -0.00000000000E+00 -0.00000000000E+00 -0.98559777330E+03  0.98559777330E+03  0.00000000000E+00 0.  1.
         23    2    1    2    0    0  0.26674961011E+03 -0.13427971437E+03 -0.20422239885E+03  0.37327645776E+03  0.91881061937E+02 0.  0.
        254    2    1    2    0    0 -0.26674961011E+03  0.13427971437E+03 -0.37353275733E+03  0.10201639327E+04  0.90112226280E+03 0.  0.
        -24    2    4    4    0    0  0.30951022311E+03 -0.54201888977E+02 -0.48132501810E+02  0.32751979051E+03  0.78854628693E+02 0.  0.
         24    2    4    4    0    0 -0.57625983322E+03  0.18848160335E+03 -0.32540025552E+03  0.69264414215E+03  0.79182518115E+02 0.  0.
         11    1    3    3    0    0  0.24354123876E+03 -0.85138609126E+02 -0.16478726135E+03  0.30613029782E+03  0.00000000000E+00 0.  1.
        -11    1    3    3    0    0  0.23208371349E+02 -0.49141105242E+02 -0.39435137501E+02  0.67146159941E+02  0.00000000000E+00 0. -1.
          2    1    6    6  502    0 -0.17255735495E+02  0.18108254088E+02 -0.25783116001E+02  0.35922671732E+02  0.00000000000E+00 0. -1.
          1    1    5    5  503    0  0.77328587503E+02 -0.60800427435E+01 -0.46422440406E+02  0.90397568210E+02  0.00000000000E+00 0. -1.
         -2    1    5    5    0  503  0.23218163561E+03 -0.48121846234E+02 -0.17100614039E+01  0.23712222230E+03  0.00000000000E+00 0.  1.
         -1    1    6    6    0  502 -0.55900409773E+03  0.17037334926E+03 -0.29961713952E+03  0.65672147042E+03  0.00000000000E+00 0.  1.
<mgrwt>
<rscale>  0 0.12680202E+04</rscale>
<asrwt>0</asrwt>
<pdfrwt beam="1">  1        1 0.62745019E-01 0.12680202E+04</pdfrwt>
<pdfrwt beam="2">  1       -1 0.15163042E+00 0.12680202E+04</pdfrwt>
<totfact> 0.19509427E+01</totfact>
</mgrwt>
</event>
<event>
12    1  0.1518126E-007  0.1779959E+04  0.7818608E-02  0.8717030E-01
         -1   -1    0    0    0  501 -0.00000000000E+00  0.00000000000E+00  0.72210981992E+03  0.72210981992E+03  0.00000000000E+00 0.  1.
          1   -1    0    0  501    0  0.00000000000E+00 -0.00000000000E+00 -0.10968737267E+04  0.10968737267E+04  0.00000000000E+00 0. -1.
         23    2    1    2    0    0 -0.45513887247E+03  0.37141105158E+03  0.16516517975E+03  0.61624245608E+03  0.85893338486E+02 0.  0.
        254    2    1    2    0    0  0.45513887247E+03 -0.37141105158E+03 -0.53992908649E+03  0.12027410905E+04  0.89998063861E+03 0.  0.
        -24    2    4    4    0    0  0.31823124326E+03 -0.16084872895E+02  0.18654556539E+03  0.37777660171E+03  0.79912861959E+02 0.  0.
         24    2    4    4    0    0  0.13690762921E+03 -0.35532617869E+03 -0.72647465188E+03  0.82496448879E+03  0.88320981327E+02 0.  0.
         11    1    3    3    0    0 -0.19623118749E+03  0.19158403039E+03  0.11349912545E+03  0.29680493783E+03  0.00000000000E+00 0. -1.
        -11    1    3    3    0    0 -0.25890768499E+03  0.17982702119E+03  0.51666054297E+02  0.31943751825E+03  0.00000000000E+00 0.  1.
          4    1    6    6  502    0  0.39356095557E+02 -0.11832087433E+03 -0.33093576640E+03  0.35364843142E+03  0.00000000000E+00 0. -1.
          3    1    5    5  503    0  0.12924804254E+02 -0.48318427779E+01  0.33168198303E+02  0.35923900795E+02  0.00000000000E+00 0. -1.
         -4    1    5    5    0  503  0.30530643901E+03 -0.11253030117E+02  0.15337736709E+03  0.34185270091E+03  0.00000000000E+00 0.  1.
         -3    1    6    6    0  502  0.97551533657E+02 -0.23700530436E+03 -0.39553888548E+03  0.47131605738E+03  0.00000000000E+00 0.  1.
<mgrwt>
<rscale>  0 0.17799588E+04</rscale>
<asrwt>0</asrwt>
<pdfrwt beam="1">  1        1 0.16874980E+00 0.17799588E+04</pdfrwt>
<pdfrwt beam="2">  1       -1 0.11109382E+00 0.17799588E+04</pdfrwt>
<totfact> 0.89839888E+00</totfact>
</mgrwt>
</event>
<event>
12    1  0.1518126E-007  0.1432691E+04  0.7818608E-02  0.8930489E-01
          2   -1    0    0  501    0  0.00000000000E+00  0.00000000000E+00  0.26294199291E+04  0.26294199291E+04  0.00000000000E+00 0.  1.
         -2   -1    0    0    0  501 -0.00000000000E+00 -0.00000000000E+00 -0.19515752708E+03  0.19515752708E+03  0.00000000000E+00 0. -1.
         23    2    1    2    0    0 -0.41220369805E+03 -0.85002828847E+02  0.60879341557E+03  0.74590655089E+03  0.92788955275E+02 0.  0.
        254    2    1    2    0    0  0.41220369805E+03  0.85002828847E+02  0.18254689865E+04  0.20786709053E+04  0.90077652190E+03 0.  0.
        -24    2    4    4    0    0  0.68139910914E+03  0.24683129051E+02  0.10792513929E+04  0.12791468131E+04  0.80740309597E+02 0.  0.
         24    2    4    4    0    0 -0.26919541109E+03  0.60319699796E+02  0.74621759355E+03  0.79952409219E+03  0.79331214124E+02 0.  0.
         11    1    3    3    0    0 -0.22753693671E+03 -0.90071822140E+02  0.37771616801E+03  0.45006165609E+03  0.00000000000E+00 0.  1.
        -11    1    3    3    0    0 -0.18466676133E+03  0.50689932928E+01  0.23107724756E+03  0.29584489479E+03  0.00000000000E+00 0. -1.
          2    1    6    6  502    0 -0.20497576252E+03  0.44770416064E+02  0.64824453640E+03  0.68135191520E+03  0.00000000000E+00 0. -1.
          1    1    5    5  503    0  0.65751675175E+03  0.10031180380E+02  0.10199523271E+04  0.12135615571E+04  0.00000000000E+00 0. -1.
         -2    1    5    5    0  503  0.23882357390E+02  0.14651948671E+02  0.59299065845E+02  0.65585255999E+02  0.00000000000E+00 0.  1.
         -1    1    6    6    0  502 -0.64219648574E+02  0.15549283732E+02  0.97973057150E+02  0.11817217699E+03  0.00000000000E+00 0.  1.
<mgrwt>
<rscale>  0 0.14326913E+04</rscale>
<asrwt>0</asrwt>
<pdfrwt beam="1">  1        2 0.40452612E+00 0.14326913E+04</pdfrwt>
<pdfrwt beam="2">  1       -2 0.30024237E-01 0.14326913E+04</pdfrwt>
<totfact> 0.29203493E+01</totfact>
</mgrwt>
</event>
<event>
12    1  0.1518126E-007  0.1825358E+04  0.7818608E-02  0.8692929E-01
          3   -1    0    0  501    0  0.00000000000E+00  0.00000000000E+00  0.13246572560E+04  0.13246572560E+04  0.00000000000E+00 0. -1.
         -3   -1    0    0    0  501 -0.00000000000E+00 -0.00000000000E+00 -0.62882936480E+03  0.62882936480E+03  0.00000000000E+00 0.  1.
         23    2    1    2    0    0 -0.34475387251E+02  0.28975822672E+03  0.93488493216E+03  0.98363737318E+03  0.91565622623E+02 0.  0.
        254    2    1    2    0    0  0.34475387251E+02 -0.28975822672E+03 -0.23905704101E+03  0.96984924758E+03  0.89348246312E+03 0.  0.
        -24    2    4    4    0    0  0.10795287020E+03  0.30571387177E+03 -0.11410305895E+03  0.35176857565E+03  0.74878763187E+02 0.  0.
         24    2    4    4    0    0 -0.73477482954E+02 -0.59547209849E+03 -0.12495398205E+03  0.61808067193E+03  0.80151474104E+02 0.  0.
         11    1    3    3    0    0 -0.48919581414E+02  0.28638272948E+03  0.87642693777E+03  0.92332679504E+03  0.00000000000E+00 0. -1.
        -11    1    3    3    0    0  0.14444194163E+02  0.33754972382E+01  0.58457994397E+02  0.60310578139E+02  0.00000000000E+00 0.  1.
          2    1    6    6  502    0 -0.22767591213E+02 -0.25065840878E+03 -0.13029529164E+02  0.25202731942E+03  0.00000000000E+00 0. -1.
          3    1    5    5  503    0  0.25989667204E+02  0.12769628141E+03 -0.79806873634E+02  0.15281014419E+03  0.00000000000E+00 0. -1.
         -4    1    5    5    0  503  0.81963203000E+02  0.17801759036E+03 -0.34296185317E+02  0.19895843146E+03  0.00000000000E+00 0.  1.
         -1    1    6    6    0  502 -0.50709891741E+02 -0.34481368971E+03 -0.11192445289E+03  0.36605335251E+03  0.00000000000E+00 0.  1.
<mgrwt>
<rscale>  0 0.18253585E+04</rscale>
<asrwt>0</asrwt>
<pdfrwt beam="1">  1        3 0.20379342E+00 0.18253585E+04</pdfrwt>
<pdfrwt beam="2">  1       -3 0.96742979E-01 0.18253585E+04</pdfrwt>
<totfact> 0.32437150E-01</totfact>
</mgrwt>
</event>
<event>
12    1  0.1518126E-007  0.2340084E+04  0.7818608E-02  0.8462282E-01
          2   -1    0    0  501    0  0.00000000000E+00  0.00000000000E+00  0.28465720850E+04  0.28465720850E+04  0.00000000000E+00 0. -1.
         -2   -1    0    0    0  501 -0.00000000000E+00 -0.00000000000E+00 -0.48092888730E+03  0.48092888730E+03  0.00000000000E+00 0.  1.
         23    2    1    2    0    0  0.52093374850E+03  0.40717983951E+03 -0.44782267612E+02  0.66907289420E+03  0.92117827969E+02 0.  0.
        254    2    1    2    0    0 -0.52093374850E+03 -0.40717983951E+03  0.24104254653E+04  0.26584280781E+04  0.90549518531E+03 0.  0.
        -24    2    4    4    0    0 -0.10583854154E+03 -0.23388909530E+03  0.20733306222E+04  0.20907135516E+04  0.80482174089E+02 0.  0.
         24    2    4    4    0    0 -0.41509520696E+03 -0.17329074421E+03  0.33709484316E+03  0.56771452650E+03  0.79581011826E+02 0.  0.
         13    1    3    3    0    0  0.47858518999E+02  0.56915795616E+02 -0.30203162363E+02  0.80262548228E+02  0.00000000000E+00 0. -1.
        -13    1    3    3    0    0  0.47307522950E+03  0.35026404389E+03 -0.14579105249E+02  0.58881034597E+03  0.00000000000E+00 0.  1.
          2    1    6    6  502    0 -0.23822542690E+03 -0.12903710391E+03  0.16633356141E+03  0.31791316717E+03  0.00000000000E+00 0. -1.
          1    1    5    5  503    0 -0.28268401034E+02 -0.76564232864E+02  0.40186039259E+03  0.41006457952E+03  0.00000000000E+00 0. -1.
         -2    1    5    5    0  503 -0.77570140505E+02 -0.15732486244E+03  0.16714702296E+04  0.16806489721E+04  0.00000000000E+00 0.  1.
         -3    1    6    6    0  502 -0.17686978006E+03 -0.44253640293E+02  0.17076128175E+03  0.24980135933E+03  0.00000000000E+00 0.  1.
<mgrwt>
<rscale>  0 0.23400844E+04</rscale>
<asrwt>0</asrwt>
<pdfrwt beam="1">  1        2 0.43793416E+00 0.23400844E+04</pdfrwt>
<pdfrwt beam="2">  1       -2 0.73989061E-01 0.23400844E+04</pdfrwt>
<totfact> 0.32226897E+00</totfact>
</mgrwt>
</event>
<event>
12    1  0.1518126E-007  0.1594227E+04  0.7818608E-02  0.8824102E-01
          1   -1    0    0  501    0  0.00000000000E+00  0.00000000000E+00  0.20477172016E+04  0.20477172016E+04  0.00000000000E+00 0. -1.
         -1   -1    0    0    0  501 -0.00000000000E+00 -0.00000000000E+00 -0.31029187009E+03  0.31029187009E+03  0.00000000000E+00 0.  1.
         23    2    1    2    0    0 -0.32902529576E+03  0.12698093948E+03 -0.62948189666E+01  0.36489151974E+03  0.93404454874E+02 0.  0.
        254    2    1    2    0    0  0.32902529576E+03 -0.12698093948E+03  0.17437201504E+04  0.19931175519E+04  0.89865221775E+03 0.  0.
        -24    2    4    4    0    0  0.47117722100E+03 -0.41267350556E+03  0.10464862282E+04  0.12222437425E+04  0.80243033558E+02 0.  0.
         24    2    4    4    0    0 -0.14215192524E+03  0.28569256608E+03  0.69723392219E+03  0.77087380940E+03  0.79270900072E+02 0.  0.
         13    1    3    3    0    0 -0.20588007094E+03  0.51154169617E+02 -0.41239567682E+02  0.21611120892E+03  0.00000000000E+00 0.  1.
        -13    1    3    3    0    0 -0.12314522482E+03  0.75826769864E+02  0.34944748715E+02  0.14878031082E+03  0.00000000000E+00 0. -1.
          4    1    6    6  502    0 -0.12848389219E+03  0.23578606187E+03  0.50687360194E+03  0.57360615920E+03  0.00000000000E+00 0. -1.
          1    1    5    5  503    0  0.26881922515E+03 -0.19825303377E+03  0.61103584198E+03  0.69637119512E+03  0.00000000000E+00 0. -1.
         -2    1    5    5    0  503  0.20235799585E+03 -0.21442047179E+03  0.43545038626E+03  0.52587254739E+03  0.00000000000E+00 0.  1.
         -3    1    6    6    0  502 -0.13668033049E+02  0.49906504211E+02  0.19036032025E+03  0.19726765020E+03  0.00000000000E+00 0.  1.
<mgrwt>
<rscale>  0 0.15942271E+04</rscale>
<asrwt>0</asrwt>
<pdfrwt beam="1">  1        1 0.31503341E+00 0.15942271E+04</pdfrwt>
<pdfrwt beam="2">  1       -1 0.47737212E-01 0.15942271E+04</pdfrwt>
<totfact> 0.11642931E+01</totfact>
</mgrwt>
</event>
<event>
12    1  0.1518126E-007  0.1317081E+04  0.7818608E-02  0.9016128E-01
         -1   -1    0    0    0  501 -0.00000000000E+00  0.00000000000E+00  0.54104740164E+03  0.54104740164E+03  0.00000000000E+00 0.  1.
          1   -1    0    0  501    0  0.00000000000E+00 -0.00000000000E+00 -0.80154849857E+03  0.80154849857E+03  0.00000000000E+00 0. -1.
         23    2    1    2    0    0  0.52216011538E+02 -0.20394594120E+03  0.86187918262E+02  0.24683468693E+03  0.95804731740E+02 0.  0.
        254    2    1    2    0    0 -0.52216011538E+02  0.20394594120E+03 -0.34668901519E+03  0.10957612133E+04  0.10179287325E+04 0.  0.
        -24    2    4    4    0    0  0.24358444642E+03  0.24404576069E+03  0.24310631278E+03  0.42953447316E+03  0.80668881722E+02 0.  0.
         24    2    4    4    0    0 -0.29580045795E+03 -0.40099819491E+02 -0.58979532797E+03  0.66622674012E+03  0.83027910372E+02 0.  0.
         11    1    3    3    0    0 -0.18695860064E+02 -0.30630594340E+02  0.40440434885E+02  0.54066600289E+02  0.00000000000E+00 0.  1.
        -11    1    3    3    0    0  0.70911871602E+02 -0.17331534686E+03  0.45747483378E+02  0.19276808664E+03  0.00000000000E+00 0. -1.
          4    1    6    6  502    0 -0.29862225059E+03 -0.45803461044E+02 -0.56585888679E+03  0.64145887269E+03  0.00000000000E+00 0. -1.
          1    1    5    5  503    0  0.23239427946E+03  0.24645623871E+03  0.22047937322E+03  0.40417685825E+03  0.00000000000E+00 0. -1.
         -2    1    5    5    0  503  0.11190166952E+02 -0.24104780189E+01  0.22626939555E+02  0.25357614918E+02  0.00000000000E+00 0.  1.
         -1    1    6    6    0  502  0.28217926322E+01  0.57036415534E+01 -0.23936441180E+02  0.24767867429E+02  0.00000000000E+00 0.  1.
<mgrwt>
<rscale>  0 0.13170812E+04</rscale>
<asrwt>0</asrwt>
<pdfrwt beam="1">  1        1 0.12331515E+00 0.13170812E+04</pdfrwt>
<pdfrwt beam="2">  1       -1 0.83238062E-01 0.13170812E+04</pdfrwt>
<totfact> 0.30997308E+01</totfact>
</mgrwt>
</event>
<event>
12    1  0.1518126E-007  0.2573247E+04  0.7818608E-02  0.8377346E-01
          2   -1    0    0  501    0  0.00000000000E+00  0.00000000000E+00  0.23039476567E+04  0.23039476567E+04  0.00000000000E+00 0. -1.
         -2   -1    0    0    0  501 -0.00000000000E+00 -0.00000000000E+00 -0.71850588008E+03  0.71850588008E+03  0.00000000000E+00 0.  1.
         23    2    1    2    0    0  0.84502876401E+03  0.24979627786E+03  0.15189488300E+04  0.17585406318E+04  0.93743336531E+02 0.  0.
        254    2    1    2    0    0 -0.84502876401E+03 -0.24979627786E+03  0.66492946577E+02  0.12639129049E+04  0.90364967042E+03 0.  0.
        -24    2    4    4    0    0 -0.74494109987E+03 -0.44392333356E+03  0.31166090505E+03  0.92541155856E+03  0.85140264442E+02 0.  0.
         24    2    4    4    0    0 -0.10008766414E+03  0.19412705571E+03 -0.24516795847E+03  0.33850134636E+03  0.82298112712E+02 0.  0.
         13    1    3    3    0    0  0.64167874627E+03  0.18105591835E+03  0.12231373949E+04  0.13930534612E+04  0.00000000000E+00 0. -1.
        -13    1    3    3    0    0  0.20335001774E+03  0.68740359504E+02  0.29581143510E+03  0.36548717061E+03  0.00000000000E+00 0.  1.
          4    1    6    6  502    0 -0.63642389349E+02  0.15826068517E+03 -0.13673546247E+03  0.21861698216E+03  0.00000000000E+00 0. -1.
          3    1    5    5  503    0 -0.71419551233E+03 -0.41388338468E+03  0.31193087508E+03  0.88242594974E+03  0.00000000000E+00 0. -1.
         -4    1    5    5    0  503 -0.30745587537E+02 -0.30039948883E+02 -0.26997003038E+00  0.42985608820E+02  0.00000000000E+00 0.  1.
         -3    1    6    6    0  502 -0.36445274793E+02  0.35866370537E+02 -0.10843249600E+03  0.11988436420E+03  0.00000000000E+00 0.  1.
<mgrwt>
<rscale>  0 0.25732469E+04</rscale>
<asrwt>0</asrwt>
<pdfrwt beam="1">  1        2 0.35445348E+00 0.25732469E+04</pdfrwt>
<pdfrwt beam="2">  1       -2 0.11053937E+00 0.25732469E+04</pdfrwt>
<totfact> 0.25956493E+00</totfact>
</mgrwt>
</event>
<event>
12    1  0.1518126E-007  0.1143125E+04  0.7818608E-02  0.9164150E-01
          3   -1    0    0  501    0  0.00000000000E+00  0.00000000000E+00  0.53028255949E+03  0.53028255949E+03  0.00000000000E+00 0. -1.
         -3   -1    0    0    0  501 -0.00000000000E+00 -0.00000000000E+00 -0.61605546368E+03  0.61605546368E+03  0.00000000000E+00 0.  1.
         23    2    1    2    0    0 -0.74848662054E+02 -0.74684006420E+02 -0.18268653569E+03  0.22969540184E+03  0.90584680159E+02 0.  0.
        254    2    1    2    0    0  0.74848662054E+02  0.74684006420E+02  0.96913631499E+02  0.91664262133E+03  0.90535154511E+03 0.  0.
        -24    2    4    4    0    0 -0.22348463753E+02 -0.13425370911E+03 -0.36299384007E+03  0.39576957063E+03  0.79658727507E+02 0.  0.
         24    2    4    4    0    0  0.97197125807E+02  0.20893771553E+03  0.45990747157E+03  0.52087305069E+03  0.81802214497E+02 0.  0.
         13    1    3    3    0    0 -0.25058526593E+02 -0.18466774139E+02  0.11114685285E+01  0.31147822787E+02  0.00000000000E+00 0. -1.
        -13    1    3    3    0    0 -0.49790135462E+02 -0.56217232281E+02 -0.18379800422E+03  0.19854757905E+03  0.00000000000E+00 0.  1.
          4    1    6    6  502    0  0.20758574910E+01  0.99524634976E+02  0.18640416694E+03  0.21131960535E+03  0.00000000000E+00 0. -1.
          1    1    5    5  503    0 -0.25736596124E+02 -0.25197809803E+02 -0.35474717649E+02  0.50554501196E+02  0.00000000000E+00 0. -1.
         -2    1    5    5    0  503  0.33881323716E+01 -0.10905589931E+03 -0.32751912242E+03  0.34521506944E+03  0.00000000000E+00 0.  1.
         -3    1    6    6    0  502  0.95121268316E+02  0.10941308056E+03  0.27350330462E+03  0.30955344534E+03  0.00000000000E+00 0.  1.
<mgrwt>
<rscale>  0 0.11431246E+04</rscale>
<asrwt>0</asrwt>
<pdfrwt beam="1">  1        3 0.81581933E-01 0.11431246E+04</pdfrwt>
<pdfrwt beam="2">  1       -3 0.94777763E-01 0.11431246E+04</pdfrwt>
<totfact> 0.35788736E+00</totfact>
</mgrwt>
</event>
<event>
12    1  0.1518126E-007  0.2014911E+04  0.7818608E-02  0.8599681E-01
          2   -1    0    0  501    0  0.00000000000E+00  0.00000000000E+00  0.10649781924E+04  0.10649781924E+04  0.00000000000E+00 0. -1.
         -2   -1    0    0    0  501 -0.00000000000E+00 -0.00000000000E+00 -0.95303979078E+03  0.95303979078E+03  0.00000000000E+00 0.  1.
         23    2    1    2    0    0 -0.45669205055E+03  0.59150879950E+03  0.32799781937E+03  0.82081757373E+03  0.87798809313E+02 0.  0.
        254    2    1    2    0    0  0.45669205055E+03 -0.59150879950E+03 -0.21605941777E+03  0.11972004094E+04  0.91003124090E+03 0.  0.
        -24    2    4    4    0    0  0.21926506771E+03 -0.63329851120E+03 -0.48180048476E+03  0.82952253655E+03  0.82654445189E+02 0.  0.
         24    2    4    4    0    0  0.23742698283E+03  0.41789711706E+02  0.26574106699E+03  0.36767787288E+03  0.80316569504E+02 0.  0.
         11    1    3    3    0    0 -0.18640015492E+03  0.27829412921E+03  0.10612511303E+03  0.35136189282E+03  0.00000000000E+00 0.  1.
        -11    1    3    3    0    0 -0.27029189562E+03  0.31321467029E+03  0.22187270634E+03  0.46945568091E+03  0.00000000000E+00 0. -1.
          4    1    6    6  502    0  0.23949506034E+03  0.32847714298E+02  0.26464848399E+03  0.35843503782E+03  0.00000000000E+00 0. -1.
          3    1    5    5  503    0  0.15096285492E+03 -0.34177452790E+03 -0.30062281102E+03  0.47955571730E+03  0.00000000000E+00 0. -1.
         -4    1    5    5    0  503  0.68302212795E+02 -0.29152398330E+03 -0.18117767375E+03  0.34996681925E+03  0.00000000000E+00 0.  1.
         -3    1    6    6    0  502 -0.20680775091E+01  0.89419974087E+01  0.10925830056E+01  0.92428350556E+01  0.00000000000E+00 0.  1.
<mgrwt>
<rscale>  0 0.20149110E+04</rscale>
<asrwt>0</asrwt>
<pdfrwt beam="1">  1        2 0.16384280E+00 0.20149110E+04</pdfrwt>
<pdfrwt beam="2">  1       -2 0.14662150E+00 0.20149110E+04</pdfrwt>
<totfact> 0.67641266E+00</totfact>
</mgrwt>
</event>
<event>
12    1  0.1518126E-007  0.1933728E+04  0.7818608E-02  0.8638248E-01
          2   -1    0    0  501    0  0.00000000000E+00  0.00000000000E+00  0.28963092187E+04  0.28963092187E+04  0.00000000000E+00 0. -1.
         -2   -1    0    0    0  501 -0.00000000000E+00 -0.00000000000E+00 -0.32276449523E+03  0.32276449523E+03  0.00000000000E+00 0.  1.
         23    2    1    2    0    0 -0.91243689552E+02 -0.25006743638E+02 -0.23112876775E+03  0.26623979309E+03  0.92262516951E+02 0.  0.
        254    2    1    2    0    0  0.91243689552E+02  0.25006743638E+02  0.28046734913E+04  0.29528339209E+04  0.91874045497E+03 0.  0.
        -24    2    4    4    0    0  0.12171886293E+03 -0.21757532124E+03  0.26287707700E+04  0.26417290127E+04  0.78370360146E+02 0.  0.
         24    2    4    4    0    0 -0.30475173382E+02  0.24258206488E+03  0.17590272128E+03  0.31110490819E+03  0.77908293241E+02 0.  0.
         13    1    3    3    0    0 -0.24312006363E+01 -0.59214816189E+01  0.81120340085E+01  0.10333430062E+02  0.00000000000E+00 0. -1.
        -13    1    3    3    0    0 -0.88812488916E+02 -0.19085262019E+02 -0.23924080176E+03  0.25590636303E+03  0.00000000000E+00 0.  1.
          4    1    6    6  502    0  0.20644410662E+02  0.74247480048E+02  0.78544261540E+02  0.11003672571E+03  0.00000000000E+00 0. -1.
          1    1    5    5  503    0  0.32122596438E+02 -0.13628515615E+03  0.13429990742E+04  0.13502784966E+04  0.00000000000E+00 0. -1.
         -2    1    5    5    0  503  0.89596266496E+02 -0.81290165086E+02  0.12857716958E+04  0.12914505161E+04  0.00000000000E+00 0.  1.
         -3    1    6    6    0  502 -0.51119584044E+02  0.16833458483E+03  0.97358459739E+02  0.20106818248E+03  0.00000000000E+00 0.  1.
<mgrwt>
<rscale>  0 0.19337278E+04</rscale>
<asrwt>0</asrwt>
<pdfrwt beam="1">  1        2 0.44558602E+00 0.19337278E+04</pdfrwt>
<pdfrwt beam="2">  1       -2 0.49656078E-01 0.19337278E+04</pdfrwt>
<totfact> 0.72564135E+00</totfact>
</mgrwt>
</event>
<event>
12    1  0.1518126E-007  0.1214793E+04  0.7818608E-02  0.9100006E-01
         -1   -1    0    0    0  501 -0.00000000000E+00  0.00000000000E+00  0.31555927415E+03  0.31555927415E+03  0.00000000000E+00 0.  1.
          1   -1    0    0  501    0  0.00000000000E+00 -0.00000000000E+00 -0.11691326927E+04  0.11691326927E+04  0.00000000000E+00 0. -1.
         23    2    1    2    0    0  0.16294689047E+03 -0.92575070738E+02 -0.41261981704E+03  0.46335645160E+03  0.96551825430E+02 0.  0.
        254    2    1    2    0    0 -0.16294689047E+03  0.92575070738E+02 -0.44095360154E+03  0.10213355153E+04  0.90197800593E+03 0.  0.
        -24    2    4    4    0    0  0.31698821611E+03  0.24133181297E+03 -0.14379824491E+03  0.43185187334E+03  0.84234981802E+02 0.  0.
         24    2    4    4    0    0 -0.47993510658E+03 -0.14875674223E+03 -0.29715535662E+03  0.58948364192E+03  0.81996239159E+02 0.  0.
         13    1    3    3    0    0  0.59823911174E+02  0.14954076617E+01 -0.20203456848E+03  0.21071094763E+03  0.00000000000E+00 0. -1.
        -13    1    3    3    0    0  0.10312297930E+03 -0.94070478400E+02 -0.21058524856E+03  0.25264550397E+03  0.00000000000E+00 0.  1.
          2    1    6    6  502    0 -0.26529666867E+03 -0.63144945524E+02 -0.20294085235E+03  0.33993322301E+03  0.00000000000E+00 0. -1.
          1    1    5    5  503    0  0.25306535990E+03  0.19839721178E+03 -0.14954024615E+03  0.35463476316E+03  0.00000000000E+00 0. -1.
         -2    1    5    5    0  503  0.63922856214E+02  0.42934601191E+02  0.57420012378E+01  0.77217110178E+02  0.00000000000E+00 0.  1.
         -1    1    6    6    0  502 -0.21463843792E+03 -0.85611796710E+02 -0.94214504273E+02  0.24955041892E+03  0.00000000000E+00 0.  1.
<mgrwt>
<rscale>  0 0.12147933E+04</rscale>
<asrwt>0</asrwt>
<pdfrwt beam="1">  1        1 0.17986657E+00 0.12147933E+04</pdfrwt>
<pdfrwt beam="2">  1       -1 0.48547581E-01 0.12147933E+04</pdfrwt>
<totfact> 0.47241685E+01</totfact>
</mgrwt>
</event>
<event>
12    1  0.1518126E-007  0.1968442E+04  0.7818608E-02  0.8621519E-01
         -1   -1    0    0    0  501 -0.00000000000E+00  0.00000000000E+00  0.13693383960E+04  0.13693383960E+04  0.00000000000E+00 0.  1.
          1   -1    0    0  501    0  0.00000000000E+00 -0.00000000000E+00 -0.70741499426E+03  0.70741499426E+03  0.00000000000E+00 0. -1.
         23    2    1    2    0    0  0.70702740179E+03  0.26319100263E+03  0.43933097906E+03  0.87738560750E+03  0.87387323725E+02 0.  0.
        254    2    1    2    0    0 -0.70702740179E+03 -0.26319100263E+03  0.22259242265E+03  0.11993677827E+04  0.90541616998E+03 0.  0.
        -24    2    4    4    0    0 -0.60100165651E+02  0.17058037607E+03  0.35393594253E+03  0.40543339338E+03  0.79974311149E+02 0.  0.
         24    2    4    4    0    0 -0.64692723614E+03 -0.43377137870E+03 -0.13134351988E+03  0.79393438934E+03  0.80051461717E+02 0.  0.
         11    1    3    3    0    0  0.13836164573E+03  0.17680199244E+02  0.67646697091E+02  0.15502454671E+03  0.00000000000E+00 0. -1.
        -11    1    3    3    0    0  0.56866575606E+03  0.24551080338E+03  0.37168428197E+03  0.72236106080E+03  0.00000000000E+00 0.  1.
          4    1    6    6  502    0 -0.76835121463E+02 -0.71446574905E+02 -0.40052686521E+02  0.11230523876E+03  0.00000000000E+00 0. -1.
          3    1    5    5  503    0 -0.49551816501E+02  0.33000369417E+02  0.11586950500E+03  0.13026952479E+03  0.00000000000E+00 0. -1.
         -4    1    5    5    0  503 -0.10548349150E+02  0.13758000665E+03  0.23806643753E+03  0.27516386859E+03  0.00000000000E+00 0.  1.
         -3    1    6    6    0  502 -0.57009211468E+03 -0.36232480379E+03 -0.91290833362E+02  0.68162915058E+03  0.00000000000E+00 0.  1.
<mgrwt>
<rscale>  0 0.19684415E+04</rscale>
<asrwt>0</asrwt>
<pdfrwt beam="1">  1        1 0.10883308E+00 0.19684415E+04</pdfrwt>
<pdfrwt beam="2">  1       -1 0.21066744E+00 0.19684415E+04</pdfrwt>
<totfact> 0.31721516E+00</totfact>
</mgrwt>
</event>
<event>
12    1  0.1518126E-007  0.1208527E+04  0.7818608E-02  0.9105425E-01
         -2   -1    0    0    0  501 -0.00000000000E+00  0.00000000000E+00  0.45394184676E+03  0.45394184676E+03  0.00000000000E+00 0.  1.
          2   -1    0    0  501    0  0.00000000000E+00 -0.00000000000E+00 -0.80436427966E+03  0.80436427966E+03  0.00000000000E+00 0. -1.
         23    2    1    2    0    0  0.70627669628E+02  0.99972665734E+02  0.16120505070E+03  0.22287653959E+03  0.93295669344E+02 0.  0.
        254    2    1    2    0    0 -0.70627669628E+02 -0.99972665734E+02 -0.51162748361E+03  0.10354295868E+04  0.89183459547E+03 0.  0.
        -24    2    4    4    0    0 -0.24074136652E+03  0.17416117415E+03 -0.61474044117E+03  0.68741425105E+03  0.79649371639E+02 0.  0.
         24    2    4    4    0    0  0.17011369689E+03 -0.27413383989E+03  0.10311295756E+03  0.34801533578E+03  0.79964741465E+02 0.  0.
         11    1    3    3    0    0 -0.38575040874E+01  0.48816875042E+02  0.10657246252E+03  0.11728451472E+03  0.00000000000E+00 0.  1.
        -11    1    3    3    0    0  0.74485173715E+02  0.51155790692E+02  0.54632588186E+02  0.10559202487E+03  0.00000000000E+00 0. -1.
          2    1    6    6  502    0  0.57996262918E+02 -0.11044683716E+03  0.72350369292E+00  0.12475012549E+03  0.00000000000E+00 0. -1.
          3    1    5    5  503    0 -0.25738765919E+02  0.57528132173E+02 -0.12596510829E+03  0.14085161898E+03  0.00000000000E+00 0. -1.
         -4    1    5    5    0  503 -0.21500260060E+03  0.11663304198E+03 -0.48877533288E+03  0.54656263207E+03  0.00000000000E+00 0.  1.
         -1    1    6    6    0  502  0.11211743397E+03 -0.16368700272E+03  0.10238945387E+03  0.22326521029E+03  0.00000000000E+00 0.  1.
<mgrwt>
<rscale>  0 0.12085274E+04</rscale>
<asrwt>0</asrwt>
<pdfrwt beam="1">  1        2 0.12374835E+00 0.12085274E+04</pdfrwt>
<pdfrwt beam="2">  1       -2 0.69837207E-01 0.12085274E+04</pdfrwt>
<totfact> 0.63039287E+01</totfact>
</mgrwt>
</event>
<event>
12    1  0.1518126E-007  0.2662607E+04  0.7818608E-02  0.8347241E-01
          1   -1    0    0  501    0  0.00000000000E+00  0.00000000000E+00  0.14525052029E+04  0.14525052029E+04  0.00000000000E+00 0. -1.
         -1   -1    0    0    0  501 -0.00000000000E+00 -0.00000000000E+00 -0.12202148009E+04  0.12202148009E+04  0.00000000000E+00 0.  1.
         23    2    1    2    0    0 -0.44014370724E+03 -0.70580424421E+01 -0.99218127007E+03  0.10888738357E+04  0.86291704897E+02 0.  0.
        254    2    1    2    0    0  0.44014370724E+03  0.70580424421E+01  0.12244716721E+04  0.15838461681E+04  0.90302907454E+03 0.  0.
        -24    2    4    4    0    0  0.21117598429E+03 -0.28611149954E+03  0.72773393900E+02  0.37116113487E+03  0.77521188507E+02 0.  0.
         24    2    4    4    0    0  0.22896772295E+03  0.29316954198E+03  0.11516982782E+04  0.12126850332E+04  0.76298540959E+02 0.  0.
         11    1    3    3    0    0 -0.24123883100E+03  0.21874169659E+02 -0.45765081142E+03  0.51780200664E+03  0.00000000000E+00 0. -1.
        -11    1    3    3    0    0 -0.19890487623E+03 -0.28932212102E+02 -0.53453045865E+03  0.57107182903E+03  0.00000000000E+00 0.  1.
          2    1    6    6  502    0  0.20673249885E+02  0.42448673661E+02  0.23665790953E+03  0.24132185832E+03  0.00000000000E+00 0. -1.
          3    1    5    5  503    0  0.41336046434E+02 -0.11725081347E+03  0.29662340154E+02  0.12781344380E+03  0.00000000000E+00 0. -1.
         -4    1    5    5    0  503  0.16983993786E+03 -0.16886068608E+03  0.43111053746E+02  0.24334769107E+03  0.00000000000E+00 0.  1.
         -1    1    6    6    0  502  0.20829447306E+03  0.25072086832E+03  0.91504036862E+03  0.97136317489E+03  0.00000000000E+00 0.  1.
<mgrwt>
<rscale>  0 0.26626065E+04</rscale>
<asrwt>0</asrwt>
<pdfrwt beam="1">  1        1 0.22346234E+00 0.26626065E+04</pdfrwt>
<pdfrwt beam="2">  1       -1 0.18772535E+00 0.26626065E+04</pdfrwt>
<totfact> 0.11337346E+00</totfact>
</mgrwt>
</event>
<event>
12    1  0.1518126E-007  0.1514112E+04  0.7818608E-02  0.8875122E-01
         -2   -1    0    0    0  501 -0.00000000000E+00  0.00000000000E+00  0.27614401886E+03  0.27614401886E+03  0.00000000000E+00 0.  1.
          2   -1    0    0  501    0  0.00000000000E+00 -0.00000000000E+00 -0.20754891652E+04  0.20754891652E+04  0.00000000000E+00 0. -1.
         23    2    1    2    0    0  0.26540288916E+03  0.29808805209E+03 -0.15903537560E+03  0.43942332451E+03  0.92224872276E+02 0.  0.
        254    2    1    2    0    0 -0.26540288916E+03 -0.29808805209E+03 -0.16403097708E+04  0.19122098596E+04  0.89812873386E+03 0.  0.
        -24    2    4    4    0    0 -0.22207507996E+03 -0.58834205012E+03 -0.13527559333E+04  0.14938452047E+04  0.78493130208E+02 0.  0.
         24    2    4    4    0    0 -0.43327809200E+02  0.29025399804E+03 -0.28755383747E+03  0.41836465485E+03  0.78848541915E+02 0.  0.
         13    1    3    3    0    0  0.30624065065E+02  0.10144176876E+02  0.61289560695E+01  0.32837505814E+02  0.00000000000E+00 0.  1.
        -13    1    3    3    0    0  0.23477882409E+03  0.28794387521E+03 -0.16516433167E+03  0.40658581870E+03  0.00000000000E+00 0. -1.
          2    1    6    6  502    0 -0.46485798704E+02  0.28308987599E+03 -0.25163730273E+03  0.38160469009E+03  0.00000000000E+00 0. -1.
          3    1    5    5  503    0 -0.19030289076E+03 -0.55842610767E+03 -0.12672072864E+04  0.13978087189E+04  0.00000000000E+00 0. -1.
         -4    1    5    5    0  503 -0.31772189193E+02 -0.29915942457E+02 -0.85548646879E+02  0.96036485786E+02  0.00000000000E+00 0.  1.
         -1    1    6    6    0  502  0.31579895033E+01  0.71641220477E+01 -0.35916534734E+02  0.36759964768E+02  0.00000000000E+00 0.  1.
<mgrwt>
<rscale>  0 0.15141122E+04</rscale>
<asrwt>0</asrwt>
<pdfrwt beam="1">  1        2 0.31930604E+00 0.15141122E+04</pdfrwt>
<pdfrwt beam="2">  1       -2 0.42483693E-01 0.15141122E+04</pdfrwt>
<totfact> 0.30757538E+01</totfact>
</mgrwt>
</event>
<event>
12    1  0.1518126E-007  0.1396765E+04  0.7818608E-02  0.8956164E-01
          1   -1    0    0  501    0  0.00000000000E+00  0.00000000000E+00  0.14189858863E+04  0.14189858863E+04  0.00000000000E+00 0. -1.
         -1   -1    0    0    0  501 -0.00000000000E+00 -0.00000000000E+00 -0.34372277893E+03  0.34372277893E+03  0.00000000000E+00 0.  1.
         23    2    1    2    0    0 -0.14566349824E+03 -0.18296058985E+03  0.71655619480E+03  0.75924291659E+03  0.91129544817E+02 0.  0.
        254    2    1    2    0    0  0.14566349824E+03  0.18296058985E+03  0.35870691257E+03  0.10034657486E+04  0.90751332078E+03 0.  0.
        -24    2    4    4    0    0 -0.30077029419E+03  0.30669126634E+03  0.29745286064E+03  0.52934733717E+03  0.84900508530E+02 0.  0.
         24    2    4    4    0    0  0.44643379243E+03 -0.12373067650E+03  0.61254051938E+02  0.47411841147E+03  0.80148598768E+02 0.  0.
         13    1    3    3    0    0 -0.94936225500E+02 -0.16953684570E+03  0.61447115446E+03  0.64446134766E+03  0.00000000000E+00 0. -1.
        -13    1    3    3    0    0 -0.50727272738E+02 -0.13423744144E+02  0.10208504033E+03  0.11478156893E+03  0.00000000000E+00 0.  1.
          2    1    6    6  502    0  0.34554140447E+03 -0.12235058442E+03  0.68687959312E+02  0.37294311023E+03  0.00000000000E+00 0. -1.
          3    1    5    5  503    0 -0.12307259177E+02  0.25816248733E+02 -0.28031477270E+00  0.28601152136E+02  0.00000000000E+00 0. -1.
         -4    1    5    5    0  503 -0.28846303501E+03  0.28087501761E+03  0.29773317541E+03  0.50074618503E+03  0.00000000000E+00 0.  1.
         -1    1    6    6    0  502  0.10089238795E+03 -0.13800920744E+01 -0.74339073735E+01  0.10117530124E+03  0.00000000000E+00 0.  1.
<mgrwt>
<rscale>  0 0.13967645E+04</rscale>
<asrwt>0</asrwt>
<pdfrwt beam="1">  1        1 0.21830552E+00 0.13967645E+04</pdfrwt>
<pdfrwt beam="2">  1       -1 0.52880428E-01 0.13967645E+04</pdfrwt>
<totfact> 0.26194588E+01</totfact>
</mgrwt>
</event>
<event>
12    1  0.1518126E-007  0.1540001E+04  0.7818608E-02  0.8858280E-01
         -1   -1    0    0    0  501 -0.00000000000E+00  0.00000000000E+00  0.59213333560E+03  0.59213333560E+03  0.00000000000E+00 0.  1.
          1   -1    0    0  501    0  0.00000000000E+00 -0.00000000000E+00 -0.10012959076E+04  0.10012959076E+04  0.00000000000E+00 0. -1.
         23    2    1    2    0    0  0.89293950416E+02  0.51532644693E+03 -0.45113372970E+03  0.69671316569E+03  0.91393854746E+02 0.  0.
        254    2    1    2    0    0 -0.89293950416E+02 -0.51532644693E+03  0.41971157674E+02  0.89671607754E+03  0.72718868882E+03 0.  0.
        -24    2    4    4    0    0  0.11121571706E+03 -0.29230318340E+02 -0.25298884875E+03  0.28856937532E+03  0.77753325003E+02 0.  0.
         24    2    4    4    0    0 -0.20050966748E+03 -0.48609612859E+03  0.29496000642E+03  0.60814670222E+03  0.79670779139E+02 0.  0.
         13    1    3    3    0    0  0.91413261732E+02  0.50216693643E+03 -0.45396098521E+03  0.68308754384E+03  0.00000000000E+00 0. -1.
        -13    1    3    3    0    0 -0.21193113164E+01  0.13159510500E+02  0.28272555039E+01  0.13625621848E+02  0.00000000000E+00 0.  1.
          4    1    6    6  502    0 -0.10165607700E+03 -0.22386974349E+03  0.18242892577E+03  0.30615671314E+03  0.00000000000E+00 0. -1.
          1    1    5    5  503    0  0.86981333768E-01 -0.12925601964E+02 -0.88206503675E+02  0.89148561640E+02  0.00000000000E+00 0. -1.
         -2    1    5    5    0  503  0.11112873573E+03 -0.16304716376E+02 -0.16478234507E+03  0.19942081368E+03  0.00000000000E+00 0.  1.
         -3    1    6    6    0  502 -0.98853590475E+02 -0.26222638510E+03  0.11253108065E+03  0.30198998908E+03  0.00000000000E+00 0.  1.
<mgrwt>
<rscale>  0 0.15400009E+04</rscale>
<asrwt>0</asrwt>
<pdfrwt beam="1">  1        1 0.15404552E+00 0.15400009E+04</pdfrwt>
<pdfrwt beam="2">  1       -1 0.91097437E-01 0.15400009E+04</pdfrwt>
<totfact> 0.17120945E+01</totfact>
</mgrwt>
</event>
<event>
12    1  0.1518126E-007  0.2182560E+04  0.7818608E-02  0.8525722E-01
         -1   -1    0    0    0  501 -0.00000000000E+00  0.00000000000E+00  0.12492514709E+04  0.12492514709E+04  0.00000000000E+00 0.  1.
          1   -1    0    0  501    0  0.00000000000E+00 -0.00000000000E+00 -0.95328437439E+03  0.95328437439E+03  0.00000000000E+00 0. -1.
         23    2    1    2    0    0  0.32943714048E+03 -0.78927086051E+03  0.41695791352E+03  0.95513071940E+03  0.83327478701E+02 0.  0.
        254    2    1    2    0    0 -0.32943714048E+03  0.78927086051E+03 -0.12099081699E+03  0.12474051259E+04  0.89994635928E+03 0.  0.
        -24    2    4    4    0    0 -0.28690335826E+03  0.98344975346E+03 -0.10319120353E+03  0.10326470830E+04  0.78896254924E+02 0.  0.
         24    2    4    4    0    0 -0.42533782225E+02 -0.19417889294E+03 -0.17799613459E+02  0.21475804289E+03  0.79307160156E+02 0.  0.
         11    1    3    3    0    0  0.62571721772E+01 -0.73864149687E+02  0.30735219688E+02  0.80247856930E+02  0.00000000000E+00 0. -1.
        -11    1    3    3    0    0  0.32317996831E+03 -0.71540671083E+03  0.38622269384E+03  0.87488286247E+03  0.00000000000E+00 0.  1.
          2    1    6    6  502    0 -0.10156190439E+02  0.45939898582E+00  0.11424072025E+02  0.15292765391E+02  0.00000000000E+00 0. -1.
          3    1    5    5  503    0 -0.46095637803E+02  0.27249566070E+03 -0.13760691659E+02  0.27670932322E+03  0.00000000000E+00 0. -1.
         -4    1    5    5    0  503 -0.24080772046E+03  0.71095409276E+03 -0.89430511873E+02  0.75593775980E+03  0.00000000000E+00 0.  1.
         -1    1    6    6    0  502 -0.32377591786E+02 -0.19463829193E+03 -0.29223685484E+02  0.19946527750E+03  0.00000000000E+00 0.  1.
<mgrwt>
<rscale>  0 0.21825599E+04</rscale>
<asrwt>0</asrwt>
<pdfrwt beam="1">  1        1 0.14665913E+00 0.21825599E+04</pdfrwt>
<pdfrwt beam="2">  1       -1 0.19219253E+00 0.21825599E+04</pdfrwt>
<totfact> 0.25655952E+00</totfact>
</mgrwt>
</event>
<event>
12    1  0.1518126E-007  0.1168396E+04  0.7818608E-02  0.9140978E-01
          3   -1    0    0  501    0  0.00000000000E+00  0.00000000000E+00  0.14989658203E+04  0.14989658203E+04  0.00000000000E+00 0. -1.
         -3   -1    0    0    0  501 -0.00000000000E+00 -0.00000000000E+00 -0.22768176246E+03  0.22768176246E+03  0.00000000000E+00 0.  1.
         23    2    1    2    0    0  0.72808910877E+02 -0.13997889149E+03  0.22426730208E+02  0.18423849410E+03  0.92442614174E+02 0.  0.
        254    2    1    2    0    0 -0.72808910877E+02  0.13997889149E+03  0.12488573277E+04  0.15424090887E+04  0.89133941038E+03 0.  0.
        -24    2    4    4    0    0 -0.37870115911E+03  0.35339852784E+03  0.73289804166E+03  0.90095090092E+03  0.79170063761E+02 0.  0.
         24    2    4    4    0    0  0.30589224824E+03 -0.21341963635E+03  0.51595928600E+03  0.64145818779E+03  0.78336537800E+02 0.  0.
         11    1    3    3    0    0  0.81265056301E+02 -0.90274495795E+02  0.44285620918E+02  0.12928538273E+03  0.00000000000E+00 0.  1.
        -11    1    3    3    0    0 -0.84561454241E+01 -0.49704395691E+02 -0.21858890710E+02  0.54953111373E+02  0.00000000000E+00 0. -1.
          2    1    6    6  502    0  0.27996778036E+03 -0.18492804081E+03  0.41675392936E+03  0.53503661179E+03  0.00000000000E+00 0. -1.
          1    1    5    5  503    0 -0.18533361806E+03  0.12135525421E+03  0.32790350121E+03  0.39572257178E+03  0.00000000000E+00 0. -1.
         -2    1    5    5    0  503 -0.19336754106E+03  0.23204327363E+03  0.40499454045E+03  0.50522832914E+03  0.00000000000E+00 0.  1.
         -1    1    6    6    0  502  0.25924467874E+02 -0.28491595545E+02  0.99205356641E+02  0.10642157600E+03  0.00000000000E+00 0.  1.
<mgrwt>
<rscale>  0 0.11683958E+04</rscale>
<asrwt>0</asrwt>
<pdfrwt beam="1">  1        3 0.23061012E+00 0.11683958E+04</pdfrwt>
<pdfrwt beam="2">  1       -3 0.35027964E-01 0.11683958E+04</pdfrwt>
<totfact> 0.20099367E+00</totfact>
</mgrwt>
</event>
<event>
12    1  0.1518126E-007  0.1597513E+04  0.7818608E-02  0.8822078E-01
          2   -1    0    0  501    0  0.00000000000E+00  0.00000000000E+00  0.15998571787E+04  0.15998571787E+04  0.00000000000E+00 0.  1.
         -2   -1    0    0    0  501 -0.00000000000E+00 -0.00000000000E+00 -0.39879287597E+03  0.39879287597E+03  0.00000000000E+00 0. -1.
         23    2    1    2    0    0 -0.80444506990E+02  0.32137106308E+03  0.94771787137E+03  0.10080881605E+04  0.91224430986E+02 0.  0.
        254    2    1    2    0    0  0.80444506990E+02 -0.32137106308E+03  0.25334643132E+03  0.99056189410E+03  0.89848637880E+03 0.  0.
        -24    2    4    4    0    0  0.36614595237E+03 -0.17142284281E+03  0.44575096335E+03  0.60680061418E+03  0.77874351172E+02 0.  0.
         24    2    4    4    0    0 -0.28570144538E+03 -0.14994822027E+03 -0.19240453203E+03  0.38376127992E+03  0.78380044419E+02 0.  0.
         13    1    3    3    0    0  0.82598713441E+01  0.86907212951E+01  0.91056377275E+02  0.91842353812E+02  0.00000000000E+00 0. -1.
        -13    1    3    3    0    0 -0.88704378334E+02  0.31268034179E+03  0.85666149409E+03  0.91624580672E+03  0.00000000000E+00 0.  1.
          2    1    6    6  502    0 -0.86989129342E+01  0.28750335660E+01 -0.23305362482E+02  0.25041502045E+02  0.00000000000E+00 0. -1.
          3    1    5    5  503    0  0.40252261033E+02 -0.28326665102E+02  0.95522455940E+02  0.10745782458E+03  0.00000000000E+00 0. -1.
         -4    1    5    5    0  503  0.32589369134E+03 -0.14309617771E+03  0.35022850741E+03  0.49934278961E+03  0.00000000000E+00 0.  1.
         -1    1    6    6    0  502 -0.27700253244E+03 -0.15282325384E+03 -0.16909916955E+03  0.35871977787E+03  0.00000000000E+00 0.  1.
<mgrwt>
<rscale>  0 0.15975126E+04</rscale>
<asrwt>0</asrwt>
<pdfrwt beam="1">  1        2 0.24613187E+00 0.15975126E+04</pdfrwt>
<pdfrwt beam="2">  1       -2 0.61352751E-01 0.15975126E+04</pdfrwt>
<totfact> 0.26423337E+01</totfact>
</mgrwt>
</event>
<event>
12    1  0.1518126E-007  0.1085797E+04  0.7818608E-02  0.9219146E-01
          2   -1    0    0  501    0  0.00000000000E+00  0.00000000000E+00  0.28278824967E+04  0.28278824967E+04  0.00000000000E+00 0. -1.
         -2   -1    0    0    0  501 -0.00000000000E+00 -0.00000000000E+00 -0.10422603069E+03  0.10422603069E+03  0.00000000000E+00 0.  1.
         23    2    1    2    0    0  0.79914239635E+02 -0.57471618461E+02  0.70220226075E+03  0.71579076929E+03  0.97873069707E+02 0.  0.
        254    2    1    2    0    0 -0.79914239635E+02  0.57471618461E+02  0.20214542052E+04  0.22163177581E+04  0.90338144117E+03 0.  0.
        -24    2    4    4    0    0 -0.31581016751E+03 -0.29531332110E+03  0.13251540953E+04  0.13961883036E+04  0.79764548685E+02 0.  0.
         24    2    4    4    0    0  0.23589592788E+03  0.35278493957E+03  0.69630010992E+03  0.82012945448E+03  0.87603519659E+02 0.  0.
         13    1    3    3    0    0  0.68826330403E+02 -0.79963508779E+02  0.64141643465E+03  0.65003559067E+03  0.00000000000E+00 0. -1.
        -13    1    3    3    0    0  0.11087909232E+02  0.22491890318E+02  0.60785826091E+02  0.65755178616E+02  0.00000000000E+00 0.  1.
          2    1    6    6  502    0  0.20335896934E+03  0.26443143907E+03  0.59277686143E+03  0.68019354880E+03  0.00000000000E+00 0. -1.
          3    1    5    5  503    0 -0.31138493901E+03 -0.27940701494E+03  0.13032760929E+04  0.13687795420E+04  0.00000000000E+00 0. -1.
         -4    1    5    5    0  503 -0.44252284995E+01 -0.15906306168E+02  0.21878002447E+02  0.27408761633E+02  0.00000000000E+00 0.  1.
         -1    1    6    6    0  502  0.32536958542E+02  0.88353500498E+02  0.10352324849E+03  0.13993590568E+03  0.00000000000E+00 0.  1.
<mgrwt>
<rscale>  0 0.10857973E+04</rscale>
<asrwt>0</asrwt>
<pdfrwt beam="1">  1        2 0.43505879E+00 0.10857973E+04</pdfrwt>
<pdfrwt beam="2">  1       -2 0.16034776E-01 0.10857973E+04</pdfrwt>
<totfact> 0.70365611E+01</totfact>
</mgrwt>
</event>
<event>
12    1  0.1518126E-007  0.3079470E+04  0.7818608E-02  0.8221395E-01
         -2   -1    0    0    0  501 -0.00000000000E+00  0.00000000000E+00  0.61488659336E+03  0.61488659336E+03  0.00000000000E+00 0.  1.
          2   -1    0    0  501    0  0.00000000000E+00 -0.00000000000E+00 -0.38556440883E+04  0.38556440883E+04  0.00000000000E+00 0. -1.
         23    2    1    2    0    0  0.25711625161E+03  0.21407743962E+03  0.50007486683E+03  0.60884132492E+03  0.93139516320E+02 0.  0.
        254    2    1    2    0    0 -0.25711625161E+03 -0.21407743962E+03 -0.37408323618E+04  0.38616893568E+04  0.89826500102E+03 0.  0.
        -24    2    4    4    0    0 -0.24587170291E+03 -0.35977613478E+03 -0.36401128771E+04  0.36668622256E+04  0.74599345544E+02 0.  0.
         24    2    4    4    0    0 -0.11244548706E+02  0.14569869517E+03 -0.10071948469E+03  0.19482713111E+03  0.80365706443E+02 0.  0.
         13    1    3    3    0    0  0.15647118152E+01  0.21888574825E+01 -0.42702305394E+01  0.50472060591E+01  0.00000000000E+00 0. -1.
        -13    1    3    3    0    0  0.25555153980E+03  0.21188858213E+03  0.50434509737E+03  0.60379411886E+03  0.00000000000E+00 0.  1.
          4    1    6    6  502    0 -0.10486920175E+02  0.13049312758E+03 -0.47165314897E+02  0.13915099270E+03  0.00000000000E+00 0. -1.
          1    1    5    5  503    0 -0.24346751438E+03 -0.35304217026E+03 -0.36233110359E+04  0.36486022073E+04  0.00000000000E+00 0. -1.
         -2    1    5    5    0  503 -0.24041885277E+01 -0.67339645246E+01 -0.16801841230E+02  0.18260018330E+02  0.00000000000E+00 0.  1.
         -3    1    6    6    0  502 -0.75762853117E+00  0.15205567591E+02 -0.53554169788E+02  0.55676138412E+02  0.00000000000E+00 0.  1.
<mgrwt>
<rscale>  0 0.30794700E+04</rscale>
<asrwt>0</asrwt>
<pdfrwt beam="1">  1        2 0.59317601E+00 0.30794700E+04</pdfrwt>
<pdfrwt beam="2">  1       -2 0.94597938E-01 0.30794700E+04</pdfrwt>
<totfact> 0.35595829E-01</totfact>
</mgrwt>
</event>
<event>
12    1  0.1518126E-007  0.3002885E+04  0.7818608E-02  0.8242908E-01
         -1   -1    0    0    0  501 -0.00000000000E+00  0.00000000000E+00  0.16029529487E+04  0.16029529487E+04  0.00000000000E+00 0.  1.
          1   -1    0    0  501    0  0.00000000000E+00 -0.00000000000E+00 -0.14063603470E+04  0.14063603470E+04  0.00000000000E+00 0. -1.
         23    2    1    2    0    0 -0.52379659231E+03 -0.12092044081E+04  0.44137229798E+03  0.13927451436E+04  0.91604360707E+02 0.  0.
        254    2    1    2    0    0  0.52379659231E+03  0.12092044081E+04 -0.24477969633E+03  0.16165681521E+04  0.90379052875E+03 0.  0.
        -24    2    4    4    0    0  0.76820816989E+03  0.80094701136E+03 -0.12817391895E+03  0.11198718646E+04  0.77617861593E+02 0.  0.
         24    2    4    4    0    0 -0.24441157758E+03  0.40825739676E+03 -0.11660577738E+03  0.49669628743E+03  0.81848478122E+02 0.  0.
         11    1    3    3    0    0 -0.45912619666E+03 -0.10950227559E+04  0.37186170353E+03  0.12442478961E+04  0.00000000000E+00 0. -1.
        -11    1    3    3    0    0 -0.64670395651E+02 -0.11418165220E+03  0.69510594452E+02  0.14849724750E+03  0.00000000000E+00 0.  1.
          4    1    6    6  502    0 -0.27611944803E+02  0.13562530760E+02 -0.18227872921E+02  0.35757755630E+02  0.00000000000E+00 0. -1.
          3    1    5    5  503    0  0.34700457314E+03  0.40855815450E+03 -0.40302854686E+02  0.53754651844E+03  0.00000000000E+00 0. -1.
         -4    1    5    5    0  503  0.42120359675E+03  0.39238885685E+03 -0.87871064264E+02  0.58232534621E+03  0.00000000000E+00 0.  1.
         -3    1    6    6    0  502 -0.21679963278E+03  0.39469486600E+03 -0.98377904456E+02  0.46093853180E+03  0.00000000000E+00 0.  1.
<mgrwt>
<rscale>  0 0.30028849E+04</rscale>
<asrwt>0</asrwt>
<pdfrwt beam="1">  1        1 0.21636313E+00 0.30028849E+04</pdfrwt>
<pdfrwt beam="2">  1       -1 0.24660814E+00 0.30028849E+04</pdfrwt>
<totfact> 0.47472994E-01</totfact>
</mgrwt>
</event>
<event>
12    1  0.1518126E-007  0.1641527E+04  0.7818608E-02  0.8795435E-01
         -1   -1    0    0    0  501 -0.00000000000E+00  0.00000000000E+00  0.69339400932E+03  0.69339400932E+03  0.00000000000E+00 0.  1.
          1   -1    0    0  501    0  0.00000000000E+00 -0.00000000000E+00 -0.97152965557E+03  0.97152965557E+03  0.00000000000E+00 0. -1.
         23    2    1    2    0    0  0.29509452083E+03 -0.40710373703E+03 -0.35001429435E+03  0.61918700750E+03  0.89823800177E+02 0.  0.
        254    2    1    2    0    0 -0.29509452083E+03  0.40710373703E+03  0.71878648103E+02  0.10457366574E+04  0.91410305088E+03 0.  0.
        -24    2    4    4    0    0  0.11378236752E+03  0.17249661149E+03 -0.34548884498E+03  0.41033276228E+03  0.79428745826E+02 0.  0.
         24    2    4    4    0    0 -0.40887688835E+03  0.23460712555E+03  0.41736749308E+03  0.63540389511E+03  0.85566771917E+02 0.  0.
         13    1    3    3    0    0  0.57354246795E+02 -0.35203467212E+02 -0.28369273822E+02  0.73031564589E+02  0.00000000000E+00 0.  1.
        -13    1    3    3    0    0  0.23774027404E+03 -0.37190026982E+03 -0.32164502053E+03  0.54615544291E+03  0.00000000000E+00 0. -1.
          4    1    6    6  502    0 -0.38804586789E+03  0.21274701187E+03  0.35960571268E+03  0.57022553015E+03  0.00000000000E+00 0. -1.
          3    1    5    5  503    0  0.78927771345E+02  0.12095274992E+03 -0.30095398285E+03  0.33381500954E+03  0.00000000000E+00 0. -1.
         -4    1    5    5    0  503  0.34854596171E+02  0.51543861564E+02 -0.44534862133E+02  0.76517752740E+02  0.00000000000E+00 0.  1.
         -3    1    6    6    0  502 -0.20831020458E+02  0.21860113680E+02  0.57761780401E+02  0.65178364957E+02  0.00000000000E+00 0.  1.
<mgrwt>
<rscale>  0 0.16415271E+04</rscale>
<asrwt>0</asrwt>
<pdfrwt beam="1">  1        1 0.14946610E+00 0.16415271E+04</pdfrwt>
<pdfrwt beam="2">  1       -1 0.10667600E+00 0.16415271E+04</pdfrwt>
<totfact> 0.12502593E+01</totfact>
</mgrwt>
</event>
<event>
12    1  0.1518126E-007  0.1801907E+04  0.7818608E-02  0.8705286E-01
          1   -1    0    0  501    0  0.00000000000E+00  0.00000000000E+00  0.27902814748E+04  0.27902814748E+04  0.00000000000E+00 0. -1.
         -1   -1    0    0    0  501 -0.00000000000E+00 -0.00000000000E+00 -0.29090868878E+03  0.29090868878E+03  0.00000000000E+00 0.  1.
         23    2    1    2    0    0  0.29307426319E+03  0.87821939751E+02  0.19552954361E+04  0.19811852158E+04  0.91155911116E+02 0.  0.
        254    2    1    2    0    0 -0.29307426319E+03 -0.87821939751E+02  0.54407734988E+03  0.11000049477E+04  0.90575134859E+03 0.  0.
        -24    2    4    4    0    0 -0.25456262863E+03 -0.43178321653E+03  0.77795305855E+02  0.51355729439E+03  0.80312558376E+02 0.  0.
         24    2    4    4    0    0 -0.38511634561E+02  0.34396127678E+03  0.46628204403E+03  0.58644765332E+03  0.81910924661E+02 0.  0.
         11    1    3    3    0    0  0.54201738737E+02  0.14214031743E+01  0.58795718116E+03  0.59045194195E+03  0.00000000000E+00 0.  1.
        -11    1    3    3    0    0  0.23887252446E+03  0.86400536577E+02  0.13673382549E+04  0.13907332739E+04  0.00000000000E+00 0. -1.
          4    1    6    6  502    0 -0.14025760779E+02  0.21565652241E+03  0.35118193347E+03  0.41235083124E+03  0.00000000000E+00 0. -1.
          1    1    5    5  503    0 -0.54184853533E+02 -0.55550357451E+02 -0.10307448057E+02  0.78282080011E+02  0.00000000000E+00 0. -1.
         -2    1    5    5    0  503 -0.20037777510E+03 -0.37623285908E+03  0.88102753912E+02  0.43527521438E+03  0.00000000000E+00 0.  1.
         -3    1    6    6    0  502 -0.24485873782E+02  0.12830475437E+03  0.11510011055E+03  0.17409682208E+03  0.00000000000E+00 0.  1.
<mgrwt>
<rscale>  0 0.18019069E+04</rscale>
<asrwt>0</asrwt>
<pdfrwt beam="1">  1        1 0.42927406E+00 0.18019069E+04</pdfrwt>
<pdfrwt beam="2">  1       -1 0.44755185E-01 0.18019069E+04</pdfrwt>
<totfact> 0.39611863E+00</totfact>
</mgrwt>
</event>
<event>
12    1  0.1518126E-007  0.3024181E+04  0.7818608E-02  0.8236859E-01
          1   -1    0    0  501    0  0.00000000000E+00  0.00000000000E+00  0.10039400578E+04  0.10039400578E+04  0.00000000000E+00 0. -1.
         -1   -1    0    0    0  501 -0.00000000000E+00 -0.00000000000E+00 -0.22774445486E+04  0.22774445486E+04  0.00000000000E+00 0.  1.
         23    2    1    2    0    0  0.19986705119E+02  0.87732237885E+03  0.57028042477E+03  0.10505861817E+04  0.91747139117E+02 0.  0.
        254    2    1    2    0    0 -0.19986705119E+02 -0.87732237885E+03 -0.18437849155E+04  0.22307984247E+04  0.89823425227E+03 0.  0.
        -24    2    4    4    0    0  0.13241536607E+03 -0.55754534573E+03 -0.17668407226E+04  0.18591786027E+04  0.80176655452E+02 0.  0.
         24    2    4    4    0    0 -0.15240207119E+03 -0.31977703312E+03 -0.76944192902E+02  0.37161982192E+03  0.81836061791E+02 0.  0.
         11    1    3    3    0    0 -0.14428378377E+02  0.75668140122E+03  0.48487141691E+03  0.89881878707E+03  0.00000000000E+00 0. -1.
        -11    1    3    3    0    0  0.34415083496E+02  0.12064097763E+03  0.85409007858E+02  0.15176739465E+03  0.00000000000E+00 0.  1.
          4    1    6    6  502    0 -0.43527321863E+02 -0.10398454693E+03 -0.63870244544E+02  0.12956396832E+03  0.00000000000E+00 0. -1.
          3    1    5    5  503    0 -0.52855499412E+01 -0.44238687778E+02 -0.19122495949E+03  0.19634659067E+03  0.00000000000E+00 0. -1.
         -4    1    5    5    0  503  0.13770091601E+03 -0.51330665795E+03 -0.15756157631E+04  0.16628320121E+04  0.00000000000E+00 0.  1.
         -3    1    6    6    0  502 -0.10887474932E+03 -0.21579248618E+03 -0.13073948358E+02  0.24205585359E+03  0.00000000000E+00 0.  1.
<mgrwt>
<rscale>  0 0.30241811E+04</rscale>
<asrwt>0</asrwt>
<pdfrwt beam="1">  1        1 0.15445232E+00 0.30241811E+04</pdfrwt>
<pdfrwt beam="2">  1       -1 0.35037608E+00 0.30241811E+04</pdfrwt>
<totfact> 0.19706423E-01</totfact>
</mgrwt>
</event>
<event>
12    1  0.1518126E-007  0.1223279E+04  0.7818608E-02  0.9092721E-01
         -1   -1    0    0    0  501 -0.00000000000E+00  0.00000000000E+00  0.13851118827E+04  0.13851118827E+04  0.00000000000E+00 0.  1.
          1   -1    0    0  501    0  0.00000000000E+00 -0.00000000000E+00 -0.27008876515E+03  0.27008876515E+03  0.00000000000E+00 0. -1.
         23    2    1    2    0    0  0.23334167599E+02 -0.23889493487E+03  0.17306865449E+03  0.31528234496E+03  0.10878843960E+03 0.  0.
        254    2    1    2    0    0 -0.23334167599E+02  0.23889493487E+03  0.94195446304E+03  0.13399183029E+04  0.92221883231E+03 0.  0.
        -24    2    4    4    0    0  0.89196964978E+02  0.11257417903E+03  0.10890858078E+04  0.11014398857E+04  0.80205241597E+02 0.  0.
         24    2    4    4    0    0 -0.11253113258E+03  0.12632075584E+03 -0.14713134473E+03  0.23847841719E+03  0.81265821280E+02 0.  0.
         13    1    3    3    0    0  0.26277366023E+02 -0.23406967644E+03  0.18667811835E+03  0.30054589212E+03  0.00000000000E+00 0. -1.
        -13    1    3    3    0    0 -0.29431984248E+01 -0.48252584227E+01 -0.13609463859E+02  0.14736452841E+02  0.00000000000E+00 0.  1.
          4    1    6    6  502    0  0.15349741149E+01  0.12701615588E+02  0.78470346658E+01  0.15008768675E+02  0.00000000000E+00 0. -1.
          1    1    5    5  503    0 -0.16700287249E+00  0.28599412406E+02  0.80558299046E+02  0.85484465402E+02  0.00000000000E+00 0. -1.
         -2    1    5    5    0  503  0.89363967851E+02  0.83974766625E+02  0.10085275087E+04  0.10159554203E+04  0.00000000000E+00 0.  1.
         -3    1    6    6    0  502 -0.11406610669E+03  0.11361914025E+03 -0.15497837939E+03  0.22346964851E+03  0.00000000000E+00 0.  1.
<mgrwt>
<rscale>  0 0.12232795E+04</rscale>
<asrwt>0</asrwt>
<pdfrwt beam="1">  1        1 0.41552118E-01 0.12232795E+04</pdfrwt>
<pdfrwt beam="2">  1       -1 0.21309413E+00 0.12232795E+04</pdfrwt>
<totfact> 0.12177305E+01</totfact>
</mgrwt>
</event>
<event>
12    1  0.1518126E-007  0.2010048E+04  0.7818608E-02  0.8601937E-01
          1   -1    0    0  501    0  0.00000000000E+00  0.00000000000E+00  0.92484152961E+03  0.92484152961E+03  0.00000000000E+00 0. -1.
         -1   -1    0    0    0  501 -0.00000000000E+00 -0.00000000000E+00 -0.10921583872E+04  0.10921583872E+04  0.00000000000E+00 0.  1.
         23    2    1    2    0    0 -0.15609813448E+03  0.77483721425E+02  0.71719702115E+03  0.74380430219E+03  0.92211269030E+02 0.  0.
        254    2    1    2    0    0  0.15609813448E+03 -0.77483721425E+02 -0.88451387879E+03  0.12731956147E+04  0.89905056407E+03 0.  0.
        -24    2    4    4    0    0  0.74093044338E+02  0.21879825915E+03  0.80314827216E+02  0.25733899657E+03  0.80065162581E+02 0.  0.
         24    2    4    4    0    0  0.82005090142E+02 -0.29628198058E+03 -0.96482870601E+03  0.10158566181E+04  0.81008578379E+02 0.  0.
         11    1    3    3    0    0 -0.16391509035E+03  0.58544176047E+02  0.67207713133E+03  0.69425013349E+03  0.00000000000E+00 0. -1.
        -11    1    3    3    0    0  0.78169558721E+01  0.18939545378E+02  0.45119889825E+02  0.49554168705E+02  0.00000000000E+00 0.  1.
          2    1    6    6  502    0  0.68702495522E+02 -0.10684680008E+03 -0.42647093534E+03  0.44498733720E+03  0.00000000000E+00 0. -1.
          1    1    5    5  503    0 -0.12263123820E+02  0.10393223363E+02 -0.39048426822E+01  0.16542402912E+02  0.00000000000E+00 0. -1.
         -2    1    5    5    0  503  0.86356168159E+02  0.20840503579E+03  0.84219669898E+02  0.24079659366E+03  0.00000000000E+00 0.  1.
         -1    1    6    6    0  502  0.13302594621E+02 -0.18943518050E+03 -0.53835777066E+03  0.57086928089E+03  0.00000000000E+00 0.  1.
<mgrwt>
<rscale>  0 0.20100482E+04</rscale>
<asrwt>0</asrwt>
<pdfrwt beam="1">  1        1 0.14228331E+00 0.20100482E+04</pdfrwt>
<pdfrwt beam="2">  1       -1 0.16802437E+00 0.20100482E+04</pdfrwt>
<totfact> 0.40960209E+00</totfact>
</mgrwt>
</event>
<event>
12    1  0.1518126E-007  0.1407498E+04  0.7818608E-02  0.8948409E-01
         -2   -1    0    0    0  501 -0.00000000000E+00  0.00000000000E+00  0.34580310933E+03  0.34580310933E+03  0.00000000000E+00 0. -1.
          2   -1    0    0  501    0  0.00000000000E+00 -0.00000000000E+00 -0.14322103090E+04  0.14322103090E+04  0.00000000000E+00 0.  1.
         23    2    1    2    0    0  0.56316893215E+02 -0.22717578126E+03  0.98820843682E+02  0.26951477619E+03  0.89956808437E+02 0.  0.
        254    2    1    2    0    0 -0.56316893215E+02  0.22717578126E+03 -0.11852280433E+04  0.15084986421E+04  0.90333947692E+03 0.  0.
        -24    2    4    4    0    0  0.15301934548E+03 -0.28348196171E+03 -0.23460044181E+03  0.40646916959E+03  0.80017971891E+02 0.  0.
         24    2    4    4    0    0 -0.20933623869E+03  0.51065774297E+03 -0.95062760152E+03  0.11020294725E+04  0.78632883055E+02 0.  0.
         11    1    3    3    0    0  0.54786507336E+00 -0.12247843890E+03  0.87143378917E+02  0.15031712025E+03  0.00000000000E+00 0. -1.
        -11    1    3    3    0    0  0.55769028141E+02 -0.10469734236E+03  0.11677464766E+02  0.11919765594E+03  0.00000000000E+00 0.  1.
          2    1    6    6  502    0 -0.10628505040E+03  0.24435282831E+03 -0.38233764397E+03  0.46603314328E+03  0.00000000000E+00 0. -1.
          3    1    5    5  503    0  0.34146123120E+02 -0.47284392930E+02 -0.83700333124E+02  0.10201724023E+03  0.00000000000E+00 0. -1.
         -4    1    5    5    0  503  0.11887322236E+03 -0.23619756878E+03 -0.15090010868E+03  0.30445192936E+03  0.00000000000E+00 0.  1.
         -3    1    6    6    0  502 -0.10305118829E+03  0.26630491466E+03 -0.56828995755E+03  0.63599632926E+03  0.00000000000E+00 0.  1.
<mgrwt>
<rscale>  0 0.14074982E+04</rscale>
<asrwt>0</asrwt>
<pdfrwt beam="1">  1        2 0.22034005E+00 0.14074982E+04</pdfrwt>
<pdfrwt beam="2">  1       -2 0.53200478E-01 0.14074982E+04</pdfrwt>
<totfact> 0.44936447E+01</totfact>
</mgrwt>
</event>
<event>
12    1  0.1518126E-007  0.1232937E+04  0.7818608E-02  0.9084505E-01
          1   -1    0    0  501    0  0.00000000000E+00  0.00000000000E+00  0.55376867280E+03  0.55376867280E+03  0.00000000000E+00 0. -1.
         -1   -1    0    0    0  501 -0.00000000000E+00 -0.00000000000E+00 -0.68626753998E+03  0.68626753998E+03  0.00000000000E+00 0.  1.
         23    2    1    2    0    0 -0.93465268005E+02 -0.25364659809E+03 -0.88406199085E+02  0.29882376785E+03  0.91693157579E+02 0.  0.
        254    2    1    2    0    0  0.93465268005E+02  0.25364659809E+03 -0.44092668095E+02  0.94121244493E+03  0.90048006645E+03 0.  0.
        -24    2    4    4    0    0 -0.22282536733E+03 -0.68478858221E+02 -0.32169248628E+03  0.40531321582E+03  0.80325891468E+02 0.  0.
         24    2    4    4    0    0  0.31629063533E+03  0.32212545631E+03  0.27759981819E+03  0.53589922911E+03  0.79509427762E+02 0.  0.
         13    1    3    3    0    0 -0.55843324145E+01 -0.44193306795E+02 -0.52515782192E+02  0.68863201445E+02  0.00000000000E+00 0. -1.
        -13    1    3    3    0    0 -0.87880935591E+02 -0.20945329130E+03 -0.35890416893E+02  0.22996056640E+03  0.00000000000E+00 0.  1.
          2    1    6    6  502    0  0.16330765914E+01  0.38758779173E+01 -0.50530221594E+01  0.65743746263E+01  0.00000000000E+00 0. -1.
          3    1    5    5  503    0 -0.11392611701E+03  0.11896623641E+01 -0.11773449795E+03  0.16383524481E+03  0.00000000000E+00 0. -1.
         -4    1    5    5    0  503 -0.10889925032E+03 -0.69668520585E+02 -0.20395798833E+03  0.24147797101E+03  0.00000000000E+00 0.  1.
         -1    1    6    6    0  502  0.31465755874E+03  0.31824957840E+03  0.28265284035E+03  0.52932485449E+03  0.00000000000E+00 0.  1.
<mgrwt>
<rscale>  0 0.12329371E+04</rscale>
<asrwt>0</asrwt>
<pdfrwt beam="1">  1        1 0.85195180E-01 0.12329371E+04</pdfrwt>
<pdfrwt beam="2">  1       -1 0.10557962E+00 0.12329371E+04</pdfrwt>
<totfact> 0.31898831E+01</totfact>
</mgrwt>
</event>
<event>
12    1  0.1518126E-007  0.1582584E+04  0.7818608E-02  0.8831319E-01
         -1   -1    0    0    0  501 -0.00000000000E+00  0.00000000000E+00  0.38404747825E+03  0.38404747825E+03  0.00000000000E+00 0.  1.
          1   -1    0    0  501    0  0.00000000000E+00 -0.00000000000E+00 -0.16303801756E+04  0.16303801756E+04  0.00000000000E+00 0. -1.
         23    2    1    2    0    0 -0.10100288062E+03  0.19493203933E+03 -0.89543674334E+03  0.92559039920E+03  0.81917909615E+02 0.  0.
        254    2    1    2    0    0  0.10100288062E+03 -0.19493203933E+03 -0.35089595405E+03  0.10888372547E+04  0.10070940943E+04 0.  0.
        -24    2    4    4    0    0  0.13269138118E+03 -0.58332427646E+03 -0.85526064549E+02  0.60994886706E+03  0.82756864093E+02 0.  0.
         24    2    4    4    0    0 -0.31688500566E+02  0.38839223713E+03 -0.26536988950E+03  0.47888838763E+03  0.84025107048E+02 0.  0.
         11    1    3    3    0    0  0.72773668263E+01  0.64028539522E+02 -0.24923853543E+03  0.25743438287E+03  0.00000000000E+00 0.  1.
        -11    1    3    3    0    0 -0.10828024744E+03  0.13090349981E+03 -0.64619820791E+03  0.66815601632E+03  0.00000000000E+00 0. -1.
          2    1    6    6  502    0 -0.58432669845E+02  0.29032371840E+03 -0.21087348713E+03  0.36355173765E+03  0.00000000000E+00 0. -1.
          1    1    5    5  503    0  0.89468092744E+02 -0.37978019414E+03 -0.15805235874E+02  0.39049627522E+03  0.00000000000E+00 0. -1.
         -2    1    5    5    0  503  0.43223288438E+02 -0.20354408233E+03 -0.69720828675E+02  0.21945259184E+03  0.00000000000E+00 0.  1.
         -1    1    6    6    0  502  0.26744169279E+02  0.98068518734E+02 -0.54496402370E+02  0.11533664998E+03  0.00000000000E+00 0.  1.
<mgrwt>
<rscale>  0 0.15825845E+04</rscale>
<asrwt>0</asrwt>
<pdfrwt beam="1">  1        1 0.25082772E+00 0.15825845E+04</pdfrwt>
<pdfrwt beam="2">  1       -1 0.59084227E-01 0.15825845E+04</pdfrwt>
<totfact> 0.14838542E+01</totfact>
</mgrwt>
</event>
<event>
12    1  0.1518126E-007  0.2071914E+04  0.7818608E-02  0.8573718E-01
         -4   -1    0    0    0  501 -0.00000000000E+00  0.00000000000E+00  0.70739317921E+03  0.70739317921E+03  0.00000000000E+00 0.  1.
          4   -1    0    0  501    0  0.00000000000E+00 -0.00000000000E+00 -0.15171288843E+04  0.15171288843E+04  0.00000000000E+00 0. -1.
         23    2    1    2    0    0  0.11271385506E+03  0.20644596240E+02  0.56622956125E+03  0.58230927427E+03  0.73058622980E+02 0.  0.
        254    2    1    2    0    0 -0.11271385506E+03 -0.20644596240E+02 -0.13759652663E+04  0.16422127892E+04  0.88907357313E+03 0.  0.
        -24    2    4    4    0    0  0.24076953219E+03 -0.31277761385E+03 -0.84698656339E+03  0.93759633814E+03  0.76816999232E+02 0.  0.
         24    2    4    4    0    0 -0.35348338725E+03  0.29213301761E+03 -0.52897870292E+03  0.70461645106E+03  0.79835267379E+02 0.  0.
         13    1    3    3    0    0  0.58397360215E+02 -0.97552729295E+01  0.40805703596E+03  0.41232991842E+03  0.00000000000E+00 0.  1.
        -13    1    3    3    0    0  0.54316494846E+02  0.30399869170E+02  0.15817252529E+03  0.16997935585E+03  0.00000000000E+00 0. -1.
          2    1    6    6  502    0 -0.26928270160E+02  0.41205427624E+02 -0.30035177889E+02  0.57663948098E+02  0.00000000000E+00 0. -1.
          1    1    5    5  503    0  0.59489493214E+02 -0.83369107220E+02 -0.30551449989E+03  0.32222432789E+03  0.00000000000E+00 0. -1.
         -2    1    5    5    0  503  0.18128003898E+03 -0.22940850663E+03 -0.54147206350E+03  0.61537201025E+03  0.00000000000E+00 0.  1.
         -1    1    6    6    0  502 -0.32655511710E+03  0.25092758999E+03 -0.49894352503E+03  0.64695250296E+03  0.00000000000E+00 0.  1.
<mgrwt>
<rscale>  0 0.20719137E+04</rscale>
<asrwt>0</asrwt>
<pdfrwt beam="1">  1        4 0.23340444E+00 0.20719137E+04</pdfrwt>
<pdfrwt beam="2">  1       -4 0.10882972E+00 0.20719137E+04</pdfrwt>
<totfact> 0.99730233E-02</totfact>
</mgrwt>
</event>
<event>
12    1  0.1518126E-007  0.1775293E+04  0.7818608E-02  0.8719550E-01
         -2   -1    0    0    0  501 -0.00000000000E+00  0.00000000000E+00  0.14568139367E+04  0.14568139367E+04  0.00000000000E+00 0.  1.
          2   -1    0    0  501    0  0.00000000000E+00 -0.00000000000E+00 -0.54084919042E+03  0.54084919042E+03  0.00000000000E+00 0. -1.
         23    2    1    2    0    0  0.56547718334E+03  0.15949216334E+03  0.69170861440E+03  0.91220696160E+03  0.91970313217E+02 0.  0.
        254    2    1    2    0    0 -0.56547718334E+03 -0.15949216334E+03  0.22425613185E+03  0.10854561655E+04  0.88471581847E+03 0.  0.
        -24    2    4    4    0    0  0.18315936314E+03 -0.19953925983E+03  0.16845380001E+03  0.32941830063E+03  0.82319290170E+02 0.  0.
         24    2    4    4    0    0 -0.74863654648E+03  0.40047096485E+02  0.55802331832E+02  0.75603786485E+03  0.80118063983E+02 0.  0.
         11    1    3    3    0    0  0.59024374424E+01 -0.38794331462E+01  0.27865796076E+02  0.28747023503E+02  0.00000000000E+00 0. -1.
        -11    1    3    3    0    0  0.55957474590E+03  0.16337159649E+03  0.66384281833E+03  0.88345993810E+03  0.00000000000E+00 0.  1.
          4    1    6    6  502    0 -0.22625626303E+02 -0.36139111932E+01  0.15374329535E+02  0.27592559293E+02  0.00000000000E+00 0. -1.
          3    1    5    5  503    0  0.23805470565E+01 -0.20350683929E+02 -0.53813280358E+01  0.21184334591E+02  0.00000000000E+00 0. -1.
         -4    1    5    5    0  503  0.18077881608E+03 -0.17918857590E+03  0.17383512805E+03  0.30823396604E+03  0.00000000000E+00 0.  1.
         -3    1    6    6    0  502 -0.72601092018E+03  0.43661007679E+02  0.40428002298E+02  0.72844530555E+03  0.00000000000E+00 0.  1.
<mgrwt>
<rscale>  0 0.17752934E+04</rscale>
<asrwt>0</asrwt>
<pdfrwt beam="1">  1        2 0.83207568E-01 0.17752934E+04</pdfrwt>
<pdfrwt beam="2">  1       -2 0.22412522E+00 0.17752934E+04</pdfrwt>
<totfact> 0.49411960E+00</totfact>
</mgrwt>
</event>
<event>
12    1  0.1518126E-007  0.1980359E+04  0.7818608E-02  0.8615859E-01
          1   -1    0    0  501    0  0.00000000000E+00  0.00000000000E+00  0.11052507857E+04  0.11052507857E+04  0.00000000000E+00 0. -1.
         -1   -1    0    0    0  501 -0.00000000000E+00 -0.00000000000E+00 -0.88708869155E+03  0.88708869155E+03  0.00000000000E+00 0.  1.
         23    2    1    2    0    0  0.70015818416E+03  0.33219284526E+03  0.26678587447E+01  0.78061468775E+03  0.93694204572E+02 0.  0.
        254    2    1    2    0    0 -0.70015818416E+03 -0.33219284526E+03  0.21549423543E+03  0.12117247895E+04  0.90623707206E+03 0.  0.
        -24    2    4    4    0    0  0.19743590614E+03 -0.15241726276E+02  0.13766447319E+03  0.25334513103E+03  0.77582220796E+02 0.  0.
         24    2    4    4    0    0 -0.89759409030E+03 -0.31695111898E+03  0.77829762239E+02  0.95837965851E+03  0.79378430216E+02 0.  0.
         11    1    3    3    0    0  0.30299625538E+02  0.29885910059E+02  0.16300084648E+02  0.45573322101E+02  0.00000000000E+00 0. -1.
        -11    1    3    3    0    0  0.66985855862E+03  0.30230693520E+03 -0.13632225903E+02  0.73504136565E+03  0.00000000000E+00 0.  1.
          2    1    6    6  502    0 -0.11332229755E+03 -0.64514649079E+02 -0.37493371196E+01  0.13045359557E+03  0.00000000000E+00 0. -1.
          3    1    5    5  503    0  0.10282329008E+03  0.27374141089E+01  0.11523048045E+03  0.15446095314E+03  0.00000000000E+00 0. -1.
         -4    1    5    5    0  503  0.94612616058E+02 -0.17979140385E+02  0.22433992734E+02  0.98884177886E+02  0.00000000000E+00 0.  1.
         -1    1    6    6    0  502 -0.78427179275E+03 -0.25243646990E+03  0.81579099358E+02  0.82792606294E+03  0.00000000000E+00 0.  1.
<mgrwt>
<rscale>  0 0.19803590E+04</rscale>
<asrwt>0</asrwt>
<pdfrwt beam="1">  1        1 0.17003858E+00 0.19803590E+04</pdfrwt>
<pdfrwt beam="2">  1       -1 0.13647518E+00 0.19803590E+04</pdfrwt>
<totfact> 0.52299610E+00</totfact>
</mgrwt>
</event>
<event>
12    1  0.1518126E-007  0.2437305E+04  0.7818608E-02  0.8425668E-01
          1   -1    0    0  501    0  0.00000000000E+00  0.00000000000E+00  0.13938345792E+04  0.13938345792E+04  0.00000000000E+00 0. -1.
         -1   -1    0    0    0  501 -0.00000000000E+00 -0.00000000000E+00 -0.10654881641E+04  0.10654881641E+04  0.00000000000E+00 0.  1.
         23    2    1    2    0    0  0.97550975229E+03  0.31876521533E+03 -0.89134040626E+02  0.10344283083E+04  0.94162139287E+02 0.  0.
        254    2    1    2    0    0 -0.97550975229E+03 -0.31876521533E+03  0.41748045572E+03  0.14248944351E+04  0.89599312550E+03 0.  0.
        -24    2    4    4    0    0 -0.65785699847E+03 -0.56410942083E+03  0.50554997241E+03  0.10062528290E+04  0.77257440585E+02 0.  0.
         24    2    4    4    0    0 -0.31765275382E+03  0.24534420549E+03 -0.88069516690E+02  0.41864160611E+03  0.80046882649E+02 0.  0.
         13    1    3    3    0    0  0.27611805023E+02  0.26716720830E+02  0.13202625011E+01  0.38443959754E+02  0.00000000000E+00 0. -1.
        -13    1    3    3    0    0  0.94789794727E+03  0.29204849450E+03 -0.90454303127E+02  0.99598434854E+03  0.00000000000E+00 0.  1.
          4    1    6    6  502    0  0.16594083594E+01 -0.37316051444E+01  0.46059718708E+00  0.41098251576E+01  0.00000000000E+00 0. -1.
          3    1    5    5  503    0 -0.40986216850E+03 -0.32743271779E+03  0.26716958007E+03  0.58870940740E+03  0.00000000000E+00 0. -1.
         -2    1    5    5    0  503 -0.24799482997E+03 -0.23667670304E+03  0.23838039234E+03  0.41754342158E+03  0.00000000000E+00 0.  1.
         -3    1    6    6    0  502 -0.31931216218E+03  0.24907581064E+03 -0.88530113877E+02  0.41453178096E+03  0.00000000000E+00 0.  1.
<mgrwt>
<rscale>  0 0.24373053E+04</rscale>
<asrwt>0</asrwt>
<pdfrwt beam="1">  1        1 0.21443609E+00 0.24373053E+04</pdfrwt>
<pdfrwt beam="2">  1       -1 0.16392126E+00 0.24373053E+04</pdfrwt>
<totfact> 0.18924966E+00</totfact>
</mgrwt>
</event>
<event>
12    1  0.1518126E-007  0.1353626E+04  0.7818608E-02  0.8988088E-01
          2   -1    0    0  501    0  0.00000000000E+00  0.00000000000E+00  0.18224490437E+04  0.18224490437E+04  0.00000000000E+00 0. -1.
         -2   -1    0    0    0  501 -0.00000000000E+00 -0.00000000000E+00 -0.25135161646E+03  0.25135161646E+03  0.00000000000E+00 0.  1.
         23    2    1    2    0    0 -0.12595703581E+03  0.19039657502E+03 -0.32657940327E+01  0.24558772141E+03  0.90480013515E+02 0.  0.
        254    2    1    2    0    0  0.12595703581E+03 -0.19039657502E+03  0.15743632213E+04  0.18282129388E+04  0.90090341676E+03 0.  0.
        -24    2    4    4    0    0 -0.87461014982E+02 -0.11669248313E+03 -0.59728872690E+02  0.17664228396E+03  0.79802214816E+02 0.  0.
         24    2    4    4    0    0  0.21341805079E+03 -0.73704091889E+02  0.16340920940E+04  0.16515706548E+04  0.80306280414E+02 0.  0.
         11    1    3    3    0    0 -0.56493446794E+02  0.56170783443E+02  0.38935453633E+02  0.88671506093E+02  0.00000000000E+00 0. -1.
        -11    1    3    3    0    0 -0.69463589013E+02  0.13422579158E+03 -0.42201247666E+02  0.15691621531E+03  0.00000000000E+00 0.  1.
          4    1    6    6  502    0 -0.36270686250E+01  0.62783717408E+01  0.28798323899E+02  0.29697088038E+02  0.00000000000E+00 0. -1.
          1    1    5    5  503    0  0.10713117638E+02 -0.40700674036E+02 -0.14755956443E+02  0.44598811723E+02  0.00000000000E+00 0. -1.
         -2    1    5    5    0  503 -0.98174132621E+02 -0.75991809097E+02 -0.44972916248E+02  0.13204347224E+03  0.00000000000E+00 0.  1.
         -3    1    6    6    0  502  0.21704511941E+03 -0.79982463630E+02  0.16052937701E+04  0.16218735668E+04  0.00000000000E+00 0.  1.
<mgrwt>
<rscale>  0 0.13536255E+04</rscale>
<asrwt>0</asrwt>
<pdfrwt beam="1">  1        2 0.28037677E+00 0.13536255E+04</pdfrwt>
<pdfrwt beam="2">  1       -2 0.38669481E-01 0.13536255E+04</pdfrwt>
<totfact> 0.51741566E+01</totfact>
</mgrwt>
</event>
<event>
12    1  0.1518126E-007  0.1424408E+04  0.7818608E-02  0.8936338E-01
          2   -1    0    0  501    0  0.00000000000E+00  0.00000000000E+00  0.80464464858E+03  0.80464464858E+03  0.00000000000E+00 0. -1.
         -2   -1    0    0    0  501 -0.00000000000E+00 -0.00000000000E+00 -0.63038356823E+03  0.63038356823E+03  0.00000000000E+00 0.  1.
         23    2    1    2    0    0 -0.23740448060E+03 -0.34627656990E+03  0.53667042235E+02  0.43350585304E+03  0.93695373037E+02 0.  0.
        254    2    1    2    0    0  0.23740448060E+03  0.34627656990E+03  0.12059403811E+03  0.10015223638E+04  0.90124124010E+03 0.  0.
        -24    2    4    4    0    0 -0.12837599467E+03  0.63807859617E+02 -0.31911940057E+03  0.35864973510E+03  0.78997479147E+02 0.  0.
         24    2    4    4    0    0  0.36578047527E+03  0.28246871028E+03  0.43971343868E+03  0.64287262868E+03  0.79708093475E+02 0.  0.
         11    1    3    3    0    0 -0.24193617839E+03 -0.31401345573E+03  0.40886172139E+02  0.39850877514E+03  0.00000000000E+00 0. -1.
        -11    1    3    3    0    0  0.45316977947E+01 -0.32263114173E+02  0.12780870096E+02  0.34997077899E+02  0.00000000000E+00 0.  1.
          2    1    6    6  502    0  0.28611059483E+03  0.25858455524E+03  0.35534523891E+03  0.52440011776E+03  0.00000000000E+00 0. -1.
          3    1    5    5  503    0 -0.29221948405E+02  0.27562941353E+02 -0.17762783561E+03  0.18211338772E+03  0.00000000000E+00 0. -1.
         -2    1    5    5    0  503 -0.99154046266E+02  0.36244918264E+02 -0.14149156496E+03  0.17653634738E+03  0.00000000000E+00 0.  1.
         -1    1    6    6    0  502  0.79669880441E+02  0.23884155039E+02  0.84368199771E+02  0.11847251092E+03  0.00000000000E+00 0.  1.
<mgrwt>
<rscale>  0 0.14244083E+04</rscale>
<asrwt>0</asrwt>
<pdfrwt beam="1">  1        2 0.12379148E+00 0.14244083E+04</pdfrwt>
<pdfrwt beam="2">  1       -2 0.96982087E-01 0.14244083E+04</pdfrwt>
<totfact> 0.29496521E+01</totfact>
</mgrwt>
</event>
<event>
12    1  0.1518126E-007  0.2594601E+04  0.7818608E-02  0.8370037E-01
          2   -1    0    0  501    0  0.00000000000E+00  0.00000000000E+00  0.18903427352E+04  0.18903427352E+04  0.00000000000E+00 0. -1.
         -2   -1    0    0    0  501 -0.00000000000E+00 -0.00000000000E+00 -0.89030874926E+03  0.89030874926E+03  0.00000000000E+00 0.  1.
         23    2    1    2    0    0 -0.83258423173E+03  0.69099285160E+03  0.28530825182E+02  0.10863746560E+04  0.93425164093E+02 0.  0.
        254    2    1    2    0    0  0.83258423173E+03 -0.69099285160E+03  0.97150316073E+03  0.16942768285E+04  0.86953318295E+03 0.  0.
        -24    2    4    4    0    0  0.19209989702E+03  0.17611470347E+03  0.58098572488E+02  0.27907576088E+03  0.81173129615E+02 0.  0.
         24    2    4    4    0    0  0.64048433471E+03 -0.86710755507E+03  0.91340458824E+03  0.14152010676E+04  0.79940132534E+02 0.  0.
         13    1    3    3    0    0 -0.79890069327E+03  0.68162378025E+03  0.19872494354E+02  0.10503562308E+04  0.00000000000E+00 0.  1.
        -13    1    3    3    0    0 -0.33683538458E+02  0.93690713483E+01  0.86583308282E+01  0.36018425198E+02  0.00000000000E+00 0. -1.
          4    1    6    6  502    0  0.62409185781E+03 -0.81607818241E+03  0.86718306851E+03  0.13444257961E+04  0.00000000000E+00 0. -1.
          3    1    5    5  503    0  0.16064694371E+03  0.10290592448E+03  0.23548217422E+02  0.19222795937E+03  0.00000000000E+00 0. -1.
         -4    1    5    5    0  503  0.31452953306E+02  0.73208778988E+02  0.34550355066E+02  0.86847801514E+02  0.00000000000E+00 0.  1.
         -3    1    6    6    0  502  0.16392476902E+02 -0.51029372662E+02  0.46221519730E+02  0.70775271525E+02  0.00000000000E+00 0.  1.
<mgrwt>
<rscale>  0 0.25946011E+04</rscale>
<asrwt>0</asrwt>
<pdfrwt beam="1">  1        2 0.29082196E+00 0.25946011E+04</pdfrwt>
<pdfrwt beam="2">  1       -2 0.13697058E+00 0.25946011E+04</pdfrwt>
<totfact> 0.25863364E+00</totfact>
</mgrwt>
</event>
<event>
12    1  0.1518126E-007  0.1681686E+04  0.7818608E-02  0.8771879E-01
         -1   -1    0    0    0  501 -0.00000000000E+00  0.00000000000E+00  0.10614730852E+04  0.10614730852E+04  0.00000000000E+00 0.  1.
          1   -1    0    0  501    0  0.00000000000E+00 -0.00000000000E+00 -0.66607133626E+03  0.66607133626E+03  0.00000000000E+00 0. -1.
         23    2    1    2    0    0 -0.13584719498E+03 -0.55422203252E+03 -0.45644284374E+02  0.57975868064E+03  0.91761676985E+02 0.  0.
        254    2    1    2    0    0  0.13584719498E+03  0.55422203252E+03  0.44104603330E+03  0.11477857408E+04  0.89290199999E+03 0.  0.
        -24    2    4    4    0    0  0.21187931398E+03  0.62266656854E+03  0.63273020918E+03  0.91661383358E+03  0.85011193592E+02 0.  0.
         24    2    4    4    0    0 -0.76032119000E+02 -0.68444536017E+02 -0.19168417588E+03  0.23117190722E+03  0.78943586032E+02 0.  0.
         13    1    3    3    0    0  0.12150514821E+02 -0.50164101267E+02  0.56578886418E+01  0.51923826613E+02  0.00000000000E+00 0.  1.
        -13    1    3    3    0    0 -0.14799770980E+03 -0.50405793125E+03 -0.51302173016E+02  0.52783485402E+03  0.00000000000E+00 0. -1.
          4    1    6    6  502    0 -0.65315902325E+02 -0.22714566658E+02 -0.60675098877E+02  0.91997751379E+02  0.00000000000E+00 0. -1.
          1    1    5    5  503    0  0.47283823655E+02  0.66022795963E+02  0.58320848310E+02  0.99980452658E+02  0.00000000000E+00 0. -1.
         -2    1    5    5    0  503  0.16459549033E+03  0.55664377257E+03  0.57440936087E+03  0.81663338092E+03  0.00000000000E+00 0.  1.
         -3    1    6    6    0  502 -0.10716216675E+02 -0.45729969359E+02 -0.13100907700E+03  0.13917415584E+03  0.00000000000E+00 0.  1.
<mgrwt>
<rscale>  0 0.16816858E+04</rscale>
<asrwt>0</asrwt>
<pdfrwt beam="1">  1        1 0.10247251E+00 0.16816858E+04</pdfrwt>
<pdfrwt beam="2">  1       -1 0.16330355E+00 0.16816858E+04</pdfrwt>
<totfact> 0.77230912E+00</totfact>
</mgrwt>
</event>
<event>
12    1  0.1518126E-007  0.1551296E+04  0.7818608E-02  0.8851040E-01
          2   -1    0    0  501    0  0.00000000000E+00  0.00000000000E+00  0.19756250213E+04  0.19756250213E+04  0.00000000000E+00 0. -1.
         -2   -1    0    0    0  501 -0.00000000000E+00 -0.00000000000E+00 -0.30452628736E+03  0.30452628736E+03  0.00000000000E+00 0.  1.
         23    2    1    2    0    0  0.13109234431E+03  0.27748352405E+03 -0.57184324707E+02  0.32294763219E+03  0.82721323084E+02 0.  0.
        254    2    1    2    0    0 -0.13109234431E+03 -0.27748352405E+03  0.17282830587E+04  0.19572036765E+04  0.86573759969E+03 0.  0.
        -24    2    4    4    0    0 -0.25967881144E+01 -0.27313860580E+03  0.71340137823E+02  0.29332701688E+03  0.79623377727E+02 0.  0.
         24    2    4    4    0    0 -0.12849555619E+03 -0.43449182473E+01  0.16569429208E+04  0.16638766596E+04  0.80595962472E+02 0.  0.
         13    1    3    3    0    0  0.12149927470E+03  0.16593055213E+03 -0.31245067330E+02  0.20801748992E+03  0.00000000000E+00 0.  1.
        -13    1    3    3    0    0  0.95930696090E+01  0.11155297192E+03 -0.25939257376E+02  0.11493014227E+03  0.00000000000E+00 0. -1.
          4    1    6    6  502    0 -0.65073677071E+02 -0.41641097928E+02  0.93941235358E+03  0.94258375466E+03  0.00000000000E+00 0. -1.
          3    1    5    5  503    0  0.15000291560E+02 -0.23715922615E+03  0.82837027257E+02  0.25165746637E+03  0.00000000000E+00 0. -1.
         -4    1    5    5    0  503 -0.17597079675E+02 -0.35979379648E+02 -0.11496889434E+02  0.41669550509E+02  0.00000000000E+00 0.  1.
         -3    1    6    6    0  502 -0.63421879122E+02  0.37296179681E+02  0.71753056726E+03  0.72129290495E+03  0.00000000000E+00 0.  1.
<mgrwt>
<rscale>  0 0.15512959E+04</rscale>
<asrwt>0</asrwt>
<pdfrwt beam="1">  1        2 0.30394230E+00 0.15512959E+04</pdfrwt>
<pdfrwt beam="2">  1       -2 0.46850199E-01 0.15512959E+04</pdfrwt>
<totfact> 0.28659675E+01</totfact>
</mgrwt>
</event>
<event>
12    1  0.1518126E-007  0.2562154E+04  0.7818608E-02  0.8381172E-01
         -1   -1    0    0    0  501 -0.00000000000E+00  0.00000000000E+00  0.14065782874E+04  0.14065782874E+04  0.00000000000E+00 0.  1.
          1   -1    0    0  501    0  0.00000000000E+00 -0.00000000000E+00 -0.11667730636E+04  0.11667730636E+04  0.00000000000E+00 0. -1.
         23    2    1    2    0    0 -0.72211324296E+03 -0.13898270600E+03  0.95904016789E+03  0.12119026936E+04  0.90478544110E+02 0.  0.
        254    2    1    2    0    0  0.72211324296E+03  0.13898270600E+03 -0.71923494408E+03  0.13614486574E+04  0.89189675061E+03 0.  0.
        -24    2    4    4    0    0  0.82034964579E+03  0.35300711329E+03 -0.64054072352E+03  0.11012581874E+04  0.69925771709E+02 0.  0.
         24    2    4    4    0    0 -0.98236402833E+02 -0.21402440729E+03 -0.78694220558E+02  0.26019046996E+03  0.77778290996E+02 0.  0.
         11    1    3    3    0    0 -0.57756999681E+02  0.11129534956E+02  0.60334349522E+02  0.84261327385E+02  0.00000000000E+00 0. -1.
        -11    1    3    3    0    0 -0.66435624328E+03 -0.15011224095E+03  0.89870581837E+03  0.11276413662E+04  0.00000000000E+00 0.  1.
          2    1    6    6  502    0 -0.10147908076E+03 -0.21764396904E+03 -0.69837884752E+02  0.25008844683E+03  0.00000000000E+00 0. -1.
          3    1    5    5  503    0  0.71060570606E+03  0.28746495695E+03 -0.57011446101E+03  0.95531516768E+03  0.00000000000E+00 0. -1.
         -2    1    5    5    0  503  0.10974393973E+03  0.65542156348E+02 -0.70426262510E+02  0.14594301976E+03  0.00000000000E+00 0.  1.
         -1    1    6    6    0  502  0.32426779276E+01  0.36195617480E+01 -0.88563358059E+01  0.10102023129E+02  0.00000000000E+00 0.  1.
<mgrwt>
<rscale>  0 0.25621535E+04</rscale>
<asrwt>0</asrwt>
<pdfrwt beam="1">  1        1 0.17950355E+00 0.25621535E+04</pdfrwt>
<pdfrwt beam="2">  1       -1 0.21639666E+00 0.25621535E+04</pdfrwt>
<totfact> 0.11623190E+00</totfact>
</mgrwt>
</event>
<event>
12    1  0.1518126E-007  0.1967270E+04  0.7818608E-02  0.8622078E-01
          1   -1    0    0  501    0  0.00000000000E+00  0.00000000000E+00  0.27816352566E+04  0.27816352566E+04  0.00000000000E+00 0. -1.
         -1   -1    0    0    0  501 -0.00000000000E+00 -0.00000000000E+00 -0.34783054053E+03  0.34783054053E+03  0.00000000000E+00 0.  1.
         23    2    1    2    0    0  0.11372989791E+03 -0.25147020672E+03  0.21012328239E+04  0.21213592943E+04  0.93883549149E+02 0.  0.
        254    2    1    2    0    0 -0.11372989791E+03  0.25147020672E+03  0.33257189214E+03  0.10081065028E+04  0.91077049962E+03 0.  0.
        -24    2    4    4    0    0 -0.24815406164E+03 -0.68914966866E+02  0.53450885763E+03  0.59884367921E+03  0.81143836973E+02 0.  0.
         24    2    4    4    0    0  0.13442416373E+03  0.32038517358E+03 -0.20193696549E+03  0.40926282358E+03  0.77466157025E+02 0.  0.
         11    1    3    3    0    0  0.79408547872E+01 -0.84972731658E+02  0.89999217744E+03  0.90402950270E+03  0.00000000000E+00 0.  1.
        -11    1    3    3    0    0  0.10578904313E+03 -0.16649747506E+03  0.12012406465E+04  0.12173297916E+04  0.00000000000E+00 0. -1.
          2    1    6    6  502    0  0.66792145095E+02  0.13358851728E+03 -0.12990018179E+03  0.19794226386E+03  0.00000000000E+00 0. -1.
          1    1    5    5  503    0 -0.13488926956E+03  0.43600254508E+01  0.27780405420E+03  0.30885144875E+03  0.00000000000E+00 0. -1.
         -2    1    5    5    0  503 -0.11326479208E+03 -0.73274992317E+02  0.25670480344E+03  0.28999223047E+03  0.00000000000E+00 0.  1.
         -1    1    6    6    0  502  0.67632018632E+02  0.18679665630E+03 -0.72036783704E+02  0.21132055971E+03  0.00000000000E+00 0.  1.
<mgrwt>
<rscale>  0 0.19672699E+04</rscale>
<asrwt>0</asrwt>
<pdfrwt beam="1">  1        1 0.42794387E+00 0.19672699E+04</pdfrwt>
<pdfrwt beam="2">  1       -1 0.53512393E-01 0.19672699E+04</pdfrwt>
<totfact> 0.28188583E+00</totfact>
</mgrwt>
</event>
<event>
12    1  0.1518126E-007  0.2159310E+04  0.7818608E-02  0.8535557E-01
          2   -1    0    0  501    0  0.00000000000E+00  0.00000000000E+00  0.16434351711E+04  0.16434351711E+04  0.00000000000E+00 0. -1.
         -2   -1    0    0    0  501 -0.00000000000E+00 -0.00000000000E+00 -0.70927973363E+03  0.70927973363E+03  0.00000000000E+00 0.  1.
         23    2    1    2    0    0 -0.69614822897E+03 -0.31916674977E+03 -0.10934300248E+03  0.77919562675E+03  0.93274657328E+02 0.  0.
        254    2    1    2    0    0  0.69614822897E+03  0.31916674977E+03  0.10434984400E+04  0.15735192780E+04  0.89475368295E+03 0.  0.
        -24    2    4    4    0    0  0.28888357502E+03 -0.13331994174E+03 -0.38500320493E+02  0.32954404101E+03  0.76740299098E+02 0.  0.
         24    2    4    4    0    0  0.40726465395E+03  0.45248669151E+03  0.10819987605E+04  0.12439752370E+04  0.78386020740E+02 0.  0.
         11    1    3    3    0    0 -0.57332341089E+03 -0.30029460062E+03 -0.93363755979E+02  0.65390624066E+03  0.00000000000E+00 0.  1.
        -11    1    3    3    0    0 -0.12282481807E+03 -0.18872149151E+02 -0.15979246497E+02  0.12528938609E+03  0.00000000000E+00 0. -1.
          2    1    6    6  502    0  0.38875948412E+03  0.44618408570E+03  0.10232017529E+04  0.11820135371E+04  0.00000000000E+00 0. -1.
          1    1    5    5  503    0  0.27603495652E+03 -0.14052839251E+03 -0.45777853961E+02  0.31311202187E+03  0.00000000000E+00 0. -1.
         -2    1    5    5    0  503  0.12848618491E+02  0.72084507695E+01  0.72775334674E+01  0.16432019139E+02  0.00000000000E+00 0.  1.
         -3    1    6    6    0  502  0.18505169827E+02  0.63026058070E+01  0.58797007589E+02  0.61961699878E+02  0.00000000000E+00 0.  1.
<mgrwt>
<rscale>  0 0.21593103E+04</rscale>
<asrwt>0</asrwt>
<pdfrwt beam="1">  1        2 0.25283618E+00 0.21593103E+04</pdfrwt>
<pdfrwt beam="2">  1       -2 0.10911996E+00 0.21593103E+04</pdfrwt>
<totfact> 0.64796035E+00</totfact>
</mgrwt>
</event>
<event>
12    1  0.1518126E-007  0.1699636E+04  0.7818608E-02  0.8761572E-01
          1   -1    0    0  501    0  0.00000000000E+00  0.00000000000E+00  0.53331338504E+03  0.53331338504E+03  0.00000000000E+00 0. -1.
         -1   -1    0    0    0  501 -0.00000000000E+00 -0.00000000000E+00 -0.13541582126E+04  0.13541582126E+04  0.00000000000E+00 0.  1.
         23    2    1    2    0    0  0.16714648851E+03 -0.58154695150E+03 -0.20479541402E+03  0.64516697032E+03  0.90357360401E+02 0.  0.
        254    2    1    2    0    0 -0.16714648851E+03  0.58154695150E+03 -0.61604941349E+03  0.12423046273E+04  0.89312322871E+03 0.  0.
        -24    2    4    4    0    0 -0.36928065314E+03 -0.21191955809E+02 -0.39534825081E+02  0.38034207691E+03  0.79245146841E+02 0.  0.
         24    2    4    4    0    0  0.20213416463E+03  0.60273890731E+03 -0.57651458841E+03  0.86196255036E+03  0.80361412914E+02 0.  0.
         13    1    3    3    0    0  0.45773994724E+02 -0.12036569428E+03 -0.82205032329E+02  0.15277704766E+03  0.00000000000E+00 0. -1.
        -13    1    3    3    0    0  0.12137249378E+03 -0.46118125721E+03 -0.12259038169E+03  0.49238992266E+03  0.00000000000E+00 0.  1.
          4    1    6    6  502    0  0.48455224232E+02  0.21450065503E+03 -0.15803528418E+03  0.27080175555E+03  0.00000000000E+00 0. -1.
          1    1    5    5  503    0 -0.18213859466E+02  0.16241891916E+01 -0.21285508172E+02  0.28061637966E+02  0.00000000000E+00 0. -1.
         -2    1    5    5    0  503 -0.35106679368E+03 -0.22816145001E+02 -0.18249316909E+02  0.35228043894E+03  0.00000000000E+00 0.  1.
         -3    1    6    6    0  502  0.15367894040E+03  0.38823825228E+03 -0.41847930423E+03  0.59116079481E+03  0.00000000000E+00 0.  1.
<mgrwt>
<rscale>  0 0.16996361E+04</rscale>
<asrwt>0</asrwt>
<pdfrwt beam="1">  1        1 0.82048212E-01 0.16996361E+04</pdfrwt>
<pdfrwt beam="2">  1       -1 0.20833203E+00 0.16996361E+04</pdfrwt>
<totfact> 0.50866035E+00</totfact>
</mgrwt>
</event>
<event>
12    1  0.1518126E-007  0.2367920E+04  0.7818608E-02  0.8451613E-01
         -1   -1    0    0    0  501 -0.00000000000E+00  0.00000000000E+00  0.48858861309E+04  0.48858861309E+04  0.00000000000E+00 0.  1.
          1   -1    0    0  501    0  0.00000000000E+00 -0.00000000000E+00 -0.28690001352E+03  0.28690001352E+03  0.00000000000E+00 0. -1.
         23    2    1    2    0    0  0.75876692705E+03 -0.24195666679E+03  0.63184131032E+03  0.10206545496E+04  0.90785406565E+02 0.  0.
        254    2    1    2    0    0 -0.75876692705E+03  0.24195666679E+03  0.39671448071E+04  0.41521315948E+04  0.93149803122E+03 0.  0.
        -24    2    4    4    0    0 -0.54825943499E+03  0.45798071741E+03  0.14791964317E+04  0.16447657757E+04  0.83051957322E+02 0.  0.
         24    2    4    4    0    0 -0.21050749206E+03 -0.21602405062E+03  0.24879483754E+04  0.25073658192E+04  0.77565700841E+02 0.  0.
         11    1    3    3    0    0  0.34676135205E+02 -0.12505161855E+02  0.79681459052E+01  0.37713456153E+02  0.00000000000E+00 0.  1.
        -11    1    3    3    0    0  0.72409079184E+03 -0.22945150493E+03  0.62387316441E+03  0.98294109347E+03  0.00000000000E+00 0. -1.
          2    1    6    6  502    0 -0.10142955668E+03 -0.13991753687E+03  0.16353242780E+04  0.16444301038E+04  0.00000000000E+00 0. -1.
          1    1    5    5  503    0 -0.36942950455E+03  0.35198366596E+03  0.10099988543E+04  0.11315778125E+04  0.00000000000E+00 0. -1.
         -2    1    5    5    0  503 -0.17882993044E+03  0.10599705145E+03  0.46919757740E+03  0.51318796320E+03  0.00000000000E+00 0.  1.
         -1    1    6    6    0  502 -0.10907793538E+03 -0.76106513752E+02  0.85262409736E+03  0.86293571535E+03  0.00000000000E+00 0.  1.
<mgrwt>
<rscale>  0 0.23679196E+04</rscale>
<asrwt>0</asrwt>
<pdfrwt beam="1">  1        1 0.44138467E-01 0.23679196E+04</pdfrwt>
<pdfrwt beam="2">  1       -1 0.75167473E+00 0.23679196E+04</pdfrwt>
<totfact> 0.10439768E-02</totfact>
</mgrwt>
</event>
<event>
12    1  0.1518126E-007  0.1897942E+04  0.7818608E-02  0.8655881E-01
         -1   -1    0    0    0  501 -0.00000000000E+00  0.00000000000E+00  0.68571047973E+03  0.68571047973E+03  0.00000000000E+00 0.  1.
          1   -1    0    0  501    0  0.00000000000E+00 -0.00000000000E+00 -0.13133038545E+04  0.13133038545E+04  0.00000000000E+00 0. -1.
         23    2    1    2    0    0 -0.58000644953E+03  0.38220123872E+03  0.20877187936E+02  0.70072272119E+03  0.89951134741E+02 0.  0.
        254    2    1    2    0    0  0.58000644953E+03 -0.38220123872E+03 -0.64847056267E+03  0.12982916130E+04  0.88462521634E+03 0.  0.
        -24    2    4    4    0    0  0.59218099373E+03 -0.15241270774E+03 -0.80198405729E+03  0.10117894032E+04  0.81433442174E+02 0.  0.
         24    2    4    4    0    0 -0.12174544200E+02 -0.22978853098E+03  0.15351349462E+03  0.28650220979E+03  0.74606532465E+02 0.  0.
         11    1    3    3    0    0 -0.40152642313E+03  0.22292556225E+03 -0.11011774891E+02  0.45939148225E+03  0.00000000000E+00 0. -1.
        -11    1    3    3    0    0 -0.17848002639E+03  0.15927567647E+03  0.31888962828E+02  0.24133123894E+03  0.00000000000E+00 0.  1.
          2    1    6    6  502    0  0.23819099682E+02 -0.12925630534E+03  0.10925193781E+03  0.17091087706E+03  0.00000000000E+00 0. -1.
          3    1    5    5  503    0  0.36074921294E+03 -0.92436432106E+02 -0.55210131050E+03  0.66595821616E+03  0.00000000000E+00 0. -1.
         -4    1    5    5    0  503  0.23143178079E+03 -0.59976275635E+02 -0.24988274679E+03  0.34583118706E+03  0.00000000000E+00 0.  1.
         -1    1    6    6    0  502 -0.35993643882E+02 -0.10053222564E+03  0.44261556808E+02  0.11559133273E+03  0.00000000000E+00 0.  1.
<mgrwt>
<rscale>  0 0.18979423E+04</rscale>
<asrwt>0</asrwt>
<pdfrwt beam="1">  1        1 0.20204674E+00 0.18979423E+04</pdfrwt>
<pdfrwt beam="2">  1       -1 0.10549392E+00 0.18979423E+04</pdfrwt>
<totfact> 0.69739689E+00</totfact>
</mgrwt>
</event>
<event>
12    1  0.1518126E-007  0.1833030E+04  0.7818608E-02  0.8688929E-01
         -2   -1    0    0    0  501 -0.00000000000E+00  0.00000000000E+00  0.51839020206E+03  0.51839020206E+03  0.00000000000E+00 0.  1.
          2   -1    0    0  501    0  0.00000000000E+00 -0.00000000000E+00 -0.16204006859E+04  0.16204006859E+04  0.00000000000E+00 0. -1.
         23    2    1    2    0    0  0.30297370738E+03  0.58299541330E+03 -0.66878870140E+03  0.94168964633E+03  0.88455319756E+02 0.  0.
        254    2    1    2    0    0 -0.30297370738E+03 -0.58299541330E+03 -0.43322178247E+03  0.11971012417E+04  0.90204963870E+03 0.  0.
        -24    2    4    4    0    0 -0.18734696273E+03 -0.41230621077E+03  0.21827911087E+03  0.50904882138E+03  0.79935201385E+02 0.  0.
         24    2    4    4    0    0 -0.11562674465E+03 -0.17068920253E+03 -0.65150089334E+03  0.68805242028E+03  0.80363991317E+02 0.  0.
         11    1    3    3    0    0  0.13775763106E+03  0.26836726153E+03 -0.24496478064E+03  0.38859477059E+03  0.00000000000E+00 0.  1.
        -11    1    3    3    0    0  0.16521607632E+03  0.31462815177E+03 -0.42382392076E+03  0.55309487574E+03  0.00000000000E+00 0. -1.
          2    1    6    6  502    0  0.10057656312E+02 -0.56720214470E+01 -0.63378858517E+02  0.64422107888E+02  0.00000000000E+00 0. -1.
          3    1    5    5  503    0 -0.13092684156E+03 -0.20754324062E+03  0.92749473915E+02  0.26233280290E+03  0.00000000000E+00 0. -1.
         -4    1    5    5    0  503 -0.56420121169E+02 -0.20476297015E+03  0.12552963696E+03  0.24671601847E+03  0.00000000000E+00 0.  1.
         -1    1    6    6    0  502 -0.12568440096E+03 -0.16501718109E+03 -0.58812203482E+03  0.62363031240E+03  0.00000000000E+00 0.  1.
<mgrwt>
<rscale>  0 0.18330301E+04</rscale>
<asrwt>0</asrwt>
<pdfrwt beam="1">  1        2 0.24929241E+00 0.18330301E+04</pdfrwt>
<pdfrwt beam="2">  1       -2 0.79752339E-01 0.18330301E+04</pdfrwt>
<totfact> 0.14236427E+01</totfact>
</mgrwt>
</event>
<event>
12    1  0.1518126E-007  0.1427957E+04  0.7818608E-02  0.8933827E-01
          2   -1    0    0  501    0  0.00000000000E+00  0.00000000000E+00  0.10758264842E+04  0.10758264842E+04  0.00000000000E+00 0. -1.
         -2   -1    0    0    0  501 -0.00000000000E+00 -0.00000000000E+00 -0.47383565573E+03  0.47383565573E+03  0.00000000000E+00 0.  1.
         23    2    1    2    0    0  0.35392989679E+03  0.83240956173E+02  0.42950185439E+03  0.56984317379E+03  0.89743919898E+02 0.  0.
        254    2    1    2    0    0 -0.35392989679E+03 -0.83240956173E+02  0.17248897404E+03  0.97981896609E+03  0.89336293382E+03 0.  0.
        -24    2    4    4    0    0 -0.23540959704E+03  0.18419795428E+03  0.46492532315E+03  0.55845180898E+03  0.79789110173E+02 0.  0.
         24    2    4    4    0    0 -0.11852029975E+03 -0.26743891046E+03 -0.29243634911E+03  0.42136715712E+03  0.80378047633E+02 0.  0.
         13    1    3    3    0    0  0.27017037757E+02  0.10240357686E+02  0.53646902460E+01  0.29386479138E+02  0.00000000000E+00 0.  1.
        -13    1    3    3    0    0  0.32691285903E+03  0.73000598487E+02  0.42413716414E+03  0.54045669465E+03  0.00000000000E+00 0. -1.
          4    1    6    6  502    0 -0.12117886174E+03 -0.19383606632E+03 -0.20508602152E+03  0.30711075097E+03  0.00000000000E+00 0. -1.
          1    1    5    5  503    0 -0.16421726366E+03  0.96021967302E+02  0.34135728285E+03  0.39078424027E+03  0.00000000000E+00 0. -1.
         -2    1    5    5    0  503 -0.71192333385E+02  0.88175986981E+02  0.12356804030E+03  0.16766756870E+03  0.00000000000E+00 0.  1.
         -3    1    6    6    0  502  0.26585619881E+01 -0.73602844135E+02 -0.87350327584E+02  0.11425640615E+03  0.00000000000E+00 0.  1.
<mgrwt>
<rscale>  0 0.14279565E+04</rscale>
<asrwt>0</asrwt>
<pdfrwt beam="1">  1        2 0.16551177E+00 0.14279565E+04</pdfrwt>
<pdfrwt beam="2">  1       -2 0.72897793E-01 0.14279565E+04</pdfrwt>
<totfact> 0.37257369E+01</totfact>
</mgrwt>
</event>
<event>
12    1  0.1518126E-007  0.2993551E+04  0.7818608E-02  0.8245575E-01
          2   -1    0    0  501    0  0.00000000000E+00  0.00000000000E+00  0.11730140425E+04  0.11730140425E+04  0.00000000000E+00 0. -1.
         -2   -1    0    0    0  501 -0.00000000000E+00 -0.00000000000E+00 -0.19098977711E+04  0.19098977711E+04  0.00000000000E+00 0.  1.
         23    2    1    2    0    0 -0.16037128657E+03 -0.13008905079E+04  0.39678597938E+02  0.13148583756E+04  0.96141009929E+02 0.  0.
        254    2    1    2    0    0  0.16037128657E+03  0.13008905079E+04 -0.77656232650E+03  0.17680534380E+04  0.89717827081E+03 0.  0.
        -24    2    4    4    0    0 -0.60935864947E+02 -0.81612243577E+02  0.51401233990E+02  0.13955426005E+03  0.80371429654E+02 0.  0.
         24    2    4    4    0    0  0.22130715151E+03  0.13825027514E+04 -0.82796356049E+03  0.16284991779E+04  0.78709605314E+02 0.  0.
         11    1    3    3    0    0 -0.80725667115E+01 -0.10469767736E+03  0.29087842714E+02  0.10896271184E+03  0.00000000000E+00 0.  1.
        -11    1    3    3    0    0 -0.15229871986E+03 -0.11961928305E+04  0.10590755224E+02  0.12058956638E+04  0.00000000000E+00 0. -1.
          4    1    6    6  502    0  0.50161006489E+02  0.21378052603E+03 -0.15819328246E+03  0.27063509472E+03  0.00000000000E+00 0. -1.
          3    1    5    5  503    0 -0.18362386199E+02  0.15259024079E+02  0.79081476621E+01  0.25150623098E+02  0.00000000000E+00 0. -1.
         -4    1    5    5    0  503 -0.42573478747E+02 -0.96871267657E+02  0.43493086327E+02  0.11440363695E+03  0.00000000000E+00 0.  1.
         -3    1    6    6    0  502  0.17114614502E+03  0.11687222254E+04 -0.66977027803E+03  0.13578640832E+04  0.00000000000E+00 0.  1.
<mgrwt>
<rscale>  0 0.29935510E+04</rscale>
<asrwt>0</asrwt>
<pdfrwt beam="1">  1        2 0.18046370E+00 0.29935510E+04</pdfrwt>
<pdfrwt beam="2">  1       -2 0.29383042E+00 0.29935510E+04</pdfrwt>
<totfact> 0.58378139E-01</totfact>
</mgrwt>
</event>
<event>
12    1  0.1518126E-007  0.2099178E+04  0.7818608E-02  0.8561606E-01
          2   -1    0    0  501    0  0.00000000000E+00  0.00000000000E+00  0.25705807303E+04  0.25705807303E+04  0.00000000000E+00 0. -1.
         -2   -1    0    0    0  501 -0.00000000000E+00 -0.00000000000E+00 -0.42855561646E+03  0.42855561646E+03  0.00000000000E+00 0.  1.
         23    2    1    2    0    0  0.21141292265E+03 -0.37148190983E+03 -0.17072365180E+03  0.46906302252E+03  0.90439596511E+02 0.  0.
        254    2    1    2    0    0 -0.21141292265E+03  0.37148190983E+03  0.23127487656E+04  0.25300733242E+04  0.93261457194E+03 0.  0.
        -24    2    4    4    0    0 -0.14238967763E+03 -0.10321150899E+03  0.18455629353E+04  0.18557642311E+04  0.82649243902E+02 0.  0.
         24    2    4    4    0    0 -0.69023245026E+02  0.47469341882E+03  0.46718583031E+03  0.67430909307E+03  0.79574510518E+02 0.  0.
         13    1    3    3    0    0  0.10239852665E+03 -0.18393759768E+03 -0.13263493287E+03  0.24881825399E+03  0.00000000000E+00 0. -1.
        -13    1    3    3    0    0  0.10901439600E+03 -0.18754431216E+03 -0.38088718928E+02  0.22024476854E+03  0.00000000000E+00 0.  1.
          4    1    6    6  502    0 -0.14918569902E+01  0.56664062291E+02  0.24634159865E+02  0.61805205483E+02  0.00000000000E+00 0. -1.
          3    1    5    5  503    0 -0.40562368640E+02  0.15525734955E+01  0.65756364316E+03  0.65881534669E+03  0.00000000000E+00 0. -1.
         -4    1    5    5    0  503 -0.10182730899E+03 -0.10476408248E+03  0.11879992921E+04  0.11969488844E+04  0.00000000000E+00 0.  1.
         -3    1    6    6    0  502 -0.67531388036E+02  0.41802935653E+03  0.44255167045E+03  0.61250388759E+03  0.00000000000E+00 0.  1.
<mgrwt>
<rscale>  0 0.20991778E+04</rscale>
<asrwt>0</asrwt>
<pdfrwt beam="1">  1        2 0.39547395E+00 0.20991778E+04</pdfrwt>
<pdfrwt beam="2">  1       -2 0.65931635E-01 0.20991778E+04</pdfrwt>
<totfact> 0.61814843E+00</totfact>
</mgrwt>
</event>
<event>
12    1  0.1518126E-007  0.1784948E+04  0.7818608E-02  0.8714345E-01
         -1   -1    0    0    0  501 -0.00000000000E+00  0.00000000000E+00  0.14092816551E+04  0.14092816551E+04  0.00000000000E+00 0.  1.
          1   -1    0    0  501    0  0.00000000000E+00 -0.00000000000E+00 -0.56518855593E+03  0.56518855593E+03  0.00000000000E+00 0. -1.
         23    2    1    2    0    0 -0.61938128328E+03 -0.21606258264E+03  0.17238706771E+03  0.68409433554E+03  0.89171436689E+02 0.  0.
        254    2    1    2    0    0  0.61938128328E+03  0.21606258264E+03  0.67170603150E+03  0.12903758755E+04  0.88519189652E+03 0.  0.
        -24    2    4    4    0    0  0.56359870655E+03 -0.19828954580E+03  0.15808834189E+03  0.62330545690E+03  0.80966182837E+02 0.  0.
         24    2    4    4    0    0  0.55782576730E+02  0.41435212843E+03  0.51361768961E+03  0.66707041862E+03  0.79877594554E+02 0.  0.
         13    1    3    3    0    0 -0.60233993548E+03 -0.22469219772E+03  0.16853233039E+03  0.66460749919E+03  0.00000000000E+00 0. -1.
        -13    1    3    3    0    0 -0.17041347793E+02  0.86296150880E+01  0.38547373134E+01  0.19486836350E+02  0.00000000000E+00 0.  1.
          2    1    6    6  502    0  0.56651903736E+02  0.33064568196E+03  0.35964753681E+03  0.49181536772E+03  0.00000000000E+00 0. -1.
          3    1    5    5  503    0  0.51483431386E+03 -0.20388291874E+03  0.14200948782E+03  0.57165488707E+03  0.00000000000E+00 0. -1.
         -4    1    5    5    0  503  0.48764392683E+02  0.55933729472E+01  0.16078854069E+02  0.51650569821E+02  0.00000000000E+00 0.  1.
         -1    1    6    6    0  502 -0.86932700580E+00  0.83706446472E+02  0.15397015280E+03  0.17525505090E+03  0.00000000000E+00 0.  1.
<mgrwt>
<rscale>  0 0.17849480E+04</rscale>
<asrwt>0</asrwt>
<pdfrwt beam="1">  1        1 0.86952086E-01 0.17849480E+04</pdfrwt>
<pdfrwt beam="2">  1       -1 0.21681256E+00 0.17849480E+04</pdfrwt>
<totfact> 0.40758367E+00</totfact>
</mgrwt>
</event>
<event>
12    1  0.1518126E-007  0.1891819E+04  0.7818608E-02  0.8658939E-01
          2   -1    0    0  501    0  0.00000000000E+00  0.00000000000E+00  0.10995230768E+04  0.10995230768E+04  0.00000000000E+00 0.  1.
         -2   -1    0    0    0  501 -0.00000000000E+00 -0.00000000000E+00 -0.81375755823E+03  0.81375755823E+03  0.00000000000E+00 0. -1.
         23    2    1    2    0    0  0.46001622365E+03  0.39995182576E+03  0.51583133711E+03  0.80385341792E+03  0.92314463750E+02 0.  0.
        254    2    1    2    0    0 -0.46001622365E+03 -0.39995182576E+03 -0.23006581851E+03  0.11094272171E+04  0.89795438655E+03 0.  0.
        -24    2    4    4    0    0 -0.40863952629E+03 -0.21427302151E+03 -0.55345233610E+03  0.72498750040E+03  0.79988731745E+02 0.  0.
         24    2    4    4    0    0 -0.51376697365E+02 -0.18567880425E+03  0.32338651759E+03  0.38443971674E+03  0.78095279393E+02 0.  0.
         11    1    3    3    0    0  0.13803649902E+03  0.13222453695E+03  0.21834568465E+03  0.29019345485E+03  0.00000000000E+00 0.  1.
        -11    1    3    3    0    0  0.32197972463E+03  0.26772728881E+03  0.29748565246E+03  0.51365996308E+03  0.00000000000E+00 0. -1.
          2    1    6    6  502    0 -0.32431877619E+02 -0.25669567142E+02  0.10651428298E+03  0.11426305545E+03  0.00000000000E+00 0. -1.
          1    1    5    5  503    0 -0.22046858838E+02 -0.28586915195E+02 -0.69721187951E+02  0.78513182042E+02  0.00000000000E+00 0. -1.
         -2    1    5    5    0  503 -0.38659266745E+03 -0.18568610631E+03 -0.48373114815E+03  0.64647431836E+03  0.00000000000E+00 0.  1.
         -1    1    6    6    0  502 -0.18944819746E+02 -0.16000923711E+03  0.21687223461E+03  0.27017666128E+03  0.00000000000E+00 0.  1.
<mgrwt>
<rscale>  0 0.18918195E+04</rscale>
<asrwt>0</asrwt>
<pdfrwt beam="1">  1        2 0.16915740E+00 0.18918195E+04</pdfrwt>
<pdfrwt beam="2">  1       -2 0.12519347E+00 0.18918195E+04</pdfrwt>
<totfact> 0.97594565E+00</totfact>
</mgrwt>
</event>
<event>
12    1  0.1518126E-007  0.1806779E+04  0.7818608E-02  0.8702703E-01
         -2   -1    0    0    0  501 -0.00000000000E+00  0.00000000000E+00  0.16782357341E+04  0.16782357341E+04  0.00000000000E+00 0.  1.
          2   -1    0    0  501    0  0.00000000000E+00 -0.00000000000E+00 -0.48629189982E+03  0.48629189982E+03  0.00000000000E+00 0. -1.
         23    2    1    2    0    0  0.11219937835E+03  0.31337978751E+03 -0.25405968451E+03  0.42864142835E+03  0.91605453358E+02 0.  0.
        254    2    1    2    0    0 -0.11219937835E+03 -0.31337978751E+03  0.14460035188E+04  0.17358862055E+04  0.90087687869E+03 0.  0.
        -24    2    4    4    0    0  0.11299905891E+03 -0.13876188280E+03  0.14252945529E+04  0.14386983701E+04  0.79779635794E+02 0.  0.
         24    2    4    4    0    0 -0.22519843725E+03 -0.17461790470E+03  0.20708965893E+02  0.29718783542E+03  0.81767961130E+02 0.  0.
         11    1    3    3    0    0  0.83620447502E+02  0.21065126213E+03 -0.22210179696E+03  0.31732560831E+03  0.00000000000E+00 0. -1.
        -11    1    3    3    0    0  0.28578930847E+02  0.10272852538E+03 -0.31957887554E+02  0.11131582004E+03  0.00000000000E+00 0.  1.
          2    1    6    6  502    0 -0.16305037328E+03 -0.12253998552E+03 -0.22686695360E+02  0.20522221718E+03  0.00000000000E+00 0. -1.
          3    1    5    5  503    0  0.78657630432E+02 -0.12183277565E+03  0.86280586339E+03  0.87490811286E+03  0.00000000000E+00 0. -1.
         -4    1    5    5    0  503  0.34341428473E+02 -0.16929107153E+02  0.56248868948E+03  0.56379025726E+03  0.00000000000E+00 0.  1.
         -1    1    6    6    0  502 -0.62148063971E+02 -0.52077919181E+02  0.43395661253E+02  0.91965618234E+02  0.00000000000E+00 0.  1.
<mgrwt>
<rscale>  0 0.18067788E+04</rscale>
<asrwt>0</asrwt>
<pdfrwt beam="1">  1        2 0.74814140E-01 0.18067788E+04</pdfrwt>
<pdfrwt beam="2">  1       -2 0.25819011E+00 0.18067788E+04</pdfrwt>
<totfact> 0.34353235E+00</totfact>
</mgrwt>
</event>
<event>
12    1  0.1518126E-007  0.2315896E+04  0.7818608E-02  0.8471680E-01
          2   -1    0    0  501    0  0.00000000000E+00  0.00000000000E+00  0.16294538762E+04  0.16294538762E+04  0.00000000000E+00 0. -1.
         -2   -1    0    0    0  501 -0.00000000000E+00 -0.00000000000E+00 -0.82287898189E+03  0.82287898189E+03  0.00000000000E+00 0.  1.
         23    2    1    2    0    0  0.26293609012E+03 -0.65173126436E+03 -0.38233710096E+03  0.80488102189E+03  0.88106595674E+02 0.  0.
        254    2    1    2    0    0 -0.26293609012E+03  0.65173126436E+03  0.11889119953E+04  0.16474518362E+04  0.89816300953E+03 0.  0.
        -24    2    4    4    0    0 -0.69517766692E+02  0.17443856409E+03  0.10991124248E+04  0.11178676393E+04  0.79488390244E+02 0.  0.
         24    2    4    4    0    0 -0.19341832343E+03  0.47729270027E+03  0.89799570513E+02  0.52958419691E+03  0.84714161619E+02 0.  0.
         13    1    3    3    0    0  0.13356105978E+03 -0.36761589931E+03 -0.16506764922E+03  0.42453190096E+03  0.00000000000E+00 0.  1.
        -13    1    3    3    0    0  0.12937503034E+03 -0.28411536505E+03 -0.21726945174E+03  0.38034912093E+03  0.00000000000E+00 0. -1.
          2    1    6    6  502    0 -0.16665668052E+03  0.35070386854E+03  0.96240240692E+02  0.40003729389E+03  0.00000000000E+00 0. -1.
          3    1    5    5  503    0 -0.10245634439E+02  0.85457318309E+02  0.67595372780E+03  0.68141130634E+03  0.00000000000E+00 0. -1.
         -4    1    5    5    0  503 -0.59272132253E+02  0.88981245780E+02  0.42315869700E+03  0.43645633299E+03  0.00000000000E+00 0.  1.
         -1    1    6    6    0  502 -0.26761642910E+02  0.12658883172E+03 -0.64406701785E+01  0.12954690302E+03  0.00000000000E+00 0.  1.
<mgrwt>
<rscale>  0 0.23158958E+04</rscale>
<asrwt>0</asrwt>
<pdfrwt beam="1">  1        2 0.25068521E+00 0.23158958E+04</pdfrwt>
<pdfrwt beam="2">  1       -2 0.12659677E+00 0.23158958E+04</pdfrwt>
<totfact> 0.45154440E+00</totfact>
</mgrwt>
</event>
<event>
12    1  0.1518126E-007  0.2131080E+04  0.7818608E-02  0.8547675E-01
          2   -1    0    0  501    0  0.00000000000E+00  0.00000000000E+00  0.43096984433E+04  0.43096984433E+04  0.00000000000E+00 0. -1.
         -2   -1    0    0    0  501 -0.00000000000E+00 -0.00000000000E+00 -0.26344667366E+03  0.26344667366E+03  0.00000000000E+00 0.  1.
         23    2    1    2    0    0 -0.58974324602E+03 -0.16763459276E+02  0.30529638711E+04  0.31106093632E+04  0.84994721128E+02 0.  0.
        254    2    1    2    0    0  0.58974324602E+03  0.16763459276E+02  0.99328789856E+03  0.14625357537E+04  0.89683436138E+03 0.  0.
        -24    2    4    4    0    0  0.23759504435E+03  0.10446096425E+03  0.10518258060E+04  0.10864256033E+04  0.81360721883E+02 0.  0.
         24    2    4    4    0    0  0.35214820166E+03 -0.87697504976E+02 -0.58537907474E+02  0.37611015046E+03  0.79579836357E+02 0.  0.
         13    1    3    3    0    0 -0.51245641547E+02 -0.15869424722E+02  0.18932257559E+03  0.19677650278E+03  0.00000000000E+00 0.  1.
        -13    1    3    3    0    0 -0.53849760447E+03 -0.89403455329E+00  0.28636412955E+04  0.29138328605E+04  0.00000000000E+00 0. -1.
          4    1    6    6  502    0  0.44378360078E+02  0.14658292459E+02 -0.13549520696E+02  0.48661009978E+02  0.00000000000E+00 0. -1.
          3    1    5    5  503    0  0.43594678167E+02  0.37953041085E+02  0.13345453629E+03  0.14543398003E+03  0.00000000000E+00 0. -1.
         -4    1    5    5    0  503  0.19400036619E+03  0.66507923166E+02  0.91837126975E+03  0.94099162325E+03  0.00000000000E+00 0.  1.
         -3    1    6    6    0  502  0.30776984159E+03 -0.10235579743E+03 -0.44988386777E+02  0.32744914048E+03  0.00000000000E+00 0.  1.
<mgrwt>
<rscale>  0 0.21310802E+04</rscale>
<asrwt>0</asrwt>
<pdfrwt beam="1">  1        2 0.66303048E+00 0.21310802E+04</pdfrwt>
<pdfrwt beam="2">  1       -2 0.40530261E-01 0.21310802E+04</pdfrwt>
<totfact> 0.99593670E-01</totfact>
</mgrwt>
</event>
<event>
12    1  0.1518126E-007  0.1631341E+04  0.7818608E-02  0.8801522E-01
          2   -1    0    0  501    0  0.00000000000E+00  0.00000000000E+00  0.12565577478E+04  0.12565577478E+04  0.00000000000E+00 0. -1.
         -2   -1    0    0    0  501 -0.00000000000E+00 -0.00000000000E+00 -0.52947723125E+03  0.52947723125E+03  0.00000000000E+00 0.  1.
         23    2    1    2    0    0 -0.25963275965E+03  0.19026175966E+02 -0.29322656797E+03  0.40273030841E+03  0.91862483622E+02 0.  0.
        254    2    1    2    0    0  0.25963275965E+03 -0.19026175966E+02  0.10203070845E+04  0.13833046706E+04  0.89706972962E+03 0.  0.
        -24    2    4    4    0    0  0.92662017618E+02  0.31185251153E+03  0.46001549202E+02  0.33797068123E+03  0.79182071098E+02 0.  0.
         24    2    4    4    0    0  0.16697074203E+03 -0.33087868750E+03  0.97430553528E+03  0.10453339894E+04  0.78050872651E+02 0.  0.
         13    1    3    3    0    0 -0.22916331641E+03  0.44769972324E+02 -0.22849752568E+03  0.32669755930E+03  0.00000000000E+00 0.  1.
        -13    1    3    3    0    0 -0.30469443236E+02 -0.25743796358E+02 -0.64729042286E+02  0.76032749111E+02  0.00000000000E+00 0. -1.
          2    1    6    6  502    0  0.68232274765E+02 -0.17416812973E+03  0.58567244075E+03  0.61481898847E+03  0.00000000000E+00 0. -1.
          1    1    5    5  503    0  0.79111227855E+02  0.22609468889E+03 -0.38099172861E+00  0.23953609305E+03  0.00000000000E+00 0. -1.
         -2    1    5    5    0  503  0.13550789764E+02  0.85757822639E+02  0.46382540931E+02  0.98434588180E+02  0.00000000000E+00 0.  1.
         -3    1    6    6    0  502  0.98738467264E+02 -0.15671055777E+03  0.38863309453E+03  0.43051500090E+03  0.00000000000E+00 0.  1.
<mgrwt>
<rscale>  0 0.16313414E+04</rscale>
<asrwt>0</asrwt>
<pdfrwt beam="1">  1        2 0.19331658E+00 0.16313414E+04</pdfrwt>
<pdfrwt beam="2">  1       -2 0.81458036E-01 0.16313414E+04</pdfrwt>
<totfact> 0.22258728E+01</totfact>
</mgrwt>
</event>
<event>
12    1  0.1518126E-007  0.1522983E+04  0.7818608E-02  0.8869312E-01
          2   -1    0    0  501    0  0.00000000000E+00  0.00000000000E+00  0.26062064262E+04  0.26062064262E+04  0.00000000000E+00 0. -1.
         -2   -1    0    0    0  501 -0.00000000000E+00 -0.00000000000E+00 -0.22249559721E+03  0.22249559721E+03  0.00000000000E+00 0.  1.
         23    2    1    2    0    0  0.21778183431E+03 -0.34417092644E+03  0.12027471756E+04  0.12730847557E+04  0.90892645109E+02 0.  0.
        254    2    1    2    0    0 -0.21778183431E+03  0.34417092644E+03  0.11809636535E+04  0.15556172677E+04  0.92703148754E+03 0.  0.
        -24    2    4    4    0    0  0.10799122671E+03 -0.68902962233E+02  0.97252550256E+03  0.98395922633E+03  0.77202219575E+02 0.  0.
         24    2    4    4    0    0 -0.32577306102E+03  0.41307388868E+03  0.20843815091E+03  0.57165804140E+03  0.81168520680E+02 0.  0.
         13    1    3    3    0    0 -0.66595778199E+00  0.50543831454E+01  0.10246293208E+02  0.11444510179E+02  0.00000000000E+00 0.  1.
        -13    1    3    3    0    0  0.21844779209E+03 -0.34922530959E+03  0.11925008824E+04  0.12616402455E+04  0.00000000000E+00 0. -1.
          2    1    6    6  502    0 -0.24539567978E+03  0.26510605773E+03  0.16841626595E+03  0.39857784703E+03  0.00000000000E+00 0. -1.
          3    1    5    5  503    0  0.85364916792E+02 -0.49145756079E+02  0.90119252569E+03  0.90655967411E+03  0.00000000000E+00 0. -1.
         -4    1    5    5    0  503  0.22626309920E+02 -0.19757206155E+02  0.71332976867E+02  0.77399552223E+02  0.00000000000E+00 0.  1.
         -1    1    6    6    0  502 -0.80377381238E+02  0.14796783094E+03  0.40021884954E+02  0.17308019437E+03  0.00000000000E+00 0.  1.
<mgrwt>
<rscale>  0 0.15229832E+04</rscale>
<asrwt>0</asrwt>
<pdfrwt beam="1">  1        2 0.40095481E+00 0.15229832E+04</pdfrwt>
<pdfrwt beam="2">  1       -2 0.34230094E-01 0.15229832E+04</pdfrwt>
<totfact> 0.23345819E+01</totfact>
</mgrwt>
</event>
<event>
12    1  0.1518126E-007  0.1903527E+04  0.7818608E-02  0.8653103E-01
         -3   -1    0    0    0  501 -0.00000000000E+00  0.00000000000E+00  0.69976134608E+03  0.69976134608E+03  0.00000000000E+00 0.  1.
          3   -1    0    0  501    0  0.00000000000E+00 -0.00000000000E+00 -0.12945176805E+04  0.12945176805E+04  0.00000000000E+00 0. -1.
         23    2    1    2    0    0 -0.33565077515E+01 -0.39768790865E+03  0.42620843326E+03  0.59007260365E+03  0.91460976186E+02 0.  0.
        254    2    1    2    0    0  0.33565077515E+01  0.39768790865E+03 -0.10209647676E+04  0.14042064229E+04  0.87821391613E+03 0.  0.
        -24    2    4    4    0    0  0.41115486225E+03  0.10813495729E+03 -0.32282828194E+03  0.54126337628E+03  0.89478785970E+02 0.  0.
         24    2    4    4    0    0 -0.40779835450E+03  0.28955295136E+03 -0.69813648571E+03  0.86294304661E+03  0.84473306116E+02 0.  0.
         13    1    3    3    0    0 -0.11036835053E+02 -0.39989243369E+03  0.41655505440E+03  0.57754123973E+03  0.00000000000E+00 0.  1.
        -13    1    3    3    0    0  0.76803273018E+01  0.22045250390E+01  0.96533788625E+01  0.12531363915E+02  0.00000000000E+00 0. -1.
          2    1    6    6  502    0 -0.11081043027E+03  0.12233198840E+03 -0.19905690793E+03  0.25858793366E+03  0.00000000000E+00 0. -1.
          3    1    5    5  503    0  0.11089929757E+03  0.70691163989E+02 -0.87837614260E+02  0.15814974343E+03  0.00000000000E+00 0. -1.
         -4    1    5    5    0  503  0.30025556468E+03  0.37443793302E+02 -0.23499066768E+03  0.38311363284E+03  0.00000000000E+00 0.  1.
         -1    1    6    6    0  502 -0.29698792422E+03  0.16722096296E+03 -0.49907957779E+03  0.60435511295E+03  0.00000000000E+00 0.  1.
<mgrwt>
<rscale>  0 0.19035267E+04</rscale>
<asrwt>0</asrwt>
<pdfrwt beam="1">  1        3 0.19915656E+00 0.19035267E+04</pdfrwt>
<pdfrwt beam="2">  1       -3 0.10765559E+00 0.19035267E+04</pdfrwt>
<totfact> 0.26793761E-01</totfact>
</mgrwt>
</event>
<event>
12    1  0.1518126E-007  0.2976482E+04  0.7818608E-02  0.8250479E-01
         -1   -1    0    0    0  501 -0.00000000000E+00  0.00000000000E+00  0.87232557315E+03  0.87232557315E+03  0.00000000000E+00 0.  1.
          1   -1    0    0  501    0  0.00000000000E+00 -0.00000000000E+00 -0.25390312266E+04  0.25390312266E+04  0.00000000000E+00 0. -1.
         23    2    1    2    0    0  0.92288097857E+03  0.97154420544E+03 -0.92675246705E+03  0.16317355559E+04  0.89907427196E+02 0.  0.
        254    2    1    2    0    0 -0.92288097857E+03 -0.97154420544E+03 -0.73995318640E+03  0.17796212439E+04  0.90769687108E+03 0.  0.
        -24    2    4    4    0    0 -0.57136549967E+03 -0.10838985830E+04 -0.46644590887E+03  0.13133774404E+04  0.78063067061E+02 0.  0.
         24    2    4    4    0    0 -0.35151547890E+03  0.11235437758E+03 -0.27350727753E+03  0.46624380350E+03  0.79940073598E+02 0.  0.
         11    1    3    3    0    0  0.55164258082E+03  0.56461422170E+03 -0.59753557406E+03  0.99002399899E+03  0.00000000000E+00 0.  1.
        -11    1    3    3    0    0  0.37123839775E+03  0.40692998374E+03 -0.32921689299E+03  0.64171155690E+03  0.00000000000E+00 0. -1.
          4    1    6    6  502    0 -0.17019366444E+03  0.28335284637E+02 -0.16551245332E+03  0.23908815106E+03  0.00000000000E+00 0. -1.
          1    1    5    5  503    0 -0.30279467458E+03 -0.65459468957E+03 -0.26454887744E+03  0.76822192830E+03  0.00000000000E+00 0. -1.
         -2    1    5    5    0  503 -0.26857082508E+03 -0.42930389345E+03 -0.20189703143E+03  0.54515551205E+03  0.00000000000E+00 0.  1.
         -3    1    6    6    0  502 -0.18132181446E+03  0.84019092946E+02 -0.10799482421E+03  0.22715565244E+03  0.00000000000E+00 0.  1.
<mgrwt>
<rscale>  0 0.29764824E+04</rscale>
<asrwt>0</asrwt>
<pdfrwt beam="1">  1        1 0.39062019E+00 0.29764824E+04</pdfrwt>
<pdfrwt beam="2">  1       -1 0.13420393E+00 0.29764824E+04</pdfrwt>
<totfact> 0.50735099E-01</totfact>
</mgrwt>
</event>
<event>
12    1  0.1782957E-007  0.3029968E+04  0.7818608E-02  0.8235225E-01
         -2   -1    0    0    0  501 -0.00000000000E+00  0.00000000000E+00  0.14721146700E+04  0.14721146700E+04  0.00000000000E+00 0.  1.
          2   -1    0    0  501    0  0.00000000000E+00 -0.00000000000E+00 -0.15591016902E+04  0.15591016902E+04  0.00000000000E+00 0. -1.
         23    2    1    2    0    0  0.40337594527E+03 -0.12859579609E+04  0.25366878319E+03  0.13736470870E+04  0.78475713364E+02 0.  0.
        254    2    1    2    0    0 -0.40337594527E+03  0.12859579609E+04 -0.34065580338E+03  0.16575692733E+04  0.90282306623E+03 0.  0.
        -24    2    4    4    0    0 -0.44079770265E+02  0.14861050263E+03  0.26594853169E+03  0.31696166761E+03  0.75551105804E+02 0.  0.
         24    2    4    4    0    0 -0.35929617501E+03  0.11373474583E+04 -0.60660433507E+03  0.13406076057E+04  0.81283152207E+02 0.  0.
         11    1    3    3    0    0  0.38902742958E+01 -0.24466597104E+02 -0.52375695709E+01  0.25321547009E+02  0.00000000000E+00 0.  1.
        -11    1    3    3    0    0  0.39948567098E+03 -0.12614913638E+04  0.25890635276E+03  0.13483255400E+04  0.00000000000E+00 0. -1.
          4    1    6    6  502    0 -0.64319617402E+02  0.24223443571E+03 -0.16293538896E+03  0.29893557165E+03  0.00000000000E+00 0. -1.
          3    1    5    5  503    0 -0.15256213034E+02  0.28501283124E+02  0.11848533319E+02  0.34430552097E+02  0.00000000000E+00 0. -1.
         -4    1    5    5    0  503 -0.28823557230E+02  0.12010921951E+03  0.25409999837E+03  0.28253111552E+03  0.00000000000E+00 0.  1.
         -3    1    6    6    0  502 -0.29497655761E+03  0.89511302255E+03 -0.44366894612E+03  0.10416720340E+04  0.00000000000E+00 0.  1.
<mgrwt>
<rscale>  0 0.30299680E+04</rscale>
<asrwt>0</asrwt>
<pdfrwt beam="1">  1        2 0.23986180E+00 0.30299680E+04</pdfrwt>
<pdfrwt beam="2">  1       -2 0.22647918E+00 0.30299680E+04</pdfrwt>
<totfact> 0.90316812E-01</totfact>
</mgrwt>
</event>
<event>
12    1  0.1518126E-007  0.1401113E+04  0.7818608E-02  0.8953013E-01
          2   -1    0    0  501    0  0.00000000000E+00  0.00000000000E+00  0.23620968591E+04  0.23620968591E+04  0.00000000000E+00 0. -1.
         -2   -1    0    0    0  501 -0.00000000000E+00 -0.00000000000E+00 -0.20777276162E+03  0.20777276162E+03  0.00000000000E+00 0.  1.
         23    2    1    2    0    0 -0.13123814875E+03 -0.10386314540E+03 -0.38856628251E+02  0.19432087142E+03  0.90773117458E+02 0.  0.
        254    2    1    2    0    0  0.13123814875E+03  0.10386314540E+03  0.21931807257E+04  0.23755487493E+04  0.89731775860E+03 0.  0.
        -24    2    4    4    0    0  0.40045009022E+03 -0.22843516634E+03  0.13109273128E+04  0.13919217670E+04  0.79830358018E+02 0.  0.
         24    2    4    4    0    0 -0.26921194148E+03  0.33229831174E+03  0.88225341289E+03  0.98362698224E+03  0.79080454086E+02 0.  0.
         11    1    3    3    0    0 -0.87679165555E+00  0.13466080825E+02 -0.94801043775E+01  0.16491709293E+02  0.00000000000E+00 0. -1.
        -11    1    3    3    0    0 -0.13036135709E+03 -0.11732922622E+03 -0.29376523873E+02  0.17782916213E+03  0.00000000000E+00 0.  1.
          4    1    6    6  502    0 -0.24916550875E+03  0.33169873174E+03  0.84202676018E+03  0.93867809405E+03  0.00000000000E+00 0. -1.
          1    1    5    5  503    0  0.36569019103E+03 -0.18420239151E+03  0.11918432177E+04  0.12602182717E+04  0.00000000000E+00 0. -1.
         -2    1    5    5    0  503  0.34759899189E+02 -0.44232774833E+02  0.11908409511E+03  0.13170349528E+03  0.00000000000E+00 0.  1.
         -3    1    6    6    0  502 -0.20046432731E+02  0.59957999473E+00  0.40226652707E+02  0.44948888188E+02  0.00000000000E+00 0.  1.
<mgrwt>
<rscale>  0 0.14011130E+04</rscale>
<asrwt>0</asrwt>
<pdfrwt beam="1">  1        2 0.36339950E+00 0.14011130E+04</pdfrwt>
<pdfrwt beam="2">  1       -2 0.31965042E-01 0.14011130E+04</pdfrwt>
<totfact> 0.37118840E+01</totfact>
</mgrwt>
</event>
<event>
12    1  0.1518126E-007  0.1640297E+04  0.7818608E-02  0.8796167E-01
         -2   -1    0    0    0  501 -0.00000000000E+00  0.00000000000E+00  0.48684507994E+03  0.48684507994E+03  0.00000000000E+00 0.  1.
          2   -1    0    0  501    0  0.00000000000E+00 -0.00000000000E+00 -0.13816384470E+04  0.13816384470E+04  0.00000000000E+00 0. -1.
         23    2    1    2    0    0 -0.28007530630E+03  0.38352065792E+03  0.33280821738E+02  0.48330048980E+03  0.83315533348E+02 0.  0.
        254    2    1    2    0    0  0.28007530630E+03 -0.38352065792E+03 -0.92807418877E+03  0.13851830371E+04  0.91207459903E+03 0.  0.
        -24    2    4    4    0    0 -0.18413291293E+03 -0.55611411170E+02  0.81970379200E+02  0.22344769449E+03  0.78817323145E+02 0.  0.
         24    2    4    4    0    0  0.46420821923E+03 -0.32790924675E+03 -0.10100445680E+04  0.11617353426E+04  0.80157545580E+02 0.  0.
         13    1    3    3    0    0 -0.15986249127E+03  0.24687188574E+03  0.57550212117E+02  0.29968945761E+03  0.00000000000E+00 0. -1.
        -13    1    3    3    0    0 -0.12021281503E+03  0.13664877218E+03 -0.24269390379E+02  0.18361103219E+03  0.00000000000E+00 0.  1.
          4    1    6    6  502    0  0.82114182251E+02 -0.75153725595E+02 -0.14426628667E+03  0.18221850309E+03  0.00000000000E+00 0. -1.
          1    1    5    5  503    0 -0.95889832597E+02 -0.15244553087E+02  0.10539335650E+01  0.97099779455E+02  0.00000000000E+00 0. -1.
         -2    1    5    5    0  503 -0.88243080338E+02 -0.40366858083E+02  0.80916445635E+02  0.12634791503E+03  0.00000000000E+00 0.  1.
         -3    1    6    6    0  502  0.38209403698E+03 -0.25275552115E+03 -0.86577828129E+03  0.97951683953E+03  0.00000000000E+00 0.  1.
<mgrwt>
<rscale>  0 0.16402974E+04</rscale>
<asrwt>0</asrwt>
<pdfrwt beam="1">  1        2 0.21255976E+00 0.16402974E+04</pdfrwt>
<pdfrwt beam="2">  1       -2 0.74899244E-01 0.16402974E+04</pdfrwt>
<totfact> 0.22699881E+01</totfact>
</mgrwt>
</event>
<event>
12    1  0.1518126E-007  0.1526223E+04  0.7818608E-02  0.8867200E-01
         -1   -1    0    0    0  501 -0.00000000000E+00  0.00000000000E+00  0.44732928683E+03  0.44732928683E+03  0.00000000000E+00 0.  1.
          1   -1    0    0  501    0  0.00000000000E+00 -0.00000000000E+00 -0.13018125400E+04  0.13018125400E+04  0.00000000000E+00 0. -1.
         23    2    1    2    0    0 -0.12878367064E+03 -0.37577491935E+03  0.43610338153E+02  0.41713648840E+03  0.11962008412E+03 0.  0.
        254    2    1    2    0    0  0.12878367064E+03  0.37577491935E+03 -0.89809359129E+03  0.13320053384E+04  0.89993005227E+03 0.  0.
        -24    2    4    4    0    0  0.92145382024E+02 -0.22022982514E+02  0.15695215110E+03  0.20111222181E+03  0.82682312730E+02 0.  0.
         24    2    4    4    0    0  0.36638288614E+02  0.39779790187E+03 -0.10550457424E+04  0.11308931166E+04  0.78817432852E+02 0.  0.
         11    1    3    3    0    0 -0.14512002276E+03 -0.32789624717E+03  0.60828806333E+02  0.36369755787E+03  0.00000000000E+00 0.  1.
        -11    1    3    3    0    0  0.16336352125E+02 -0.47878672178E+02 -0.17218468179E+02  0.53438930535E+02  0.00000000000E+00 0. -1.
          2    1    6    6  502    0  0.27584787119E+02  0.89596381398E+02 -0.32882916931E+03  0.34193135953E+03  0.00000000000E+00 0. -1.
          1    1    5    5  503    0  0.30707211675E+01 -0.31133230649E+02  0.18853162981E+02  0.36526006263E+02  0.00000000000E+00 0. -1.
         -2    1    5    5    0  503  0.89074660856E+02  0.91102481354E+01  0.13809898812E+03  0.16458621554E+03  0.00000000000E+00 0.  1.
         -1    1    6    6    0  502  0.90535014948E+01  0.30820152047E+03 -0.72621657307E+03  0.78896175707E+03  0.00000000000E+00 0.  1.
<mgrwt>
<rscale>  0 0.15262226E+04</rscale>
<asrwt>0</asrwt>
<pdfrwt beam="1">  1        1 0.20027885E+00 0.15262226E+04</pdfrwt>
<pdfrwt beam="2">  1       -1 0.68819892E-01 0.15262226E+04</pdfrwt>
<totfact> 0.18599819E+01</totfact>
</mgrwt>
</event>
<event>
12    1  0.1518126E-007  0.2263438E+04  0.7818608E-02  0.8492478E-01
          2   -1    0    0  501    0  0.00000000000E+00  0.00000000000E+00  0.34396700537E+04  0.34396700537E+04  0.00000000000E+00 0. -1.
         -2   -1    0    0    0  501 -0.00000000000E+00 -0.00000000000E+00 -0.37235771808E+03  0.37235771808E+03  0.00000000000E+00 0.  1.
         23    2    1    2    0    0  0.29894144052E+02 -0.14829632739E+02  0.28907606367E+04  0.28923687918E+04  0.90479783003E+02 0.  0.
        254    2    1    2    0    0 -0.29894144052E+02  0.14829632739E+02  0.17655169896E+03  0.91965898004E+03  0.90193600621E+03 0.  0.
        -24    2    4    4    0    0 -0.14548416842E+03  0.10792274095E+01 -0.34237745612E+03  0.38196651185E+03  0.86656134942E+02 0.  0.
         24    2    4    4    0    0  0.11559002437E+03  0.13750405329E+02  0.51892915507E+03  0.53769246819E+03  0.79218652986E+02 0.  0.
         13    1    3    3    0    0  0.90161632905E+01 -0.37111905086E+02  0.25384774084E+04  0.25387646873E+04  0.00000000000E+00 0. -1.
        -13    1    3    3    0    0  0.20877980761E+02  0.22282272347E+02  0.35228322832E+03  0.35360410447E+03  0.00000000000E+00 0.  1.
          2    1    6    6  502    0  0.54897537040E+02  0.75654016950E+01  0.40203386568E+03  0.40583519319E+03  0.00000000000E+00 0. -1.
          3    1    5    5  503    0 -0.10031666693E+03  0.36828730798E+01 -0.31128285941E+03  0.32706882423E+03  0.00000000000E+00 0. -1.
         -4    1    5    5    0  503 -0.45167501493E+02 -0.26036456703E+01 -0.31094596706E+02  0.54897687621E+02  0.00000000000E+00 0.  1.
         -3    1    6    6    0  502  0.60692487330E+02  0.61850036342E+01  0.11689528939E+03  0.13185727500E+03  0.00000000000E+00 0.  1.
<mgrwt>
<rscale>  0 0.22634378E+04</rscale>
<asrwt>0</asrwt>
<pdfrwt beam="1">  1        2 0.52917999E+00 0.22634378E+04</pdfrwt>
<pdfrwt beam="2">  1       -2 0.57285805E-01 0.22634378E+04</pdfrwt>
<totfact> 0.23310910E+00</totfact>
</mgrwt>
</event>
<event>
12    1  0.1518126E-007  0.1217826E+04  0.7818608E-02  0.9097395E-01
         -2   -1    0    0    0  501 -0.00000000000E+00  0.00000000000E+00  0.26086264558E+03  0.26086264558E+03  0.00000000000E+00 0.  1.
          2   -1    0    0  501    0  0.00000000000E+00 -0.00000000000E+00 -0.14213424381E+04  0.14213424381E+04  0.00000000000E+00 0. -1.
         23    2    1    2    0    0 -0.25480621658E+02  0.56014012276E+01 -0.62525651466E+03  0.63249492950E+03  0.91779567142E+02 0.  0.
        254    2    1    2    0    0  0.25480621658E+02 -0.56014012276E+01 -0.53522327784E+03  0.10497101542E+04  0.90263326597E+03 0.  0.
        -24    2    4    4    0    0  0.67427207735E+02  0.30630779188E+03  0.97983125232E+02  0.33815495323E+03  0.79857296803E+02 0.  0.
         24    2    4    4    0    0 -0.41946586077E+02 -0.31190919311E+03 -0.63320640308E+03  0.71155520094E+03  0.79458128932E+02 0.  0.
         11    1    3    3    0    0 -0.12559031805E+02 -0.42457055919E+02 -0.24150097036E+03  0.24552606698E+03  0.00000000000E+00 0.  1.
        -11    1    3    3    0    0 -0.12921589853E+02  0.48058457147E+02 -0.38375554430E+03  0.38696886253E+03  0.00000000000E+00 0. -1.
          2    1    6    6  502    0  0.14944597845E+02 -0.10636959988E+03 -0.16254883751E+03  0.19483315261E+03  0.00000000000E+00 0. -1.
          3    1    5    5  503    0 -0.10768569780E+02  0.88892170553E+02  0.69265352102E+01  0.89809559462E+02  0.00000000000E+00 0. -1.
         -4    1    5    5    0  503  0.78195777515E+02  0.21741562133E+03  0.91056590022E+02  0.24834539377E+03  0.00000000000E+00 0.  1.
         -1    1    6    6    0  502 -0.56891183922E+02 -0.20553959323E+03 -0.47065756557E+03  0.51672204832E+03  0.00000000000E+00 0.  1.
<mgrwt>
<rscale>  0 0.12178262E+04</rscale>
<asrwt>0</asrwt>
<pdfrwt beam="1">  1        2 0.21866807E+00 0.12178262E+04</pdfrwt>
<pdfrwt beam="2">  1       -2 0.40132715E-01 0.12178262E+04</pdfrwt>
<totfact> 0.81435315E+01</totfact>
</mgrwt>
</event>
<event>
12    1  0.1518126E-007  0.1777388E+04  0.7818608E-02  0.8718418E-01
         -2   -1    0    0    0  501 -0.00000000000E+00  0.00000000000E+00  0.34092704129E+03  0.34092704129E+03  0.00000000000E+00 0.  1.
          2   -1    0    0  501    0  0.00000000000E+00 -0.00000000000E+00 -0.23165565149E+04  0.23165565149E+04  0.00000000000E+00 0. -1.
         23    2    1    2    0    0 -0.14745341999E+02  0.67190668448E+03 -0.57348855811E+03  0.88806409344E+03  0.89959379841E+02 0.  0.
        254    2    1    2    0    0  0.14745341999E+02 -0.67190668448E+03 -0.14021409155E+04  0.17694194628E+04  0.84449397303E+03 0.  0.
        -24    2    4    4    0    0  0.19987074025E+03 -0.18471143381E+03 -0.11507010097E+04  0.11853569685E+04  0.83016277347E+02 0.  0.
         24    2    4    4    0    0 -0.18512539825E+03 -0.48719525067E+03 -0.25143990580E+03  0.58406249431E+03  0.79223390975E+02 0.  0.
         11    1    3    3    0    0 -0.11195129617E+02  0.47781183334E+02 -0.73392314511E+02  0.88288188549E+02  0.00000000000E+00 0.  1.
        -11    1    3    3    0    0 -0.35502123822E+01  0.62412550114E+03 -0.50009624359E+03  0.79977590489E+03  0.00000000000E+00 0. -1.
          2    1    6    6  502    0 -0.54976481107E+02 -0.21186996207E+03 -0.71151525731E+02  0.23016045255E+03  0.00000000000E+00 0. -1.
          1    1    5    5  503    0  0.17997923004E+03 -0.18869810571E+03 -0.11050562766E+04  0.11354069194E+04  0.00000000000E+00 0. -1.
         -2    1    5    5    0  503  0.19891510216E+02  0.39866719007E+01 -0.45644733159E+02  0.49950049016E+02  0.00000000000E+00 0.  1.
         -1    1    6    6    0  502 -0.13014891715E+03 -0.27532528860E+03 -0.18028838006E+03  0.35390204176E+03  0.00000000000E+00 0.  1.
<mgrwt>
<rscale>  0 0.17773877E+04</rscale>
<asrwt>0</asrwt>
<pdfrwt beam="1">  1        2 0.35639332E+00 0.17773877E+04</pdfrwt>
<pdfrwt beam="2">  1       -2 0.52450312E-01 0.17773877E+04</pdfrwt>
<totfact> 0.14402160E+01</totfact>
</mgrwt>
</event>
<event>
12    1  0.1518126E-007  0.1791912E+04  0.7818608E-02  0.8710612E-01
         -1   -1    0    0    0  501 -0.00000000000E+00  0.00000000000E+00  0.10540257621E+04  0.10540257621E+04  0.00000000000E+00 0.  1.
          1   -1    0    0  501    0  0.00000000000E+00 -0.00000000000E+00 -0.76159149505E+03  0.76159149505E+03  0.00000000000E+00 0. -1.
         23    2    1    2    0    0 -0.90273511040E+02  0.32926049706E+03  0.69603368010E+03  0.78028397240E+03  0.88421784830E+02 0.  0.
        254    2    1    2    0    0  0.90273511040E+02 -0.32926049706E+03 -0.40359941310E+03  0.10353332847E+04  0.89020264123E+03 0.  0.
        -24    2    4    4    0    0  0.64231239579E+02 -0.45481908838E+03  0.12783789731E+03  0.48254701649E+03  0.74317157081E+02 0.  0.
         24    2    4    4    0    0  0.26042271461E+02  0.12555859132E+03 -0.53143731041E+03  0.55278626822E+03  0.81877247664E+02 0.  0.
         13    1    3    3    0    0 -0.98478465290E+02  0.20085727679E+03  0.45748191111E+03  0.50924586671E+03  0.00000000000E+00 0.  1.
        -13    1    3    3    0    0  0.82049542503E+01  0.12840322027E+03  0.23855176899E+03  0.27103810570E+03  0.00000000000E+00 0. -1.
          4    1    6    6  502    0 -0.22758688142E+02  0.42039309811E+02 -0.10282694404E+03  0.11339595176E+03  0.00000000000E+00 0. -1.
          3    1    5    5  503    0  0.59819834953E+01 -0.26391077627E+03  0.93315346363E+02  0.27998649222E+03  0.00000000000E+00 0. -1.
         -4    1    5    5    0  503  0.58249256084E+02 -0.19090831211E+03  0.34522550948E+02  0.20256052426E+03  0.00000000000E+00 0.  1.
         -3    1    6    6    0  502  0.48800959603E+02  0.83519281512E+02 -0.42861036637E+03  0.43939031646E+03  0.00000000000E+00 0.  1.
<mgrwt>
<rscale>  0 0.17919119E+04</rscale>
<asrwt>0</asrwt>
<pdfrwt beam="1">  1        1 0.11716792E+00 0.17919119E+04</pdfrwt>
<pdfrwt beam="2">  1       -1 0.16215781E+00 0.17919119E+04</pdfrwt>
<totfact> 0.63549235E+00</totfact>
</mgrwt>
</event>
<event>
12    1  0.1518126E-007  0.2113007E+04  0.7818608E-02  0.8555535E-01
         -2   -1    0    0    0  501 -0.00000000000E+00  0.00000000000E+00  0.57054595953E+03  0.57054595953E+03  0.00000000000E+00 0.  1.
          2   -1    0    0  501    0  0.00000000000E+00 -0.00000000000E+00 -0.19563702502E+04  0.19563702502E+04  0.00000000000E+00 0. -1.
         23    2    1    2    0    0  0.32762452763E+03 -0.13603338962E+03 -0.15184616553E+04  0.15619449814E+04  0.90018953319E+02 0.  0.
        254    2    1    2    0    0 -0.32762452763E+03  0.13603338962E+03  0.13263736467E+03  0.96497122834E+03  0.88754373797E+03 0.  0.
        -24    2    4    4    0    0 -0.28730047952E+03 -0.34154984870E+03 -0.21437399644E+02  0.45469127841E+03  0.84182729147E+02 0.  0.
         24    2    4    4    0    0 -0.40324048111E+02  0.47758323832E+03  0.15407476432E+03  0.51027994992E+03  0.83275542101E+02 0.  0.
         13    1    3    3    0    0  0.31037908123E+03 -0.13291394969E+03 -0.14950405035E+04  0.15326928587E+04  0.00000000000E+00 0. -1.
        -13    1    3    3    0    0  0.17245446397E+02 -0.31194399382E+01 -0.23421151856E+02  0.29252122679E+02  0.00000000000E+00 0.  1.
          4    1    6    6  502    0  0.29969350033E+01  0.36792262985E+03  0.12763787699E+03  0.38944508062E+03  0.00000000000E+00 0. -1.
          1    1    5    5  503    0 -0.28932291222E+03 -0.34420328061E+03 -0.18160645897E+02  0.45001494972E+03  0.00000000000E+00 0. -1.
         -2    1    5    5    0  503  0.20224326986E+01  0.26534319100E+01 -0.32767537470E+01  0.46763286925E+01  0.00000000000E+00 0.  1.
         -3    1    6    6    0  502 -0.43320983114E+02  0.10966060847E+03  0.26436887326E+02  0.12083486930E+03  0.00000000000E+00 0.  1.
<mgrwt>
<rscale>  0 0.21130065E+04</rscale>
<asrwt>0</asrwt>
<pdfrwt beam="1">  1        2 0.30098005E+00 0.21130065E+04</pdfrwt>
<pdfrwt beam="2">  1       -2 0.87776299E-01 0.21130065E+04</pdfrwt>
<totfact> 0.72805668E+00</totfact>
</mgrwt>
</event>
<event>
12    1  0.1518126E-007  0.1658109E+04  0.7818608E-02  0.8785624E-01
          2   -1    0    0  501    0  0.00000000000E+00  0.00000000000E+00  0.25031818370E+04  0.25031818370E+04  0.00000000000E+00 0. -1.
         -2   -1    0    0    0  501 -0.00000000000E+00 -0.00000000000E+00 -0.27458303385E+03  0.27458303385E+03  0.00000000000E+00 0.  1.
         23    2    1    2    0    0  0.48036010192E+03  0.31856832888E+03  0.71037929650E+03  0.91931837808E+03  0.90972125894E+02 0.  0.
        254    2    1    2    0    0 -0.48036010192E+03 -0.31856832888E+03  0.15182195066E+04  0.18584464927E+04  0.90365994069E+03 0.  0.
        -24    2    4    4    0    0 -0.65041735717E+03 -0.38581564003E+03  0.14678332872E+04  0.16529598005E+04  0.76453231471E+02 0.  0.
         24    2    4    4    0    0  0.17005725525E+03  0.67247311153E+02  0.50386219427E+02  0.20548669220E+03  0.79021127840E+02 0.  0.
         13    1    3    3    0    0  0.38806661715E+03  0.29574814196E+03  0.60871743768E+03  0.78012792652E+03  0.00000000000E+00 0.  1.
        -13    1    3    3    0    0  0.92293484776E+02  0.22820186918E+02  0.10166185883E+03  0.13919045155E+03  0.00000000000E+00 0. -1.
          4    1    6    6  502    0  0.17628764053E+03  0.72483527407E+02  0.51037564620E+02  0.19732214004E+03  0.00000000000E+00 0. -1.
          3    1    5    5  503    0 -0.33188014287E+03 -0.16855432763E+03  0.65700173382E+03  0.75512003604E+03  0.00000000000E+00 0. -1.
         -4    1    5    5    0  503 -0.31853721430E+03 -0.21726131240E+03  0.81083155336E+03  0.89783976448E+03  0.00000000000E+00 0.  1.
         -3    1    6    6    0  502 -0.62303852819E+01 -0.52362162541E+01 -0.65134519363E+00  0.81645521605E+01  0.00000000000E+00 0.  1.
<mgrwt>
<rscale>  0 0.16581089E+04</rscale>
<asrwt>0</asrwt>
<pdfrwt beam="1">  1        2 0.38510488E+00 0.16581089E+04</pdfrwt>
<pdfrwt beam="2">  1       -2 0.42243545E-01 0.16581089E+04</pdfrwt>
<totfact> 0.17608969E+01</totfact>
</mgrwt>
</event>
<event>
12    1  0.1518126E-007  0.2411907E+04  0.7818608E-02  0.8435059E-01
          1   -1    0    0  501    0  0.00000000000E+00  0.00000000000E+00  0.11006699813E+04  0.11006699813E+04  0.00000000000E+00 0. -1.
         -1   -1    0    0    0  501 -0.00000000000E+00 -0.00000000000E+00 -0.13213080284E+04  0.13213080284E+04  0.00000000000E+00 0.  1.
         23    2    1    2    0    0 -0.69374068232E+02 -0.19811776806E+01  0.94362618786E+03  0.95062461821E+03  0.91869994635E+02 0.  0.
        254    2    1    2    0    0  0.69374068232E+02  0.19811776806E+01 -0.11642642350E+04  0.14713533915E+04  0.89696873269E+03 0.  0.
        -24    2    4    4    0    0  0.15298311156E+03  0.93785813730E+02  0.84664059009E+02  0.21377517394E+03  0.79575189766E+02 0.  0.
         24    2    4    4    0    0 -0.83609043328E+02 -0.91804636050E+02 -0.12489282940E+04  0.12575782176E+04  0.79136125918E+02 0.  0.
         13    1    3    3    0    0 -0.46880278084E+02  0.68500710058E+01  0.16615051650E+03  0.17277348778E+03  0.00000000000E+00 0.  1.
        -13    1    3    3    0    0 -0.22493790148E+02 -0.88312486865E+01  0.77747567137E+03  0.77785113043E+03  0.00000000000E+00 0. -1.
          2    1    6    6  502    0  0.22445468239E+01  0.21379942037E+01 -0.31539753570E+03  0.31541276850E+03  0.00000000000E+00 0. -1.
          1    1    5    5  503    0  0.63489592854E+02  0.25132538865E+02  0.73668409629E+02  0.10044703822E+03  0.00000000000E+00 0. -1.
         -4    1    5    5    0  503  0.89493518707E+02  0.68653274865E+02  0.10995649380E+02  0.11332813572E+03  0.00000000000E+00 0.  1.
         -1    1    6    6    0  502 -0.85853590152E+02 -0.93942630253E+02 -0.93353075828E+03  0.94216544905E+03  0.00000000000E+00 0.  1.
<mgrwt>
<rscale>  0 0.24119072E+04</rscale>
<asrwt>0</asrwt>
<pdfrwt beam="1">  1        1 0.16933384E+00 0.24119072E+04</pdfrwt>
<pdfrwt beam="2">  1       -1 0.20327816E+00 0.24119072E+04</pdfrwt>
<totfact> 0.16198339E+00</totfact>
</mgrwt>
</event>
<event>
12    1  0.1518126E-007  0.1361350E+04  0.7818608E-02  0.8982280E-01
          2   -1    0    0  501    0  0.00000000000E+00  0.00000000000E+00  0.14570210695E+04  0.14570210695E+04  0.00000000000E+00 0. -1.
         -2   -1    0    0    0  501 -0.00000000000E+00 -0.00000000000E+00 -0.31799043306E+03  0.31799043306E+03  0.00000000000E+00 0.  1.
         23    2    1    2    0    0 -0.28123751245E+03  0.50148753934E+02  0.10987344463E+02  0.30172469303E+03  0.96476073302E+02 0.  0.
        254    2    1    2    0    0  0.28123751245E+03 -0.50148753934E+02  0.11280432920E+04  0.14732868095E+04  0.90359444366E+03 0.  0.
        -24    2    4    4    0    0  0.37014736246E+03  0.33965568031E+03  0.80766978535E+03  0.95448197313E+03  0.79563206027E+02 0.  0.
         24    2    4    4    0    0 -0.88909850009E+02 -0.38980443424E+03  0.32037350663E+03  0.51880483640E+03  0.81650573427E+02 0.  0.
         11    1    3    3    0    0 -0.66142190206E+02  0.34778868493E+02  0.38959061613E+02  0.84274358500E+02  0.00000000000E+00 0. -1.
        -11    1    3    3    0    0 -0.21509532224E+03  0.15369885442E+02 -0.27971717151E+02  0.21745033453E+03  0.00000000000E+00 0.  1.
          2    1    6    6  502    0  0.47280477338E+00 -0.86900121129E+02  0.10616133531E+03  0.13719359938E+03  0.00000000000E+00 0. -1.
          3    1    5    5  503    0  0.42518532425E+02  0.11068807605E+02  0.84662876675E+02  0.95384206178E+02  0.00000000000E+00 0. -1.
         -4    1    5    5    0  503  0.32762883003E+03  0.32858687270E+03  0.72300690868E+03  0.85909776695E+03  0.00000000000E+00 0.  1.
         -1    1    6    6    0  502 -0.89382654782E+02 -0.30290431311E+03  0.21421217131E+03  0.38161123702E+03  0.00000000000E+00 0.  1.
<mgrwt>
<rscale>  0 0.13613504E+04</rscale>
<asrwt>0</asrwt>
<pdfrwt beam="1">  1        2 0.22415708E+00 0.13613504E+04</pdfrwt>
<pdfrwt beam="2">  1       -2 0.48921606E-01 0.13613504E+04</pdfrwt>
<totfact> 0.51828605E+01</totfact>
</mgrwt>
</event>
<event>
12    1  0.1518126E-007  0.2382265E+04  0.7818608E-02  0.8446173E-01
         -1   -1    0    0    0  501 -0.00000000000E+00  0.00000000000E+00  0.99961151657E+03  0.99961151657E+03  0.00000000000E+00 0.  1.
          1   -1    0    0  501    0  0.00000000000E+00 -0.00000000000E+00 -0.14193482465E+04  0.14193482465E+04  0.00000000000E+00 0. -1.
         23    2    1    2    0    0  0.18915390506E+03 -0.27374734458E+03  0.80158698460E+03  0.87270605961E+03  0.91418620251E+02 0.  0.
        254    2    1    2    0    0 -0.18915390506E+03  0.27374734458E+03 -0.12213237145E+04  0.15462537035E+04  0.88800455592E+03 0.  0.
        -24    2    4    4    0    0  0.23954648510E+03  0.41480422291E+03 -0.70133633817E+03  0.85295693399E+03  0.78853092164E+02 0.  0.
         24    2    4    4    0    0 -0.42870039017E+03 -0.14105687833E+03 -0.51998737637E+03  0.69329676948E+03  0.81194036275E+02 0.  0.
         11    1    3    3    0    0  0.10930402281E+03 -0.13340204651E+03  0.30323803163E+03  0.34885065464E+03  0.00000000000E+00 0. -1.
        -11    1    3    3    0    0  0.79849882249E+02 -0.14034529807E+03  0.49834895297E+03  0.52385540496E+03  0.00000000000E+00 0.  1.
          2    1    6    6  502    0 -0.13000189423E+03 -0.72396438807E+01 -0.12734059751E+03  0.18212230155E+03  0.00000000000E+00 0. -1.
          3    1    5    5  503    0  0.34088375555E+01  0.51445553065E+02 -0.87665925433E+02  0.10170339024E+03  0.00000000000E+00 0. -1.
         -4    1    5    5    0  503  0.23613764755E+03  0.36335866985E+03 -0.61367041273E+03  0.75125354376E+03  0.00000000000E+00 0.  1.
         -1    1    6    6    0  502 -0.29869849593E+03 -0.13381723445E+03 -0.39264677886E+03  0.51117446793E+03  0.00000000000E+00 0.  1.
<mgrwt>
<rscale>  0 0.23822652E+04</rscale>
<asrwt>0</asrwt>
<pdfrwt beam="1">  1        1 0.21836127E+00 0.23822652E+04</pdfrwt>
<pdfrwt beam="2">  1       -1 0.15378639E+00 0.23822652E+04</pdfrwt>
<totfact> 0.21791981E+00</totfact>
</mgrwt>
</event>
<event>
12    1  0.1518126E-007  0.2189945E+04  0.7818608E-02  0.8522625E-01
         -2   -1    0    0    0  501 -0.00000000000E+00  0.00000000000E+00  0.46271350247E+03  0.46271350247E+03  0.00000000000E+00 0.  1.
          2   -1    0    0  501    0  0.00000000000E+00 -0.00000000000E+00 -0.25911602641E+04  0.25911602641E+04  0.00000000000E+00 0. -1.
         23    2    1    2    0    0  0.54465531992E+03  0.72517857514E+03 -0.93863258940E+03  0.13076355772E+04  0.79663551956E+02 0.  0.
        254    2    1    2    0    0 -0.54465531992E+03 -0.72517857514E+03 -0.11898141722E+04  0.17462381893E+04  0.90064236308E+03 0.  0.
        -24    2    4    4    0    0  0.68204955346E+02 -0.54311325647E+03 -0.25026851973E+03  0.60701893291E+03  0.78827201271E+02 0.  0.
         24    2    4    4    0    0 -0.61286027527E+03 -0.18206531867E+03 -0.93954565248E+03  0.11392192564E+04  0.79554911092E+02 0.  0.
         13    1    3    3    0    0  0.36130771378E+03  0.44767034907E+03 -0.54705054075E+03  0.79386163757E+03  0.00000000000E+00 0. -1.
        -13    1    3    3    0    0  0.18334760614E+03  0.27750822607E+03 -0.39158204865E+03  0.51377393963E+03  0.00000000000E+00 0.  1.
          4    1    6    6  502    0 -0.51890840149E+03 -0.15947565917E+03 -0.84265249244E+03  0.10023779916E+04  0.00000000000E+00 0. -1.
          3    1    5    5  503    0  0.46841242305E+02 -0.51014743538E+03 -0.24326073604E+03  0.56711576728E+03  0.00000000000E+00 0. -1.
         -4    1    5    5    0  503  0.21363713041E+02 -0.32965821090E+02 -0.70077836990E+01  0.39903165632E+02  0.00000000000E+00 0.  1.
         -3    1    6    6    0  502 -0.93951873779E+02 -0.22589659505E+02 -0.96893160034E+02  0.13684126485E+03  0.00000000000E+00 0.  1.
<mgrwt>
<rscale>  0 0.21899451E+04</rscale>
<asrwt>0</asrwt>
<pdfrwt beam="1">  1        2 0.39864004E+00 0.21899451E+04</pdfrwt>
<pdfrwt beam="2">  1       -2 0.71186693E-01 0.21899451E+04</pdfrwt>
<totfact> 0.50492848E+00</totfact>
</mgrwt>
</event>
<event>
12    1  0.1518126E-007  0.3684851E+04  0.7818608E-02  0.8071327E-01
          2   -1    0    0  501    0  0.00000000000E+00  0.00000000000E+00  0.23359541346E+04  0.23359541346E+04  0.00000000000E+00 0. -1.
         -2   -1    0    0    0  501 -0.00000000000E+00 -0.00000000000E+00 -0.14531669102E+04  0.14531669102E+04  0.00000000000E+00 0.  1.
         23    2    1    2    0    0 -0.12556084774E+04  0.87081978529E+03 -0.42366186258E+03  0.15883960551E+04  0.92913439245E+02 0.  0.
        254    2    1    2    0    0  0.12556084774E+04 -0.87081978529E+03  0.13064490870E+04  0.22007249896E+04  0.89526617038E+03 0.  0.
        -24    2    4    4    0    0  0.64827620012E+03  0.59438393724E+02  0.52788853696E+03  0.84164225520E+03  0.76814217400E+02 0.  0.
         24    2    4    4    0    0  0.60733227730E+03 -0.93025817902E+03  0.77856055003E+03  0.13590827344E+04  0.81954707872E+02 0.  0.
         13    1    3    3    0    0 -0.52280715981E+03  0.41856929699E+03 -0.18835942509E+03  0.69570601244E+03  0.00000000000E+00 0.  1.
        -13    1    3    3    0    0 -0.73280131761E+03  0.45225048831E+03 -0.23530243749E+03  0.89269004271E+03  0.00000000000E+00 0. -1.
          4    1    6    6  502    0  0.32326557451E+03 -0.42146369140E+03  0.38013471076E+03  0.65317277435E+03  0.00000000000E+00 0. -1.
          3    1    5    5  503    0  0.14298497648E+03  0.28679545810E+02  0.15562234341E+03  0.21327337765E+03  0.00000000000E+00 0. -1.
         -2    1    5    5    0  503  0.50529122363E+03  0.30758847914E+02  0.37226619356E+03  0.62836887755E+03  0.00000000000E+00 0.  1.
         -3    1    6    6    0  502  0.28406670279E+03 -0.50879448762E+03  0.39842583927E+03  0.70590996002E+03  0.00000000000E+00 0.  1.
<mgrwt>
<rscale>  0 0.36848507E+04</rscale>
<asrwt>0</asrwt>
<pdfrwt beam="1">  1        2 0.35937756E+00 0.36848507E+04</pdfrwt>
<pdfrwt beam="2">  1       -2 0.22356414E+00 0.36848507E+04</pdfrwt>
<totfact> 0.32850824E-01</totfact>
</mgrwt>
</event>
<event>
12    1  0.1518126E-007  0.1448188E+04  0.7818608E-02  0.8919658E-01
          1   -1    0    0  501    0  0.00000000000E+00  0.00000000000E+00  0.12842489086E+04  0.12842489086E+04  0.00000000000E+00 0. -1.
         -1   -1    0    0    0  501 -0.00000000000E+00 -0.00000000000E+00 -0.40826336291E+03  0.40826336291E+03  0.00000000000E+00 0.  1.
         23    2    1    2    0    0  0.39975389225E+03 -0.55418824298E+02  0.45828922588E+03  0.61758491943E+03  0.92237181734E+02 0.  0.
        254    2    1    2    0    0 -0.39975389225E+03  0.55418824298E+02  0.41769631980E+03  0.10749273521E+04  0.90450217038E+03 0.  0.
        -24    2    4    4    0    0 -0.25943632088E+03  0.61165668999E+02  0.69800960718E+03  0.75146380809E+03  0.80199747505E+02 0.  0.
         24    2    4    4    0    0 -0.14031757137E+03 -0.57468447011E+01 -0.28031328739E+03  0.32346354398E+03  0.79568072382E+02 0.  0.
         13    1    3    3    0    0  0.20324565111E+03 -0.67044522976E+02  0.27634137047E+03  0.34952584424E+03  0.00000000000E+00 0. -1.
        -13    1    3    3    0    0  0.19650824113E+03  0.11625698678E+02  0.18194785541E+03  0.26805907519E+03  0.00000000000E+00 0.  1.
          2    1    6    6  502    0 -0.66368142191E+02  0.32731038989E+02 -0.96297537579E+02  0.12144656008E+03  0.00000000000E+00 0. -1.
          1    1    5    5  503    0 -0.11132889280E+03  0.15803735583E+02  0.19447799848E+03  0.22464543691E+03  0.00000000000E+00 0. -1.
         -2    1    5    5    0  503 -0.14810742808E+03  0.45361933416E+02  0.50353160871E+03  0.52681837119E+03  0.00000000000E+00 0.  1.
         -1    1    6    6    0  502 -0.73949429175E+02 -0.38477883690E+02 -0.18401574981E+03  0.20201698390E+03  0.00000000000E+00 0.  1.
<mgrwt>
<rscale>  0 0.14481875E+04</rscale>
<asrwt>0</asrwt>
<pdfrwt beam="1">  1        1 0.19757675E+00 0.14481875E+04</pdfrwt>
<pdfrwt beam="2">  1       -1 0.62809749E-01 0.14481875E+04</pdfrwt>
<totfact> 0.23184851E+01</totfact>
</mgrwt>
</event>
<event>
12    1  0.1518126E-007  0.1929967E+04  0.7818608E-02  0.8640082E-01
         -2   -1    0    0    0  501 -0.00000000000E+00  0.00000000000E+00  0.12753234353E+04  0.12753234353E+04  0.00000000000E+00 0.  1.
          2   -1    0    0  501    0  0.00000000000E+00 -0.00000000000E+00 -0.73016260332E+03  0.73016260332E+03  0.00000000000E+00 0. -1.
         23    2    1    2    0    0  0.51779869461E+03  0.29673913638E+03 -0.26615547317E+03  0.65912142408E+03  0.86213181002E+02 0.  0.
        254    2    1    2    0    0 -0.51779869461E+03 -0.29673913638E+03  0.81131630518E+03  0.13463646146E+04  0.89347295714E+03 0.  0.
        -24    2    4    4    0    0 -0.68920635332E+03  0.72781229463E+01  0.39882622876E+03  0.80041251259E+03  0.80866934057E+02 0.  0.
         24    2    4    4    0    0  0.17140765871E+03 -0.30401725933E+03  0.41249007641E+03  0.54595210199E+03  0.78157245924E+02 0.  0.
         13    1    3    3    0    0  0.51154956675E+03  0.30190350643E+03 -0.26643032863E+03  0.65100983591E+03  0.00000000000E+00 0. -1.
        -13    1    3    3    0    0  0.62491278593E+01 -0.51643700509E+01  0.27485546325E+00  0.81115881645E+01  0.00000000000E+00 0.  1.
          2    1    6    6  502    0 -0.52157206804E+01 -0.10105379986E+02  0.28232640514E+01  0.11717220950E+02  0.00000000000E+00 0. -1.
          3    1    5    5  503    0 -0.66997645141E+02  0.24899951844E+02  0.38511218145E+02  0.81189937672E+02  0.00000000000E+00 0. -1.
         -4    1    5    5    0  503 -0.62220870818E+03 -0.17621828898E+02  0.36031501062E+03  0.71922257492E+03  0.00000000000E+00 0.  1.
         -1    1    6    6    0  502  0.17662337939E+03 -0.29391187934E+03  0.40966681236E+03  0.53423488104E+03  0.00000000000E+00 0.  1.
<mgrwt>
<rscale>  0 0.19299673E+04</rscale>
<asrwt>0</asrwt>
<pdfrwt beam="1">  1        2 0.11233271E+00 0.19299673E+04</pdfrwt>
<pdfrwt beam="2">  1       -2 0.19620361E+00 0.19299673E+04</pdfrwt>
<totfact> 0.51076102E+00</totfact>
</mgrwt>
</event>
<event>
12    1  0.1518126E-007  0.1224131E+04  0.7818608E-02  0.9091993E-01
         -1   -1    0    0    0  501 -0.00000000000E+00  0.00000000000E+00  0.44489757924E+03  0.44489757924E+03  0.00000000000E+00 0.  1.
          1   -1    0    0  501    0  0.00000000000E+00 -0.00000000000E+00 -0.84204565763E+03  0.84204565763E+03  0.00000000000E+00 0. -1.
         23    2    1    2    0    0  0.11207661252E+03  0.24973387660E+02 -0.34142291760E+03  0.37054624920E+03  0.86891178864E+02 0.  0.
        254    2    1    2    0    0 -0.11207661252E+03 -0.24973387660E+02 -0.55725160782E+02  0.91639698767E+03  0.90746532072E+03 0.  0.
        -24    2    4    4    0    0  0.12409737754E+03 -0.55967415540E+02 -0.43410503725E+03  0.46173756137E+03  0.78878903985E+02 0.  0.
         24    2    4    4    0    0 -0.23617399007E+03  0.30994027880E+02  0.37837987647E+03  0.45465942630E+03  0.82492906716E+02 0.  0.
         13    1    3    3    0    0  0.27687273474E+02  0.32495213458E+01 -0.13000105383E+02  0.30759506520E+02  0.00000000000E+00 0.  1.
        -13    1    3    3    0    0  0.84389339048E+02  0.21723866314E+02 -0.32842281222E+03  0.33978674268E+03  0.00000000000E+00 0. -1.
          4    1    6    6  502    0 -0.22085410414E+03  0.12188836103E+02  0.30076396977E+03  0.37334175838E+03  0.00000000000E+00 0. -1.
          3    1    5    5  503    0  0.47841424738E+02  0.17791586131E+02 -0.15214792011E+03  0.16048156296E+03  0.00000000000E+00 0. -1.
         -4    1    5    5    0  503  0.76255952806E+02 -0.73759001671E+02 -0.28195711715E+03  0.30125599841E+03  0.00000000000E+00 0.  1.
         -3    1    6    6    0  502 -0.15319885927E+02  0.18805191777E+02  0.77615906705E+02  0.81317667921E+02  0.00000000000E+00 0.  1.
<mgrwt>
<rscale>  0 0.12241308E+04</rscale>
<asrwt>0</asrwt>
<pdfrwt beam="1">  1        1 0.12954548E+00 0.12241308E+04</pdfrwt>
<pdfrwt beam="2">  1       -1 0.68445782E-01 0.12241308E+04</pdfrwt>
<totfact> 0.43430969E+01</totfact>
</mgrwt>
</event>
<event>
12    1  0.1518126E-007  0.1707369E+04  0.7818608E-02  0.8757173E-01
          2   -1    0    0  501    0  0.00000000000E+00  0.00000000000E+00  0.19109575804E+04  0.19109575804E+04  0.00000000000E+00 0. -1.
         -2   -1    0    0    0  501 -0.00000000000E+00 -0.00000000000E+00 -0.38136756948E+03  0.38136756948E+03  0.00000000000E+00 0.  1.
         23    2    1    2    0    0 -0.23916942850E+03  0.20787566075E+03 -0.14347080664E+03  0.36089116801E+03  0.96147058884E+02 0.  0.
        254    2    1    2    0    0  0.23916942850E+03 -0.20787566075E+03  0.16730608175E+04  0.19314339818E+04  0.91153190904E+03 0.  0.
        -24    2    4    4    0    0 -0.12741687132E+03  0.22497378761E+03  0.16344559867E+03  0.31684932709E+03  0.82648461233E+02 0.  0.
         24    2    4    4    0    0  0.36658629983E+03 -0.43284944836E+03  0.15096152188E+04  0.16145846547E+04  0.78748575701E+02 0.  0.
         11    1    3    3    0    0 -0.24360946938E+03  0.18001990413E+03 -0.12981854759E+03  0.32955362956E+03  0.00000000000E+00 0.  1.
        -11    1    3    3    0    0  0.44400408773E+01  0.27855756611E+02 -0.13652259041E+02  0.31337538453E+02  0.00000000000E+00 0. -1.
          2    1    6    6  502    0  0.15262218845E+03 -0.22630131079E+03  0.79517055132E+03  0.84071518444E+03  0.00000000000E+00 0. -1.
          1    1    5    5  503    0 -0.23067244839E+02  0.12424397370E+03  0.73529199934E+02  0.14620261977E+03  0.00000000000E+00 0. -1.
         -2    1    5    5    0  503 -0.10434962648E+03  0.10072981392E+03  0.89916398734E+02  0.17064670732E+03  0.00000000000E+00 0.  1.
         -1    1    6    6    0  502  0.21396411138E+03 -0.20654813757E+03  0.71444466753E+03  0.77386947030E+03  0.00000000000E+00 0.  1.
<mgrwt>
<rscale>  0 0.17073690E+04</rscale>
<asrwt>0</asrwt>
<pdfrwt beam="1">  1        2 0.29399347E+00 0.17073690E+04</pdfrwt>
<pdfrwt beam="2">  1       -2 0.58671935E-01 0.17073690E+04</pdfrwt>
<totfact> 0.19335481E+01</totfact>
</mgrwt>
</event>
<event>
12    1  0.1518126E-007  0.2454125E+04  0.7818608E-02  0.8419513E-01
          1   -1    0    0  501    0  0.00000000000E+00  0.00000000000E+00  0.72893317370E+03  0.72893317370E+03  0.00000000000E+00 0.  1.
         -1   -1    0    0    0  501 -0.00000000000E+00 -0.00000000000E+00 -0.20655971450E+04  0.20655971450E+04  0.00000000000E+00 0. -1.
         23    2    1    2    0    0  0.68822285710E+03 -0.44691689591E+03 -0.13148009466E+04  0.15526112490E+04  0.92275394685E+02 0.  0.
        254    2    1    2    0    0 -0.68822285710E+03  0.44691689591E+03 -0.21863024665E+02  0.12419190697E+04  0.93193324378E+03 0.  0.
        -24    2    4    4    0    0 -0.38572644162E+03  0.71989176066E+03 -0.71178826745E+02  0.82379350460E+03  0.80871985337E+02 0.  0.
         24    2    4    4    0    0 -0.30249641548E+03 -0.27297486475E+03  0.49315802080E+02  0.41812556506E+03  0.79859762446E+02 0.  0.
         13    1    3    3    0    0  0.55839711653E+03 -0.40244285784E+03 -0.10822705836E+04  0.12826056330E+04  0.00000000000E+00 0.  1.
        -13    1    3    3    0    0  0.12982574057E+03 -0.44474038061E+02 -0.23253036301E+03  0.27000561604E+03  0.00000000000E+00 0. -1.
          4    1    6    6  502    0 -0.66197297282E+02 -0.40344778005E+02 -0.18428486918E+02  0.79683074801E+02  0.00000000000E+00 0. -1.
          3    1    5    5  503    0 -0.85746007416E+02  0.23886209632E+03 -0.24951945885E+02  0.25500995755E+03  0.00000000000E+00 0. -1.
         -4    1    5    5    0  503 -0.29998043421E+03  0.48102966434E+03 -0.46226880860E+02  0.56878354705E+03  0.00000000000E+00 0.  1.
         -3    1    6    6    0  502 -0.23629911820E+03 -0.23263008675E+03  0.67744288998E+02  0.33844249026E+03  0.00000000000E+00 0.  1.
<mgrwt>
<rscale>  0 0.24541249E+04</rscale>
<asrwt>0</asrwt>
<pdfrwt beam="1">  1        1 0.11214357E+00 0.24541249E+04</pdfrwt>
<pdfrwt beam="2">  1       -1 0.31778417E+00 0.24541249E+04</pdfrwt>
<totfact> 0.57795293E-01</totfact>
</mgrwt>
</event>
<event>
12    1  0.1518126E-007  0.1983969E+04  0.7818608E-02  0.8614153E-01
         -2   -1    0    0    0  501 -0.00000000000E+00  0.00000000000E+00  0.54046471001E+03  0.54046471001E+03  0.00000000000E+00 0. -1.
          2   -1    0    0  501    0  0.00000000000E+00 -0.00000000000E+00 -0.18207170001E+04  0.18207170001E+04  0.00000000000E+00 0.  1.
         23    2    1    2    0    0 -0.34101594866E+03 -0.42481007419E+03  0.16531297296E+03  0.57203133685E+03  0.55999954742E+02 0.  0.
        254    2    1    2    0    0  0.34101594866E+03  0.42481007419E+03 -0.14455652631E+04  0.17891503733E+04  0.90257667377E+03 0.  0.
        -24    2    4    4    0    0  0.18606876114E+03 -0.54751093066E+02  0.44076856243E+02  0.21454202572E+03  0.80412968348E+02 0.  0.
         24    2    4    4    0    0  0.15494718751E+03  0.47956116726E+03 -0.14896421193E+04  0.15746083476E+04  0.79813911748E+02 0.  0.
         13    1    3    3    0    0 -0.67824693419E+02 -0.10867235101E+03  0.19959057447E+02  0.12964656912E+03  0.00000000000E+00 0.  1.
        -13    1    3    3    0    0 -0.27319125524E+03 -0.31613772318E+03  0.14535391552E+03  0.44238476772E+03  0.00000000000E+00 0. -1.
          4    1    6    6  502    0  0.38792888040E+01  0.32473278469E+02 -0.51412214556E+02  0.60932573405E+02  0.00000000000E+00 0. -1.
          1    1    5    5  503    0  0.21852315549E+02  0.24710063076E+01 -0.19492406937E+02  0.29386791169E+02  0.00000000000E+00 0. -1.
         -2    1    5    5    0  503  0.16421644559E+03 -0.57222099374E+02  0.63569263180E+02  0.18515523455E+03  0.00000000000E+00 0.  1.
         -3    1    6    6    0  502  0.15106789871E+03  0.44708788879E+03 -0.14382299048E+04  0.15136757742E+04  0.00000000000E+00 0.  1.
<mgrwt>
<rscale>  0 0.19839690E+04</rscale>
<asrwt>0</asrwt>
<pdfrwt beam="1">  1        2 0.28011031E+00 0.19839690E+04</pdfrwt>
<pdfrwt beam="2">  1       -2 0.83148417E-01 0.19839690E+04</pdfrwt>
<totfact> 0.99021561E+00</totfact>
</mgrwt>
</event>
<event>
12    1  0.1518126E-007  0.1405202E+04  0.7818608E-02  0.8950062E-01
          1   -1    0    0  501    0  0.00000000000E+00  0.00000000000E+00  0.83542965990E+03  0.83542965990E+03  0.00000000000E+00 0. -1.
         -1   -1    0    0    0  501 -0.00000000000E+00 -0.00000000000E+00 -0.59089114454E+03  0.59089114454E+03  0.00000000000E+00 0.  1.
         23    2    1    2    0    0  0.12999865728E+03  0.38920173226E+03  0.90473861610E+02  0.43009303234E+03  0.91743433266E+02 0.  0.
        254    2    1    2    0    0 -0.12999865728E+03 -0.38920173226E+03  0.15406465375E+03  0.99622777210E+03  0.89462630024E+03 0.  0.
        -24    2    4    4    0    0 -0.12170219128E+03 -0.30849367199E+03  0.51474094879E+03  0.61766207411E+03  0.81045816731E+02 0.  0.
         24    2    4    4    0    0 -0.82964660016E+01 -0.80708060266E+02 -0.36067629504E+03  0.37856569799E+03  0.81498316229E+02 0.  0.
         13    1    3    3    0    0  0.10013884486E+03  0.23063179463E+03  0.94712256842E+02  0.26868052505E+03  0.00000000000E+00 0. -1.
        -13    1    3    3    0    0  0.29859812426E+02  0.15856993763E+03 -0.42383952325E+01  0.16141250729E+03  0.00000000000E+00 0.  1.
          4    1    6    6  502    0  0.10548663218E+02 -0.56072764279E+02 -0.93064163885E+02  0.10916211701E+03  0.00000000000E+00 0. -1.
          3    1    5    5  503    0 -0.17135643104E+02 -0.20414202199E+02  0.90232434355E+02  0.94086460905E+02  0.00000000000E+00 0. -1.
         -4    1    5    5    0  503 -0.10456654818E+03 -0.28807946979E+03  0.42450851444E+03  0.52357561321E+03  0.00000000000E+00 0.  1.
         -3    1    6    6    0  502 -0.18845129219E+02 -0.24635295986E+02 -0.26761213116E+03  0.26940358098E+03  0.00000000000E+00 0.  1.
<mgrwt>
<rscale>  0 0.14052017E+04</rscale>
<asrwt>0</asrwt>
<pdfrwt beam="1">  1        1 0.12852764E+00 0.14052017E+04</pdfrwt>
<pdfrwt beam="2">  1       -1 0.90906330E-01 0.14052017E+04</pdfrwt>
<totfact> 0.23737749E+01</totfact>
</mgrwt>
</event>
<event>
12    1  0.1518126E-007  0.1596135E+04  0.7818608E-02  0.8822926E-01
         -1   -1    0    0    0  501 -0.00000000000E+00  0.00000000000E+00  0.30284830536E+03  0.30284830536E+03  0.00000000000E+00 0.  1.
          1   -1    0    0  501    0  0.00000000000E+00 -0.00000000000E+00 -0.21030726148E+04  0.21030726148E+04  0.00000000000E+00 0. -1.
         23    2    1    2    0    0  0.24057670659E+03 -0.25377041653E+03 -0.12123607491E+04  0.12650501033E+04  0.90865845670E+02 0.  0.
        254    2    1    2    0    0 -0.24057670659E+03  0.25377041653E+03 -0.58786356029E+03  0.11408708168E+04  0.91308601950E+03 0.  0.
        -24    2    4    4    0    0 -0.34029577190E+03  0.43996671184E+03 -0.69283854251E+03  0.89191297735E+03  0.78176679903E+02 0.  0.
         24    2    4    4    0    0  0.99719065310E+02 -0.18619629531E+03  0.10497498222E+03  0.24895783943E+03  0.79669985251E+02 0.  0.
         13    1    3    3    0    0  0.23272297312E+03 -0.22015661697E+03 -0.11498334526E+04  0.11936271976E+04  0.00000000000E+00 0. -1.
        -13    1    3    3    0    0  0.78537334770E+01 -0.33613799560E+02 -0.62527296517E+02  0.71422905711E+02  0.00000000000E+00 0.  1.
          2    1    6    6  502    0  0.11207744217E+02 -0.76543095753E+02  0.77341598160E+01  0.77744943668E+02  0.00000000000E+00 0. -1.
          3    1    5    5  503    0 -0.17183413360E+03  0.27099877804E+03 -0.35800926104E+03  0.48076807107E+03  0.00000000000E+00 0. -1.
         -4    1    5    5    0  503 -0.16846163831E+03  0.16896793379E+03 -0.33482928147E+03  0.41114490628E+03  0.00000000000E+00 0.  1.
         -1    1    6    6    0  502  0.88511321093E+02 -0.10965319955E+03  0.97240822401E+02  0.17121289576E+03  0.00000000000E+00 0.  1.
<mgrwt>
<rscale>  0 0.15961353E+04</rscale>
<asrwt>0</asrwt>
<pdfrwt beam="1">  1        1 0.32354964E+00 0.15961353E+04</pdfrwt>
<pdfrwt beam="2">  1       -1 0.46592046E-01 0.15961353E+04</pdfrwt>
<totfact> 0.11176724E+01</totfact>
</mgrwt>
</event>
<event>
12    1  0.1518126E-007  0.1520943E+04  0.7818608E-02  0.8870644E-01
         -2   -1    0    0    0  501 -0.00000000000E+00  0.00000000000E+00  0.62791959820E+03  0.62791959820E+03  0.00000000000E+00 0. -1.
          2   -1    0    0  501    0  0.00000000000E+00 -0.00000000000E+00 -0.92100528011E+03  0.92100528011E+03  0.00000000000E+00 0.  1.
         23    2    1    2    0    0 -0.46424260965E+03  0.27259476516E+02  0.14690839468E+03  0.49719871126E+03  0.96748138869E+02 0.  0.
        254    2    1    2    0    0  0.46424260965E+03 -0.27259476516E+02 -0.43999407660E+03  0.10517261671E+04  0.83442726666E+03 0.  0.
        -24    2    4    4    0    0  0.69176551612E+03  0.21955078355E+02 -0.39576005183E+03  0.80142669741E+03  0.81468877080E+02 0.  0.
         24    2    4    4    0    0 -0.22752290647E+03 -0.49214554871E+02 -0.44234024769E+02  0.25029946965E+03  0.80650047601E+02 0.  0.
         11    1    3    3    0    0 -0.94205375817E+02  0.12125397139E+02  0.72404459808E+02  0.11943234021E+03  0.00000000000E+00 0.  1.
        -11    1    3    3    0    0 -0.37003723383E+03  0.15134079377E+02  0.74503934875E+02  0.37776637105E+03  0.00000000000E+00 0. -1.
          4    1    6    6  502    0 -0.21658363477E+02  0.13292082860E+02 -0.22709563579E+02  0.34080616972E+02  0.00000000000E+00 0. -1.
          1    1    5    5  503    0  0.70664586298E+01 -0.82617520905E+01 -0.10908587964E+02  0.15400931029E+02  0.00000000000E+00 0. -1.
         -2    1    5    5    0  503  0.68469905749E+03  0.30216830446E+02 -0.38485146386E+03  0.78602576638E+03  0.00000000000E+00 0.  1.
         -3    1    6    6    0  502 -0.20586454299E+03 -0.62506637731E+02 -0.21524461190E+02  0.21621885267E+03  0.00000000000E+00 0.  1.
<mgrwt>
<rscale>  0 0.15209435E+04</rscale>
<asrwt>0</asrwt>
<pdfrwt beam="1">  1        2 0.14169312E+00 0.15209435E+04</pdfrwt>
<pdfrwt beam="2">  1       -2 0.96603015E-01 0.15209435E+04</pdfrwt>
<totfact> 0.24541709E+01</totfact>
</mgrwt>
</event>
<event>
12    1  0.1518126E-007  0.1251017E+04  0.7818608E-02  0.9069338E-01
          2   -1    0    0  501    0  0.00000000000E+00  0.00000000000E+00  0.11499563099E+04  0.11499563099E+04  0.00000000000E+00 0.  1.
         -2   -1    0    0    0  501 -0.00000000000E+00 -0.00000000000E+00 -0.34023958797E+03  0.34023958797E+03  0.00000000000E+00 0. -1.
         23    2    1    2    0    0 -0.87290397285E+02 -0.27559097747E+01 -0.13322553321E+03  0.18321999091E+03  0.90516925903E+02 0.  0.
        254    2    1    2    0    0  0.87290397285E+02  0.27559097747E+01  0.94294225515E+03  0.13069759070E+04  0.90078783093E+03 0.  0.
        -24    2    4    4    0    0 -0.38865424493E+03 -0.33925088870E+02  0.28127347319E+03  0.48776171686E+03  0.81201551413E+02 0.  0.
         24    2    4    4    0    0  0.47594464222E+03  0.36680998644E+02  0.66166878196E+03  0.81921419011E+03  0.73739501954E+02 0.  0.
         13    1    3    3    0    0 -0.42144614089E+02  0.29368612972E+01  0.20141557406E+00  0.42247298366E+02  0.00000000000E+00 0.  1.
        -13    1    3    3    0    0 -0.45145783196E+02 -0.56927710719E+01 -0.13342694878E+03  0.14097269255E+03  0.00000000000E+00 0. -1.
          4    1    6    6  502    0  0.42016675607E+02  0.22640269112E+02  0.83614545165E+02  0.96277593332E+02  0.00000000000E+00 0. -1.
          3    1    5    5  503    0 -0.14044819289E+02  0.11912454274E+02  0.25498671974E+01  0.18592077302E+02  0.00000000000E+00 0. -1.
         -4    1    5    5    0  503 -0.37460942564E+03 -0.45837543143E+02  0.27872360600E+03  0.46916963956E+03  0.00000000000E+00 0.  1.
         -3    1    6    6    0  502  0.43392796661E+03  0.14040729532E+02  0.57805423679E+03  0.72293659678E+03  0.00000000000E+00 0.  1.
<mgrwt>
<rscale>  0 0.12510166E+04</rscale>
<asrwt>0</asrwt>
<pdfrwt beam="1">  1        2 0.17691635E+00 0.12510166E+04</pdfrwt>
<pdfrwt beam="2">  1       -2 0.52344552E-01 0.12510166E+04</pdfrwt>
<totfact> 0.68767260E+01</totfact>
</mgrwt>
</event>
<event>
12    1  0.1518126E-007  0.3688194E+04  0.7818608E-02  0.8070583E-01
          1   -1    0    0  501    0  0.00000000000E+00  0.00000000000E+00  0.16826070811E+04  0.16826070811E+04  0.00000000000E+00 0. -1.
         -1   -1    0    0    0  501 -0.00000000000E+00 -0.00000000000E+00 -0.20210861713E+04  0.20210861713E+04  0.00000000000E+00 0.  1.
         23    2    1    2    0    0 -0.15368628399E+04  0.97111580401E+02 -0.96232000909E+03  0.18183385285E+04  0.94430697753E+02 0.  0.
        254    2    1    2    0    0  0.15368628399E+04 -0.97111580401E+02  0.62384091892E+03  0.18853547239E+04  0.89107064553E+03 0.  0.
        -24    2    4    4    0    0  0.41658841599E+03  0.15393832327E+03  0.57843478760E+03  0.73366592245E+03  0.80224476056E+02 0.  0.
         24    2    4    4    0    0  0.11202744239E+04 -0.25104990367E+03  0.45406131324E+02  0.11516888015E+04  0.79275089130E+02 0.  0.
         13    1    3    3    0    0 -0.10762668215E+04  0.29778684594E+02 -0.64745676079E+03  0.12563587458E+04  0.00000000000E+00 0. -1.
        -13    1    3    3    0    0 -0.46059601838E+03  0.67332895806E+02 -0.31486324829E+03  0.56197978267E+03  0.00000000000E+00 0.  1.
          2    1    6    6  502    0  0.85353026177E+03 -0.16293541115E+03  0.14404396090E+02  0.86906233527E+03  0.00000000000E+00 0. -1.
          1    1    5    5  503    0  0.13504467684E+03  0.53258131700E+02  0.25327919259E+03  0.29193122946E+03  0.00000000000E+00 0. -1.
         -2    1    5    5    0  503  0.28154373915E+03  0.10068019157E+03  0.32515559500E+03  0.44173469299E+03  0.00000000000E+00 0.  1.
         -1    1    6    6    0  502  0.26674416212E+03 -0.88114492526E+02  0.31001735234E+02  0.28262646621E+03  0.00000000000E+00 0.  1.
<mgrwt>
<rscale>  0 0.36881941E+04</rscale>
<asrwt>0</asrwt>
<pdfrwt beam="1">  1        1 0.25886263E+00 0.36881941E+04</pdfrwt>
<pdfrwt beam="2">  1       -1 0.31093633E+00 0.36881941E+04</pdfrwt>
<totfact> 0.11028924E-01</totfact>
</mgrwt>
</event>
<event>
12    1  0.1518126E-007  0.2385783E+04  0.7818608E-02  0.8444845E-01
          1   -1    0    0  501    0  0.00000000000E+00  0.00000000000E+00  0.19272924653E+04  0.19272924653E+04  0.00000000000E+00 0. -1.
         -1   -1    0    0    0  501 -0.00000000000E+00 -0.00000000000E+00 -0.73833658517E+03  0.73833658517E+03  0.00000000000E+00 0.  1.
         23    2    1    2    0    0  0.34282932326E+03  0.94380250344E+02 -0.55571848661E+03  0.66610005295E+03  0.91796882532E+02 0.  0.
        254    2    1    2    0    0 -0.34282932326E+03 -0.94380250344E+02  0.17446743667E+04  0.19995289975E+04  0.90982854946E+03 0.  0.
        -24    2    4    4    0    0 -0.59488997969E+01  0.56021199985E+02  0.15875696796E+04  0.15906608547E+04  0.81551840384E+02 0.  0.
         24    2    4    4    0    0 -0.33688042346E+03 -0.15040145033E+03  0.15710468710E+03  0.40886814284E+03  0.79889045207E+02 0.  0.
         11    1    3    3    0    0  0.17808145303E+03  0.16444527147E+02 -0.33601437296E+03  0.38064298919E+03  0.00000000000E+00 0. -1.
        -11    1    3    3    0    0  0.16474787023E+03  0.77935723196E+02 -0.21970411365E+03  0.28545706376E+03  0.00000000000E+00 0.  1.
          2    1    6    6  502    0 -0.16387051988E+03 -0.35200647604E+02  0.91205566024E+02  0.19081689692E+03  0.00000000000E+00 0. -1.
          3    1    5    5  503    0  0.23444257021E+02 -0.10827071574E+02  0.36523325685E+03  0.36614504035E+03  0.00000000000E+00 0. -1.
         -4    1    5    5    0  503 -0.29393156818E+02  0.66848271559E+02  0.12223364228E+04  0.12245158143E+04  0.00000000000E+00 0.  1.
         -1    1    6    6    0  502 -0.17300990359E+03 -0.11520080272E+03  0.65899121081E+02  0.21805124592E+03  0.00000000000E+00 0.  1.
<mgrwt>
<rscale>  0 0.23857833E+04</rscale>
<asrwt>0</asrwt>
<pdfrwt beam="1">  1        1 0.29650653E+00 0.23857833E+04</pdfrwt>
<pdfrwt beam="2">  1       -1 0.11359024E+00 0.23857833E+04</pdfrwt>
<totfact> 0.21174854E+00</totfact>
</mgrwt>
</event>
<event>
12    1  0.1518126E-007  0.1097018E+04  0.7818608E-02  0.9208103E-01
          1   -1    0    0  501    0  0.00000000000E+00  0.00000000000E+00  0.36234017807E+03  0.36234017807E+03  0.00000000000E+00 0. -1.
         -1   -1    0    0    0  501 -0.00000000000E+00 -0.00000000000E+00 -0.83033014648E+03  0.83033014648E+03  0.00000000000E+00 0.  1.
         23    2    1    2    0    0 -0.47972779516E+02  0.86436955961E+02 -0.22610389058E+03  0.26323877569E+03  0.91645778745E+02 0.  0.
        254    2    1    2    0    0  0.47972779516E+02 -0.86436955961E+02 -0.24188607783E+03  0.92943154886E+03  0.89194248381E+03 0.  0.
        -24    2    4    4    0    0 -0.29156042229E+03 -0.11919834062E+03 -0.42412547499E+03  0.53459711410E+03  0.81828672308E+02 0.  0.
         24    2    4    4    0    0  0.33953320181E+03  0.32761384657E+02  0.18223939716E+03  0.39483443476E+03  0.79541998575E+02 0.  0.
         13    1    3    3    0    0  0.49773509021E+01  0.33178588446E+02 -0.10851355532E+02  0.35261092867E+02  0.00000000000E+00 0. -1.
        -13    1    3    3    0    0 -0.52950130418E+02  0.53258367515E+02 -0.21525253505E+03  0.22797768283E+03  0.00000000000E+00 0.  1.
          4    1    6    6  502    0  0.19495567364E+03  0.39954537918E+02  0.67579726892E+02  0.21016921580E+03  0.00000000000E+00 0. -1.
          3    1    5    5  503    0 -0.19322055141E+03 -0.59342225201E+02 -0.20991252841E+03  0.29140856330E+03  0.00000000000E+00 0. -1.
         -4    1    5    5    0  503 -0.98339870882E+02 -0.59856115417E+02 -0.21421294658E+03  0.24318855080E+03  0.00000000000E+00 0.  1.
         -3    1    6    6    0  502  0.14457752817E+03 -0.71931532612E+01  0.11465967027E+03  0.18466521896E+03  0.00000000000E+00 0.  1.
<mgrwt>
<rscale>  0 0.10970177E+04</rscale>
<asrwt>0</asrwt>
<pdfrwt beam="1">  1        1 0.55744643E-01 0.10970177E+04</pdfrwt>
<pdfrwt beam="2">  1       -1 0.12774310E+00 0.10970177E+04</pdfrwt>
<totfact> 0.36153391E+01</totfact>
</mgrwt>
</event>
<event>
12    1  0.1518126E-007  0.3169649E+04  0.7818608E-02  0.8196879E-01
          2   -1    0    0  501    0  0.00000000000E+00  0.00000000000E+00  0.92379335958E+03  0.92379335958E+03  0.00000000000E+00 0. -1.
         -2   -1    0    0    0  501 -0.00000000000E+00 -0.00000000000E+00 -0.27188647412E+04  0.27188647412E+04  0.00000000000E+00 0.  1.
         23    2    1    2    0    0  0.62215034834E+03 -0.12862558496E+04 -0.51068040817E+03  0.15201431113E+04  0.92279103716E+02 0.  0.
        254    2    1    2    0    0 -0.62215034834E+03  0.12862558496E+04 -0.12843909735E+04  0.21225149895E+04  0.90215549736E+03 0.  0.
        -24    2    4    4    0    0 -0.30635243096E+03  0.12177776423E+04 -0.12722362033E+04  0.17893488745E+04  0.79688391016E+02 0.  0.
         24    2    4    4    0    0 -0.31579791737E+03  0.68478207313E+02 -0.12154770184E+02  0.33316611502E+03  0.80214289669E+02 0.  0.
         11    1    3    3    0    0  0.29684039083E+03 -0.66041067619E+03 -0.30263680802E+03  0.78475825349E+03  0.00000000000E+00 0. -1.
        -11    1    3    3    0    0  0.32530995750E+03 -0.62584517341E+03 -0.20804360015E+03  0.73538485781E+03  0.00000000000E+00 0.  1.
          2    1    6    6  502    0 -0.31068277766E+03  0.52945971395E+02 -0.47069481498E+01  0.31519711227E+03  0.00000000000E+00 0. -1.
          3    1    5    5  503    0 -0.29789344895E+03  0.11888992719E+04 -0.12569238444E+04  0.17555852404E+04  0.00000000000E+00 0. -1.
         -4    1    5    5    0  503 -0.84589820083E+01  0.28878370389E+02 -0.15312358894E+02  0.33763634103E+02  0.00000000000E+00 0.  1.
         -1    1    6    6    0  502 -0.51151397126E+01  0.15532235919E+02 -0.74478220342E+01  0.17969002754E+02  0.00000000000E+00 0.  1.
<mgrwt>
<rscale>  0 0.31696493E+04</rscale>
<asrwt>0</asrwt>
<pdfrwt beam="1">  1        2 0.14212206E+00 0.31696493E+04</pdfrwt>
<pdfrwt beam="2">  1       -2 0.41828688E+00 0.31696493E+04</pdfrwt>
<totfact> 0.13411026E-01</totfact>
</mgrwt>
</event>
<event>
12    1  0.1518126E-007  0.1596074E+04  0.7818608E-02  0.8822963E-01
         -1   -1    0    0    0  501 -0.00000000000E+00  0.00000000000E+00  0.55977007643E+03  0.55977007643E+03  0.00000000000E+00 0.  1.
          1   -1    0    0  501    0  0.00000000000E+00 -0.00000000000E+00 -0.11377226849E+04  0.11377226849E+04  0.00000000000E+00 0. -1.
         23    2    1    2    0    0  0.18868953938E+03  0.20420682016E+03 -0.69665409426E+03  0.75555979115E+03  0.90771709644E+02 0.  0.
        254    2    1    2    0    0 -0.18868953938E+03 -0.20420682016E+03  0.11870148580E+03  0.94193297017E+03  0.89210061646E+03 0.  0.
        -24    2    4    4    0    0 -0.35461973880E+03  0.24666805105E+01  0.40463035051E+03  0.54371734106E+03  0.78368250905E+02 0.  0.
         24    2    4    4    0    0  0.16593019941E+03 -0.20667350067E+03 -0.28592886472E+03  0.39821562912E+03  0.81077769066E+02 0.  0.
         13    1    3    3    0    0  0.14191827272E+03  0.20005237064E+03 -0.57297978405E+03  0.62327167436E+03  0.00000000000E+00 0. -1.
        -13    1    3    3    0    0  0.46771266664E+02  0.41544495211E+01 -0.12367431021E+03  0.13228811679E+03  0.00000000000E+00 0.  1.
          2    1    6    6  502    0  0.12777886147E+03 -0.17106089476E+03 -0.17666655526E+03  0.27712874066E+03  0.00000000000E+00 0. -1.
          1    1    5    5  503    0 -0.26322453494E+03  0.27952167220E+02  0.32972026224E+03  0.42282848860E+03  0.00000000000E+00 0. -1.
         -2    1    5    5    0  503 -0.91395203860E+02 -0.25485486709E+02  0.74910088278E+02  0.12088885245E+03  0.00000000000E+00 0.  1.
         -1    1    6    6    0  502  0.38151337948E+02 -0.35612605909E+02 -0.10926230946E+03  0.12108688846E+03  0.00000000000E+00 0.  1.
<mgrwt>
<rscale>  0 0.15960741E+04</rscale>
<asrwt>0</asrwt>
<pdfrwt beam="1">  1        1 0.17503426E+00 0.15960741E+04</pdfrwt>
<pdfrwt beam="2">  1       -1 0.86118473E-01 0.15960741E+04</pdfrwt>
<totfact> 0.15175296E+01</totfact>
</mgrwt>
</event>
<event>
12    1  0.1518126E-007  0.2256501E+04  0.7818608E-02  0.8495272E-01
          2   -1    0    0  501    0  0.00000000000E+00  0.00000000000E+00  0.21876276606E+04  0.21876276606E+04  0.00000000000E+00 0. -1.
         -2   -1    0    0    0  501 -0.00000000000E+00 -0.00000000000E+00 -0.58188569157E+03  0.58188569157E+03  0.00000000000E+00 0.  1.
         23    2    1    2    0    0  0.20303401548E+03 -0.52493780480E+03  0.16100552570E+04  0.17079780875E+04  0.90159340002E+02 0.  0.
        254    2    1    2    0    0 -0.20303401548E+03  0.52493780480E+03 -0.43132879563E+01  0.10615352646E+04  0.90003111240E+03 0.  0.
        -24    2    4    4    0    0  0.10639150010E+03  0.55704998158E+03  0.27595202458E+03  0.63544347091E+03  0.77556763643E+02 0.  0.
         24    2    4    4    0    0 -0.30942551558E+03 -0.32112176779E+02 -0.28026531254E+03  0.42609179373E+03  0.78931804013E+02 0.  0.
         11    1    3    3    0    0  0.64471490443E+02 -0.28217417729E+03  0.76745988560E+03  0.82022772168E+03  0.00000000000E+00 0. -1.
        -11    1    3    3    0    0  0.13856252504E+03 -0.24276362751E+03  0.84259537138E+03  0.88775036584E+03  0.00000000000E+00 0.  1.
          2    1    6    6  502    0 -0.16462231032E+03 -0.50011007193E+02 -0.18035137826E+03  0.24925534204E+03  0.00000000000E+00 0. -1.
          1    1    5    5  503    0  0.11078837962E+03  0.55591312802E+03  0.26975075390E+03  0.62775707100E+03  0.00000000000E+00 0. -1.
         -2    1    5    5    0  503 -0.43968795209E+01  0.11368535558E+01  0.62012706770E+01  0.76863999075E+01  0.00000000000E+00 0.  1.
         -1    1    6    6    0  502 -0.14480320526E+03  0.17898830414E+02 -0.99913934276E+02  0.17683645169E+03  0.00000000000E+00 0.  1.
<mgrwt>
<rscale>  0 0.22565010E+04</rscale>
<asrwt>0</asrwt>
<pdfrwt beam="1">  1        2 0.33655810E+00 0.22565010E+04</pdfrwt>
<pdfrwt beam="2">  1       -2 0.89520877E-01 0.22565010E+04</pdfrwt>
<totfact> 0.51072402E+00</totfact>
</mgrwt>
</event>
<event>
12    1  0.1518126E-007  0.2051618E+04  0.7818608E-02  0.8582861E-01
         -1   -1    0    0    0  501 -0.00000000000E+00  0.00000000000E+00  0.11264094653E+04  0.11264094653E+04  0.00000000000E+00 0.  1.
          1   -1    0    0  501    0  0.00000000000E+00 -0.00000000000E+00 -0.93419289371E+03  0.93419289371E+03  0.00000000000E+00 0. -1.
         23    2    1    2    0    0  0.59191992826E+03 -0.16791727612E+03  0.62478196569E+03  0.88166246325E+03  0.91710312225E+02 0.  0.
        254    2    1    2    0    0 -0.59191992826E+03  0.16791727612E+03 -0.43256539405E+03  0.11789398958E+04  0.90786620418E+03 0.  0.
        -24    2    4    4    0    0 -0.34423768970E+03  0.53060092440E+03 -0.34251094028E+03  0.72369852702E+03  0.79930506139E+02 0.  0.
         24    2    4    4    0    0 -0.24768223856E+03 -0.36268364828E+03 -0.90054453772E+02  0.45524136878E+03  0.79050484976E+02 0.  0.
         11    1    3    3    0    0  0.14039963800E+03 -0.81351299424E+02  0.15742600332E+03  0.22608192937E+03  0.00000000000E+00 0. -1.
        -11    1    3    3    0    0  0.45152029026E+03 -0.86565976691E+02  0.46735596237E+03  0.65558053388E+03  0.00000000000E+00 0.  1.
          2    1    6    6  502    0 -0.18174744378E+03 -0.31757309326E+03 -0.65987161332E+02  0.37180520215E+03  0.00000000000E+00 0. -1.
          3    1    5    5  503    0 -0.15621556036E+03  0.24437339030E+03 -0.20244421366E+03  0.35370229690E+03  0.00000000000E+00 0. -1.
         -4    1    5    5    0  503 -0.18802212934E+03  0.28622753410E+03 -0.14006672662E+03  0.36999623012E+03  0.00000000000E+00 0.  1.
         -1    1    6    6    0  502 -0.65934794778E+02 -0.45110555026E+02 -0.24067292440E+02  0.83436166634E+02  0.00000000000E+00 0.  1.
<mgrwt>
<rscale>  0 0.20516176E+04</rscale>
<asrwt>0</asrwt>
<pdfrwt beam="1">  1        1 0.14372198E+00 0.20516176E+04</pdfrwt>
<pdfrwt beam="2">  1       -1 0.17329376E+00 0.20516176E+04</pdfrwt>
<totfact> 0.36688055E+00</totfact>
</mgrwt>
</event>
<event>
12    1  0.1518126E-007  0.2049326E+04  0.7818608E-02  0.8583900E-01
         -1   -1    0    0    0  501 -0.00000000000E+00  0.00000000000E+00  0.52299954287E+03  0.52299954287E+03  0.00000000000E+00 0.  1.
          1   -1    0    0  501    0  0.00000000000E+00 -0.00000000000E+00 -0.20075237535E+04  0.20075237535E+04  0.00000000000E+00 0. -1.
         23    2    1    2    0    0  0.89135761818E+02 -0.82121526910E+03 -0.62429584481E+03  0.10392878777E+04  0.89634193606E+02 0.  0.
        254    2    1    2    0    0 -0.89135761818E+02  0.82121526910E+03 -0.86022836581E+03  0.14912354187E+04  0.89523769484E+03 0.  0.
        -24    2    4    4    0    0 -0.21466101116E+03  0.90903671202E+03 -0.43702411714E+03  0.10342209028E+04  0.78712789612E+02 0.  0.
         24    2    4    4    0    0  0.12552524935E+03 -0.87821442920E+02 -0.42320424867E+03  0.45701451589E+03  0.79317322062E+02 0.  0.
         13    1    3    3    0    0  0.11166584743E+02 -0.19076253563E+02 -0.43958418422E+01  0.22537069249E+02  0.00000000000E+00 0.  1.
        -13    1    3    3    0    0  0.77969177075E+02 -0.80213901553E+03 -0.61990000296E+03  0.10167508085E+04  0.00000000000E+00 0. -1.
          4    1    6    6  502    0  0.76565678368E+01 -0.87793427604E+01 -0.13761502974E+03  0.13810719135E+03  0.00000000000E+00 0. -1.
          1    1    5    5  503    0 -0.15168879107E+03  0.70356534931E+03 -0.30273202806E+03  0.78080751207E+03  0.00000000000E+00 0. -1.
         -2    1    5    5    0  503 -0.62972220092E+02  0.20547136270E+03 -0.13429208908E+03  0.25341339070E+03  0.00000000000E+00 0.  1.
         -3    1    6    6    0  502  0.11786868151E+03 -0.79042100160E+02 -0.28558921893E+03  0.31890732454E+03  0.00000000000E+00 0.  1.
<mgrwt>
<rscale>  0 0.20493257E+04</rscale>
<asrwt>0</asrwt>
<pdfrwt beam="1">  1        1 0.30884982E+00 0.20493257E+04</pdfrwt>
<pdfrwt beam="2">  1       -1 0.80461466E-01 0.20493257E+04</pdfrwt>
<totfact> 0.41914840E+00</totfact>
</mgrwt>
</event>
<event>
12    1  0.1518126E-007  0.1320037E+04  0.7818608E-02  0.9013825E-01
         -2   -1    0    0    0  501 -0.00000000000E+00  0.00000000000E+00  0.14461315155E+03  0.14461315155E+03  0.00000000000E+00 0.  1.
          2   -1    0    0  501    0  0.00000000000E+00 -0.00000000000E+00 -0.30123434599E+04  0.30123434599E+04  0.00000000000E+00 0. -1.
         23    2    1    2    0    0 -0.33050820840E+03  0.86050630480E+02 -0.72582330106E+03  0.80746472751E+03  0.92409063339E+02 0.  0.
        254    2    1    2    0    0  0.33050820840E+03 -0.86050630480E+02 -0.21419070072E+04  0.23494918839E+04  0.90316449110E+03 0.  0.
        -24    2    4    4    0    0  0.39990740311E+03  0.33632721386E+03 -0.12289077727E+04  0.13379533659E+04  0.82843041567E+02 0.  0.
         24    2    4    4    0    0 -0.69399194702E+02 -0.42237784434E+03 -0.91299923453E+03  0.10115385180E+04  0.80145365510E+02 0.  0.
         11    1    3    3    0    0 -0.88879689769E+02  0.40758817016E+02 -0.30279348286E+03  0.31818983906E+03  0.00000000000E+00 0. -1.
        -11    1    3    3    0    0 -0.24162851864E+03  0.45291813464E+02 -0.42302981820E+03  0.48927488845E+03  0.00000000000E+00 0.  1.
          2    1    6    6  502    0 -0.30231803918E+02 -0.83040852498E+02 -0.12913230234E+03  0.15647650514E+03  0.00000000000E+00 0. -1.
          3    1    5    5  503    0  0.36104133956E+01 -0.43217322348E+01 -0.23067668624E+02  0.23745100339E+02  0.00000000000E+00 0. -1.
         -4    1    5    5    0  503  0.39629698971E+03  0.34064894609E+03 -0.12058401041E+04  0.13142082655E+04  0.00000000000E+00 0.  1.
         -1    1    6    6    0  502 -0.39167390784E+02 -0.33933699184E+03 -0.78386693218E+03  0.85506201290E+03  0.00000000000E+00 0.  1.
<mgrwt>
<rscale>  0 0.13200371E+04</rscale>
<asrwt>0</asrwt>
<pdfrwt beam="1">  1        2 0.46343744E+00 0.13200371E+04</pdfrwt>
<pdfrwt beam="2">  1       -2 0.22248178E-01 0.13200371E+04</pdfrwt>
<totfact> 0.29959444E+01</totfact>
</mgrwt>
</event>
<event>
12    1  0.1518126E-007  0.1363677E+04  0.7818608E-02  0.8980539E-01
          1   -1    0    0  501    0  0.00000000000E+00  0.00000000000E+00  0.86502227289E+03  0.86502227289E+03  0.00000000000E+00 0. -1.
         -1   -1    0    0    0  501 -0.00000000000E+00 -0.00000000000E+00 -0.53744709870E+03  0.53744709870E+03  0.00000000000E+00 0.  1.
         23    2    1    2    0    0  0.14918972787E+03  0.16850844130E+02  0.44825611435E+03  0.48143765205E+03  0.91143529169E+02 0.  0.
        254    2    1    2    0    0 -0.14918972787E+03 -0.16850844130E+02 -0.12068094015E+03  0.92103171954E+03  0.90066309641E+03 0.  0.
        -24    2    4    4    0    0  0.14303256944E+03 -0.16903399315E+03  0.29963822652E+03  0.38109026475E+03  0.80099415282E+02 0.  0.
         24    2    4    4    0    0 -0.29222229730E+03  0.15218314902E+03 -0.42031916668E+03  0.53994145480E+03  0.79466916667E+02 0.  0.
         13    1    3    3    0    0  0.91580213576E+02 -0.46671937645E+01  0.14176164180E+03  0.16883447901E+03  0.00000000000E+00 0. -1.
        -13    1    3    3    0    0  0.57609514290E+02  0.21518037894E+02  0.30649447254E+03  0.31260317303E+03  0.00000000000E+00 0.  1.
          2    1    6    6  502    0 -0.25804300090E+03  0.11720875927E+03 -0.39103513722E+03  0.48294157214E+03  0.00000000000E+00 0. -1.
          1    1    5    5  503    0  0.11124171584E+03 -0.14541309186E+03  0.28525373101E+03  0.33895335620E+03  0.00000000000E+00 0. -1.
         -2    1    5    5    0  503  0.31790853596E+02 -0.23620901294E+02  0.14384495516E+02  0.42136908543E+02  0.00000000000E+00 0.  1.
         -1    1    6    6    0  502 -0.34179296407E+02  0.34974389754E+02 -0.29284029455E+02  0.56999882655E+02  0.00000000000E+00 0.  1.
<mgrwt>
<rscale>  0 0.13636770E+04</rscale>
<asrwt>0</asrwt>
<pdfrwt beam="1">  1        1 0.13308035E+00 0.13636770E+04</pdfrwt>
<pdfrwt beam="2">  1       -1 0.82684169E-01 0.13636770E+04</pdfrwt>
<totfact> 0.27655466E+01</totfact>
</mgrwt>
</event>
<event>
12    1  0.1518126E-007  0.1980989E+04  0.7818608E-02  0.8615561E-01
          1   -1    0    0  501    0  0.00000000000E+00  0.00000000000E+00  0.15298561809E+04  0.15298561809E+04  0.00000000000E+00 0. -1.
         -1   -1    0    0    0  501 -0.00000000000E+00 -0.00000000000E+00 -0.64128861465E+03  0.64128861465E+03  0.00000000000E+00 0.  1.
         23    2    1    2    0    0 -0.42955216623E+03 -0.29999299247E+03  0.98771316674E+03  0.11217626763E+04  0.90902932319E+02 0.  0.
        254    2    1    2    0    0  0.42955216623E+03  0.29999299247E+03 -0.99145600504E+02  0.10493821193E+04  0.90380425042E+03 0.  0.
        -24    2    4    4    0    0  0.49660642418E+03  0.44081073694E+03 -0.34165419547E+03  0.75086436575E+03  0.78343220116E+02 0.  0.
         24    2    4    4    0    0 -0.67054257946E+02 -0.14081774447E+03  0.24250859497E+03  0.29851775351E+03  0.77307954692E+02 0.  0.
         11    1    3    3    0    0 -0.35421601401E+03 -0.20091531083E+03  0.76408108951E+03  0.86582669054E+03  0.00000000000E+00 0. -1.
        -11    1    3    3    0    0 -0.75336152217E+02 -0.99077681644E+02  0.22363207722E+03  0.25593598574E+03  0.00000000000E+00 0.  1.
          4    1    6    6  502    0 -0.37083928464E+02 -0.49565367562E+02  0.38152571764E+02  0.72715625172E+02  0.00000000000E+00 0. -1.
          3    1    5    5  503    0  0.45725619671E+03  0.37990445047E+03 -0.28744900627E+03  0.66033139568E+03  0.00000000000E+00 0. -1.
         -4    1    5    5    0  503  0.39350227462E+02  0.60906286468E+02 -0.54205189206E+02  0.90532970068E+02  0.00000000000E+00 0.  1.
         -1    1    6    6    0  502 -0.29970329482E+02 -0.91252376906E+02  0.20435602320E+03  0.22580212833E+03  0.00000000000E+00 0.  1.
<mgrwt>
<rscale>  0 0.19809890E+04</rscale>
<asrwt>0</asrwt>
<pdfrwt beam="1">  1        1 0.23536249E+00 0.19809890E+04</pdfrwt>
<pdfrwt beam="2">  1       -1 0.98659787E-01 0.19809890E+04</pdfrwt>
<totfact> 0.56964911E+00</totfact>
</mgrwt>
</event>
<event>
12    1  0.1518126E-007  0.2376998E+04  0.7818608E-02  0.8448166E-01
         -1   -1    0    0    0  501 -0.00000000000E+00  0.00000000000E+00  0.84907821283E+03  0.84907821283E+03  0.00000000000E+00 0.  1.
          1   -1    0    0  501    0  0.00000000000E+00 -0.00000000000E+00 -0.16636039475E+04  0.16636039475E+04  0.00000000000E+00 0. -1.
         23    2    1    2    0    0 -0.37996624693E+03  0.93222175504E+03 -0.45803969581E+03  0.11097907868E+04  0.91779508944E+02 0.  0.
        254    2    1    2    0    0  0.37996624693E+03 -0.93222175504E+03 -0.35648603882E+03  0.14028913734E+04  0.90973081758E+03 0.  0.
        -24    2    4    4    0    0  0.10280028123E+03 -0.91346088746E+03 -0.53033975997E+03  0.10641740517E+04  0.78914261482E+02 0.  0.
         24    2    4    4    0    0  0.27716596570E+03 -0.18760867577E+02  0.17385372115E+03  0.33871732170E+03  0.85623390321E+02 0.  0.
         13    1    3    3    0    0 -0.11463405920E+03  0.25137239216E+03 -0.83190783908E+02  0.28853033393E+03  0.00000000000E+00 0. -1.
        -13    1    3    3    0    0 -0.26533218773E+03  0.68084936288E+03 -0.37484891190E+03  0.82126045292E+03  0.00000000000E+00 0.  1.
          4    1    6    6  502    0  0.13256135918E+03 -0.39040932362E+02  0.49076066771E+02  0.14664640697E+03  0.00000000000E+00 0. -1.
          1    1    5    5  503    0  0.65411062286E+02 -0.64341968535E+03 -0.41313703118E+03  0.76743058650E+03  0.00000000000E+00 0. -1.
         -2    1    5    5    0  503  0.37389218940E+02 -0.27004120210E+03 -0.11720272879E+03  0.29674346524E+03  0.00000000000E+00 0.  1.
         -3    1    6    6    0  502  0.14460460652E+03  0.20280064785E+02  0.12477765438E+03  0.19207091473E+03  0.00000000000E+00 0.  1.
<mgrwt>
<rscale>  0 0.23769980E+04</rscale>
<asrwt>0</asrwt>
<pdfrwt beam="1">  1        1 0.25593907E+00 0.23769980E+04</pdfrwt>
<pdfrwt beam="2">  1       -1 0.13062742E+00 0.23769980E+04</pdfrwt>
<totfact> 0.22702854E+00</totfact>
</mgrwt>
</event>
<event>
12    1  0.1518126E-007  0.2051560E+04  0.7818608E-02  0.8582887E-01
          2   -1    0    0  501    0  0.00000000000E+00  0.00000000000E+00  0.35277046802E+04  0.35277046802E+04  0.00000000000E+00 0. -1.
         -2   -1    0    0    0  501 -0.00000000000E+00 -0.00000000000E+00 -0.29827467424E+03  0.29827467424E+03  0.00000000000E+00 0.  1.
         23    2    1    2    0    0 -0.27531276518E+03  0.12302137096E+03 -0.12406438578E+03  0.33808426792E+03  0.89317545914E+02 0.  0.
        254    2    1    2    0    0  0.27531276518E+03 -0.12302137096E+03  0.33534943917E+04  0.34878950865E+04  0.91025058238E+03 0.  0.
        -24    2    4    4    0    0  0.32157281829E+03  0.34549414968E+03  0.15506573600E+04  0.16229025898E+04  0.80618129203E+02 0.  0.
         24    2    4    4    0    0 -0.46260053113E+02 -0.46851552064E+03  0.18028370317E+04  0.18649924967E+04  0.79554160142E+02 0.  0.
         13    1    3    3    0    0 -0.96862598067E+02  0.66819412384E+01 -0.65621146791E+02  0.11718850690E+03  0.00000000000E+00 0.  1.
        -13    1    3    3    0    0 -0.17845016711E+03  0.11633942973E+03 -0.58443238988E+02  0.22089576102E+03  0.00000000000E+00 0. -1.
          2    1    6    6  502    0 -0.17209705578E+01 -0.38127640013E+02  0.25404760561E+03  0.25689854922E+03  0.00000000000E+00 0. -1.
          3    1    5    5  503    0  0.33601857308E+02  0.71203878239E+01  0.10106741870E+03  0.10674459171E+03  0.00000000000E+00 0. -1.
         -4    1    5    5    0  503  0.28797096099E+03  0.33837376185E+03  0.14495899413E+04  0.15161579981E+04  0.00000000000E+00 0.  1.
         -3    1    6    6    0  502 -0.44539082555E+02 -0.43038788063E+03  0.15487894260E+04  0.16080939475E+04  0.00000000000E+00 0.  1.
<mgrwt>
<rscale>  0 0.20515603E+04</rscale>
<asrwt>0</asrwt>
<pdfrwt beam="1">  1        2 0.54272377E+00 0.20515603E+04</pdfrwt>
<pdfrwt beam="2">  1       -2 0.45888414E-01 0.20515603E+04</pdfrwt>
<totfact> 0.32555340E+00</totfact>
</mgrwt>
</event>
<event>
12    1  0.1518126E-007  0.9577168E+03  0.7818608E-02  0.9356176E-01
         -1   -1    0    0    0  501 -0.00000000000E+00  0.00000000000E+00  0.62822787770E+03  0.62822787770E+03  0.00000000000E+00 0.  1.
          1   -1    0    0  501    0  0.00000000000E+00 -0.00000000000E+00 -0.36500349376E+03  0.36500349376E+03  0.00000000000E+00 0. -1.
         23    2    1    2    0    0  0.25873754801E+02 -0.25485111336E+02  0.11008203747E+02  0.98700415186E+02  0.91113387166E+02 0.  0.
        254    2    1    2    0    0 -0.25873754801E+02  0.25485111336E+02  0.25221618020E+03  0.89453095627E+03  0.85746935111E+03 0.  0.
        -24    2    4    4    0    0 -0.25538116924E+03 -0.22556256670E+03 -0.13310990713E+03  0.37455189751E+03  0.80454107745E+02 0.  0.
         24    2    4    4    0    0  0.22950741444E+03  0.25104767803E+03  0.38532608733E+03  0.51997905877E+03  0.78761907387E+02 0.  0.
         13    1    3    3    0    0 -0.10039481265E+02  0.47355337842E+01  0.41347737145E+02  0.42811818827E+02  0.00000000000E+00 0.  1.
        -13    1    3    3    0    0  0.35913236066E+02 -0.30220645120E+02 -0.30339533398E+02  0.55888596360E+02  0.00000000000E+00 0. -1.
          2    1    6    6  502    0  0.16425541452E+03  0.18230900926E+03  0.32648141545E+03  0.40841955228E+03  0.00000000000E+00 0. -1.
          3    1    5    5  503    0 -0.25732550387E+03 -0.22037493603E+03 -0.13923826001E+03  0.36629062290E+03  0.00000000000E+00 0. -1.
         -4    1    5    5    0  503  0.19443346346E+01 -0.51876306672E+01  0.61283528799E+01  0.82612746069E+01  0.00000000000E+00 0.  1.
         -1    1    6    6    0  502  0.65251999923E+02  0.68738668770E+02  0.58844671878E+02  0.11155950648E+03  0.00000000000E+00 0.  1.
<mgrwt>
<rscale>  0 0.95771681E+03</rscale>
<asrwt>0</asrwt>
<pdfrwt beam="1">  1        1 0.56154384E-01 0.95771681E+03</pdfrwt>
<pdfrwt beam="2">  1       -1 0.96650443E-01 0.95771681E+03</pdfrwt>
<totfact> 0.70175942E+01</totfact>
</mgrwt>
</event>
<event>
12    1  0.1518126E-007  0.1015214E+04  0.7818608E-02  0.9292014E-01
         -2   -1    0    0    0  501 -0.00000000000E+00  0.00000000000E+00  0.10787247942E+04  0.10787247942E+04  0.00000000000E+00 0.  1.
          2   -1    0    0  501    0  0.00000000000E+00 -0.00000000000E+00 -0.23886040889E+03  0.23886040889E+03  0.00000000000E+00 0. -1.
         23    2    1    2    0    0 -0.22441615791E+02 -0.17319494086E+02  0.14981826770E+02  0.97566348252E+02  0.92147415499E+02 0.  0.
        254    2    1    2    0    0  0.22441615791E+02  0.17319494086E+02  0.82488255849E+03  0.12200188548E+04  0.89844931953E+03 0.  0.
        -24    2    4    4    0    0 -0.99875681701E+02  0.37244917071E+03  0.71917879806E+03  0.82032082822E+03  0.83753095890E+02 0.  0.
         24    2    4    4    0    0  0.12231729749E+03 -0.35512967662E+03  0.10570376043E+03  0.39969802658E+03  0.86640746768E+02 0.  0.
         13    1    3    3    0    0  0.81651674320E+01 -0.17075576016E+01  0.48710355969E+02  0.49419474813E+02  0.00000000000E+00 0.  1.
        -13    1    3    3    0    0 -0.30606783223E+02 -0.15611936484E+02 -0.33728529199E+02  0.48146873439E+02  0.00000000000E+00 0. -1.
          4    1    6    6  502    0  0.37040827437E+02 -0.31092139432E+02  0.27460438262E+02  0.55613125260E+02  0.00000000000E+00 0. -1.
          1    1    5    5  503    0 -0.49930939741E+02  0.98383834193E+02  0.27125914401E+03  0.29283784043E+03  0.00000000000E+00 0. -1.
         -2    1    5    5    0  503 -0.49944741959E+02  0.27406533651E+03  0.44791965405E+03  0.52748298779E+03  0.00000000000E+00 0.  1.
         -3    1    6    6    0  502  0.85276470055E+02 -0.32403753719E+03  0.78243322168E+02  0.34408490132E+03  0.00000000000E+00 0.  1.
<mgrwt>
<rscale>  0 0.10152136E+04</rscale>
<asrwt>0</asrwt>
<pdfrwt beam="1">  1        2 0.36747756E-01 0.10152136E+04</pdfrwt>
<pdfrwt beam="2">  1       -2 0.16595766E+00 0.10152136E+04</pdfrwt>
<totfact> 0.32171001E+01</totfact>
</mgrwt>
</event>
<event>
12    1  0.1518126E-007  0.1496046E+04  0.7818608E-02  0.8887086E-01
          2   -1    0    0  501    0  0.00000000000E+00  0.00000000000E+00  0.12897894661E+04  0.12897894661E+04  0.00000000000E+00 0. -1.
         -2   -1    0    0    0  501 -0.00000000000E+00 -0.00000000000E+00 -0.43382158723E+03  0.43382158723E+03  0.00000000000E+00 0.  1.
         23    2    1    2    0    0 -0.16144199908E+03 -0.35191527966E+03  0.73832021551E+03  0.83861843019E+03  0.90863896548E+02 0.  0.
        254    2    1    2    0    0  0.16144199908E+03  0.35191527966E+03  0.11764766332E+03  0.88499262311E+03  0.78705977356E+03 0.  0.
        -24    2    4    4    0    0  0.13254599904E+03  0.18068375869E+03  0.44562689401E+03  0.50518912712E+03  0.80110317560E+02 0.  0.
         24    2    4    4    0    0  0.28896000038E+02  0.17123152096E+03 -0.32797923069E+03  0.37980349599E+03  0.80778135750E+02 0.  0.
         11    1    3    3    0    0 -0.95623692477E+02 -0.10577421979E+03  0.28120249397E+03  0.31528862768E+03  0.00000000000E+00 0.  1.
        -11    1    3    3    0    0 -0.65818306601E+02 -0.24614105987E+03  0.45711772155E+03  0.52332980250E+03  0.00000000000E+00 0. -1.
          2    1    6    6  502    0  0.33428083395E+02  0.16096093988E+03 -0.23877366130E+03  0.28989432947E+03  0.00000000000E+00 0. -1.
          1    1    5    5  503    0  0.93156507093E+02  0.13570581972E+03  0.39087361242E+03  0.42411836226E+03  0.00000000000E+00 0. -1.
         -2    1    5    5    0  503  0.39389491947E+02  0.44977938978E+02  0.54753281588E+02  0.81070764861E+02  0.00000000000E+00 0.  1.
         -1    1    6    6    0  502 -0.45320833568E+01  0.10270581082E+02 -0.89205569384E+02  0.89909166520E+02  0.00000000000E+00 0.  1.
<mgrwt>
<rscale>  0 0.14960461E+04</rscale>
<asrwt>0</asrwt>
<pdfrwt beam="1">  1        2 0.19842915E+00 0.14960461E+04</pdfrwt>
<pdfrwt beam="2">  1       -2 0.66741783E-01 0.14960461E+04</pdfrwt>
<totfact> 0.33401654E+01</totfact>
</mgrwt>
</event>
<event>
12    1  0.1518126E-007  0.2154062E+04  0.7818608E-02  0.8537796E-01
         -1   -1    0    0    0  501 -0.00000000000E+00  0.00000000000E+00  0.46725424682E+03  0.46725424682E+03  0.00000000000E+00 0.  1.
          1   -1    0    0  501    0  0.00000000000E+00 -0.00000000000E+00 -0.24825787955E+04  0.24825787955E+04  0.00000000000E+00 0. -1.
         23    2    1    2    0    0 -0.72519418913E+02 -0.35925146876E+03  0.27336555853E+03  0.46591947835E+03  0.89618903070E+02 0.  0.
        254    2    1    2    0    0  0.72519418913E+02  0.35925146876E+03 -0.22886901072E+04  0.24839135640E+04  0.89297452512E+03 0.  0.
        -24    2    4    4    0    0  0.14569209894E+02 -0.11637114013E+03 -0.17610571306E+04  0.17667514442E+04  0.79586080756E+02 0.  0.
         24    2    4    4    0    0  0.57950209019E+02  0.47562260889E+03 -0.52763297663E+03  0.71716211978E+03  0.79685978736E+02 0.  0.
         11    1    3    3    0    0 -0.15815814869E+02 -0.14333321868E+02  0.40883342888E+02  0.46119755436E+02  0.00000000000E+00 0. -1.
        -11    1    3    3    0    0 -0.56703604045E+02 -0.34491814689E+03  0.23248221564E+03  0.41979972291E+03  0.00000000000E+00 0.  1.
          2    1    6    6  502    0  0.54466657577E+02  0.27606203925E+03 -0.25851598116E+03  0.38210911899E+03  0.00000000000E+00 0. -1.
          3    1    5    5  503    0 -0.19101323468E+02 -0.95880333158E+01 -0.12070926514E+03  0.12258677593E+03  0.00000000000E+00 0. -1.
         -4    1    5    5    0  503  0.33670533363E+02 -0.10678310681E+03 -0.16403478655E+04  0.16441646683E+04  0.00000000000E+00 0.  1.
         -1    1    6    6    0  502  0.34835514424E+01  0.19956056964E+03 -0.26911699547E+03  0.33505300079E+03  0.00000000000E+00 0.  1.
<mgrwt>
<rscale>  0 0.21540617E+04</rscale>
<asrwt>0</asrwt>
<pdfrwt beam="1">  1        1 0.38193519E+00 0.21540617E+04</pdfrwt>
<pdfrwt beam="2">  1       -1 0.71885270E-01 0.21540617E+04</pdfrwt>
<totfact> 0.24906270E+00</totfact>
</mgrwt>
</event>
<event>
12    1  0.1518126E-007  0.2487720E+04  0.7818608E-02  0.8407373E-01
          2   -1    0    0  501    0  0.00000000000E+00  0.00000000000E+00  0.11145075222E+04  0.11145075222E+04  0.00000000000E+00 0. -1.
         -2   -1    0    0    0  501 -0.00000000000E+00 -0.00000000000E+00 -0.13882253704E+04  0.13882253704E+04  0.00000000000E+00 0.  1.
         23    2    1    2    0    0  0.22797586179E+03 -0.88043918012E+03  0.46744814228E+03  0.10267884783E+04  0.92955204647E+02 0.  0.
        254    2    1    2    0    0 -0.22797586179E+03  0.88043918012E+03 -0.74116599047E+03  0.14759444142E+04  0.89551032658E+03 0.  0.
        -24    2    4    4    0    0 -0.46516909396E+03  0.18065717909E+03 -0.45257891368E+03  0.67875555964E+03  0.82838000386E+02 0.  0.
         24    2    4    4    0    0  0.23719323216E+03  0.69978200103E+03 -0.28858707679E+03  0.79718885459E+03  0.79196531772E+02 0.  0.
         11    1    3    3    0    0  0.66970562462E+02 -0.24573881166E+03  0.17875765389E+03  0.31117024057E+03  0.00000000000E+00 0. -1.
        -11    1    3    3    0    0  0.16100529933E+03 -0.63470036846E+03  0.28869048840E+03  0.71561823777E+03  0.00000000000E+00 0.  1.
          2    1    6    6  502    0  0.73755568459E+02  0.15259613103E+03 -0.94406886820E+02  0.19400547251E+03  0.00000000000E+00 0. -1.
          1    1    5    5  503    0 -0.68629094863E+02  0.54416897958E+02 -0.10347826883E+03  0.13556881487E+03  0.00000000000E+00 0. -1.
         -2    1    5    5    0  503 -0.39653999909E+03  0.12624028114E+03 -0.34910064484E+03  0.54318674477E+03  0.00000000000E+00 0.  1.
         -1    1    6    6    0  502  0.16343766370E+03  0.54718587000E+03 -0.19418018997E+03  0.60318338208E+03  0.00000000000E+00 0.  1.
<mgrwt>
<rscale>  0 0.24877199E+04</rscale>
<asrwt>0</asrwt>
<pdfrwt beam="1">  1        2 0.17146270E+00 0.24877199E+04</pdfrwt>
<pdfrwt beam="2">  1       -2 0.21357313E+00 0.24877199E+04</pdfrwt>
<totfact> 0.20692439E+00</totfact>
</mgrwt>
</event>
<event>
12    1  0.1518126E-007  0.1375524E+04  0.7818608E-02  0.8971729E-01
         -2   -1    0    0    0  501 -0.00000000000E+00  0.00000000000E+00  0.29213191680E+03  0.29213191680E+03  0.00000000000E+00 0. -1.
          2   -1    0    0  501    0  0.00000000000E+00 -0.00000000000E+00 -0.16191872921E+04  0.16191872921E+04  0.00000000000E+00 0.  1.
         23    2    1    2    0    0 -0.18895568585E+03  0.23306328045E+03 -0.20096585836E+02  0.31425092748E+03  0.91252554751E+02 0.  0.
        254    2    1    2    0    0  0.18895568585E+03 -0.23306328045E+03 -0.13069587895E+04  0.15970682814E+04  0.86744629473E+03 0.  0.
        -24    2    4    4    0    0  0.47119327722E+03 -0.57750955415E+02 -0.10908020301E+04  0.11922286053E+04  0.78750879754E+02 0.  0.
         24    2    4    4    0    0 -0.28223759137E+03 -0.17531232504E+03 -0.21615675937E+03  0.40483967613E+03  0.82334375899E+02 0.  0.
         13    1    3    3    0    0 -0.81684721261E+02  0.45320334282E+02  0.16754323587E+02  0.94905393660E+02  0.00000000000E+00 0. -1.
        -13    1    3    3    0    0 -0.10727096459E+03  0.18774294617E+03 -0.36850909423E+02  0.21934553382E+03  0.00000000000E+00 0.  1.
          4    1    6    6  502    0 -0.71156681822E+02 -0.77564074246E+02 -0.38261198502E+02  0.11199722449E+03  0.00000000000E+00 0. -1.
          3    1    5    5  503    0  0.20427384418E+03 -0.56458919645E+02 -0.42490336387E+03  0.47482447457E+03  0.00000000000E+00 0. -1.
         -4    1    5    5    0  503  0.26691943303E+03 -0.12920357699E+01 -0.66589866624E+03  0.71740413073E+03  0.00000000000E+00 0.  1.
         -3    1    6    6    0  502 -0.21108090955E+03 -0.97748250792E+02 -0.17789556087E+03  0.29284245164E+03  0.00000000000E+00 0.  1.
<mgrwt>
<rscale>  0 0.13755236E+04</rscale>
<asrwt>0</asrwt>
<pdfrwt beam="1">  1        2 0.24910573E+00 0.13755236E+04</pdfrwt>
<pdfrwt beam="2">  1       -2 0.44943372E-01 0.13755236E+04</pdfrwt>
<totfact> 0.49792619E+01</totfact>
</mgrwt>
</event>
<event>
12    1  0.1518126E-007  0.1775027E+04  0.7818608E-02  0.8719694E-01
         -2   -1    0    0    0  501 -0.00000000000E+00  0.00000000000E+00  0.48584771918E+03  0.48584771918E+03  0.00000000000E+00 0.  1.
          2   -1    0    0  501    0  0.00000000000E+00 -0.00000000000E+00 -0.16212498133E+04  0.16212498133E+04  0.00000000000E+00 0. -1.
         23    2    1    2    0    0 -0.24651744150E+03  0.35513467531E+03  0.15051035943E+03  0.46668901129E+03  0.90850307592E+02 0.  0.
        254    2    1    2    0    0  0.24651744150E+03 -0.35513467531E+03 -0.12859124535E+04  0.16404085212E+04  0.92221352821E+03 0.  0.
        -24    2    4    4    0    0  0.47557408415E+03  0.59157659775E+02 -0.38608265645E+03  0.62054384345E+03  0.79652406176E+02 0.  0.
         24    2    4    4    0    0 -0.22905664265E+03 -0.41429233509E+03 -0.89982979708E+03  0.10198646777E+04  0.79531205788E+02 0.  0.
         11    1    3    3    0    0 -0.21487933086E+03  0.25452420270E+03  0.13772360122E+03  0.36044900739E+03  0.00000000000E+00 0.  1.
        -11    1    3    3    0    0 -0.31638110640E+02  0.10061047261E+03  0.12786758206E+02  0.10624000390E+03  0.00000000000E+00 0. -1.
          4    1    6    6  502    0 -0.12774081766E+03 -0.30631901418E+03 -0.61358598313E+03  0.69759358773E+03  0.00000000000E+00 0. -1.
          1    1    5    5  503    0  0.39843799984E+03  0.70095632432E+02 -0.34886352320E+03  0.53420220443E+03  0.00000000000E+00 0. -1.
         -2    1    5    5    0  503  0.77136084315E+02 -0.10937972657E+02 -0.37219133256E+02  0.86341639026E+02  0.00000000000E+00 0.  1.
         -3    1    6    6    0  502 -0.10131582499E+03 -0.10797332091E+03 -0.28624381395E+03  0.32227108999E+03  0.00000000000E+00 0.  1.
<mgrwt>
<rscale>  0 0.17750274E+04</rscale>
<asrwt>0</asrwt>
<pdfrwt beam="1">  1        2 0.24942305E+00 0.17750274E+04</pdfrwt>
<pdfrwt beam="2">  1       -2 0.74745803E-01 0.17750274E+04</pdfrwt>
<totfact> 0.16512633E+01</totfact>
</mgrwt>
</event>
<event>
12    1  0.1518126E-007  0.1520383E+04  0.7818608E-02  0.8871010E-01
         -1   -1    0    0    0  501 -0.00000000000E+00  0.00000000000E+00  0.58559011065E+03  0.58559011065E+03  0.00000000000E+00 0.  1.
          1   -1    0    0  501    0  0.00000000000E+00 -0.00000000000E+00 -0.98685319649E+03  0.98685319649E+03  0.00000000000E+00 0. -1.
         23    2    1    2    0    0 -0.24719640027E+03 -0.20691922818E+03  0.25152298569E+03  0.41787893828E+03  0.86240172934E+02 0.  0.
        254    2    1    2    0    0  0.24719640027E+03  0.20691922818E+03 -0.65278607153E+03  0.11545643689E+04  0.89608459387E+03 0.  0.
        -24    2    4    4    0    0  0.89484398190E+02 -0.32133606357E+03 -0.43955037942E+03  0.55821809632E+03  0.84490139904E+02 0.  0.
         24    2    4    4    0    0  0.15771200208E+03  0.52825529175E+03 -0.21323569211E+03  0.59634627254E+03  0.78947371824E+02 0.  0.
         11    1    3    3    0    0 -0.24462995882E+03 -0.17952912421E+03  0.24396360183E+03  0.38934915206E+03  0.00000000000E+00 0.  1.
        -11    1    3    3    0    0 -0.25664414506E+01 -0.27390103973E+02  0.75593838630E+01  0.28529786220E+02  0.00000000000E+00 0. -1.
          2    1    6    6  502    0  0.75472489948E+02  0.17036449604E+03 -0.10316587012E+03  0.21298674843E+03  0.00000000000E+00 0. -1.
          3    1    5    5  503    0  0.49865452649E+02 -0.95303050118E+02 -0.90911066474E+02  0.14083343615E+03  0.00000000000E+00 0. -1.
         -4    1    5    5    0  503  0.39618945541E+02 -0.22603301345E+03 -0.34863931295E+03  0.41738466017E+03  0.00000000000E+00 0.  1.
         -1    1    6    6    0  502  0.82239512136E+02  0.35789079571E+03 -0.11006982199E+03  0.38335952411E+03  0.00000000000E+00 0.  1.
<mgrwt>
<rscale>  0 0.15203835E+04</rscale>
<asrwt>0</asrwt>
<pdfrwt beam="1">  1        1 0.15182357E+00 0.15203835E+04</pdfrwt>
<pdfrwt beam="2">  1       -1 0.90090787E-01 0.15203835E+04</pdfrwt>
<totfact> 0.18040391E+01</totfact>
</mgrwt>
</event>
<event>
12    1  0.1518126E-007  0.1207388E+04  0.7818608E-02  0.9106414E-01
         -2   -1    0    0    0  501 -0.00000000000E+00  0.00000000000E+00  0.39119303726E+03  0.39119303726E+03  0.00000000000E+00 0.  1.
          2   -1    0    0  501    0  0.00000000000E+00 -0.00000000000E+00 -0.93162837067E+03  0.93162837067E+03  0.00000000000E+00 0. -1.
         23    2    1    2    0    0  0.69393041790E+02  0.15890418127E+03  0.84836749989E+02  0.21344255336E+03  0.91074235437E+02 0.  0.
        254    2    1    2    0    0 -0.69393041790E+02 -0.15890418127E+03 -0.62527208341E+03  0.11093788546E+04  0.89982794556E+03 0.  0.
        -24    2    4    4    0    0  0.10105508770E+03  0.12589954492E+03 -0.72960707153E+03  0.75184485289E+03  0.82954070573E+02 0.  0.
         24    2    4    4    0    0 -0.17044812949E+03 -0.28480372619E+03  0.10433498812E+03  0.35753400169E+03  0.82334958028E+02 0.  0.
         11    1    3    3    0    0 -0.20324147417E+02  0.51790547595E+02  0.17373633588E+02  0.58285289160E+02  0.00000000000E+00 0. -1.
        -11    1    3    3    0    0  0.89717189206E+02  0.10711363368E+03  0.67463116401E+02  0.15515726420E+03  0.00000000000E+00 0.  1.
          4    1    6    6  502    0 -0.84439560178E+02 -0.10207600114E+03  0.78354122748E+02  0.15391204593E+03  0.00000000000E+00 0. -1.
          3    1    5    5  503    0 -0.72169226584E+01 -0.56574437086E+01 -0.69544784072E+02  0.70146757826E+02  0.00000000000E+00 0. -1.
         -4    1    5    5    0  503  0.10827201036E+03  0.13155698863E+03 -0.66006228746E+03  0.68169809506E+03  0.00000000000E+00 0.  1.
         -3    1    6    6    0  502 -0.86008569314E+02 -0.18272772505E+03  0.25980865374E+02  0.20362195575E+03  0.00000000000E+00 0.  1.
<mgrwt>
<rscale>  0 0.12073881E+04</rscale>
<asrwt>0</asrwt>
<pdfrwt beam="1">  1        2 0.14332744E+00 0.12073881E+04</pdfrwt>
<pdfrwt beam="2">  1       -2 0.60183545E-01 0.12073881E+04</pdfrwt>
<totfact> 0.70876114E+01</totfact>
</mgrwt>
</event>
<event>
12    1  0.1518126E-007  0.1168651E+04  0.7818608E-02  0.9140748E-01
         -1   -1    0    0    0  501 -0.00000000000E+00  0.00000000000E+00  0.34213885572E+03  0.34213885572E+03  0.00000000000E+00 0.  1.
          1   -1    0    0  501    0  0.00000000000E+00 -0.00000000000E+00 -0.99794620040E+03  0.99794620040E+03  0.00000000000E+00 0. -1.
         23    2    1    2    0    0  0.15265483667E+03 -0.11615557548E+03 -0.12498419777E+02  0.21409795933E+03  0.94266159447E+02 0.  0.
        254    2    1    2    0    0 -0.15265483667E+03  0.11615557548E+03 -0.64330892490E+03  0.11259870968E+04  0.90399388958E+03 0.  0.
        -24    2    4    4    0    0  0.29693361939E+03  0.14722049964E+03 -0.56746378056E+03  0.66194729897E+03  0.79470966559E+02 0.  0.
         24    2    4    4    0    0 -0.44958845607E+03 -0.31064924164E+02 -0.75845144337E+02  0.46403979782E+03  0.80533463196E+02 0.  0.
         13    1    3    3    0    0  0.13944688366E+03 -0.70864647757E+02 -0.37289400050E+02  0.16080339244E+03  0.00000000000E+00 0. -1.
        -13    1    3    3    0    0  0.13207953010E+02 -0.45290927718E+02  0.24790980273E+02  0.53294566883E+02  0.00000000000E+00 0.  1.
          4    1    6    6  502    0 -0.78255966170E+02 -0.18611863885E+02 -0.42577043566E+02  0.91012100059E+02  0.00000000000E+00 0. -1.
          1    1    5    5  503    0  0.46380988656E+02  0.45306696676E+02 -0.68079209546E+02  0.94014209802E+02  0.00000000000E+00 0. -1.
         -2    1    5    5    0  503  0.25055263074E+03  0.10191380296E+03 -0.49938457102E+03  0.56793308917E+03  0.00000000000E+00 0.  1.
         -3    1    6    6    0  502 -0.37133248990E+03 -0.12453060279E+02 -0.33268100771E+02  0.37302769776E+03  0.00000000000E+00 0.  1.
<mgrwt>
<rscale>  0 0.11686508E+04</rscale>
<asrwt>0</asrwt>
<pdfrwt beam="1">  1        1 0.15353018E+00 0.11686508E+04</pdfrwt>
<pdfrwt beam="2">  1       -1 0.52636748E-01 0.11686508E+04</pdfrwt>
<totfact> 0.54782189E+01</totfact>
</mgrwt>
</event>
<event>
12    1  0.1518126E-007  0.1502436E+04  0.7818608E-02  0.8882835E-01
         -2   -1    0    0    0  501 -0.00000000000E+00  0.00000000000E+00  0.29506449564E+03  0.29506449564E+03  0.00000000000E+00 0.  1.
          2   -1    0    0  501    0  0.00000000000E+00 -0.00000000000E+00 -0.19125587414E+04  0.19125587414E+04  0.00000000000E+00 0. -1.
         23    2    1    2    0    0 -0.22512948268E+03 -0.13313669835E+03  0.61454842256E+02  0.28333975527E+03  0.89978079884E+02 0.  0.
        254    2    1    2    0    0  0.22512948268E+03  0.13313669835E+03 -0.16789490880E+04  0.19242834818E+04  0.90309922691E+03 0.  0.
        -24    2    4    4    0    0  0.14404846349E+03 -0.37293536928E+03 -0.90189272485E+03  0.98983348325E+03  0.80802771817E+02 0.  0.
         24    2    4    4    0    0  0.81081019191E+02  0.50607206763E+03 -0.77705636316E+03  0.93444999851E+03  0.81836048807E+02 0.  0.
         11    1    3    3    0    0 -0.10809546344E+03 -0.75375940246E+02  0.75827186394E+02  0.15203921790E+03  0.00000000000E+00 0. -1.
        -11    1    3    3    0    0 -0.11703401924E+03 -0.57760758108E+02 -0.14372344138E+02  0.13130053737E+03  0.00000000000E+00 0.  1.
          4    1    6    6  502    0 -0.12206829087E+02  0.10804452400E+03 -0.19323038936E+03  0.22172191866E+03  0.00000000000E+00 0. -1.
          3    1    5    5  503    0 -0.18580954584E+01  0.30374994923E+01 -0.31528609138E+01  0.47559913625E+01  0.00000000000E+00 0. -1.
         -4    1    5    5    0  503  0.14590655894E+03 -0.37597286877E+03 -0.89873986393E+03  0.98507749188E+03  0.00000000000E+00 0.  1.
         -3    1    6    6    0  502  0.93287848278E+02  0.39802754363E+03 -0.58382597380E+03  0.71272807985E+03  0.00000000000E+00 0.  1.
<mgrwt>
<rscale>  0 0.15024356E+04</rscale>
<asrwt>0</asrwt>
<pdfrwt beam="1">  1        2 0.29423982E+00 0.15024356E+04</pdfrwt>
<pdfrwt beam="2">  1       -2 0.45394536E-01 0.15024356E+04</pdfrwt>
<totfact> 0.33224801E+01</totfact>
</mgrwt>
</event>
<event>
12    1  0.1518126E-007  0.1544489E+04  0.7818608E-02  0.8855395E-01
         -1   -1    0    0    0  501 -0.00000000000E+00  0.00000000000E+00  0.33768005713E+03  0.33768005713E+03  0.00000000000E+00 0.  1.
          1   -1    0    0  501    0  0.00000000000E+00 -0.00000000000E+00 -0.17660557065E+04  0.17660557065E+04  0.00000000000E+00 0. -1.
         23    2    1    2    0    0  0.38211765165E+03  0.49034259251E+02 -0.32310662330E+02  0.39713301816E+03  0.90842704307E+02 0.  0.
        254    2    1    2    0    0 -0.38211765165E+03 -0.49034259251E+02 -0.13960649871E+04  0.17066027455E+04  0.90281627399E+03 0.  0.
        -24    2    4    4    0    0  0.17325528366E+03 -0.19941630487E+03 -0.11023924097E+03  0.29547545878E+03  0.73272099249E+02 0.  0.
         24    2    4    4    0    0 -0.55537293531E+03  0.15038204562E+03 -0.12858257461E+04  0.14111272867E+04  0.82936801748E+02 0.  0.
         11    1    3    3    0    0  0.23107694787E+02 -0.11370838335E+02 -0.20446660818E+02  0.32883543931E+02  0.00000000000E+00 0.  1.
        -11    1    3    3    0    0  0.35900995686E+03  0.60405097585E+02 -0.11864001512E+02  0.36424947423E+03  0.00000000000E+00 0. -1.
          2    1    6    6  502    0 -0.13929713427E+03  0.45359931732E+02 -0.24729040828E+03  0.28742609667E+03  0.00000000000E+00 0. -1.
          3    1    5    5  503    0  0.10350056304E+03 -0.13006960241E+03 -0.10575322556E+03  0.19701322986E+03  0.00000000000E+00 0. -1.
         -4    1    5    5    0  503  0.69754720619E+02 -0.69346702461E+02 -0.44860154043E+01  0.98462228926E+02  0.00000000000E+00 0.  1.
         -1    1    6    6    0  502 -0.41607580104E+03  0.10502211389E+03 -0.10385353378E+04  0.11237011901E+04  0.00000000000E+00 0.  1.
<mgrwt>
<rscale>  0 0.15444893E+04</rscale>
<asrwt>0</asrwt>
<pdfrwt beam="1">  1        1 0.27170088E+00 0.15444893E+04</pdfrwt>
<pdfrwt beam="2">  1       -1 0.51950777E-01 0.15444893E+04</pdfrwt>
<totfact> 0.15450396E+01</totfact>
</mgrwt>
</event>
<event>
12    1  0.1518126E-007  0.1524274E+04  0.7818608E-02  0.8868470E-01
          1   -1    0    0  501    0  0.00000000000E+00  0.00000000000E+00  0.20930029281E+04  0.20930029281E+04  0.00000000000E+00 0.  1.
         -1   -1    0    0    0  501 -0.00000000000E+00 -0.00000000000E+00 -0.27752108659E+03  0.27752108659E+03  0.00000000000E+00 0. -1.
         23    2    1    2    0    0 -0.71774322961E+02  0.96606091012E+02  0.13819515327E+04  0.13900637331E+04  0.89458666665E+02 0.  0.
        254    2    1    2    0    0  0.71774322961E+02 -0.96606091012E+02  0.43353030877E+03  0.98046028157E+03  0.87113118693E+03 0.  0.
        -24    2    4    4    0    0 -0.29527292920E+03 -0.31874657918E+03  0.24531730419E+03  0.50523199931E+03  0.79330378366E+02 0.  0.
         24    2    4    4    0    0  0.36704725216E+03  0.22214048816E+03  0.18821300458E+03  0.47522828226E+03  0.79672475565E+02 0.  0.
         13    1    3    3    0    0  0.48806798060E+01  0.29777406743E+01  0.44171466173E+01  0.72248985551E+01  0.00000000000E+00 0. -1.
        -13    1    3    3    0    0 -0.76655002767E+02  0.93628350338E+02  0.13775343861E+04  0.13828388345E+04  0.00000000000E+00 0.  1.
          2    1    6    6  502    0  0.96310010252E+02  0.85194729548E+02  0.87564418280E+02  0.15556762956E+03  0.00000000000E+00 0. -1.
          1    1    5    5  503    0 -0.15704841911E+03 -0.15279337081E+03  0.80050584158E+02  0.23327690869E+03  0.00000000000E+00 0. -1.
         -2    1    5    5    0  503 -0.13822451010E+03 -0.16595320837E+03  0.16526672003E+03  0.27195509061E+03  0.00000000000E+00 0.  1.
         -1    1    6    6    0  502  0.27073724191E+03  0.13694575862E+03  0.10064858630E+03  0.31966065270E+03  0.00000000000E+00 0.  1.
<mgrwt>
<rscale>  0 0.15242735E+04</rscale>
<asrwt>0</asrwt>
<pdfrwt beam="1">  1        1 0.32200044E+00 0.15242735E+04</pdfrwt>
<pdfrwt beam="2">  1       -1 0.42695553E-01 0.15242735E+04</pdfrwt>
<totfact> 0.13445953E+01</totfact>
</mgrwt>
</event>
<event>
12    1  0.1518126E-007  0.2022551E+04  0.7818608E-02  0.8596149E-01
          1   -1    0    0  501    0  0.00000000000E+00  0.00000000000E+00  0.38857986586E+03  0.38857986586E+03  0.00000000000E+00 0. -1.
         -1   -1    0    0    0  501 -0.00000000000E+00 -0.00000000000E+00 -0.26318358006E+04  0.26318358006E+04  0.00000000000E+00 0.  1.
         23    2    1    2    0    0  0.57155702435E+03 -0.55525907181E+03 -0.85338867684E+03  0.11711582988E+04  0.91375370094E+02 0.  0.
        254    2    1    2    0    0 -0.57155702435E+03  0.55525907181E+03 -0.13898672579E+04  0.18492573677E+04  0.92359717858E+03 0.  0.
        -24    2    4    4    0    0  0.13658594953E+03  0.16126635438E+02 -0.70469122878E+03  0.72316974717E+03  0.86423175823E+02 0.  0.
         24    2    4    4    0    0 -0.70814297389E+03  0.53913243637E+03 -0.68517602916E+03  0.11260876205E+04  0.80479082372E+02 0.  0.
         11    1    3    3    0    0 -0.21998992136E+01 -0.20165750598E-01 -0.81395322052E+01  0.84316041016E+01  0.00000000000E+00 0. -1.
        -11    1    3    3    0    0  0.57375692357E+03 -0.55523890606E+03 -0.84524914464E+03  0.11627266947E+04  0.00000000000E+00 0.  1.
          4    1    6    6  502    0 -0.32455639703E+03  0.26753839928E+03 -0.37001179593E+03  0.56019851755E+03  0.00000000000E+00 0. -1.
          1    1    5    5  503    0  0.12593676893E+03 -0.44301301469E+01 -0.44647364534E+03  0.46391638449E+03  0.00000000000E+00 0. -1.
         -2    1    5    5    0  503  0.10649180605E+02  0.20556765585E+02 -0.25821758344E+03  0.25925336267E+03  0.00000000000E+00 0.  1.
         -3    1    6    6    0  502 -0.38358657686E+03  0.27159403709E+03 -0.31516423323E+03  0.56588910295E+03  0.00000000000E+00 0.  1.
<mgrwt>
<rscale>  0 0.20225513E+04</rscale>
<asrwt>0</asrwt>
<pdfrwt beam="1">  1        1 0.59781517E-01 0.20225513E+04</pdfrwt>
<pdfrwt beam="2">  1       -1 0.40489782E+00 0.20225513E+04</pdfrwt>
<totfact> 0.38296938E-01</totfact>
</mgrwt>
</event>
<event>
12    1  0.1518126E-007  0.1576464E+04  0.7818608E-02  0.8835139E-01
          1   -1    0    0  501    0  0.00000000000E+00  0.00000000000E+00  0.13778476170E+04  0.13778476170E+04  0.00000000000E+00 0. -1.
         -1   -1    0    0    0  501 -0.00000000000E+00 -0.00000000000E+00 -0.45092748687E+03  0.45092748687E+03  0.00000000000E+00 0.  1.
         23    2    1    2    0    0 -0.15382886938E+03 -0.50127730013E+03  0.37785603230E+03  0.65243443111E+03  0.89181012985E+02 0.  0.
        254    2    1    2    0    0  0.15382886938E+03  0.50127730013E+03  0.54906409788E+03  0.11763406728E+04  0.89853421873E+03 0.  0.
        -24    2    4    4    0    0  0.66432746436E+02  0.33285480918E+03 -0.19845071386E+03  0.40113391895E+03  0.79499064791E+02 0.  0.
         24    2    4    4    0    0  0.87396122945E+02  0.16842249094E+03  0.74751481174E+03  0.77520675385E+03  0.78504138040E+02 0.  0.
         11    1    3    3    0    0 -0.15353605365E+02 -0.24681055717E+02  0.49296686313E+02  0.57228061215E+02  0.00000000000E+00 0.  1.
        -11    1    3    3    0    0 -0.13847526402E+03 -0.47659624441E+03  0.32855934599E+03  0.59520636990E+03  0.00000000000E+00 0. -1.
          4    1    6    6  502    0  0.15470505749E+02  0.10365049301E+03  0.31432907473E+03  0.33133899329E+03  0.00000000000E+00 0. -1.
          3    1    5    5  503    0  0.70681442444E+01  0.10207034973E+03 -0.10072832245E+03  0.14357753968E+03  0.00000000000E+00 0. -1.
         -4    1    5    5    0  503  0.59364602191E+02  0.23078445945E+03 -0.97722391414E+02  0.25755637927E+03  0.00000000000E+00 0.  1.
         -3    1    6    6    0  502  0.71925617196E+02  0.64771997931E+02  0.43318573700E+03  0.44386776056E+03  0.00000000000E+00 0.  1.
<mgrwt>
<rscale>  0 0.15764636E+04</rscale>
<asrwt>0</asrwt>
<pdfrwt beam="1">  1        1 0.21197655E+00 0.15764636E+04</pdfrwt>
<pdfrwt beam="2">  1       -1 0.69373460E-01 0.15764636E+04</pdfrwt>
<totfact> 0.16091068E+01</totfact>
</mgrwt>
</event>
<event>
12    1  0.1518126E-007  0.3230768E+04  0.7818608E-02  0.8180738E-01
         -2   -1    0    0    0  501 -0.00000000000E+00  0.00000000000E+00  0.72279185983E+03  0.72279185983E+03  0.00000000000E+00 0.  1.
          2   -1    0    0  501    0  0.00000000000E+00 -0.00000000000E+00 -0.36102589700E+04  0.36102589700E+04  0.00000000000E+00 0. -1.
         23    2    1    2    0    0 -0.40308379283E+03 -0.13732266673E+04 -0.78026340500E+03  0.16322570965E+04  0.84995436297E+02 0.  0.
        254    2    1    2    0    0  0.40308379283E+03  0.13732266673E+04 -0.21072037052E+04  0.27007937333E+04  0.89763651390E+03 0.  0.
        -24    2    4    4    0    0 -0.11699816870E+03  0.55932810060E+03 -0.30088825081E+03  0.65072957077E+03  0.79867009421E+02 0.  0.
         24    2    4    4    0    0  0.52008196152E+03  0.81389856667E+03 -0.18063154544E+04  0.20500641625E+04  0.84091773573E+02 0.  0.
         11    1    3    3    0    0 -0.97159617591E+02 -0.24336518436E+03 -0.16778617850E+03  0.31115720455E+03  0.00000000000E+00 0.  1.
        -11    1    3    3    0    0 -0.30592417524E+03 -0.11298614829E+04 -0.61247722650E+03  0.13210998920E+04  0.00000000000E+00 0. -1.
          2    1    6    6  502    0  0.61159495942E+02  0.14455436868E+03 -0.25952651472E+03  0.30329929326E+03  0.00000000000E+00 0. -1.
          1    1    5    5  503    0 -0.20474121270E+02  0.99960619173E+02 -0.90305266966E+02  0.13625841724E+03  0.00000000000E+00 0. -1.
         -2    1    5    5    0  503 -0.96524047427E+02  0.45936748143E+03 -0.21058298385E+03  0.51447115353E+03  0.00000000000E+00 0.  1.
         -1    1    6    6    0  502  0.45892246558E+03  0.66934419799E+03 -0.15467889396E+04  0.17467648693E+04  0.00000000000E+00 0.  1.
<mgrwt>
<rscale>  0 0.32307682E+04</rscale>
<asrwt>0</asrwt>
<pdfrwt beam="1">  1        2 0.55542446E+00 0.32307682E+04</pdfrwt>
<pdfrwt beam="2">  1       -2 0.11119875E+00 0.32307682E+04</pdfrwt>
<totfact> 0.36431281E-01</totfact>
</mgrwt>
</event>
<event>
12    1  0.1518126E-007  0.1159179E+04  0.7818608E-02  0.9149357E-01
         -1   -1    0    0    0  501 -0.00000000000E+00  0.00000000000E+00  0.20128343068E+03  0.20128343068E+03  0.00000000000E+00 0.  1.
          1   -1    0    0  501    0  0.00000000000E+00 -0.00000000000E+00 -0.16689098163E+04  0.16689098163E+04  0.00000000000E+00 0. -1.
         23    2    1    2    0    0  0.57850270876E+01 -0.32449539230E+02  0.47956337052E+02  0.10704792916E+03  0.89849928994E+02 0.  0.
        254    2    1    2    0    0 -0.57850270876E+01  0.32449539230E+02 -0.15155827226E+04  0.17631453178E+04  0.90033548377E+03 0.  0.
        -24    2    4    4    0    0  0.15199517458E+03  0.41658245172E+03 -0.55997067121E+03  0.71813891667E+03  0.74248763237E+02 0.  0.
         24    2    4    4    0    0 -0.15778020167E+03 -0.38413291249E+03 -0.95561205142E+03  0.10450064011E+04  0.79945600579E+02 0.  0.
         13    1    3    3    0    0  0.12495405367E+02 -0.46801346032E+02 -0.78175904672E+01  0.49067462400E+02  0.00000000000E+00 0.  1.
        -13    1    3    3    0    0 -0.67103782799E+01  0.14351806802E+02  0.55773927519E+02  0.57980466763E+02  0.00000000000E+00 0. -1.
          4    1    6    6  502    0  0.41287583132E+01 -0.35505004061E+02 -0.52708308961E+02  0.63685302795E+02  0.00000000000E+00 0. -1.
          3    1    5    5  503    0  0.63977224175E+01  0.38255965696E+02 -0.86759859781E+02  0.95035377795E+02  0.00000000000E+00 0. -1.
         -4    1    5    5    0  503  0.14559745216E+03  0.37832648602E+03 -0.47321081143E+03  0.62310353887E+03  0.00000000000E+00 0.  1.
         -3    1    6    6    0  502 -0.16190895998E+03 -0.34862790843E+03 -0.90290374246E+03  0.98132109832E+03  0.00000000000E+00 0.  1.
<mgrwt>
<rscale>  0 0.11591788E+04</rscale>
<asrwt>0</asrwt>
<pdfrwt beam="1">  1        1 0.25675535E+00 0.11591788E+04</pdfrwt>
<pdfrwt beam="2">  1       -1 0.30966682E-01 0.11591788E+04</pdfrwt>
<totfact> 0.47949770E+01</totfact>
</mgrwt>
</event>
<event>
12    1  0.1518126E-007  0.1636609E+04  0.7818608E-02  0.8798368E-01
         -2   -1    0    0    0  501 -0.00000000000E+00  0.00000000000E+00  0.27168618056E+03  0.27168618056E+03  0.00000000000E+00 0.  1.
          2   -1    0    0  501    0  0.00000000000E+00 -0.00000000000E+00 -0.24646887280E+04  0.24646887280E+04  0.00000000000E+00 0. -1.
         23    2    1    2    0    0 -0.36167864062E+03  0.43613713319E+03 -0.74745787560E+03  0.94221332325E+03  0.89697450860E+02 0.  0.
        254    2    1    2    0    0  0.36167864062E+03 -0.43613713319E+03 -0.14455446719E+04  0.17941615854E+04  0.89910475357E+03 0.  0.
        -24    2    4    4    0    0 -0.18835345143E+03  0.15022269708E+02 -0.81460461307E+03  0.83993677907E+03  0.78806255792E+02 0.  0.
         24    2    4    4    0    0  0.55003209205E+03 -0.45115940290E+03 -0.63094005882E+03  0.95422480628E+03  0.79871859776E+02 0.  0.
         11    1    3    3    0    0 -0.75728868050E+02  0.15346002695E+03 -0.24014284767E+03  0.29487866762E+03  0.00000000000E+00 0. -1.
        -11    1    3    3    0    0 -0.28594977257E+03  0.28267710624E+03 -0.50731502793E+03  0.64733465563E+03  0.00000000000E+00 0.  1.
          2    1    6    6  502    0  0.48025898911E+03 -0.42158050667E+03 -0.54751365154E+03  0.84151649945E+03  0.00000000000E+00 0. -1.
          1    1    5    5  503    0 -0.13321930764E+03  0.23745652483E+01 -0.69466097119E+03  0.70732375005E+03  0.00000000000E+00 0. -1.
         -2    1    5    5    0  503 -0.55134143789E+02  0.12647704460E+02 -0.11994364187E+03  0.13261302902E+03  0.00000000000E+00 0.  1.
         -1    1    6    6    0  502  0.69773102941E+02 -0.29578896224E+02 -0.83426407282E+02  0.11270830683E+03  0.00000000000E+00 0.  1.
<mgrwt>
<rscale>  0 0.16366085E+04</rscale>
<asrwt>0</asrwt>
<pdfrwt beam="1">  1        2 0.37918289E+00 0.16366085E+04</pdfrwt>
<pdfrwt beam="2">  1       -2 0.41797873E-01 0.16366085E+04</pdfrwt>
<totfact> 0.18958964E+01</totfact>
</mgrwt>
</event>
<event>
12    1  0.1518126E-007  0.2735455E+04  0.7818608E-02  0.8323592E-01
          2   -1    0    0  501    0  0.00000000000E+00  0.00000000000E+00  0.27736094353E+04  0.27736094353E+04  0.00000000000E+00 0. -1.
         -2   -1    0    0    0  501 -0.00000000000E+00 -0.00000000000E+00 -0.67445613284E+03  0.67445613284E+03  0.00000000000E+00 0.  1.
         23    2    1    2    0    0  0.27964619076E+03 -0.58349959975E+03  0.22360813866E+04  0.23296829088E+04  0.93213267786E+02 0.  0.
        254    2    1    2    0    0 -0.27964619076E+03  0.58349959975E+03 -0.13692808410E+03  0.11183826594E+04  0.90186290400E+03 0.  0.
        -24    2    4    4    0    0  0.29613487087E+03  0.32141893640E+02 -0.61086052155E+02  0.31368821364E+03  0.77070270153E+02 0.  0.
         24    2    4    4    0    0 -0.57578106163E+03  0.55135770611E+03 -0.75842031942E+02  0.80469444571E+03  0.79132712170E+02 0.  0.
         13    1    3    3    0    0  0.17753992134E+02 -0.63130275449E+01  0.90508206844E+02  0.92448872679E+02  0.00000000000E+00 0.  1.
        -13    1    3    3    0    0  0.26189219863E+03 -0.57718657220E+03  0.21455731797E+04  0.22372340361E+04  0.00000000000E+00 0. -1.
          4    1    6    6  502    0 -0.29835636608E+03  0.34001505101E+03 -0.43203999617E+02  0.45441538451E+03  0.00000000000E+00 0. -1.
          3    1    5    5  503    0  0.92450226633E+02 -0.16028989649E+02 -0.44159335253E+02  0.10370159017E+03  0.00000000000E+00 0. -1.
         -4    1    5    5    0  503  0.20368464423E+03  0.48170883289E+02 -0.16926716902E+02  0.20998662347E+03  0.00000000000E+00 0.  1.
         -3    1    6    6    0  502 -0.27742469555E+03  0.21134265510E+03 -0.32638032325E+02  0.35027906120E+03  0.00000000000E+00 0.  1.
<mgrwt>
<rscale>  0 0.27354545E+04</rscale>
<asrwt>0</asrwt>
<pdfrwt beam="1">  1        2 0.42670914E+00 0.27354545E+04</pdfrwt>
<pdfrwt beam="2">  1       -2 0.10376248E+00 0.27354545E+04</pdfrwt>
<totfact> 0.15865364E+00</totfact>
</mgrwt>
</event>
<event>
12    1  0.1518126E-007  0.1124444E+04  0.7818608E-02  0.9181689E-01
          1   -1    0    0  501    0  0.00000000000E+00  0.00000000000E+00  0.72200868013E+03  0.72200868013E+03  0.00000000000E+00 0. -1.
         -1   -1    0    0    0  501 -0.00000000000E+00 -0.00000000000E+00 -0.43779756957E+03  0.43779756957E+03  0.00000000000E+00 0.  1.
         23    2    1    2    0    0 -0.84195720385E+02 -0.11536427386E+03  0.16571073131E+03  0.23607052279E+03  0.88720968438E+02 0.  0.
        254    2    1    2    0    0  0.84195720385E+02  0.11536427386E+03  0.11850037925E+03  0.92373572691E+03  0.90490193848E+03 0.  0.
        -24    2    4    4    0    0 -0.32158503089E+02 -0.29916292780E+03 -0.21150799530E+03  0.37624085781E+03  0.79302738389E+02 0.  0.
         24    2    4    4    0    0  0.11635422347E+03  0.41452720166E+03  0.33000837455E+03  0.54749486910E+03  0.73986472957E+02 0.  0.
         11    1    3    3    0    0 -0.44705476176E+02 -0.10067835565E+02  0.88493298404E+02  0.99654426773E+02  0.00000000000E+00 0. -1.
        -11    1    3    3    0    0 -0.39490244209E+02 -0.10529643830E+03  0.77217432909E+02  0.13641609601E+03  0.00000000000E+00 0.  1.
          4    1    6    6  502    0  0.61161193677E+02  0.28119445095E+03  0.25676026222E+03  0.38566415845E+03  0.00000000000E+00 0. -1.
          3    1    5    5  503    0  0.15187982548E+02 -0.13971016997E+03 -0.12814639674E+03  0.19018702743E+03  0.00000000000E+00 0. -1.
         -4    1    5    5    0  503 -0.47346485637E+02 -0.15945275783E+03 -0.83361598565E+02  0.18605383037E+03  0.00000000000E+00 0.  1.
         -3    1    6    6    0  502  0.55193029796E+02  0.13333275071E+03  0.73248112335E+02  0.16183071065E+03  0.00000000000E+00 0.  1.
<mgrwt>
<rscale>  0 0.11244441E+04</rscale>
<asrwt>0</asrwt>
<pdfrwt beam="1">  1        1 0.11107826E+00 0.11244441E+04</pdfrwt>
<pdfrwt beam="2">  1       -1 0.67353472E-01 0.11244441E+04</pdfrwt>
<totfact> 0.57729407E+01</totfact>
</mgrwt>
</event>
<event>
12    1  0.1518126E-007  0.2555259E+04  0.7818608E-02  0.8383559E-01
          1   -1    0    0  501    0  0.00000000000E+00  0.00000000000E+00  0.72898455325E+03  0.72898455325E+03  0.00000000000E+00 0. -1.
         -1   -1    0    0    0  501 -0.00000000000E+00 -0.00000000000E+00 -0.22391938720E+04  0.22391938720E+04  0.00000000000E+00 0.  1.
         23    2    1    2    0    0 -0.47232181616E+03 -0.10062308139E+04 -0.48964913513E+03  0.12180245504E+04  0.90769934249E+02 0.  0.
        254    2    1    2    0    0  0.47232181616E+03  0.10062308139E+04 -0.10205601836E+04  0.17501538748E+04  0.88651404288E+03 0.  0.
        -24    2    4    4    0    0  0.67546791873E+03  0.97264408564E+03 -0.94409414254E+03  0.15164832342E+04  0.78193498353E+02 0.  0.
         24    2    4    4    0    0 -0.20314610257E+03  0.33586728301E+02 -0.76466041103E+02  0.23367064060E+03  0.79740237828E+02 0.  0.
         13    1    3    3    0    0 -0.36998396741E+03 -0.78711459720E+03 -0.34124232509E+03  0.93428253205E+03  0.00000000000E+00 0.  1.
        -13    1    3    3    0    0 -0.10233784876E+03 -0.21911621675E+03 -0.14840681003E+03  0.28374201838E+03  0.00000000000E+00 0. -1.
          4    1    6    6  502    0 -0.10137560359E+03  0.33216079720E+02 -0.77560277305E+02  0.13189358427E+03  0.00000000000E+00 0. -1.
          3    1    5    5  503    0  0.28764310179E+03  0.35665161581E+03 -0.34017555521E+03  0.57066482056E+03  0.00000000000E+00 0. -1.
         -4    1    5    5    0  503  0.38782481694E+03  0.61599246983E+03 -0.60391858734E+03  0.94581841368E+03  0.00000000000E+00 0.  1.
         -1    1    6    6    0  502 -0.10177049898E+03  0.37064858123E+00  0.10942362019E+01  0.10177705633E+03  0.00000000000E+00 0.  1.
<mgrwt>
<rscale>  0 0.25552595E+04</rscale>
<asrwt>0</asrwt>
<pdfrwt beam="1">  1        1 0.11215147E+00 0.25552595E+04</pdfrwt>
<pdfrwt beam="2">  1       -1 0.34449136E+00 0.25552595E+04</pdfrwt>
<totfact> 0.38256721E-01</totfact>
</mgrwt>
</event>
<event>
12    1  0.1518126E-007  0.1116253E+04  0.7818608E-02  0.9189494E-01
         -1   -1    0    0    0  501 -0.00000000000E+00  0.00000000000E+00  0.12704340326E+03  0.12704340326E+03  0.00000000000E+00 0.  1.
          1   -1    0    0  501    0  0.00000000000E+00 -0.00000000000E+00 -0.24519579246E+04  0.24519579246E+04  0.00000000000E+00 0. -1.
         23    2    1    2    0    0  0.10803281854E+03  0.30737509797E+00 -0.11779422843E+03  0.19419585665E+03  0.11029671855E+03 0.  0.
        254    2    1    2    0    0 -0.10803281854E+03 -0.30737509797E+00 -0.22071202929E+04  0.23848054712E+04  0.89679761588E+03 0.  0.
        -24    2    4    4    0    0 -0.38064920650E+03 -0.26778127386E+03 -0.15515438481E+04  0.16217994849E+04  0.79653170942E+02 0.  0.
         24    2    4    4    0    0  0.27261638796E+03  0.26747389876E+03 -0.65557644480E+03  0.76300598630E+03  0.80843544300E+02 0.  0.
         13    1    3    3    0    0  0.23529745577E+02 -0.12204520877E+02 -0.10441893724E+03  0.10773074636E+03  0.00000000000E+00 0. -1.
        -13    1    3    3    0    0  0.84503072967E+02  0.12511895975E+02 -0.13375291190E+02  0.86465110282E+02  0.00000000000E+00 0.  1.
          4    1    6    6  502    0  0.10717693679E+02  0.14096329490E+02 -0.69457997660E+01  0.19021556121E+02  0.00000000000E+00 0. -1.
          3    1    5    5  503    0 -0.18541019294E+03 -0.87777117181E+02 -0.61325954802E+03  0.64665990690E+03  0.00000000000E+00 0. -1.
         -4    1    5    5    0  503 -0.19523901356E+03 -0.18000415668E+03 -0.93828430007E+03  0.97513957801E+03  0.00000000000E+00 0.  1.
         -3    1    6    6    0  502  0.26189869428E+03  0.25337756927E+03 -0.64863064503E+03  0.74398443018E+03  0.00000000000E+00 0.  1.
<mgrwt>
<rscale>  0 0.11162528E+04</rscale>
<asrwt>0</asrwt>
<pdfrwt beam="1">  1        1 0.37722432E+00 0.11162528E+04</pdfrwt>
<pdfrwt beam="2">  1       -1 0.19545138E-01 0.11162528E+04</pdfrwt>
<totfact> 0.31192404E+01</totfact>
</mgrwt>
</event>
<event>
12    1  0.1518126E-007  0.1313790E+04  0.7818608E-02  0.9018700E-01
         -1   -1    0    0    0  501 -0.00000000000E+00  0.00000000000E+00  0.18998232658E+03  0.18998232658E+03  0.00000000000E+00 0.  1.
          1   -1    0    0  501    0  0.00000000000E+00 -0.00000000000E+00 -0.22713220817E+04  0.22713220817E+04  0.00000000000E+00 0. -1.
         23    2    1    2    0    0 -0.23839614112E+03 -0.13904818146E+03 -0.94146292920E+03  0.98536747177E+03  0.91812256816E+02 0.  0.
        254    2    1    2    0    0  0.23839614112E+03  0.13904818146E+03 -0.11398768259E+04  0.14759369365E+04  0.89604885213E+03 0.  0.
        -24    2    4    4    0    0  0.38887967048E+03  0.37165460382E+03 -0.10336435126E+04  0.11679693490E+04  0.79868307024E+02 0.  0.
         24    2    4    4    0    0 -0.15048352936E+03 -0.23260642236E+03 -0.10623331331E+03  0.30796758747E+03  0.82507440548E+02 0.  0.
         11    1    3    3    0    0 -0.17803738979E+03 -0.63809551697E+02 -0.70649671190E+03  0.73137307510E+03  0.00000000000E+00 0. -1.
        -11    1    3    3    0    0 -0.60358751328E+02 -0.75238629759E+02 -0.23496621730E+03  0.25399439667E+03  0.00000000000E+00 0.  1.
          2    1    6    6  502    0 -0.33349562828E+02 -0.80459330266E+02  0.28281898401E+01  0.87142961996E+02  0.00000000000E+00 0. -1.
          3    1    5    5  503    0  0.21523163562E+03  0.15659622223E+03 -0.46785462804E+03  0.53827036587E+03  0.00000000000E+00 0. -1.
         -4    1    5    5    0  503  0.17364803486E+03  0.21505838158E+03 -0.56578888454E+03  0.62969898314E+03  0.00000000000E+00 0.  1.
         -1    1    6    6    0  502 -0.11713396653E+03 -0.15214709209E+03 -0.10906150315E+03  0.22082462548E+03  0.00000000000E+00 0.  1.
<mgrwt>
<rscale>  0 0.13137900E+04</rscale>
<asrwt>0</asrwt>
<pdfrwt beam="1">  1        1 0.34943418E+00 0.13137900E+04</pdfrwt>
<pdfrwt beam="2">  1       -1 0.29228049E-01 0.13137900E+04</pdfrwt>
<totfact> 0.20471624E+01</totfact>
</mgrwt>
</event>
<event>
12    1  0.1518126E-007  0.1128210E+04  0.7818608E-02  0.9178124E-01
          2   -1    0    0  501    0  0.00000000000E+00  0.00000000000E+00  0.22645248592E+04  0.22645248592E+04  0.00000000000E+00 0. -1.
         -2   -1    0    0    0  501 -0.00000000000E+00 -0.00000000000E+00 -0.14052162394E+03  0.14052162394E+03  0.00000000000E+00 0.  1.
         23    2    1    2    0    0 -0.16149245040E+03 -0.86427312826E+02  0.10717737412E+04  0.10910950239E+04  0.90773933122E+02 0.  0.
        254    2    1    2    0    0  0.16149245040E+03  0.86427312826E+02  0.10522294941E+04  0.13139514592E+04  0.76533132505E+03 0.  0.
        -24    2    4    4    0    0  0.30694037523E+03  0.30505745237E+03  0.89567076276E+03  0.99785548023E+03  0.78847961093E+02 0.  0.
         24    2    4    4    0    0 -0.14544792483E+03 -0.21863013954E+03  0.15655873131E+03  0.31609597901E+03  0.80323065433E+02 0.  0.
         11    1    3    3    0    0  0.42107110319E+01 -0.26501241185E+00  0.12481506138E+01  0.43997953279E+01  0.00000000000E+00 0.  1.
        -11    1    3    3    0    0 -0.16570316143E+03 -0.86162300415E+02  0.10705255905E+04  0.10866952285E+04  0.00000000000E+00 0. -1.
          4    1    6    6  502    0 -0.68528561642E+02 -0.17019444020E+03  0.11073296276E+03  0.21429909071E+03  0.00000000000E+00 0. -1.
          3    1    5    5  503    0  0.29741565405E+03  0.30953551959E+03  0.87107518330E+03  0.97110261256E+03  0.00000000000E+00 0. -1.
         -4    1    5    5    0  503  0.95247211816E+01 -0.44780672172E+01  0.24595579465E+02  0.26752867674E+02  0.00000000000E+00 0.  1.
         -3    1    6    6    0  502 -0.76919363192E+02 -0.48435699342E+02  0.45825768545E+02  0.10179688830E+03  0.00000000000E+00 0.  1.
<mgrwt>
<rscale>  0 0.11282105E+04</rscale>
<asrwt>0</asrwt>
<pdfrwt beam="1">  1        2 0.34838841E+00 0.11282105E+04</pdfrwt>
<pdfrwt beam="2">  1       -2 0.21618713E-01 0.11282105E+04</pdfrwt>
<totfact> 0.88081210E+01</totfact>
</mgrwt>
</event>
<event>
12    1  0.1518126E-007  0.5303007E+04  0.7818608E-02  0.7783393E-01
          2   -1    0    0  501    0  0.00000000000E+00  0.00000000000E+00  0.29362608716E+04  0.29362608716E+04  0.00000000000E+00 0. -1.
         -2   -1    0    0    0  501 -0.00000000000E+00 -0.00000000000E+00 -0.23943620024E+04  0.23943620024E+04  0.00000000000E+00 0.  1.
         23    2    1    2    0    0  0.18705670617E+04  0.12172221101E+04  0.15561997044E+04  0.27222350397E+04  0.90306663843E+02 0.  0.
        254    2    1    2    0    0 -0.18705670617E+04 -0.12172221101E+04 -0.10143008351E+04  0.26083878343E+04  0.89119588891E+03 0.  0.
        -24    2    4    4    0    0 -0.25945621759E+03 -0.59379821035E+03 -0.43593193898E+03  0.78508516486E+03  0.80051341137E+02 0.  0.
         24    2    4    4    0    0 -0.16111108442E+04 -0.62342389977E+03 -0.57836889612E+03  0.18233026695E+04  0.74743116997E+02 0.  0.
         13    1    3    3    0    0  0.11579583449E+03  0.53587471233E+02  0.76683849876E+02  0.14886472111E+03  0.00000000000E+00 0.  1.
        -13    1    3    3    0    0  0.17547712273E+04  0.11636346389E+04  0.14795158545E+04  0.25733703186E+04  0.00000000000E+00 0. -1.
          2    1    6    6  502    0 -0.31873434320E+03 -0.10535019431E+03 -0.86892051656E+02  0.34675708156E+03  0.00000000000E+00 0. -1.
          3    1    5    5  503    0 -0.10898070005E+03 -0.20138600983E+03 -0.19424121479E+03  0.30027115657E+03  0.00000000000E+00 0. -1.
         -4    1    5    5    0  503 -0.15047551754E+03 -0.39241220051E+03 -0.24169072418E+03  0.48481400830E+03  0.00000000000E+00 0.  1.
         -1    1    6    6    0  502 -0.12923765010E+04 -0.51807370546E+03 -0.49147684447E+03  0.14765455879E+04  0.00000000000E+00 0.  1.
<mgrwt>
<rscale>  0 0.53030072E+04</rscale>
<asrwt>0</asrwt>
<pdfrwt beam="1">  1        2 0.45173244E+00 0.53030072E+04</pdfrwt>
<pdfrwt beam="2">  1       -2 0.36836338E+00 0.53030072E+04</pdfrwt>
<totfact> 0.16128428E-02</totfact>
</mgrwt>
</event>
<event>
12    1  0.1518126E-007  0.1459137E+04  0.7818608E-02  0.8912091E-01
         -1   -1    0    0    0  501 -0.00000000000E+00  0.00000000000E+00  0.65333189838E+03  0.65333189838E+03  0.00000000000E+00 0.  1.
          1   -1    0    0  501    0  0.00000000000E+00 -0.00000000000E+00 -0.81470095543E+03  0.81470095543E+03  0.00000000000E+00 0. -1.
         23    2    1    2    0    0 -0.23177422253E+03  0.28669729507E+03  0.19908482205E+03  0.42874915301E+03  0.90974944936E+02 0.  0.
        254    2    1    2    0    0  0.23177422253E+03 -0.28669729507E+03 -0.36045387911E+03  0.10392837008E+04  0.90236854032E+03 0.  0.
        -24    2    4    4    0    0  0.53596730556E+03  0.65710767994E+00 -0.14106514545E+03  0.55997265990E+03  0.80053857879E+02 0.  0.
         24    2    4    4    0    0 -0.30419308303E+03 -0.28735440275E+03 -0.21938873366E+03  0.47931104090E+03  0.80632951876E+02 0.  0.
         11    1    3    3    0    0  0.29535768072E+01  0.26584547739E+02  0.28422563376E+02  0.39029526046E+02  0.00000000000E+00 0. -1.
        -11    1    3    3    0    0 -0.23472779934E+03  0.26011274733E+03  0.17066225867E+03  0.38971962696E+03  0.00000000000E+00 0.  1.
          4    1    6    6  502    0 -0.47184477094E+02 -0.91749710985E+02 -0.52107779340E+02  0.11558375756E+03  0.00000000000E+00 0. -1.
          1    1    5    5  503    0  0.13153267291E+02  0.11081706917E+02 -0.13113512335E+02  0.21628150045E+02  0.00000000000E+00 0. -1.
         -2    1    5    5    0  503  0.52281403827E+03 -0.10424599237E+02 -0.12795163311E+03  0.53834450986E+03  0.00000000000E+00 0.  1.
         -3    1    6    6    0  502 -0.25700860594E+03 -0.19560469176E+03 -0.16728095432E+03  0.36372728333E+03  0.00000000000E+00 0.  1.
<mgrwt>
<rscale>  0 0.14591369E+04</rscale>
<asrwt>0</asrwt>
<pdfrwt beam="1">  1        1 0.12533861E+00 0.14591369E+04</pdfrwt>
<pdfrwt beam="2">  1       -1 0.10051260E+00 0.14591369E+04</pdfrwt>
<totfact> 0.19634733E+01</totfact>
</mgrwt>
</event>
<event>
12    1  0.1518126E-007  0.1893754E+04  0.7818608E-02  0.8657971E-01
          3   -1    0    0  501    0  0.00000000000E+00  0.00000000000E+00  0.66271660174E+03  0.66271660174E+03  0.00000000000E+00 0. -1.
         -3   -1    0    0    0  501 -0.00000000000E+00 -0.00000000000E+00 -0.13528805730E+04  0.13528805730E+04  0.00000000000E+00 0.  1.
         23    2    1    2    0    0  0.35098956608E+03 -0.57395482410E+03  0.26089114180E+02  0.67918625814E+03  0.89417647947E+02 0.  0.
        254    2    1    2    0    0 -0.35098956608E+03  0.57395482410E+03 -0.71625308547E+03  0.13364109166E+04  0.90573607637E+03 0.  0.
        -24    2    4    4    0    0  0.29745835082E+03  0.11472228899E+03 -0.24118535120E+03  0.40713304831E+03  0.77099100732E+02 0.  0.
         24    2    4    4    0    0 -0.64844791690E+03  0.45923253511E+03 -0.47506773427E+03  0.92927786831E+03  0.80552977376E+02 0.  0.
         13    1    3    3    0    0  0.32108324518E+03 -0.51454254446E+03  0.49860959780E+02  0.60855122685E+03  0.00000000000E+00 0. -1.
        -13    1    3    3    0    0  0.29906320903E+02 -0.59412279635E+02 -0.23771845600E+02  0.70635031285E+02  0.00000000000E+00 0.  1.
          4    1    6    6  502    0 -0.59706088954E+03  0.39425179350E+03 -0.41734409713E+03  0.82830687424E+03  0.00000000000E+00 0. -1.
          1    1    5    5  503    0  0.25839300767E+03  0.68319686194E+02 -0.19991604110E+03  0.33376780765E+03  0.00000000000E+00 0. -1.
         -4    1    5    5    0  503  0.39065343145E+02  0.46402602795E+02 -0.41269310096E+02  0.73365240659E+02  0.00000000000E+00 0.  1.
         -3    1    6    6    0  502 -0.51387027354E+02  0.64980741606E+02 -0.57723637139E+02  0.10097099408E+03  0.00000000000E+00 0.  1.
<mgrwt>
<rscale>  0 0.18937544E+04</rscale>
<asrwt>0</asrwt>
<pdfrwt beam="1">  1        3 0.10195640E+00 0.18937544E+04</pdfrwt>
<pdfrwt beam="2">  1       -3 0.20813547E+00 0.18937544E+04</pdfrwt>
<totfact> 0.26664529E-01</totfact>
</mgrwt>
</event>
<event>
12    1  0.1518126E-007  0.1584027E+04  0.7818608E-02  0.8830421E-01
         -2   -1    0    0    0  501 -0.00000000000E+00  0.00000000000E+00  0.30465937525E+03  0.30465937525E+03  0.00000000000E+00 0.  1.
          2   -1    0    0  501    0  0.00000000000E+00 -0.00000000000E+00 -0.20589740392E+04  0.20589740392E+04  0.00000000000E+00 0. -1.
         23    2    1    2    0    0 -0.19715612589E+03 -0.69658596354E+02  0.13164093471E+03  0.26428977860E+03  0.93791755290E+02 0.  0.
        254    2    1    2    0    0  0.19715612589E+03  0.69658596354E+02 -0.18859555986E+04  0.20993436358E+04  0.89816052198E+03 0.  0.
        -24    2    4    4    0    0  0.11206223445E+03  0.12828537504E+03  0.18629616700E+02  0.19026747465E+03  0.82701677464E+02 0.  0.
         24    2    4    4    0    0  0.85093891439E+02 -0.58626778684E+02 -0.19045852153E+04  0.19090761611E+04  0.80304901189E+02 0.  0.
         13    1    3    3    0    0 -0.12027591057E+03 -0.86605545705E+02  0.10312253961E+03  0.18055767329E+03  0.00000000000E+00 0.  1.
        -13    1    3    3    0    0 -0.76880215319E+02  0.16946949351E+02  0.28518395097E+02  0.83732105304E+02  0.00000000000E+00 0. -1.
          2    1    6    6  502    0  0.69976684640E+02 -0.57911932199E+01 -0.13352012007E+04  0.13370461924E+04  0.00000000000E+00 0. -1.
          1    1    5    5  503    0  0.40660612440E+02  0.22216513955E+02  0.39285828595E+02  0.60747306316E+02  0.00000000000E+00 0. -1.
         -2    1    5    5    0  503  0.71401622007E+02  0.10606886108E+03 -0.20656211894E+02  0.12952016834E+03  0.00000000000E+00 0.  1.
         -1    1    6    6    0  502  0.15117206799E+02 -0.52835585464E+02 -0.56938401459E+03  0.57202996871E+03  0.00000000000E+00 0.  1.
<mgrwt>
<rscale>  0 0.15840275E+04</rscale>
<asrwt>0</asrwt>
<pdfrwt beam="1">  1        2 0.31676523E+00 0.15840275E+04</pdfrwt>
<pdfrwt beam="2">  1       -2 0.46870675E-01 0.15840275E+04</pdfrwt>
<totfact> 0.25671432E+01</totfact>
</mgrwt>
</event>
<event>
12    1  0.1518126E-007  0.2302079E+04  0.7818608E-02  0.8477102E-01
          1   -1    0    0  501    0  0.00000000000E+00  0.00000000000E+00  0.30511950733E+04  0.30511950733E+04  0.00000000000E+00 0. -1.
         -1   -1    0    0    0  501 -0.00000000000E+00 -0.00000000000E+00 -0.43422077170E+03  0.43422077170E+03  0.00000000000E+00 0.  1.
         23    2    1    2    0    0 -0.11492373094E+03  0.16236376921E+03  0.25537690452E+04  0.25631933126E+04  0.93027757268E+02 0.  0.
        254    2    1    2    0    0  0.11492373094E+03 -0.16236376921E+03  0.63205256323E+02  0.92222253241E+03  0.89829284611E+03 0.  0.
        -24    2    4    4    0    0  0.41981897166E+03  0.93354872084E+01  0.27261462735E+03  0.50678353369E+03  0.78585588313E+02 0.  0.
         24    2    4    4    0    0 -0.30489524072E+03 -0.17169925642E+03 -0.20940937103E+03  0.41543899872E+03  0.79344404455E+02 0.  0.
         11    1    3    3    0    0 -0.10074839368E+03  0.62247905345E+02  0.14066309054E+04  0.14116074328E+04  0.00000000000E+00 0. -1.
        -11    1    3    3    0    0 -0.14175337265E+02  0.10011586387E+03  0.11471381399E+04  0.11515858797E+04  0.00000000000E+00 0.  1.
          2    1    6    6  502    0 -0.98265005682E+01 -0.25096091840E+02 -0.41962264528E+01  0.27276038120E+02  0.00000000000E+00 0. -1.
          3    1    5    5  503    0  0.43542529587E+02  0.25538887194E+02  0.35954920358E+02  0.61975341386E+02  0.00000000000E+00 0. -1.
         -4    1    5    5    0  503  0.37627644207E+03 -0.16203399986E+02  0.23665970699E+03  0.44480819231E+03  0.00000000000E+00 0.  1.
         -1    1    6    6    0  502 -0.29506874015E+03 -0.14660316458E+03 -0.20521314457E+03  0.38816296060E+03  0.00000000000E+00 0.  1.
<mgrwt>
<rscale>  0 0.23020793E+04</rscale>
<asrwt>0</asrwt>
<pdfrwt beam="1">  1        1 0.46941461E+00 0.23020793E+04</pdfrwt>
<pdfrwt beam="2">  1       -1 0.66803197E-01 0.23020793E+04</pdfrwt>
<totfact> 0.11256247E+00</totfact>
</mgrwt>
</event>
<event>
12    1  0.1518126E-007  0.1559155E+04  0.7818608E-02  0.8846041E-01
          1   -1    0    0  501    0  0.00000000000E+00  0.00000000000E+00  0.17027395891E+04  0.17027395891E+04  0.00000000000E+00 0. -1.
         -1   -1    0    0    0  501 -0.00000000000E+00 -0.00000000000E+00 -0.35691966064E+03  0.35691966064E+03  0.00000000000E+00 0.  1.
         23    2    1    2    0    0 -0.39190889476E+03 -0.22831722973E+03  0.78295099144E+03  0.90893172773E+03  0.86158525428E+02 0.  0.
        254    2    1    2    0    0  0.39190889476E+03  0.22831722973E+03  0.56286893702E+03  0.11507275220E+04  0.89533851167E+03 0.  0.
        -24    2    4    4    0    0 -0.26539785051E+03  0.16549646297E+03  0.92725363535E+02  0.33593813727E+03  0.80195640261E+02 0.  0.
         24    2    4    4    0    0  0.65730674526E+03  0.62820766751E+02  0.47014357349E+03  0.81478938475E+03  0.82753584248E+02 0.  0.
         13    1    3    3    0    0 -0.28564616018E+03 -0.15891477409E+03  0.63349828903E+03  0.71285883347E+03  0.00000000000E+00 0. -1.
        -13    1    3    3    0    0 -0.10626273458E+03 -0.69402455631E+02  0.14945270241E+03  0.19607289426E+03  0.00000000000E+00 0.  1.
          4    1    6    6  502    0  0.21590800741E+03  0.59868723973E+02  0.15696429561E+03  0.27356593697E+03  0.00000000000E+00 0. -1.
          1    1    5    5  503    0 -0.44345024371E+02  0.61731820665E+02  0.39661785622E+01  0.76111953342E+02  0.00000000000E+00 0. -1.
         -2    1    5    5    0  503 -0.22105282613E+03  0.10376464231E+03  0.88759184972E+02  0.25982618392E+03  0.00000000000E+00 0.  1.
         -3    1    6    6    0  502  0.44139873786E+03  0.29520427787E+01  0.31317927788E+03  0.54122344778E+03  0.00000000000E+00 0.  1.
<mgrwt>
<rscale>  0 0.15591552E+04</rscale>
<asrwt>0</asrwt>
<pdfrwt beam="1">  1        1 0.26195993E+00 0.15591552E+04</pdfrwt>
<pdfrwt beam="2">  1       -1 0.54910718E-01 0.15591552E+04</pdfrwt>
<totfact> 0.15313090E+01</totfact>
</mgrwt>
</event>
<event>
12    1  0.1518126E-007  0.2173010E+04  0.7818608E-02  0.8529747E-01
          1   -1    0    0  501    0  0.00000000000E+00  0.00000000000E+00  0.13848135864E+04  0.13848135864E+04  0.00000000000E+00 0. -1.
         -1   -1    0    0    0  501 -0.00000000000E+00 -0.00000000000E+00 -0.85245633739E+03  0.85245633739E+03  0.00000000000E+00 0.  1.
         23    2    1    2    0    0  0.48275796080E+03 -0.74844128309E+03  0.15824191754E+03  0.90912211010E+03  0.90790438121E+02 0.  0.
        254    2    1    2    0    0 -0.48275796080E+03  0.74844128309E+03  0.37411533143E+03  0.13281478137E+04  0.91147941872E+03 0.  0.
        -24    2    4    4    0    0  0.22747844187E+03  0.11359348198E+03 -0.67016125981E+02  0.27523612921E+03  0.81325549605E+02 0.  0.
         24    2    4    4    0    0 -0.71023640267E+03  0.63484780111E+03  0.44113145741E+03  0.10529116844E+04  0.80985024885E+02 0.  0.
         11    1    3    3    0    0  0.51215705142E+02 -0.13841528438E+03  0.36517548133E+02  0.15203739910E+03  0.00000000000E+00 0. -1.
        -11    1    3    3    0    0  0.43154225566E+03 -0.61002599871E+03  0.12172436940E+03  0.75708471100E+03  0.00000000000E+00 0.  1.
          4    1    6    6  502    0 -0.13368331509E+02  0.14737896068E+02 -0.23455903052E+01  0.20035460108E+02  0.00000000000E+00 0. -1.
          3    1    5    5  503    0  0.50001366338E+02  0.52802150802E+02  0.80727352060E+01  0.73166746673E+02  0.00000000000E+00 0. -1.
         -4    1    5    5    0  503  0.17747707553E+03  0.60791331177E+02 -0.75088861187E+02  0.20206938254E+03  0.00000000000E+00 0.  1.
         -3    1    6    6    0  502 -0.69686807116E+03  0.62010990504E+03  0.44347704771E+03  0.10328762243E+04  0.00000000000E+00 0.  1.
<mgrwt>
<rscale>  0 0.21730100E+04</rscale>
<asrwt>0</asrwt>
<pdfrwt beam="1">  1        1 0.21304824E+00 0.21730100E+04</pdfrwt>
<pdfrwt beam="2">  1       -1 0.13114713E+00 0.21730100E+04</pdfrwt>
<totfact> 0.35692859E+00</totfact>
</mgrwt>
</event>
<event>
12    1  0.1518126E-007  0.1851612E+04  0.7818608E-02  0.8679324E-01
          3   -1    0    0  501    0  0.00000000000E+00  0.00000000000E+00  0.98987811478E+03  0.98987811478E+03  0.00000000000E+00 0. -1.
         -3   -1    0    0    0  501 -0.00000000000E+00 -0.00000000000E+00 -0.86588138871E+03  0.86588138871E+03  0.00000000000E+00 0.  1.
         23    2    1    2    0    0  0.51465375200E+03  0.21468303005E+03  0.46354208156E+03  0.73085544533E+03  0.91220243079E+02 0.  0.
        254    2    1    2    0    0 -0.51465375200E+03 -0.21468303005E+03 -0.33954535549E+03  0.11249040582E+04  0.91605720552E+03 0.  0.
        -24    2    4    4    0    0 -0.64925738448E+02 -0.26523670029E+03  0.24876866800E+03  0.37844817108E+03  0.82287965855E+02 0.  0.
         24    2    4    4    0    0 -0.44972801355E+03  0.50553670245E+02 -0.58831402349E+03  0.74645588707E+03  0.79196220665E+02 0.  0.
         13    1    3    3    0    0  0.12535241932E+03  0.11411129622E+02  0.10388107708E+03  0.16320147391E+03  0.00000000000E+00 0.  1.
        -13    1    3    3    0    0  0.38930133268E+03  0.20327190043E+03  0.35966100448E+03  0.56765397142E+03  0.00000000000E+00 0. -1.
          2    1    6    6  502    0 -0.11446638481E+03 -0.14751072720E+02 -0.11655077352E+03  0.16402509017E+03  0.00000000000E+00 0. -1.
          3    1    5    5  503    0 -0.51912693789E+02 -0.74577746865E+02  0.54586976955E+02  0.10600238751E+03  0.00000000000E+00 0. -1.
         -4    1    5    5    0  503 -0.13013044659E+02 -0.19065895343E+03  0.19418169104E+03  0.27244578358E+03  0.00000000000E+00 0.  1.
         -1    1    6    6    0  502 -0.33526162875E+03  0.65304742965E+02 -0.47176324997E+03  0.58243079691E+03  0.00000000000E+00 0.  1.
<mgrwt>
<rscale>  0 0.18516123E+04</rscale>
<asrwt>0</asrwt>
<pdfrwt beam="1">  1        3 0.15228894E+00 0.18516123E+04</pdfrwt>
<pdfrwt beam="2">  1       -3 0.13321252E+00 0.18516123E+04</pdfrwt>
<totfact> 0.33396647E-01</totfact>
</mgrwt>
</event>
<event>
12    1  0.1518126E-007  0.1565630E+04  0.7818608E-02  0.8841946E-01
          2   -1    0    0  501    0  0.00000000000E+00  0.00000000000E+00  0.39024355061E+04  0.39024355061E+04  0.00000000000E+00 0. -1.
         -2   -1    0    0    0  501 -0.00000000000E+00 -0.00000000000E+00 -0.15702989123E+03  0.15702989123E+03  0.00000000000E+00 0.  1.
         23    2    1    2    0    0 -0.35232676937E+03 -0.27637929135E+03  0.16904123389E+04  0.17511945343E+04  0.93106156251E+02 0.  0.
        254    2    1    2    0    0  0.35232676937E+03  0.27637929135E+03  0.20549932760E+04  0.23082708630E+04  0.95110322664E+03 0.  0.
        -24    2    4    4    0    0 -0.18453923240E+03 -0.21604622272E+03  0.39103877288E+03  0.49007057008E+03  0.80790736538E+02 0.  0.
         24    2    4    4    0    0  0.53686600178E+03  0.49242551406E+03  0.16639545031E+04  0.18182002929E+04  0.79998288594E+02 0.  0.
         11    1    3    3    0    0 -0.51632087848E+02 -0.54053275219E+02  0.43101111538E+03  0.43744509443E+03  0.00000000000E+00 0.  1.
        -11    1    3    3    0    0 -0.30069468153E+03 -0.22232601613E+03  0.12594012235E+04  0.13137494398E+04  0.00000000000E+00 0. -1.
          4    1    6    6  502    0  0.81876759245E+02  0.85590926798E+02  0.34765175247E+03  0.36727557971E+03  0.00000000000E+00 0. -1.
          3    1    5    5  503    0 -0.69913534259E+02 -0.11014603589E+03  0.11969411197E+03  0.17705008312E+03  0.00000000000E+00 0. -1.
         -2    1    5    5    0  503 -0.11462569815E+03 -0.10590018683E+03  0.27134466091E+03  0.31302048695E+03  0.00000000000E+00 0.  1.
         -3    1    6    6    0  502  0.45498924253E+03  0.40683458727E+03  0.13163027506E+04  0.14509247132E+04  0.00000000000E+00 0.  1.
<mgrwt>
<rscale>  0 0.15656296E+04</rscale>
<asrwt>0</asrwt>
<pdfrwt beam="1">  1        2 0.60037462E+00 0.15656296E+04</pdfrwt>
<pdfrwt beam="2">  1       -2 0.24158448E-01 0.15656296E+04</pdfrwt>
<totfact> 0.61240477E+00</totfact>
</mgrwt>
</event>
<event>
12    1  0.2014324E-007  0.1621467E+04  0.7818608E-02  0.8807468E-01
         -2   -1    0    0    0  501 -0.00000000000E+00  0.00000000000E+00  0.37927542647E+03  0.37927542647E+03  0.00000000000E+00 0.  1.
          2   -1    0    0  501    0  0.00000000000E+00 -0.00000000000E+00 -0.17330116831E+04  0.17330116831E+04  0.00000000000E+00 0. -1.
         23    2    1    2    0    0 -0.60868469441E+02 -0.99363441760E+02 -0.11804507263E+04  0.11898872111E+04  0.93752833820E+02 0.  0.
        254    2    1    2    0    0  0.60868469441E+02  0.99363441760E+02 -0.17328553038E+03  0.92239989849E+03  0.89845179813E+03 0.  0.
        -24    2    4    4    0    0 -0.63918974032E+01  0.33532876871E+03  0.25035834732E+03  0.42612358411E+03  0.80098485553E+02 0.  0.
         24    2    4    4    0    0  0.67260366844E+02 -0.23596532695E+03 -0.42364387770E+03  0.49627631437E+03  0.81316988519E+02 0.  0.
         11    1    3    3    0    0 -0.15160921022E+02 -0.86949214359E+02 -0.97779266868E+03  0.98176805934E+03  0.00000000000E+00 0. -1.
        -11    1    3    3    0    0 -0.45707548418E+02 -0.12414227401E+02 -0.20265805761E+03  0.20811915178E+03  0.00000000000E+00 0.  1.
          2    1    6    6  502    0 -0.52519943838E+01 -0.13289495954E+02 -0.26531162643E+01  0.14533862997E+02  0.00000000000E+00 0. -1.
          1    1    5    5  503    0  0.81119041084E+01  0.56877449441E+01  0.24054511464E+02  0.26014860226E+02  0.00000000000E+00 0. -1.
         -2    1    5    5    0  503 -0.14503801512E+02  0.32964102376E+03  0.22630383586E+03  0.40010872389E+03  0.00000000000E+00 0.  1.
         -1    1    6    6    0  502  0.72512361228E+02 -0.22267583100E+03 -0.42099076144E+03  0.48174245138E+03  0.00000000000E+00 0.  1.
<mgrwt>
<rscale>  0 0.16214669E+04</rscale>
<asrwt>0</asrwt>
<pdfrwt beam="1">  1        2 0.26661719E+00 0.16214669E+04</pdfrwt>
<pdfrwt beam="2">  1       -2 0.58350065E-01 0.16214669E+04</pdfrwt>
<totfact> 0.24720142E+01</totfact>
</mgrwt>
</event>
<event>
12    1  0.1518126E-007  0.1922672E+04  0.7818608E-02  0.8643653E-01
          1   -1    0    0  501    0  0.00000000000E+00  0.00000000000E+00  0.13452550220E+04  0.13452550220E+04  0.00000000000E+00 0. -1.
         -1   -1    0    0    0  501 -0.00000000000E+00 -0.00000000000E+00 -0.68698265582E+03  0.68698265582E+03  0.00000000000E+00 0.  1.
         23    2    1    2    0    0  0.21295667223E+03 -0.65708140069E+03  0.56600000445E+03  0.89763765831E+03  0.91054100365E+02 0.  0.
        254    2    1    2    0    0 -0.21295667223E+03  0.65708140069E+03  0.92272361700E+02  0.11346000195E+04  0.89537506337E+03 0.  0.
        -24    2    4    4    0    0  0.18879890640E+03  0.54515193384E+03 -0.20387179787E+03  0.61678412282E+03  0.77609832962E+02 0.  0.
         24    2    4    4    0    0 -0.40175557863E+03  0.11192946685E+03  0.29614415957E+03  0.51781589667E+03  0.80598939713E+02 0.  0.
         13    1    3    3    0    0  0.11386454622E+03 -0.46156757136E+03  0.41920351153E+03  0.63383068867E+03  0.00000000000E+00 0.  1.
        -13    1    3    3    0    0  0.99092126012E+02 -0.19551382933E+03  0.14679649291E+03  0.26380696963E+03  0.00000000000E+00 0. -1.
          2    1    6    6  502    0 -0.40084246240E+03  0.11861509067E+03  0.29157479425E+03  0.50966663618E+03  0.00000000000E+00 0. -1.
          1    1    5    5  503    0  0.17535927078E+03  0.44853372405E+03 -0.19223588855E+03  0.51854412764E+03  0.00000000000E+00 0. -1.
         -2    1    5    5    0  503  0.13439635621E+02  0.96618209788E+02 -0.11635909316E+02  0.98239995185E+02  0.00000000000E+00 0.  1.
         -1    1    6    6    0  502 -0.91311623487E+00 -0.66856238147E+01  0.45693653183E+01  0.81492604856E+01  0.00000000000E+00 0.  1.
<mgrwt>
<rscale>  0 0.19226720E+04</rscale>
<asrwt>0</asrwt>
<pdfrwt beam="1">  1        1 0.20696231E+00 0.19226720E+04</pdfrwt>
<pdfrwt beam="2">  1       -1 0.10568964E+00 0.19226720E+04</pdfrwt>
<totfact> 0.65756405E+00</totfact>
</mgrwt>
</event>
<event>
12    1  0.1518126E-007  0.1327405E+04  0.7818608E-02  0.9008110E-01
         -2   -1    0    0    0  501 -0.00000000000E+00  0.00000000000E+00  0.20841592705E+03  0.20841592705E+03  0.00000000000E+00 0. -1.
          2   -1    0    0  501    0  0.00000000000E+00 -0.00000000000E+00 -0.21135677268E+04  0.21135677268E+04  0.00000000000E+00 0.  1.
         23    2    1    2    0    0 -0.22726956790E+02  0.18650982203E+03 -0.10290826618E+04  0.10501838792E+04  0.92588482079E+02 0.  0.
        254    2    1    2    0    0  0.22726956790E+02 -0.18650982203E+03 -0.87606913789E+03  0.12717997746E+04  0.90259354310E+03 0.  0.
        -24    2    4    4    0    0  0.29329487877E+03 -0.31843907996E+03 -0.85298464739E+03  0.95981166635E+03  0.78932202767E+02 0.  0.
         24    2    4    4    0    0 -0.27056792198E+03  0.13192925793E+03 -0.23084490504E+02  0.31198810825E+03  0.78685173243E+02 0.  0.
         11    1    3    3    0    0 -0.79767240639E+01 -0.97291690591E+01 -0.54898042361E+02  0.56321220801E+02  0.00000000000E+00 0. -1.
        -11    1    3    3    0    0 -0.14750232726E+02  0.19623899109E+03 -0.97418461949E+03  0.99386265844E+03  0.00000000000E+00 0.  1.
          4    1    6    6  502    0 -0.45553100548E+02 -0.61614692769E+01 -0.13067507572E+02  0.47789208273E+02  0.00000000000E+00 0. -1.
          3    1    5    5  503    0  0.80669587326E+02 -0.45682190302E+02 -0.14945037243E+03  0.17586886776E+03  0.00000000000E+00 0. -1.
         -4    1    5    5    0  503  0.21262529144E+03 -0.27275688966E+03 -0.70353427496E+03  0.78394279859E+03  0.00000000000E+00 0.  1.
         -3    1    6    6    0  502 -0.22501482143E+03  0.13809072721E+03 -0.10016982931E+02  0.26419889998E+03  0.00000000000E+00 0.  1.
<mgrwt>
<rscale>  0 0.13274053E+04</rscale>
<asrwt>0</asrwt>
<pdfrwt beam="1">  1        2 0.32516423E+00 0.13274053E+04</pdfrwt>
<pdfrwt beam="2">  1       -2 0.32063992E-01 0.13274053E+04</pdfrwt>
<totfact> 0.51193210E+01</totfact>
</mgrwt>
</event>
<event>
12    1  0.1518126E-007  0.1437966E+04  0.7818608E-02  0.8926786E-01
         -2   -1    0    0    0  501 -0.00000000000E+00  0.00000000000E+00  0.46581310956E+03  0.46581310956E+03  0.00000000000E+00 0.  1.
          2   -1    0    0  501    0  0.00000000000E+00 -0.00000000000E+00 -0.11097508122E+04  0.11097508122E+04  0.00000000000E+00 0. -1.
         23    2    1    2    0    0  0.75108942564E+02 -0.34960011627E+03  0.73429794877E+02  0.37336913269E+03  0.78428183203E+02 0.  0.
        254    2    1    2    0    0 -0.75108942564E+02  0.34960011627E+03 -0.71736749756E+03  0.12021947891E+04  0.89598805231E+03 0.  0.
        -24    2    4    4    0    0  0.22139952048E+03 -0.10258742023E+03 -0.58643053046E+03  0.64003929687E+03  0.78788374964E+02 0.  0.
         24    2    4    4    0    0 -0.29650846304E+03  0.45218753650E+03 -0.13093696711E+03  0.56215549225E+03  0.80520005576E+02 0.  0.
         13    1    3    3    0    0  0.59210246247E+02 -0.34133393531E+03  0.61515667441E+02  0.35185065865E+03  0.00000000000E+00 0.  1.
        -13    1    3    3    0    0  0.15898696317E+02 -0.82661809603E+01  0.11914127436E+02  0.21518474036E+02  0.00000000000E+00 0. -1.
          2    1    6    6  502    0 -0.17059170834E+03  0.29457746873E+03 -0.11695656288E+03  0.35993923604E+03  0.00000000000E+00 0. -1.
          1    1    5    5  503    0  0.20559518678E+03 -0.11547106698E+03 -0.54657528391E+03  0.59527093757E+03  0.00000000000E+00 0. -1.
         -2    1    5    5    0  503  0.15804333700E+02  0.12883646744E+02 -0.39855246545E+02  0.44768359299E+02  0.00000000000E+00 0.  1.
         -1    1    6    6    0  502 -0.12591675470E+03  0.15761006777E+03 -0.13980404225E+02  0.20221625622E+03  0.00000000000E+00 0.  1.
<mgrwt>
<rscale>  0 0.14379659E+04</rscale>
<asrwt>0</asrwt>
<pdfrwt beam="1">  1        2 0.17073089E+00 0.14379659E+04</pdfrwt>
<pdfrwt beam="2">  1       -2 0.71663556E-01 0.14379659E+04</pdfrwt>
<totfact> 0.36828960E+01</totfact>
</mgrwt>
</event>
<event>
12    1  0.1518126E-007  0.1366254E+04  0.7818608E-02  0.8978614E-01
          1   -1    0    0  501    0  0.00000000000E+00  0.00000000000E+00  0.38682850655E+03  0.38682850655E+03  0.00000000000E+00 0. -1.
         -1   -1    0    0    0  501 -0.00000000000E+00 -0.00000000000E+00 -0.12063813171E+04  0.12063813171E+04  0.00000000000E+00 0.  1.
         23    2    1    2    0    0  0.66266678115E+02 -0.96026193103E+02 -0.65791923404E+03  0.67482768490E+03  0.94458368619E+02 0.  0.
        254    2    1    2    0    0 -0.66266678115E+02  0.96026193103E+02 -0.16163357650E+03  0.91838213875E+03  0.89648649590E+03 0.  0.
        -24    2    4    4    0    0 -0.22272037649E+03  0.43664834826E+03 -0.19419307735E+03  0.53336978197E+03  0.80661185701E+02 0.  0.
         24    2    4    4    0    0  0.15645369838E+03 -0.34062215516E+03  0.32559500847E+02  0.38501235678E+03  0.81689543127E+02 0.  0.
         13    1    3    3    0    0  0.23493573673E+02  0.14830264689E+02 -0.76442792940E+02  0.81335019193E+02  0.00000000000E+00 0. -1.
        -13    1    3    3    0    0  0.42773104442E+02 -0.11085645779E+03 -0.58147644110E+03  0.59349266571E+03  0.00000000000E+00 0.  1.
          4    1    6    6  502    0  0.14534891086E+03 -0.33794530690E+03  0.20568458335E+02  0.36845135068E+03  0.00000000000E+00 0. -1.
          1    1    5    5  503    0 -0.15559037586E+03  0.37339002623E+03 -0.15960923680E+03  0.43486042039E+03  0.00000000000E+00 0. -1.
         -2    1    5    5    0  503 -0.67130000633E+02  0.63258322033E+02 -0.34583840550E+02  0.98509361578E+02  0.00000000000E+00 0.  1.
         -3    1    6    6    0  502  0.11104787521E+02 -0.26768482643E+01  0.11991042512E+02  0.16561006100E+02  0.00000000000E+00 0.  1.
<mgrwt>
<rscale>  0 0.13662543E+04</rscale>
<asrwt>0</asrwt>
<pdfrwt beam="1">  1        1 0.59512079E-01 0.13662543E+04</pdfrwt>
<pdfrwt beam="2">  1       -1 0.18559712E+00 0.13662543E+04</pdfrwt>
<totfact> 0.11639643E+01</totfact>
</mgrwt>
</event>
<event>
12    1  0.1518126E-007  0.1772305E+04  0.7818608E-02  0.8721167E-01
         -2   -1    0    0    0  501 -0.00000000000E+00  0.00000000000E+00  0.64541506781E+03  0.64541506781E+03  0.00000000000E+00 0. -1.
          2   -1    0    0  501    0  0.00000000000E+00 -0.00000000000E+00 -0.12166844809E+04  0.12166844809E+04  0.00000000000E+00 0.  1.
         23    2    1    2    0    0 -0.59954008077E+03 -0.14839189003E+03  0.96654062275E+01  0.62505444682E+03  0.95557207637E+02 0.  0.
        254    2    1    2    0    0  0.59954008077E+03  0.14839189003E+03 -0.58093481935E+03  0.12370451019E+04  0.90073684191E+03 0.  0.
        -24    2    4    4    0    0  0.37772898809E+03  0.50790003992E+03 -0.47203249985E+03  0.79372414217E+03  0.80880739015E+02 0.  0.
         24    2    4    4    0    0  0.22181109268E+03 -0.35950814990E+03 -0.10890231950E+03  0.44332095976E+03  0.78914431453E+02 0.  0.
         11    1    3    3    0    0 -0.14652738139E+03 -0.37908817138E+02  0.43668716296E+02  0.15752558109E+03  0.00000000000E+00 0.  1.
        -11    1    3    3    0    0 -0.45301269938E+03 -0.11048307289E+03 -0.34003310068E+02  0.46752886573E+03  0.00000000000E+00 0. -1.
          4    1    6    6  502    0  0.13119860216E+03 -0.14062278797E+03 -0.38019454275E+02  0.19604418025E+03  0.00000000000E+00 0. -1.
          3    1    5    5  503    0  0.17613886181E+03  0.29023756231E+03 -0.28259419151E+03  0.44172640660E+03  0.00000000000E+00 0. -1.
         -4    1    5    5    0  503  0.20159012628E+03  0.21766247761E+03 -0.18943830834E+03  0.35199773557E+03  0.00000000000E+00 0.  1.
         -3    1    6    6    0  502  0.90612490519E+02 -0.21888536192E+03 -0.70882865226E+02  0.24727677951E+03  0.00000000000E+00 0.  1.
<mgrwt>
<rscale>  0 0.17723053E+04</rscale>
<asrwt>0</asrwt>
<pdfrwt beam="1">  1        2 0.18718222E+00 0.17723053E+04</pdfrwt>
<pdfrwt beam="2">  1       -2 0.99294628E-01 0.17723053E+04</pdfrwt>
<totfact> 0.14714076E+01</totfact>
</mgrwt>
</event>
<event>
12    1  0.1518126E-007  0.1631220E+04  0.7818608E-02  0.8801595E-01
         -2   -1    0    0    0  501 -0.00000000000E+00  0.00000000000E+00  0.27937261258E+03  0.27937261258E+03  0.00000000000E+00 0.  1.
          2   -1    0    0  501    0  0.00000000000E+00 -0.00000000000E+00 -0.23811199245E+04  0.23811199245E+04  0.00000000000E+00 0. -1.
         23    2    1    2    0    0  0.63895402694E+02 -0.16336375583E+03  0.13741856124E+03  0.24084606261E+03  0.91392700452E+02 0.  0.
        254    2    1    2    0    0 -0.63895402694E+02  0.16336375583E+03 -0.22391658731E+04  0.24196464744E+04  0.90003050763E+03 0.  0.
        -24    2    4    4    0    0  0.25430858192E+02  0.29566076285E+03 -0.22171025864E+04  0.22385815396E+04  0.87415190812E+02 0.  0.
         24    2    4    4    0    0 -0.89326260886E+02 -0.13229700701E+03 -0.22063286753E+02  0.18106493486E+03  0.82559330573E+02 0.  0.
         11    1    3    3    0    0  0.80764813538E+02 -0.93027910683E+02  0.10375272638E+03  0.16106450727E+03  0.00000000000E+00 0.  1.
        -11    1    3    3    0    0 -0.16869410844E+02 -0.70335845149E+02  0.33665834862E+02  0.79781555337E+02  0.00000000000E+00 0. -1.
          2    1    6    6  502    0 -0.33546849578E+02 -0.35404188768E+02 -0.45648398920E+02  0.66802874361E+02  0.00000000000E+00 0. -1.
          1    1    5    5  503    0  0.15778784027E+02  0.34773086337E+01 -0.15918809857E+03  0.16000597622E+03  0.00000000000E+00 0. -1.
         -2    1    5    5    0  503  0.96520741653E+01  0.29218345421E+03 -0.20579144878E+04  0.20785755634E+04  0.00000000000E+00 0.  1.
         -1    1    6    6    0  502 -0.55779411308E+02 -0.96892818244E+02  0.23585112167E+02  0.11426206050E+03  0.00000000000E+00 0.  1.
<mgrwt>
<rscale>  0 0.16312200E+04</rscale>
<asrwt>0</asrwt>
<pdfrwt beam="1">  1        2 0.36632613E+00 0.16312200E+04</pdfrwt>
<pdfrwt beam="2">  1       -2 0.42980403E-01 0.16312200E+04</pdfrwt>
<totfact> 0.20038942E+01</totfact>
</mgrwt>
</event>
<event>
12    1  0.1518126E-007  0.1565564E+04  0.7818608E-02  0.8841987E-01
         -1   -1    0    0    0  501 -0.00000000000E+00  0.00000000000E+00  0.89711183371E+03  0.89711183371E+03  0.00000000000E+00 0.  1.
          1   -1    0    0  501    0  0.00000000000E+00 -0.00000000000E+00 -0.68302234973E+03  0.68302234973E+03  0.00000000000E+00 0. -1.
         23    2    1    2    0    0  0.49167303429E+03 -0.82116260944E+02  0.60711529065E+01  0.50679591337E+03  0.91212860629E+02 0.  0.
        254    2    1    2    0    0 -0.49167303429E+03  0.82116260944E+02  0.20801833108E+03  0.10733382701E+04  0.92752248651E+03 0.  0.
        -24    2    4    4    0    0 -0.13037770439E+03 -0.30426656471E+03  0.38049233420E+03  0.51071946817E+03  0.80520001135E+02 0.  0.
         24    2    4    4    0    0 -0.36129532991E+03  0.38638282565E+03 -0.17247400312E+03  0.56261880190E+03  0.83466347257E+02 0.  0.
         13    1    3    3    0    0  0.62311155648E+02  0.81617600605E+01  0.25009800142E+02  0.67637153612E+02  0.00000000000E+00 0. -1.
        -13    1    3    3    0    0  0.42936187864E+03 -0.90278021004E+02 -0.18938647235E+02  0.43915875975E+03  0.00000000000E+00 0.  1.
          4    1    6    6  502    0 -0.33280310703E+03  0.38090943404E+03 -0.15636547333E+03  0.52943372224E+03  0.00000000000E+00 0. -1.
          3    1    5    5  503    0 -0.93607559422E+02 -0.22221348575E+03  0.21826089344E+03  0.32523687681E+03  0.00000000000E+00 0. -1.
         -4    1    5    5    0  503 -0.36770144963E+02 -0.82053078956E+02  0.16223144076E+03  0.18548259136E+03  0.00000000000E+00 0.  1.
         -3    1    6    6    0  502 -0.28492222876E+02  0.54733916106E+01 -0.16108529787E+02  0.33185079660E+02  0.00000000000E+00 0.  1.
<mgrwt>
<rscale>  0 0.15655637E+04</rscale>
<asrwt>0</asrwt>
<pdfrwt beam="1">  1        1 0.10508036E+00 0.15655637E+04</pdfrwt>
<pdfrwt beam="2">  1       -1 0.13801721E+00 0.15655637E+04</pdfrwt>
<totfact> 0.11840131E+01</totfact>
</mgrwt>
</event>
<event>
12    1  0.1518126E-007  0.1874240E+04  0.7818608E-02  0.8667786E-01
         -1   -1    0    0    0  501 -0.00000000000E+00  0.00000000000E+00  0.40949061167E+03  0.40949061167E+03  0.00000000000E+00 0.  1.
          1   -1    0    0  501    0  0.00000000000E+00 -0.00000000000E+00 -0.21446003508E+04  0.21446003508E+04  0.00000000000E+00 0. -1.
         23    2    1    2    0    0  0.42315812668E+03  0.18969149590E+03 -0.14258142743E+04  0.15021262894E+04  0.91604479859E+02 0.  0.
        254    2    1    2    0    0 -0.42315812668E+03 -0.18969149590E+03 -0.30929546486E+03  0.10519646731E+04  0.89214366841E+03 0.  0.
        -24    2    4    4    0    0 -0.61226848828E+03  0.20939401406E+02  0.82700733787E+01  0.61822414707E+03  0.82592624582E+02 0.  0.
         24    2    4    4    0    0  0.18911036160E+03 -0.21063089730E+03 -0.31756553824E+03  0.43374052603E+03  0.84586459230E+02 0.  0.
         11    1    3    3    0    0  0.27912750337E+03  0.16379304053E+03 -0.10532760563E+04  0.11018760248E+04  0.00000000000E+00 0. -1.
        -11    1    3    3    0    0  0.14403062331E+03  0.25898455365E+02 -0.37253821800E+03  0.40025026460E+03  0.00000000000E+00 0.  1.
          2    1    6    6  502    0  0.16885898451E+03 -0.21463754403E+03 -0.30573499587E+03  0.40994697176E+03  0.00000000000E+00 0. -1.
          3    1    5    5  503    0 -0.49031118377E+03  0.40799261254E+02  0.29327233921E+02  0.49287901487E+03  0.00000000000E+00 0. -1.
         -4    1    5    5    0  503 -0.12195730451E+03 -0.19859859848E+02 -0.21057160542E+02  0.12534513220E+03  0.00000000000E+00 0.  1.
         -1    1    6    6    0  502  0.20251377091E+02  0.40066467323E+01 -0.11830542371E+02  0.23793554272E+02  0.00000000000E+00 0.  1.
<mgrwt>
<rscale>  0 0.18742398E+04</rscale>
<asrwt>0</asrwt>
<pdfrwt beam="1">  1        1 0.32993851E+00 0.18742398E+04</pdfrwt>
<pdfrwt beam="2">  1       -1 0.62998556E-01 0.18742398E+04</pdfrwt>
<totfact> 0.56955900E+00</totfact>
</mgrwt>
</event>
<event>
12    1  0.1518126E-007  0.2812109E+04  0.7818608E-02  0.8299519E-01
         -1   -1    0    0    0  501 -0.00000000000E+00  0.00000000000E+00  0.14849840877E+04  0.14849840877E+04  0.00000000000E+00 0.  1.
          1   -1    0    0  501    0  0.00000000000E+00 -0.00000000000E+00 -0.13313202061E+04  0.13313202061E+04  0.00000000000E+00 0. -1.
         23    2    1    2    0    0 -0.51136153723E+03  0.56936881708E+03 -0.93239251363E+03  0.12095429367E+04  0.89257183145E+02 0.  0.
        254    2    1    2    0    0  0.51136153723E+03 -0.56936881708E+03  0.10860563953E+04  0.16067613570E+04  0.90359952029E+03 0.  0.
        -24    2    4    4    0    0 -0.23724707582E+02  0.20586315542E+03  0.11018354086E+03  0.24801797215E+03  0.80187289034E+02 0.  0.
         24    2    4    4    0    0  0.53508624482E+03 -0.77523197250E+03  0.97587285441E+03  0.13587433849E+04  0.80955897736E+02 0.  0.
         11    1    3    3    0    0 -0.20143181106E+03  0.16203064703E+03 -0.30260347070E+03  0.39799191646E+03  0.00000000000E+00 0.  1.
        -11    1    3    3    0    0 -0.30992972617E+03  0.40733817005E+03 -0.62978904293E+03  0.81155102029E+03  0.00000000000E+00 0. -1.
          4    1    6    6  502    0  0.34614277597E+03 -0.55655582799E+03  0.70603218135E+03  0.96335385613E+03  0.00000000000E+00 0. -1.
          1    1    5    5  503    0 -0.38161751046E+02  0.18949160982E+03  0.76507354318E+02  0.20788642260E+03  0.00000000000E+00 0. -1.
         -2    1    5    5    0  503  0.14437043464E+02  0.16371545595E+02  0.33676186540E+02  0.40131549546E+02  0.00000000000E+00 0.  1.
         -3    1    6    6    0  502  0.18894346885E+03 -0.21867614450E+03  0.26984067306E+03  0.39538952874E+03  0.00000000000E+00 0.  1.
<mgrwt>
<rscale>  0 0.28121090E+04</rscale>
<asrwt>0</asrwt>
<pdfrwt beam="1">  1        1 0.20481849E+00 0.28121090E+04</pdfrwt>
<pdfrwt beam="2">  1       -1 0.22845909E+00 0.28121090E+04</pdfrwt>
<totfact> 0.71811949E-01</totfact>
</mgrwt>
</event>
<event>
12    1  0.1518126E-007  0.3339149E+04  0.7818608E-02  0.8153005E-01
          2   -1    0    0  501    0  0.00000000000E+00  0.00000000000E+00  0.20730767718E+04  0.20730767718E+04  0.00000000000E+00 0. -1.
         -2   -1    0    0    0  501 -0.00000000000E+00 -0.00000000000E+00 -0.13446096828E+04  0.13446096828E+04  0.00000000000E+00 0.  1.
         23    2    1    2    0    0  0.11603791510E+04 -0.94902910576E+03  0.68935272237E+03  0.16535072750E+04  0.10836565413E+03 0.  0.
        254    2    1    2    0    0 -0.11603791510E+04  0.94902910576E+03  0.39114366656E+02  0.17641791796E+04  0.92933429206E+03 0.  0.
        -24    2    4    4    0    0 -0.10498575785E+04  0.49362182294E+03 -0.27430352860E+03  0.11946385878E+04  0.77817031117E+02 0.  0.
         24    2    4    4    0    0 -0.11052157247E+03  0.45540728283E+03  0.31341789526E+03  0.56954059183E+03  0.80838712500E+02 0.  0.
         11    1    3    3    0    0  0.17763062337E+03 -0.12530150747E+03  0.13943463639E+03  0.25825399117E+03  0.00000000000E+00 0. -1.
        -11    1    3    3    0    0  0.98274852760E+03 -0.82372759830E+03  0.54991808598E+03  0.13952532838E+04  0.00000000000E+00 0.  1.
          4    1    6    6  502    0 -0.34836818641E+02  0.25146404104E+03  0.20599850698E+03  0.32692988965E+03  0.00000000000E+00 0. -1.
          3    1    5    5  503    0 -0.85760312509E+03  0.42853560807E+03 -0.24538544079E+03  0.98961603771E+03  0.00000000000E+00 0. -1.
         -4    1    5    5    0  503 -0.19225445342E+03  0.65086214863E+02 -0.28918087813E+02  0.20502255005E+03  0.00000000000E+00 0.  1.
         -3    1    6    6    0  502 -0.75684753827E+02  0.20394324179E+03  0.10741938828E+03  0.24261070217E+03  0.00000000000E+00 0.  1.
<mgrwt>
<rscale>  0 0.33391491E+04</rscale>
<asrwt>0</asrwt>
<pdfrwt beam="1">  1        2 0.31893489E+00 0.33391491E+04</pdfrwt>
<pdfrwt beam="2">  1       -2 0.20686303E+00 0.33391491E+04</pdfrwt>
<totfact> 0.60763368E-01</totfact>
</mgrwt>
</event>
<event>
12    1  0.1753265E-007  0.2376713E+04  0.7818608E-02  0.8448274E-01
         -2   -1    0    0    0  501 -0.00000000000E+00  0.00000000000E+00  0.10260942591E+04  0.10260942591E+04  0.00000000000E+00 0. -1.
          2   -1    0    0  501    0  0.00000000000E+00 -0.00000000000E+00 -0.13762782445E+04  0.13762782445E+04  0.00000000000E+00 0.  1.
         23    2    1    2    0    0  0.21617433760E+03  0.63684923962E+03 -0.91853924758E+03  0.11419519351E+04  0.89619051517E+02 0.  0.
        254    2    1    2    0    0 -0.21617433760E+03 -0.63684923962E+03  0.56835526225E+03  0.12604205686E+04  0.90184478004E+03 0.  0.
        -24    2    4    4    0    0  0.29180358075E+03 -0.20630350975E+03  0.44717781965E+03  0.57901427271E+03  0.87057783953E+02 0.  0.
         24    2    4    4    0    0 -0.50797791835E+03 -0.43054572988E+03  0.12117744260E+03  0.68140629585E+03  0.78863022913E+02 0.  0.
         13    1    3    3    0    0  0.34834021206E+02  0.10872064957E+03 -0.10428499827E+03  0.15462519051E+03  0.00000000000E+00 0. -1.
        -13    1    3    3    0    0  0.18134031639E+03  0.52812859005E+03 -0.81425424931E+03  0.98732674455E+03  0.00000000000E+00 0.  1.
          4    1    6    6  502    0 -0.48245467157E+03 -0.38191771798E+03  0.10559073298E+03  0.62431807304E+03  0.00000000000E+00 0. -1.
          3    1    5    5  503    0  0.27003684763E+03 -0.15822246713E+03  0.35923331839E+03  0.47644813487E+03  0.00000000000E+00 0. -1.
         -4    1    5    5    0  503  0.21766733123E+02 -0.48081042617E+02  0.87944501259E+02  0.10256613784E+03  0.00000000000E+00 0.  1.
         -3    1    6    6    0  502 -0.25523246772E+02 -0.48628011894E+02  0.15586709623E+02  0.57088222808E+02  0.00000000000E+00 0.  1.
<mgrwt>
<rscale>  0 0.23767130E+04</rscale>
<asrwt>0</asrwt>
<pdfrwt beam="1">  1        2 0.21173511E+00 0.23767130E+04</pdfrwt>
<pdfrwt beam="2">  1       -2 0.15786066E+00 0.23767130E+04</pdfrwt>
<totfact> 0.35154381E+00</totfact>
</mgrwt>
</event>
<event>
12    1  0.1518126E-007  0.1085422E+04  0.7818608E-02  0.9219518E-01
         -2   -1    0    0    0  501 -0.00000000000E+00  0.00000000000E+00  0.20105701175E+03  0.20105701175E+03  0.00000000000E+00 0.  1.
          2   -1    0    0  501    0  0.00000000000E+00 -0.00000000000E+00 -0.14649347436E+04  0.14649347436E+04  0.00000000000E+00 0. -1.
         23    2    1    2    0    0  0.29363140042E+02  0.13553832046E+03 -0.10042369109E+03  0.18589753950E+03  0.72388860684E+02 0.  0.
        254    2    1    2    0    0 -0.29363140042E+02 -0.13553832046E+03 -0.11634540407E+04  0.14800942158E+04  0.90433442516E+03 0.  0.
        -24    2    4    4    0    0 -0.15497374063E+02  0.21435917350E+03 -0.10902595696E+04  0.11138199236E+04  0.75755325575E+02 0.  0.
         24    2    4    4    0    0 -0.13865765978E+02 -0.34989749396E+03 -0.73194471149E+02  0.36627429219E+03  0.78606047920E+02 0.  0.
         11    1    3    3    0    0 -0.33224191162E+00  0.96115568487E+02 -0.31543092955E+02  0.10115967380E+03  0.00000000000E+00 0. -1.
        -11    1    3    3    0    0  0.29695381953E+02  0.39422751974E+02 -0.68880598139E+02  0.84737865695E+02  0.00000000000E+00 0.  1.
          2    1    6    6  502    0 -0.35126428764E+02 -0.76115507867E+02 -0.24935564087E+02  0.87459813011E+02  0.00000000000E+00 0. -1.
          3    1    5    5  503    0 -0.17397203248E+02  0.21642569730E+02 -0.66283880402E+02  0.71865264951E+02  0.00000000000E+00 0. -1.
         -4    1    5    5    0  503  0.18998291843E+01  0.19271660377E+03 -0.10239756892E+04  0.10419546587E+04  0.00000000000E+00 0.  1.
         -3    1    6    6    0  502  0.21260662786E+02 -0.27378198609E+03 -0.48258907062E+02  0.27881447918E+03  0.00000000000E+00 0.  1.
<mgrwt>
<rscale>  0 0.10854223E+04</rscale>
<asrwt>0</asrwt>
<pdfrwt beam="1">  1        2 0.22537458E+00 0.10854223E+04</pdfrwt>
<pdfrwt beam="2">  1       -2 0.30931847E-01 0.10854223E+04</pdfrwt>
<totfact> 0.12775318E+02</totfact>
</mgrwt>
</event>
<event>
12    1  0.1518126E-007  0.1861795E+04  0.7818608E-02  0.8674110E-01
         -2   -1    0    0    0  501 -0.00000000000E+00  0.00000000000E+00  0.28058709531E+03  0.28058709531E+03  0.00000000000E+00 0.  1.
          2   -1    0    0  501    0  0.00000000000E+00 -0.00000000000E+00 -0.30884190634E+04  0.30884190634E+04  0.00000000000E+00 0. -1.
         23    2    1    2    0    0 -0.17082350753E+03 -0.28780577454E+03  0.54163943239E+02  0.35046949158E+03  0.88782302268E+02 0.  0.
        254    2    1    2    0    0  0.17082350753E+03  0.28780577454E+03 -0.28619959113E+04  0.30185366671E+04  0.89918306240E+03 0.  0.
        -24    2    4    4    0    0  0.53475813138E+03  0.17101484765E+03 -0.17910482531E+04  0.18786775118E+04  0.79768484862E+02 0.  0.
         24    2    4    4    0    0 -0.36393462385E+03  0.11679092690E+03 -0.10709476582E+04  0.11398591553E+04  0.79129490613E+02 0.  0.
         13    1    3    3    0    0 -0.39903016923E+02 -0.13402275640E+03 -0.52886060332E+01  0.13993684056E+03  0.00000000000E+00 0. -1.
        -13    1    3    3    0    0 -0.13092049060E+03 -0.15378301814E+03  0.59452549272E+02  0.21053265102E+03  0.00000000000E+00 0.  1.
          4    1    6    6  502    0 -0.36013029170E+02  0.38805090650E+01 -0.50957863900E+02  0.62519601038E+02  0.00000000000E+00 0. -1.
          1    1    5    5  503    0  0.19657675888E+02  0.24031586284E+02 -0.11459246766E+03  0.11872394453E+03  0.00000000000E+00 0. -1.
         -2    1    5    5    0  503  0.51510045549E+03  0.14698326136E+03 -0.16764557855E+04  0.17599535673E+04  0.00000000000E+00 0.  1.
         -3    1    6    6    0  502 -0.32792159468E+03  0.11291041783E+03 -0.10199897943E+04  0.10773395543E+04  0.00000000000E+00 0.  1.
<mgrwt>
<rscale>  0 0.18617954E+04</rscale>
<asrwt>0</asrwt>
<pdfrwt beam="1">  1        2 0.47514138E+00 0.18617954E+04</pdfrwt>
<pdfrwt beam="2">  1       -2 0.43167247E-01 0.18617954E+04</pdfrwt>
<totfact> 0.73456285E+00</totfact>
</mgrwt>
</event>
<event>
12    1  0.1518126E-007  0.1981038E+04  0.7818608E-02  0.8615538E-01
          2   -1    0    0  501    0  0.00000000000E+00  0.00000000000E+00  0.76996330638E+03  0.76996330638E+03  0.00000000000E+00 0. -1.
         -2   -1    0    0    0  501 -0.00000000000E+00 -0.00000000000E+00 -0.12742527149E+04  0.12742527149E+04  0.00000000000E+00 0.  1.
         23    2    1    2    0    0  0.69109622082E+03 -0.35718187534E+03 -0.17773497847E+03  0.80310399633E+03  0.90517555395E+02 0.  0.
        254    2    1    2    0    0 -0.69109622082E+03  0.35718187534E+03 -0.32655443006E+03  0.12411120250E+04  0.91023534549E+03 0.  0.
        -24    2    4    4    0    0 -0.30960487984E+03  0.17165483649E+03  0.30637893667E+03  0.47501928113E+03  0.80341148216E+02 0.  0.
         24    2    4    4    0    0 -0.38149134098E+03  0.18552703885E+03 -0.63293336673E+03  0.76609274382E+03  0.79608542374E+02 0.  0.
         11    1    3    3    0    0  0.46710408189E+03 -0.25056547643E+03 -0.78173223140E+02  0.53579878136E+03  0.00000000000E+00 0. -1.
        -11    1    3    3    0    0  0.22399213894E+03 -0.10661639891E+03 -0.99561755327E+02  0.26730521496E+03  0.00000000000E+00 0.  1.
          2    1    6    6  502    0 -0.35008275769E+03  0.19109704407E+03 -0.57213176447E+03  0.69743155463E+03  0.00000000000E+00 0. -1.
          3    1    5    5  503    0 -0.14179229225E+03  0.38762875865E+02  0.10085340849E+03  0.17826672345E+03  0.00000000000E+00 0. -1.
         -4    1    5    5    0  503 -0.16781258760E+03  0.13289196062E+03  0.20552552819E+03  0.29675255768E+03  0.00000000000E+00 0.  1.
         -1    1    6    6    0  502 -0.31408583287E+02 -0.55700052171E+01 -0.60801602263E+02  0.68661189183E+02  0.00000000000E+00 0.  1.
<mgrwt>
<rscale>  0 0.19810379E+04</rscale>
<asrwt>0</asrwt>
<pdfrwt beam="1">  1        2 0.11845589E+00 0.19810379E+04</pdfrwt>
<pdfrwt beam="2">  1       -2 0.19603888E+00 0.19810379E+04</pdfrwt>
<totfact> 0.47599082E+00</totfact>
</mgrwt>
</event>
<event>
12    1  0.1518126E-007  0.1647822E+04  0.7818608E-02  0.8791696E-01
          4   -1    0    0  501    0  0.00000000000E+00  0.00000000000E+00  0.80775420771E+03  0.80775420771E+03  0.00000000000E+00 0. -1.
         -4   -1    0    0    0  501 -0.00000000000E+00 -0.00000000000E+00 -0.84039110289E+03  0.84039110289E+03  0.00000000000E+00 0.  1.
         23    2    1    2    0    0 -0.73382826314E+02  0.58745389866E+03 -0.37362813857E+02  0.60018054499E+03  0.91288468507E+02 0.  0.
        254    2    1    2    0    0  0.73382826314E+02 -0.58745389866E+03  0.47259186797E+01  0.10479647656E+04  0.86470844416E+03 0.  0.
        -24    2    4    4    0    0  0.13946737060E+03 -0.13506031563E+03  0.39122969871E+03  0.44391367915E+03  0.79411844565E+02 0.  0.
         24    2    4    4    0    0 -0.66084544291E+02 -0.45239358302E+03 -0.38650378003E+03  0.60405108647E+03  0.80407848665E+02 0.  0.
         11    1    3    3    0    0 -0.76347814216E+02  0.58809944723E+03 -0.31851726388E+02  0.59388928349E+03  0.00000000000E+00 0.  1.
        -11    1    3    3    0    0  0.29649879017E+01 -0.64554857323E+00 -0.55110874692E+01  0.62912615039E+01  0.00000000000E+00 0. -1.
          2    1    6    6  502    0  0.21433276762E+01 -0.17649767376E+02 -0.40568935882E+02  0.44293867527E+02  0.00000000000E+00 0. -1.
          3    1    5    5  503    0  0.54826236924E+02 -0.10278990753E+03  0.25454808736E+03  0.27994001165E+03  0.00000000000E+00 0. -1.
         -4    1    5    5    0  503  0.84641133681E+02 -0.32270408105E+02  0.13668161135E+03  0.16397366749E+03  0.00000000000E+00 0.  1.
         -1    1    6    6    0  502 -0.68227871967E+02 -0.43474381565E+03 -0.34593484415E+03  0.55975721894E+03  0.00000000000E+00 0.  1.
<mgrwt>
<rscale>  0 0.16478221E+04</rscale>
<asrwt>0</asrwt>
<pdfrwt beam="1">  1        4 0.12426988E+00 0.16478221E+04</pdfrwt>
<pdfrwt beam="2">  1       -4 0.12929094E+00 0.16478221E+04</pdfrwt>
<totfact> 0.40654068E-01</totfact>
</mgrwt>
</event>
<event>
12    1  0.1518126E-007  0.1672461E+04  0.7818608E-02  0.8777229E-01
         -2   -1    0    0    0  501 -0.00000000000E+00  0.00000000000E+00  0.48078690210E+03  0.48078690210E+03  0.00000000000E+00 0. -1.
          2   -1    0    0  501    0  0.00000000000E+00 -0.00000000000E+00 -0.14544516992E+04  0.14544516992E+04  0.00000000000E+00 0.  1.
         23    2    1    2    0    0  0.91985704239E+02 -0.38411019363E+03 -0.86880792740E+03  0.95889439657E+03  0.93001281805E+02 0.  0.
        254    2    1    2    0    0 -0.91985704239E+02  0.38411019363E+03 -0.10485686965E+03  0.97634420469E+03  0.88670797463E+03 0.  0.
        -24    2    4    4    0    0  0.30104147585E+03  0.45824734728E+03 -0.12442296349E+03  0.56741276100E+03  0.76547802239E+02 0.  0.
         24    2    4    4    0    0 -0.39302718009E+03 -0.74137153652E+02  0.19566093837E+02  0.40893144369E+03  0.82918102782E+02 0.  0.
         11    1    3    3    0    0  0.77202467758E+01 -0.20522799830E+03 -0.38769441426E+03  0.43873123018E+03  0.00000000000E+00 0. -1.
        -11    1    3    3    0    0  0.84265457464E+02 -0.17888219534E+03 -0.48111351315E+03  0.52016316639E+03  0.00000000000E+00 0.  1.
          4    1    6    6  502    0 -0.43563406962E+02 -0.13799405976E+02  0.29087967751E+02  0.54169215421E+02  0.00000000000E+00 0. -1.
          1    1    5    5  503    0  0.64078144615E+02  0.16182838335E+03 -0.42866478544E+02  0.17925392397E+03  0.00000000000E+00 0. -1.
         -2    1    5    5    0  503  0.23696333123E+03  0.29641896393E+03 -0.81556484945E+02  0.38815883703E+03  0.00000000000E+00 0.  1.
         -3    1    6    6    0  502 -0.34946377313E+03 -0.60337747675E+02 -0.95218739139E+01  0.35476222827E+03  0.00000000000E+00 0.  1.
<mgrwt>
<rscale>  0 0.16724609E+04</rscale>
<asrwt>0</asrwt>
<pdfrwt beam="1">  1        2 0.22376179E+00 0.16724609E+04</pdfrwt>
<pdfrwt beam="2">  1       -2 0.73967218E-01 0.16724609E+04</pdfrwt>
<totfact> 0.21152485E+01</totfact>
</mgrwt>
</event>
<event>
12    1  0.1518126E-007  0.1192641E+04  0.7818608E-02  0.9119322E-01
          1   -1    0    0  501    0  0.00000000000E+00  0.00000000000E+00  0.12862900237E+04  0.12862900237E+04  0.00000000000E+00 0. -1.
         -1   -1    0    0    0  501 -0.00000000000E+00 -0.00000000000E+00 -0.27645249448E+03  0.27645249448E+03  0.00000000000E+00 0.  1.
         23    2    1    2    0    0 -0.99214320729E+02  0.10726486062E+03  0.46812510153E+03  0.49885888820E+03  0.91486872780E+02 0.  0.
        254    2    1    2    0    0  0.99214320729E+02 -0.10726486062E+03  0.54171242772E+03  0.10638836300E+04  0.90390640672E+03 0.  0.
        -24    2    4    4    0    0 -0.65324300904E+01  0.38303228795E+03  0.33853616851E+03  0.51713252294E+03  0.77864643088E+02 0.  0.
         24    2    4    4    0    0  0.10574675082E+03 -0.49029714857E+03  0.20317625921E+03  0.54675110708E+03  0.77990458272E+02 0.  0.
         13    1    3    3    0    0 -0.76047688527E+02  0.22879540543E+02  0.28568743455E+03  0.29651987212E+03  0.00000000000E+00 0. -1.
        -13    1    3    3    0    0 -0.23166632201E+02  0.84385320080E+02  0.18243766698E+03  0.20233901607E+03  0.00000000000E+00 0.  1.
          4    1    6    6  502    0 -0.49079179344E+01 -0.10425707030E-01  0.28963713481E+01  0.56988362086E+01  0.00000000000E+00 0. -1.
          1    1    5    5  503    0 -0.12072187281E+02  0.12177670967E+03  0.63943324473E+02  0.13807263838E+03  0.00000000000E+00 0. -1.
         -2    1    5    5    0  503  0.55397571903E+01  0.26125557827E+03  0.27459284404E+03  0.37905988456E+03  0.00000000000E+00 0.  1.
         -3    1    6    6    0  502  0.11065466875E+03 -0.49028672286E+03  0.20027988787E+03  0.54105227087E+03  0.00000000000E+00 0.  1.
<mgrwt>
<rscale>  0 0.11926409E+04</rscale>
<asrwt>0</asrwt>
<pdfrwt beam="1">  1        1 0.19789077E+00 0.11926409E+04</pdfrwt>
<pdfrwt beam="2">  1       -1 0.42531154E-01 0.11926409E+04</pdfrwt>
<totfact> 0.49818698E+01</totfact>
</mgrwt>
</event>
<event>
12    1  0.1518126E-007  0.1511201E+04  0.7818608E-02  0.8877038E-01
          2   -1    0    0  501    0  0.00000000000E+00  0.00000000000E+00  0.32899019309E+04  0.32899019309E+04  0.00000000000E+00 0.  1.
         -2   -1    0    0    0  501 -0.00000000000E+00 -0.00000000000E+00 -0.17354074918E+03  0.17354074918E+03  0.00000000000E+00 0. -1.
         23    2    1    2    0    0  0.21068133198E+03 -0.20596015445E+03  0.13836440566E+03  0.33834954329E+03  0.92355269619E+02 0.  0.
        254    2    1    2    0    0 -0.21068133198E+03  0.20596015445E+03  0.29779967761E+04  0.31250931368E+04  0.90051990899E+03 0.  0.
        -24    2    4    4    0    0  0.89505022064E+02  0.16101356412E+03  0.26971512503E+04  0.27045718711E+04  0.78406772902E+02 0.  0.
         24    2    4    4    0    0 -0.30018635405E+03  0.44946590324E+02  0.28084552581E+03  0.42052126575E+03  0.76366762699E+02 0.  0.
         11    1    3    3    0    0  0.56233105941E+02 -0.48908305463E+02 -0.63453394030E+01  0.74796041868E+02  0.00000000000E+00 0.  1.
        -11    1    3    3    0    0  0.15444822604E+03 -0.15705184898E+03  0.14470974506E+03  0.26355350142E+03  0.00000000000E+00 0. -1.
          2    1    6    6  502    0 -0.29343290893E+03  0.34102188614E+02  0.28105077829E+03  0.40774424740E+03  0.00000000000E+00 0. -1.
          1    1    5    5  503    0  0.71874992657E+02  0.13348712794E+03  0.25109779705E+04  0.25155506746E+04  0.00000000000E+00 0. -1.
         -4    1    5    5    0  503  0.17630029406E+02  0.27526436186E+02  0.18617327978E+03  0.18902119651E+03  0.00000000000E+00 0.  1.
         -3    1    6    6    0  502 -0.67534451138E+01  0.10844401710E+02 -0.20525247812E+00  0.12777018351E+02  0.00000000000E+00 0.  1.
<mgrwt>
<rscale>  0 0.15112009E+04</rscale>
<asrwt>0</asrwt>
<pdfrwt beam="1">  1        2 0.50613871E+00 0.15112009E+04</pdfrwt>
<pdfrwt beam="2">  1       -2 0.26698579E-01 0.15112009E+04</pdfrwt>
<totfact> 0.14047056E+01</totfact>
</mgrwt>
</event>
<event>
12    1  0.1518126E-007  0.1993258E+04  0.7818608E-02  0.8609779E-01
         -1   -1    0    0    0  501 -0.00000000000E+00  0.00000000000E+00  0.46923160065E+03  0.46923160065E+03  0.00000000000E+00 0.  1.
          1   -1    0    0  501    0  0.00000000000E+00 -0.00000000000E+00 -0.21168001788E+04  0.21168001788E+04  0.00000000000E+00 0. -1.
         23    2    1    2    0    0 -0.16289678076E+03 -0.23412978168E+03 -0.15509871146E+04  0.15796833456E+04  0.92121262261E+02 0.  0.
        254    2    1    2    0    0  0.16289678076E+03  0.23412978168E+03 -0.96581463516E+02  0.10063484338E+04  0.96023803051E+03 0.  0.
        -24    2    4    4    0    0 -0.22051935043E+03  0.12678458705E+03 -0.41309942535E+03  0.49143698604E+03  0.78460567115E+02 0.  0.
         24    2    4    4    0    0  0.38341613119E+03  0.10734519463E+03  0.31651796184E+03  0.51491144775E+03  0.80120274570E+02 0.  0.
         13    1    3    3    0    0 -0.15129782410E+03 -0.14528053240E+03 -0.10499515307E+04  0.10706986885E+04  0.00000000000E+00 0. -1.
        -13    1    3    3    0    0 -0.11598956665E+02 -0.88849249281E+02 -0.50103558385E+03  0.50898465711E+03  0.00000000000E+00 0.  1.
          2    1    6    6  502    0  0.10407928090E+03 -0.10682459727E+01  0.10710098654E+03  0.14934610534E+03  0.00000000000E+00 0. -1.
          1    1    5    5  503    0 -0.38254433797E+02  0.60929240913E+02 -0.99410932403E+02  0.12271229598E+03  0.00000000000E+00 0. -1.
         -2    1    5    5    0  503 -0.18226491663E+03  0.65855346141E+02 -0.31368849295E+03  0.36872469006E+03  0.00000000000E+00 0.  1.
         -3    1    6    6    0  502  0.27933685029E+03  0.10841344060E+03  0.20941697529E+03  0.36556534241E+03  0.00000000000E+00 0.  1.
<mgrwt>
<rscale>  0 0.19932582E+04</rscale>
<asrwt>0</asrwt>
<pdfrwt beam="1">  1        1 0.32566157E+00 0.19932582E+04</pdfrwt>
<pdfrwt beam="2">  1       -1 0.72189477E-01 0.19932582E+04</pdfrwt>
<totfact> 0.44607141E+00</totfact>
</mgrwt>
</event>
<event>
12    1  0.1518126E-007  0.1671194E+04  0.7818608E-02  0.8777966E-01
         -2   -1    0    0    0  501 -0.00000000000E+00  0.00000000000E+00  0.38037328494E+04  0.38037328494E+04  0.00000000000E+00 0. -1.
          2   -1    0    0  501    0  0.00000000000E+00 -0.00000000000E+00 -0.18356251215E+03  0.18356251215E+03  0.00000000000E+00 0.  1.
         23    2    1    2    0    0  0.37945762038E+03 -0.28006335968E+03  0.44748434085E+03  0.65445506220E+03  0.75137354486E+02 0.  0.
        254    2    1    2    0    0 -0.37945762038E+03  0.28006335968E+03  0.31726859964E+04  0.33328402994E+04  0.90524276196E+03 0.  0.
        -24    2    4    4    0    0 -0.63122807615E+03  0.21953390957E+03  0.27510654394E+04  0.28321891155E+04  0.79310230791E+02 0.  0.
         24    2    4    4    0    0  0.25177045577E+03  0.60529450113E+02  0.42162055707E+03  0.50065118387E+03  0.76390686898E+02 0.  0.
         11    1    3    3    0    0  0.30708628598E+03 -0.20733490632E+03  0.38494397768E+03  0.53429543922E+03  0.00000000000E+00 0.  1.
        -11    1    3    3    0    0  0.72371334403E+02 -0.72728453357E+02  0.62540363165E+02  0.12015962298E+03  0.00000000000E+00 0. -1.
          2    1    6    6  502    0  0.72008305673E+02  0.20670443929E+02  0.19347379420E+03  0.20747185925E+03  0.00000000000E+00 0. -1.
          3    1    5    5  503    0 -0.48046855018E+03  0.16915108236E+03  0.19445292851E+04  0.20101383677E+04  0.00000000000E+00 0. -1.
         -4    1    5    5    0  503 -0.15075952598E+03  0.50382827201E+02  0.80653615422E+03  0.82205074784E+03  0.00000000000E+00 0.  1.
         -1    1    6    6    0  502  0.17976215010E+03  0.39859006184E+02  0.22814676286E+03  0.29317932462E+03  0.00000000000E+00 0.  1.
<mgrwt>
<rscale>  0 0.16711945E+04</rscale>
<asrwt>0</asrwt>
<pdfrwt beam="1">  1        2 0.28240389E-01 0.16711945E+04</pdfrwt>
<pdfrwt beam="2">  1       -2 0.58518961E+00 0.16711945E+04</pdfrwt>
<totfact> 0.10413956E-01</totfact>
</mgrwt>
</event>
<event>
12    1  0.1518126E-007  0.1662873E+04  0.7818608E-02  0.8782827E-01
         -1   -1    0    0    0  501 -0.00000000000E+00  0.00000000000E+00  0.61276768696E+03  0.61276768696E+03  0.00000000000E+00 0.  1.
          1   -1    0    0  501    0  0.00000000000E+00 -0.00000000000E+00 -0.11281377493E+04  0.11281377493E+04  0.00000000000E+00 0. -1.
         23    2    1    2    0    0  0.22853282191E+03  0.34838503307E+03  0.27236931130E+03  0.50603628556E+03  0.91040093379E+02 0.  0.
        254    2    1    2    0    0 -0.22853282191E+03 -0.34838503307E+03 -0.78773937367E+03  0.12348691507E+04  0.85485034750E+03 0.  0.
        -24    2    4    4    0    0 -0.30164677972E+03  0.20945177403E+03 -0.24107790654E+03  0.44658483995E+03  0.80365644951E+02 0.  0.
         24    2    4    4    0    0  0.73113957804E+02 -0.55783680710E+03 -0.54666146713E+03  0.78828431078E+03  0.77626289249E+02 0.  0.
         11    1    3    3    0    0  0.87782533013E+02  0.20329996654E+03  0.11287373487E+03  0.24855005436E+03  0.00000000000E+00 0. -1.
        -11    1    3    3    0    0  0.14075028890E+03  0.14508506653E+03  0.15949557643E+03  0.25748623120E+03  0.00000000000E+00 0.  1.
          2    1    6    6  502    0  0.84849386624E+02 -0.37152548534E+03 -0.37581924735E+03  0.53522958751E+03  0.00000000000E+00 0. -1.
          1    1    5    5  503    0 -0.28090938230E+03  0.17888328485E+03 -0.18958331129E+03  0.38321161593E+03  0.00000000000E+00 0. -1.
         -2    1    5    5    0  503 -0.20737397421E+02  0.30568489185E+02 -0.51494595250E+02  0.63373224021E+02  0.00000000000E+00 0.  1.
         -1    1    6    6    0  502 -0.11735428819E+02 -0.18631132177E+03 -0.17084221979E+03  0.25305472327E+03  0.00000000000E+00 0.  1.
<mgrwt>
<rscale>  0 0.16628726E+04</rscale>
<asrwt>0</asrwt>
<pdfrwt beam="1">  1        1 0.17355965E+00 0.16628726E+04</pdfrwt>
<pdfrwt beam="2">  1       -1 0.94271952E-01 0.16628726E+04</pdfrwt>
<totfact> 0.12560923E+01</totfact>
</mgrwt>
</event>
<event>
12    1  0.1518126E-007  0.2399088E+04  0.7818608E-02  0.8439845E-01
          1   -1    0    0  501    0  0.00000000000E+00  0.00000000000E+00  0.18087255231E+04  0.18087255231E+04  0.00000000000E+00 0. -1.
         -1   -1    0    0    0  501 -0.00000000000E+00 -0.00000000000E+00 -0.79553552716E+03  0.79553552716E+03  0.00000000000E+00 0.  1.
         23    2    1    2    0    0 -0.25646958463E+03 -0.67446796624E+02 -0.62938347536E+03  0.68901729660E+03  0.91079952456E+02 0.  0.
        254    2    1    2    0    0  0.25646958463E+03  0.67446796624E+02  0.16425734713E+04  0.19152437537E+04  0.94857013925E+03 0.  0.
        -24    2    4    4    0    0  0.54400273525E+02  0.38948617813E+03  0.13997972128E+04  0.14559560845E+04  0.75610914259E+02 0.  0.
         24    2    4    4    0    0  0.20206931111E+03 -0.32203938151E+03  0.24277625854E+03  0.45928766918E+03  0.86391444091E+02 0.  0.
         13    1    3    3    0    0 -0.10078063738E+03 -0.15582633907E+01 -0.15018444582E+03  0.18087159208E+03  0.00000000000E+00 0. -1.
        -13    1    3    3    0    0 -0.15568894725E+03 -0.65888533233E+02 -0.47919902954E+03  0.50814570452E+03  0.00000000000E+00 0.  1.
          4    1    6    6  502    0  0.14016779156E+03 -0.25780117773E+03  0.22128422895E+03  0.36752573652E+03  0.00000000000E+00 0. -1.
          3    1    5    5  503    0  0.15238053561E+02  0.27239623949E+03  0.10555620974E+04  0.10902491692E+04  0.00000000000E+00 0. -1.
         -4    1    5    5    0  503  0.39162219964E+02  0.11708993865E+03  0.34423511541E+03  0.36570691529E+03  0.00000000000E+00 0.  1.
         -3    1    6    6    0  502  0.61901519551E+02 -0.64238203784E+02  0.21492029593E+02  0.91761932653E+02  0.00000000000E+00 0.  1.
<mgrwt>
<rscale>  0 0.23990877E+04</rscale>
<asrwt>0</asrwt>
<pdfrwt beam="1">  1        1 0.27826546E+00 0.23990877E+04</pdfrwt>
<pdfrwt beam="2">  1       -1 0.12239008E+00 0.23990877E+04</pdfrwt>
<totfact> 0.21237178E+00</totfact>
</mgrwt>
</event>
<event>
12    1  0.1518126E-007  0.1787363E+04  0.7818608E-02  0.8713049E-01
         -1   -1    0    0    0  501 -0.00000000000E+00  0.00000000000E+00  0.38038080932E+03  0.38038080932E+03  0.00000000000E+00 0.  1.
          1   -1    0    0  501    0  0.00000000000E+00 -0.00000000000E+00 -0.20996491755E+04  0.20996491755E+04  0.00000000000E+00 0. -1.
         23    2    1    2    0    0 -0.15856393079E+03 -0.42655051933E+03  0.40860529126E+02  0.46581297914E+03  0.90687832734E+02 0.  0.
        254    2    1    2    0    0  0.15856393079E+03  0.42655051933E+03 -0.17601288953E+04  0.20142170057E+04  0.86713813906E+03 0.  0.
        -24    2    4    4    0    0  0.30493293571E+03 -0.84181183295E+02 -0.24922772729E+03  0.41048593335E+03  0.79458634043E+02 0.  0.
         24    2    4    4    0    0 -0.14636900492E+03  0.51073170262E+03 -0.15109011680E+04  0.16037310723E+04  0.82826657475E+02 0.  0.
         11    1    3    3    0    0 -0.84879171744E+02 -0.12399135880E+03 -0.86012291354E+01  0.15050685033E+03  0.00000000000E+00 0.  1.
        -11    1    3    3    0    0 -0.73684759050E+02 -0.30255916053E+03  0.49461758261E+02  0.31530612881E+03  0.00000000000E+00 0. -1.
          4    1    6    6  502    0 -0.33472410480E+02  0.58138689075E+02 -0.13201990515E+03  0.14808701762E+03  0.00000000000E+00 0. -1.
          1    1    5    5  503    0  0.45697119621E+02 -0.43436651154E+02 -0.59245799742E+02  0.86516092099E+02  0.00000000000E+00 0. -1.
         -2    1    5    5    0  503  0.25923581609E+03 -0.40744532141E+02 -0.18998192755E+03  0.32396984125E+03  0.00000000000E+00 0.  1.
         -3    1    6    6    0  502 -0.11289659444E+03  0.45259301355E+03 -0.13788812629E+04  0.14556440547E+04  0.00000000000E+00 0.  1.
<mgrwt>
<rscale>  0 0.17873626E+04</rscale>
<asrwt>0</asrwt>
<pdfrwt beam="1">  1        1 0.32302294E+00 0.17873626E+04</pdfrwt>
<pdfrwt beam="2">  1       -1 0.58520126E-01 0.17873626E+04</pdfrwt>
<totfact> 0.71292694E+00</totfact>
</mgrwt>
</event>
<event>
12    1  0.1518126E-007  0.1122195E+04  0.7818608E-02  0.9183825E-01
          2   -1    0    0  501    0  0.00000000000E+00  0.00000000000E+00  0.10896625709E+04  0.10896625709E+04  0.00000000000E+00 0. -1.
         -2   -1    0    0    0  501 -0.00000000000E+00 -0.00000000000E+00 -0.28892486284E+03  0.28892486284E+03  0.00000000000E+00 0.  1.
         23    2    1    2    0    0  0.10064891945E+02 -0.14170260387E+03  0.43515995414E+01  0.16892125823E+03  0.91293620100E+02 0.  0.
        254    2    1    2    0    0 -0.10064891945E+02  0.14170260387E+03  0.79638610854E+03  0.12096661755E+04  0.89937783626E+03 0.  0.
        -24    2    4    4    0    0 -0.38090285488E+03 -0.16488311393E+03  0.38705075116E+03  0.57294432488E+03  0.78635165932E+02 0.  0.
         24    2    4    4    0    0  0.37083796293E+03  0.30658571780E+03  0.40933535738E+03  0.63672185066E+03  0.79647242223E+02 0.  0.
         11    1    3    3    0    0  0.25871858750E+02 -0.11163237100E+01  0.88814723751E+01  0.27376628817E+02  0.00000000000E+00 0.  1.
        -11    1    3    3    0    0 -0.15806966805E+02 -0.14058628016E+03 -0.45298728337E+01  0.14154462942E+03  0.00000000000E+00 0. -1.
          2    1    6    6  502    0 -0.16525178804E+00  0.80097461789E+01 -0.10331939369E+01  0.80777986924E+01  0.00000000000E+00 0. -1.
          1    1    5    5  503    0 -0.65010395380E+02  0.22655314873E+01  0.58822223721E+02  0.87701414720E+02  0.00000000000E+00 0. -1.
         -2    1    5    5    0  503 -0.31589245950E+03 -0.16714864541E+03  0.32822852744E+03  0.48524291016E+03  0.00000000000E+00 0.  1.
         -1    1    6    6    0  502  0.37100321472E+03  0.29857597162E+03  0.41036855132E+03  0.62864405196E+03  0.00000000000E+00 0.  1.
<mgrwt>
<rscale>  0 0.11221954E+04</rscale>
<asrwt>0</asrwt>
<pdfrwt beam="1">  1        2 0.16764039E+00 0.11221954E+04</pdfrwt>
<pdfrwt beam="2">  1       -2 0.44449979E-01 0.11221954E+04</pdfrwt>
<totfact> 0.10517168E+02</totfact>
</mgrwt>
</event>
<event>
12    1  0.1518126E-007  0.3026863E+04  0.7818608E-02  0.8236101E-01
          2   -1    0    0  501    0  0.00000000000E+00  0.00000000000E+00  0.25292376721E+04  0.25292376721E+04  0.00000000000E+00 0. -1.
         -2   -1    0    0    0  501 -0.00000000000E+00 -0.00000000000E+00 -0.90559870974E+03  0.90559870974E+03  0.00000000000E+00 0.  1.
         23    2    1    2    0    0  0.11252613777E+04 -0.40714577461E+02  0.16398783423E+04  0.19914308301E+04  0.93407325509E+02 0.  0.
        254    2    1    2    0    0 -0.11252613777E+04  0.40714577461E+02 -0.16239379940E+02  0.14434055517E+04  0.90293135083E+03 0.  0.
        -24    2    4    4    0    0 -0.12115334846E+04  0.14861633940E+03  0.12573234132E+03  0.12294051866E+04  0.75685472371E+02 0.  0.
         24    2    4    4    0    0  0.86272106832E+02 -0.10790176194E+03 -0.14197172126E+03  0.21400036510E+03  0.80959989988E+02 0.  0.
         11    1    3    3    0    0  0.89185114034E+03  0.37554577290E+01  0.12730254441E+04  0.15543507781E+04  0.00000000000E+00 0. -1.
        -11    1    3    3    0    0  0.23341023740E+03 -0.44470035190E+02  0.36685289822E+03  0.43708005203E+03  0.00000000000E+00 0.  1.
          4    1    6    6  502    0  0.43487595193E+02 -0.19295551054E+02 -0.92159126352E+02  0.10371496419E+03  0.00000000000E+00 0. -1.
          1    1    5    5  503    0 -0.82597273732E+03  0.13307935847E+03  0.70349639216E+02  0.83957736402E+03  0.00000000000E+00 0. -1.
         -2    1    5    5    0  503 -0.38556074726E+03  0.15536980926E+02  0.55382702105E+02  0.38982782263E+03  0.00000000000E+00 0.  1.
         -3    1    6    6    0  502  0.42784511639E+02 -0.88606210883E+02 -0.49812594908E+02  0.11028540091E+03  0.00000000000E+00 0.  1.
<mgrwt>
<rscale>  0 0.30268626E+04</rscale>
<asrwt>0</asrwt>
<pdfrwt beam="1">  1        2 0.38911349E+00 0.30268626E+04</pdfrwt>
<pdfrwt beam="2">  1       -2 0.13932288E+00 0.30268626E+04</pdfrwt>
<totfact> 0.10397113E+00</totfact>
</mgrwt>
</event>
<event>
12    1  0.1518126E-007  0.1429045E+04  0.7818608E-02  0.8933059E-01
          2   -1    0    0  501    0  0.00000000000E+00  0.00000000000E+00  0.75862356944E+03  0.75862356944E+03  0.00000000000E+00 0.  1.
         -2   -1    0    0    0  501 -0.00000000000E+00 -0.00000000000E+00 -0.67298471202E+03  0.67298471202E+03  0.00000000000E+00 0. -1.
         23    2    1    2    0    0 -0.36350433157E+03 -0.73319974817E+01 -0.20318452010E+03  0.42970215229E+03  0.10569216252E+03 0.  0.
        254    2    1    2    0    0  0.36350433157E+03  0.73319974817E+01  0.28882337752E+03  0.10019061292E+04  0.88781067294E+03 0.  0.
        -24    2    4    4    0    0  0.63001344795E+03  0.12984256108E+03  0.24716940173E+03  0.69368203928E+03  0.79536301148E+02 0.  0.
         24    2    4    4    0    0 -0.26650911638E+03 -0.12251056359E+03  0.41653975789E+02  0.30822408988E+03  0.85035807631E+02 0.  0.
         13    1    3    3    0    0 -0.15861869502E+03 -0.47423462761E+02 -0.58045810668E+02  0.17543714364E+03  0.00000000000E+00 0.  1.
        -13    1    3    3    0    0 -0.20488563655E+03  0.40091465279E+02 -0.14513870943E+03  0.25426500866E+03  0.00000000000E+00 0. -1.
          2    1    6    6  502    0 -0.16490461931E+03 -0.11171828204E+03  0.36768451206E+01  0.19921854131E+03  0.00000000000E+00 0. -1.
          1    1    5    5  503    0  0.38200810543E+03  0.86979615220E+02  0.19075038700E+03  0.43575377935E+03  0.00000000000E+00 0. -1.
         -2    1    5    5    0  503  0.24800534252E+03  0.42862945855E+02  0.56419014732E+02  0.25792825992E+03  0.00000000000E+00 0.  1.
         -1    1    6    6    0  502 -0.10160449706E+03 -0.10792281554E+02  0.37977130668E+02  0.10900554857E+03  0.00000000000E+00 0.  1.
<mgrwt>
<rscale>  0 0.14290445E+04</rscale>
<asrwt>0</asrwt>
<pdfrwt beam="1">  1        2 0.11671132E+00 0.14290445E+04</pdfrwt>
<pdfrwt beam="2">  1       -2 0.10353611E+00 0.14290445E+04</pdfrwt>
<totfact> 0.27286321E+01</totfact>
</mgrwt>
</event>
<event>
12    1  0.1518126E-007  0.1351364E+04  0.7818608E-02  0.8989796E-01
          1   -1    0    0  501    0  0.00000000000E+00  0.00000000000E+00  0.19616922380E+04  0.19616922380E+04  0.00000000000E+00 0. -1.
         -1   -1    0    0    0  501 -0.00000000000E+00 -0.00000000000E+00 -0.23273094574E+03  0.23273094574E+03  0.00000000000E+00 0.  1.
         23    2    1    2    0    0  0.24858004676E+03 -0.15448927607E+03  0.84546560026E+03  0.89919248554E+03  0.89866950253E+02 0.  0.
        254    2    1    2    0    0 -0.24858004676E+03  0.15448927607E+03  0.88349569200E+03  0.12952306982E+04  0.90077685790E+03 0.  0.
        -24    2    4    4    0    0  0.32980642117E+03  0.73669693457E+02  0.42177833694E+03  0.54620576774E+03  0.79020731635E+02 0.  0.
         24    2    4    4    0    0 -0.57838646793E+03  0.80819582614E+02  0.46171735506E+03  0.74902493046E+03  0.82417954823E+02 0.  0.
         11    1    3    3    0    0  0.36571246972E+02 -0.29679260160E+02  0.61079178866E+02  0.77129635547E+02  0.00000000000E+00 0.  1.
        -11    1    3    3    0    0  0.21200879979E+03 -0.12481001591E+03  0.78438642140E+03  0.82206284999E+03  0.00000000000E+00 0. -1.
          2    1    6    6  502    0 -0.27822279174E+03  0.64047372278E+02  0.26662361362E+03  0.39063811780E+03  0.00000000000E+00 0. -1.
          3    1    5    5  503    0  0.87604946302E+02  0.35858894264E+02  0.17141983102E+03  0.19581942034E+03  0.00000000000E+00 0. -1.
         -4    1    5    5    0  503  0.24220147486E+03  0.37810799192E+02  0.25035850592E+03  0.35038634740E+03  0.00000000000E+00 0.  1.
         -1    1    6    6    0  502 -0.30016367619E+03  0.16772210336E+02  0.19509374144E+03  0.35838681266E+03  0.00000000000E+00 0.  1.
<mgrwt>
<rscale>  0 0.13513645E+04</rscale>
<asrwt>0</asrwt>
<pdfrwt beam="1">  1        1 0.30179879E+00 0.13513645E+04</pdfrwt>
<pdfrwt beam="2">  1       -1 0.35804762E-01 0.13513645E+04</pdfrwt>
<totfact> 0.23087753E+01</totfact>
</mgrwt>
</event>
<event>
12    1  0.1518126E-007  0.1590953E+04  0.7818608E-02  0.8826126E-01
         -2   -1    0    0    0  501 -0.00000000000E+00  0.00000000000E+00  0.24018449861E+03  0.24018449861E+03  0.00000000000E+00 0.  1.
          2   -1    0    0  501    0  0.00000000000E+00 -0.00000000000E+00 -0.26345683646E+04  0.26345683646E+04  0.00000000000E+00 0. -1.
         23    2    1    2    0    0 -0.13967901922E+03  0.49865432533E+03 -0.10872358575E+04  0.12076518534E+04  0.90414736473E+02 0.  0.
        254    2    1    2    0    0  0.13967901922E+03 -0.49865432533E+03 -0.13071480085E+04  0.16671010098E+04  0.89578094213E+03 0.  0.
        -24    2    4    4    0    0  0.50993937251E+03 -0.32679332913E+03 -0.67587355054E+03  0.91119767736E+03  0.81511393840E+02 0.  0.
         24    2    4    4    0    0 -0.37026035328E+03 -0.17186099620E+03 -0.63127445794E+03  0.75590333245E+03  0.79078919653E+02 0.  0.
         13    1    3    3    0    0 -0.92994278612E+02  0.25128395676E+03 -0.46921674651E+03  0.54032945319E+03  0.00000000000E+00 0. -1.
        -13    1    3    3    0    0 -0.46684740610E+02  0.24737036857E+03 -0.61801911104E+03  0.66732240024E+03  0.00000000000E+00 0.  1.
          4    1    6    6  502    0 -0.28305189207E+03 -0.10559607240E+03 -0.41312559929E+03  0.51180236899E+03  0.00000000000E+00 0. -1.
          3    1    5    5  503    0  0.48644922169E+03 -0.30504630963E+03 -0.66198081683E+03  0.87630171639E+03  0.00000000000E+00 0. -1.
         -4    1    5    5    0  503  0.23490150812E+02 -0.21747019500E+02 -0.13892733709E+02  0.34895960973E+02  0.00000000000E+00 0.  1.
         -3    1    6    6    0  502 -0.87208461211E+02 -0.66264923802E+02 -0.21814885866E+03  0.24410096347E+03  0.00000000000E+00 0.  1.
<mgrwt>
<rscale>  0 0.15909525E+04</rscale>
<asrwt>0</asrwt>
<pdfrwt beam="1">  1        2 0.40531820E+00 0.15909525E+04</pdfrwt>
<pdfrwt beam="2">  1       -2 0.36951462E-01 0.15909525E+04</pdfrwt>
<totfact> 0.19289078E+01</totfact>
</mgrwt>
</event>
<event>
12    1  0.1518126E-007  0.1400960E+04  0.7818608E-02  0.8953124E-01
          3   -1    0    0  501    0  0.00000000000E+00  0.00000000000E+00  0.37349677393E+03  0.37349677393E+03  0.00000000000E+00 0. -1.
         -3   -1    0    0    0  501 -0.00000000000E+00 -0.00000000000E+00 -0.13137258393E+04  0.13137258393E+04  0.00000000000E+00 0.  1.
         23    2    1    2    0    0  0.92237860974E+02  0.19613536351E+03 -0.68518726146E+03  0.72470725899E+03  0.93499327021E+02 0.  0.
        254    2    1    2    0    0 -0.92237860974E+02 -0.19613536351E+03 -0.25504180395E+03  0.96251535427E+03  0.90244810468E+03 0.  0.
        -24    2    4    4    0    0 -0.39190067978E+03 -0.39257843636E+03 -0.13546756202E+03  0.57662725780E+03  0.80271804309E+02 0.  0.
         24    2    4    4    0    0  0.29966281881E+03  0.19644307285E+03 -0.11957424193E+03  0.38588809647E+03  0.78891937579E+02 0.  0.
         13    1    3    3    0    0 -0.70305272341E+01  0.20926817872E+02 -0.17221111550E+03  0.17362035688E+03  0.00000000000E+00 0. -1.
        -13    1    3    3    0    0  0.99268388208E+02  0.17520854564E+03 -0.51297614596E+03  0.55108690211E+03  0.00000000000E+00 0.  1.
          4    1    6    6  502    0  0.49564599029E+02  0.66226590409E+02 -0.97690946126E+01  0.83294933601E+02  0.00000000000E+00 0. -1.
          3    1    5    5  503    0 -0.26864132800E+03 -0.31855250314E+03 -0.10148744687E+03  0.42888642114E+03  0.00000000000E+00 0. -1.
         -4    1    5    5    0  503 -0.12325935178E+03 -0.74025933223E+02 -0.33980115150E+02  0.14774083666E+03  0.00000000000E+00 0.  1.
         -3    1    6    6    0  502  0.25009821978E+03  0.13021648244E+03 -0.10980514731E+03  0.30259316287E+03  0.00000000000E+00 0.  1.
<mgrwt>
<rscale>  0 0.14009602E+04</rscale>
<asrwt>0</asrwt>
<pdfrwt beam="1">  1        3 0.57461043E-01 0.14009602E+04</pdfrwt>
<pdfrwt beam="2">  1       -3 0.20211166E+00 0.14009602E+04</pdfrwt>
<totfact> 0.10774651E+00</totfact>
</mgrwt>
</event>
<event>
12    1  0.1518126E-007  0.1816718E+04  0.7818608E-02  0.8697459E-01
          1   -1    0    0  501    0  0.00000000000E+00  0.00000000000E+00  0.39899526316E+03  0.39899526316E+03  0.00000000000E+00 0. -1.
         -1   -1    0    0    0  501 -0.00000000000E+00 -0.00000000000E+00 -0.20679848654E+04  0.20679848654E+04  0.00000000000E+00 0.  1.
         23    2    1    2    0    0 -0.25440362185E+03 -0.27732804388E+03  0.14003372020E+03  0.41176291144E+03  0.91143873689E+02 0.  0.
        254    2    1    2    0    0  0.25440362185E+03  0.27732804388E+03 -0.18090233225E+04  0.20552172172E+04  0.89984464308E+03 0.  0.
        -24    2    4    4    0    0 -0.28899302318E+03  0.23039106711E+02 -0.27963893318E+03  0.41035196258E+03  0.78377499041E+02 0.  0.
         24    2    4    4    0    0  0.54339664503E+03  0.25428893717E+03 -0.15293843893E+04  0.16448652546E+04  0.81377626392E+02 0.  0.
         13    1    3    3    0    0 -0.21313708082E+03 -0.22168877258E+03  0.14933523267E+03  0.34186889128E+03  0.00000000000E+00 0. -1.
        -13    1    3    3    0    0 -0.41266541035E+02 -0.55639271303E+02 -0.93015124752E+01  0.69894020162E+02  0.00000000000E+00 0.  1.
          4    1    6    6  502    0  0.50632010947E+03  0.25676327841E+03 -0.14167435961E+04  0.15262535345E+04  0.00000000000E+00 0. -1.
          1    1    5    5  503    0 -0.23647201423E+03 -0.62350657560E+01 -0.19520810166E+03  0.30669869989E+03  0.00000000000E+00 0. -1.
         -2    1    5    5    0  503 -0.52521008950E+02  0.29274172467E+02 -0.84430831527E+02  0.10365326269E+03  0.00000000000E+00 0.  1.
         -3    1    6    6    0  502  0.37076535562E+02 -0.24743412356E+01 -0.11264079319E+03  0.11861172010E+03  0.00000000000E+00 0.  1.
<mgrwt>
<rscale>  0 0.18167181E+04</rscale>
<asrwt>0</asrwt>
<pdfrwt beam="1">  1        1 0.61383886E-01 0.18167181E+04</pdfrwt>
<pdfrwt beam="2">  1       -1 0.31815152E+00 0.18167181E+04</pdfrwt>
<totfact> 0.14296569E+00</totfact>
</mgrwt>
</event>
<event>
12    1  0.1518126E-007  0.2598074E+04  0.7818608E-02  0.8368856E-01
          2   -1    0    0  501    0  0.00000000000E+00  0.00000000000E+00  0.11008209639E+04  0.11008209639E+04  0.00000000000E+00 0. -1.
         -2   -1    0    0    0  501 -0.00000000000E+00 -0.00000000000E+00 -0.15329443040E+04  0.15329443040E+04  0.00000000000E+00 0.  1.
         23    2    1    2    0    0 -0.11229598970E+03  0.33903625871E+03 -0.12926127150E+04  0.13442713276E+04  0.93068776972E+02 0.  0.
        254    2    1    2    0    0  0.11229598970E+03 -0.33903625871E+03  0.86048937488E+03  0.12894939403E+04  0.89151370362E+03 0.  0.
        -24    2    4    4    0    0 -0.20186407177E+03  0.20827174677E+03  0.42059508861E+03  0.51607166411E+03  0.72825201405E+02 0.  0.
         24    2    4    4    0    0  0.31416006147E+03 -0.54730800548E+03  0.43989428627E+03  0.77342227618E+03  0.80202475775E+02 0.  0.
         11    1    3    3    0    0  0.76493802576E+01  0.48999203039E+01 -0.87068514422E+02  0.87541124285E+02  0.00000000000E+00 0. -1.
        -11    1    3    3    0    0 -0.11994536996E+03  0.33413633840E+03 -0.12055442006E+04  0.12567302033E+04  0.00000000000E+00 0.  1.
          4    1    6    6  502    0  0.83944317467E+00 -0.38563407888E+02  0.29673760577E+02  0.48665934282E+02  0.00000000000E+00 0. -1.
          3    1    5    5  503    0 -0.73473910447E+02  0.12409967218E+03  0.22787150767E+03  0.26967493054E+03  0.00000000000E+00 0. -1.
         -4    1    5    5    0  503 -0.12839016132E+03  0.84172074584E+02  0.19272358094E+03  0.24639673357E+03  0.00000000000E+00 0.  1.
         -3    1    6    6    0  502  0.31332061830E+03 -0.50874459759E+03  0.41022052569E+03  0.72475634190E+03  0.00000000000E+00 0.  1.
<mgrwt>
<rscale>  0 0.25980741E+04</rscale>
<asrwt>0</asrwt>
<pdfrwt beam="1">  1        2 0.16935707E+00 0.25980741E+04</pdfrwt>
<pdfrwt beam="2">  1       -2 0.23583758E+00 0.25980741E+04</pdfrwt>
<totfact> 0.15133966E+00</totfact>
</mgrwt>
</event>
<event>
12    1  0.1518126E-007  0.1524007E+04  0.7818608E-02  0.8868643E-01
          2   -1    0    0  501    0  0.00000000000E+00  0.00000000000E+00  0.19579644466E+04  0.19579644466E+04  0.00000000000E+00 0. -1.
         -2   -1    0    0    0  501 -0.00000000000E+00 -0.00000000000E+00 -0.29655780545E+03  0.29655780545E+03  0.00000000000E+00 0.  1.
         23    2    1    2    0    0  0.19069537050E+03 -0.69000592143E+02 -0.11796011346E+03  0.25204568361E+03  0.92122919026E+02 0.  0.
        254    2    1    2    0    0 -0.19069537050E+03  0.69000592143E+02  0.17793667546E+04  0.20024765684E+04  0.89590208934E+03 0.  0.
        -24    2    4    4    0    0 -0.89644844718E+02  0.21765211661E+02  0.18458313822E+04  0.18498172297E+04  0.78869315740E+02 0.  0.
         24    2    4    4    0    0 -0.10105052579E+03  0.47235380482E+02 -0.66464627642E+02  0.15265933874E+03  0.80280365258E+02 0.  0.
         11    1    3    3    0    0  0.34430566153E+02  0.63968187996E+01 -0.59347459113E+02  0.68909390358E+02  0.00000000000E+00 0. -1.
        -11    1    3    3    0    0  0.15626480435E+03 -0.75397410942E+02 -0.58612654349E+02  0.18313629325E+03  0.00000000000E+00 0.  1.
          4    1    6    6  502    0  0.10803489968E+02  0.17890927090E+02 -0.41815231225E+01  0.21313981403E+02  0.00000000000E+00 0. -1.
          3    1    5    5  503    0 -0.25776729508E+02  0.27076909380E+02  0.25815392386E+03  0.26084678877E+03  0.00000000000E+00 0. -1.
         -4    1    5    5    0  503 -0.63868115210E+02 -0.53116977186E+01  0.15876774584E+04  0.15889704409E+04  0.00000000000E+00 0.  1.
         -3    1    6    6    0  502 -0.11185401575E+03  0.29344453392E+02 -0.62283104520E+02  0.13134535734E+03  0.00000000000E+00 0.  1.
<mgrwt>
<rscale>  0 0.15240074E+04</rscale>
<asrwt>0</asrwt>
<pdfrwt beam="1">  1        2 0.30122529E+00 0.15240074E+04</pdfrwt>
<pdfrwt beam="2">  1       -2 0.45624279E-01 0.15240074E+04</pdfrwt>
<totfact> 0.30985506E+01</totfact>
</mgrwt>
</event>
<event>
12    1  0.1518126E-007  0.1536000E+04  0.7818608E-02  0.8860860E-01
         -1   -1    0    0    0  501 -0.00000000000E+00  0.00000000000E+00  0.93627314279E+03  0.93627314279E+03  0.00000000000E+00 0.  1.
          1   -1    0    0  501    0  0.00000000000E+00 -0.00000000000E+00 -0.62997008891E+03  0.62997008891E+03  0.00000000000E+00 0. -1.
         23    2    1    2    0    0 -0.16474628055E+03  0.26615063281E+03 -0.29072827021E+03  0.43693842862E+03  0.91732039127E+02 0.  0.
        254    2    1    2    0    0  0.16474628055E+03 -0.26615063281E+03  0.59703132409E+03  0.11293048031E+04  0.90603832149E+03 0.  0.
        -24    2    4    4    0    0  0.11970791451E+03 -0.16242639964E+03  0.83011394996E+03  0.85793731248E+03  0.79088192054E+02 0.  0.
         24    2    4    4    0    0  0.45038366032E+02 -0.10372423317E+03 -0.23308262587E+03  0.27136749060E+03  0.80781393345E+02 0.  0.
         11    1    3    3    0    0 -0.17634993586E+03  0.25533437397E+03 -0.27636067489E+03  0.41553599728E+03  0.00000000000E+00 0. -1.
        -11    1    3    3    0    0  0.11603655311E+02  0.10816258835E+02 -0.14367595327E+02  0.21402431340E+02  0.00000000000E+00 0.  1.
          4    1    6    6  502    0  0.30386632849E+02 -0.79641380380E+02 -0.22707165083E+03  0.24254408163E+03  0.00000000000E+00 0. -1.
          1    1    5    5  503    0  0.14257938391E+02 -0.62203501049E+02  0.16090993539E+03  0.17310277773E+03  0.00000000000E+00 0. -1.
         -2    1    5    5    0  503  0.10544997612E+03 -0.10022289859E+03  0.66920401457E+03  0.68483453475E+03  0.00000000000E+00 0.  1.
         -3    1    6    6    0  502  0.14651733184E+02 -0.24082852787E+02 -0.60109750441E+01  0.28823408970E+02  0.00000000000E+00 0.  1.
<mgrwt>
<rscale>  0 0.15360001E+04</rscale>
<asrwt>0</asrwt>
<pdfrwt beam="1">  1        1 0.96918475E-01 0.15360001E+04</pdfrwt>
<pdfrwt beam="2">  1       -1 0.14404202E+00 0.15360001E+04</pdfrwt>
<totfact> 0.11965538E+01</totfact>
</mgrwt>
</event>
<event>
12    1  0.1518126E-007  0.1857504E+04  0.7818608E-02  0.8676304E-01
          1   -1    0    0  501    0  0.00000000000E+00  0.00000000000E+00  0.11587570619E+04  0.11587570619E+04  0.00000000000E+00 0. -1.
         -1   -1    0    0    0  501 -0.00000000000E+00 -0.00000000000E+00 -0.74440107112E+03  0.74440107112E+03  0.00000000000E+00 0.  1.
         23    2    1    2    0    0  0.67063170910E+03  0.12504996712E+03 -0.13113948875E+02  0.68826731391E+03  0.90308007471E+02 0.  0.
        254    2    1    2    0    0 -0.67063170910E+03 -0.12504996712E+03  0.42746993962E+03  0.12148908191E+04  0.90985975264E+03 0.  0.
        -24    2    4    4    0    0 -0.29606305069E+03 -0.40668572955E+03  0.52334657175E+03  0.73023768572E+03  0.79428149100E+02 0.  0.
         24    2    4    4    0    0 -0.37456865841E+03  0.28163576243E+03 -0.95876632131E+02  0.48465313336E+03  0.77948371048E+02 0.  0.
         11    1    3    3    0    0  0.55705847028E+03  0.86660270045E+02 -0.40775108533E+02  0.56523159076E+03  0.00000000000E+00 0.  1.
        -11    1    3    3    0    0  0.11357323882E+03  0.38389697078E+02  0.27661159658E+02  0.12303572315E+03  0.00000000000E+00 0. -1.
          4    1    6    6  502    0 -0.58308388263E+02  0.14731769638E+02 -0.13239472845E+01  0.60155182777E+02  0.00000000000E+00 0. -1.
          3    1    5    5  503    0 -0.20440348634E+03 -0.21436097769E+03  0.30793815006E+03  0.42726726793E+03  0.00000000000E+00 0. -1.
         -4    1    5    5    0  503 -0.91659564353E+02 -0.19232475186E+03  0.21540842169E+03  0.30297041779E+03  0.00000000000E+00 0.  1.
         -1    1    6    6    0  502 -0.31626027014E+03  0.26690399279E+03 -0.94552684847E+02  0.42449795058E+03  0.00000000000E+00 0.  1.
<mgrwt>
<rscale>  0 0.18575037E+04</rscale>
<asrwt>0</asrwt>
<pdfrwt beam="1">  1        1 0.17827032E+00 0.18575037E+04</pdfrwt>
<pdfrwt beam="2">  1       -1 0.11452324E+00 0.18575037E+04</pdfrwt>
<totfact> 0.74610689E+00</totfact>
</mgrwt>
</event>
<event>
12    1  0.1518126E-007  0.1403935E+04  0.7818608E-02  0.8950975E-01
          2   -1    0    0  501    0  0.00000000000E+00  0.00000000000E+00  0.16638376925E+04  0.16638376925E+04  0.00000000000E+00 0. -1.
         -2   -1    0    0    0  501 -0.00000000000E+00 -0.00000000000E+00 -0.29615753416E+03  0.29615753416E+03  0.00000000000E+00 0.  1.
         23    2    1    2    0    0  0.42020324330E+02 -0.22729483643E+01 -0.16081428818E+03  0.18990401119E+03  0.91822787104E+02 0.  0.
        254    2    1    2    0    0 -0.42020324330E+02  0.22729483643E+01  0.15284944465E+04  0.17700912154E+04  0.89171562960E+03 0.  0.
        -24    2    4    4    0    0 -0.74295706777E+02 -0.34501493826E+03  0.12905128008E+04  0.13403737213E+04  0.81383438042E+02 0.  0.
         24    2    4    4    0    0  0.32275382447E+02  0.34728788663E+03  0.23798164566E+03  0.42971749414E+03  0.79820326899E+02 0.  0.
         11    1    3    3    0    0  0.17179169547E+02  0.35482173660E+02 -0.24791296198E+02  0.46569484441E+02  0.00000000000E+00 0. -1.
        -11    1    3    3    0    0  0.24841154783E+02 -0.37755122024E+02 -0.13602299198E+03  0.14333452674E+03  0.00000000000E+00 0.  1.
          4    1    6    6  502    0  0.10530784690E+02  0.24655702400E+03  0.12443130072E+03  0.27637730028E+03  0.00000000000E+00 0. -1.
          1    1    5    5  503    0  0.92439244579E+01 -0.10876225222E+03  0.46653127355E+03  0.47913057390E+03  0.00000000000E+00 0. -1.
         -2    1    5    5    0  503 -0.83539631235E+02 -0.23625268604E+03  0.82398152728E+03  0.86124314740E+03  0.00000000000E+00 0.  1.
         -3    1    6    6    0  502  0.21744597756E+02  0.10073086263E+03  0.11355034494E+03  0.15334019386E+03  0.00000000000E+00 0.  1.
<mgrwt>
<rscale>  0 0.14039346E+04</rscale>
<asrwt>0</asrwt>
<pdfrwt beam="1">  1        2 0.25597503E+00 0.14039346E+04</pdfrwt>
<pdfrwt beam="2">  1       -2 0.45562698E-01 0.14039346E+04</pdfrwt>
<totfact> 0.45651539E+01</totfact>
</mgrwt>
</event>
<event>
12    1  0.1518126E-007  0.3381982E+04  0.7818608E-02  0.8142343E-01
         -1   -1    0    0    0  501 -0.00000000000E+00  0.00000000000E+00  0.14260620649E+04  0.14260620649E+04  0.00000000000E+00 0.  1.
          1   -1    0    0  501    0  0.00000000000E+00 -0.00000000000E+00 -0.20051371605E+04  0.20051371605E+04  0.00000000000E+00 0. -1.
         23    2    1    2    0    0 -0.67249178275E+03  0.84133114007E+03 -0.14214929601E+04  0.17857685045E+04  0.90794444650E+02 0.  0.
        254    2    1    2    0    0  0.67249178275E+03 -0.84133114007E+03  0.84241786450E+03  0.16454307209E+04  0.91525467149E+03 0.  0.
        -24    2    4    4    0    0  0.13693973464E+03 -0.78232708535E+03  0.74531728193E+03  0.10920731535E+04  0.79610065092E+02 0.  0.
         24    2    4    4    0    0  0.53555204811E+03 -0.59004054714E+02  0.97100582573E+02  0.55335756738E+03  0.80489748003E+02 0.  0.
         13    1    3    3    0    0 -0.55413315725E+03  0.65588094341E+03 -0.11763781955E+04  0.14564027694E+04  0.00000000000E+00 0. -1.
        -13    1    3    3    0    0 -0.11835862550E+03  0.18545019666E+03 -0.24511476455E+03  0.32936573512E+03  0.00000000000E+00 0.  1.
          4    1    6    6  502    0  0.83426964169E+02  0.17568771256E+02  0.34359638315E+01  0.85325997922E+02  0.00000000000E+00 0. -1.
          1    1    5    5  503    0  0.76168477953E+02 -0.22970856013E+03  0.21371655859E+03  0.32286595832E+03  0.00000000000E+00 0. -1.
         -2    1    5    5    0  503  0.60771256683E+02 -0.55261852522E+03  0.53160072334E+03  0.76920719518E+03  0.00000000000E+00 0.  1.
         -3    1    6    6    0  502  0.45212508394E+03 -0.76572825970E+02  0.93664618742E+02  0.46803156946E+03  0.00000000000E+00 0.  1.
<mgrwt>
<rscale>  0 0.33819817E+04</rscale>
<asrwt>0</asrwt>
<pdfrwt beam="1">  1        1 0.30848264E+00 0.33819817E+04</pdfrwt>
<pdfrwt beam="2">  1       -1 0.21939416E+00 0.33819817E+04</pdfrwt>
<totfact> 0.27058860E-01</totfact>
</mgrwt>
</event>
<event>
12    1  0.1518126E-007  0.2153017E+04  0.7818608E-02  0.8538242E-01
          2   -1    0    0  501    0  0.00000000000E+00  0.00000000000E+00  0.11220665422E+04  0.11220665422E+04  0.00000000000E+00 0. -1.
         -2   -1    0    0    0  501 -0.00000000000E+00 -0.00000000000E+00 -0.10328004396E+04  0.10328004396E+04  0.00000000000E+00 0.  1.
         23    2    1    2    0    0 -0.36637676008E+02 -0.31663769130E+03  0.86555340239E+03  0.92639682820E+03  0.86177978963E+02 0.  0.
        254    2    1    2    0    0  0.36637676008E+02  0.31663769130E+03 -0.77628729982E+03  0.12284701536E+04  0.89717066357E+03 0.  0.
        -24    2    4    4    0    0 -0.94743888620E+02 -0.18168796962E+03  0.72641526329E+02  0.23212023207E+03  0.81339338922E+02 0.  0.
         24    2    4    4    0    0  0.13138156463E+03  0.49832566092E+03 -0.84892882614E+03  0.99634992152E+03  0.80271006009E+02 0.  0.
         11    1    3    3    0    0 -0.52404108430E+02 -0.22439606243E+03  0.68997306835E+03  0.72743564558E+03  0.00000000000E+00 0. -1.
        -11    1    3    3    0    0  0.15766432422E+02 -0.92241628871E+02  0.17558033404E+03  0.19896118262E+03  0.00000000000E+00 0.  1.
          2    1    6    6  502    0  0.10633411573E+03  0.38069168503E+03 -0.58147039214E+03  0.70309382031E+03  0.00000000000E+00 0. -1.
          3    1    5    5  503    0 -0.55221470021E+02 -0.14428813945E+03  0.18906946736E+02  0.15564687781E+03  0.00000000000E+00 0. -1.
         -4    1    5    5    0  503 -0.39522418599E+02 -0.37399830169E+02  0.53734579593E+02  0.76473354266E+02  0.00000000000E+00 0.  1.
         -1    1    6    6    0  502  0.25047448899E+02  0.11763397588E+03 -0.26745843401E+03  0.29325610121E+03  0.00000000000E+00 0.  1.
<mgrwt>
<rscale>  0 0.21530172E+04</rscale>
<asrwt>0</asrwt>
<pdfrwt beam="1">  1        2 0.17262562E+00 0.21530172E+04</pdfrwt>
<pdfrwt beam="2">  1       -2 0.15889237E+00 0.21530172E+04</pdfrwt>
<totfact> 0.49734582E+00</totfact>
</mgrwt>
</event>
<event>
12    1  0.1518126E-007  0.1650602E+04  0.7818608E-02  0.8790050E-01
         -2   -1    0    0    0  501 -0.00000000000E+00  0.00000000000E+00  0.48594518379E+03  0.48594518379E+03  0.00000000000E+00 0.  1.
          2   -1    0    0  501    0  0.00000000000E+00 -0.00000000000E+00 -0.14016434374E+04  0.14016434374E+04  0.00000000000E+00 0. -1.
         23    2    1    2    0    0  0.49898201455E+03  0.19066146925E+03 -0.54934051950E+03  0.77165030084E+03  0.91292572099E+02 0.  0.
        254    2    1    2    0    0 -0.49898201455E+03 -0.19066146925E+03 -0.36635773407E+03  0.11159383203E+04  0.90871640170E+03 0.  0.
        -24    2    4    4    0    0 -0.59641341066E+03  0.17198954300E+03 -0.37851122830E+03  0.73136968603E+03  0.79633588218E+02 0.  0.
         24    2    4    4    0    0  0.97431396109E+02 -0.36265101225E+03  0.12153494228E+02  0.38456863428E+03  0.82077362409E+02 0.  0.
         11    1    3    3    0    0  0.33749612062E+02  0.35242097905E+02 -0.29953785729E+02  0.57256187950E+02  0.00000000000E+00 0.  1.
        -11    1    3    3    0    0  0.46523240249E+03  0.15541937135E+03 -0.51938673377E+03  0.71439411289E+03  0.00000000000E+00 0. -1.
          4    1    6    6  502    0 -0.78796799890E+01 -0.62794961232E+01  0.81203083133E+01  0.12940665956E+02  0.00000000000E+00 0. -1.
          1    1    5    5  503    0 -0.29393398156E+02  0.24860271961E+02 -0.36451039190E+02  0.53015877199E+02  0.00000000000E+00 0. -1.
         -2    1    5    5    0  503 -0.56702001250E+03  0.14712927104E+03 -0.34206018911E+03  0.67835380883E+03  0.00000000000E+00 0.  1.
         -3    1    6    6    0  502  0.10531107610E+03 -0.35637151612E+03  0.40331859149E+01  0.37162796833E+03  0.00000000000E+00 0.  1.
<mgrwt>
<rscale>  0 0.16506022E+04</rscale>
<asrwt>0</asrwt>
<pdfrwt beam="1">  1        2 0.21563745E+00 0.16506022E+04</pdfrwt>
<pdfrwt beam="2">  1       -2 0.74760798E-01 0.16506022E+04</pdfrwt>
<totfact> 0.22180752E+01</totfact>
</mgrwt>
</event>
<event>
12    1  0.1518126E-007  0.1972724E+04  0.7818608E-02  0.8619480E-01
          2   -1    0    0  501    0  0.00000000000E+00  0.00000000000E+00  0.63722131516E+03  0.63722131516E+03  0.00000000000E+00 0. -1.
         -2   -1    0    0    0  501 -0.00000000000E+00 -0.00000000000E+00 -0.15268005012E+04  0.15268005012E+04  0.00000000000E+00 0.  1.
         23    2    1    2    0    0 -0.45565569640E+03  0.35825413442E+03 -0.92621402718E+03  0.10966836318E+04  0.94204170348E+02 0.  0.
        254    2    1    2    0    0  0.45565569640E+03 -0.35825413442E+03  0.36634841141E+02  0.10673381845E+04  0.89548900052E+03 0.  0.
        -24    2    4    4    0    0  0.33879816554E+03 -0.21648393241E+03  0.44964855946E+03  0.60830169933E+03  0.78725093997E+02 0.  0.
         24    2    4    4    0    0  0.11685753087E+03 -0.14177020202E+03 -0.41301371832E+03  0.45903648518E+03  0.79872964815E+02 0.  0.
         11    1    3    3    0    0 -0.44905210680E+03  0.36408379761E+03 -0.90738566815E+03  0.10758966294E+04  0.00000000000E+00 0.  1.
        -11    1    3    3    0    0 -0.66035895976E+01 -0.58296631832E+01 -0.18828359037E+02  0.20787002488E+02  0.00000000000E+00 0. -1.
          4    1    6    6  502    0  0.96906395131E+02 -0.14480666014E+03 -0.32524081169E+03  0.36897344597E+03  0.00000000000E+00 0. -1.
          1    1    5    5  503    0  0.19839079619E+03 -0.12782710059E+03  0.32006699374E+03  0.39767015998E+03  0.00000000000E+00 0. -1.
         -2    1    5    5    0  503  0.14040736935E+03 -0.88656831818E+02  0.12958156572E+03  0.21063153935E+03  0.00000000000E+00 0.  1.
         -3    1    6    6    0  502  0.19951135734E+02  0.30364581217E+01 -0.87772906629E+02  0.90063039217E+02  0.00000000000E+00 0.  1.
<mgrwt>
<rscale>  0 0.19727238E+04</rscale>
<asrwt>0</asrwt>
<pdfrwt beam="1">  1        2 0.98034049E-01 0.19727238E+04</pdfrwt>
<pdfrwt beam="2">  1       -2 0.23489238E+00 0.19727238E+04</pdfrwt>
<totfact> 0.34176565E+00</totfact>
</mgrwt>
</event>
<event>
12    1  0.1518126E-007  0.2685124E+04  0.7818608E-02  0.8339848E-01
          1   -1    0    0  501    0  0.00000000000E+00  0.00000000000E+00  0.13911798291E+04  0.13911798291E+04  0.00000000000E+00 0. -1.
         -1   -1    0    0    0  501 -0.00000000000E+00 -0.00000000000E+00 -0.12956436215E+04  0.12956436215E+04  0.00000000000E+00 0.  1.
         23    2    1    2    0    0 -0.11126622146E+04  0.27592759721E+03 -0.27718639283E+03  0.11838073703E+04  0.10205072717E+03 0.  0.
        254    2    1    2    0    0  0.11126622146E+04 -0.27592759721E+03  0.37272260043E+03  0.15030160803E+04  0.89776497942E+03 0.  0.
        -24    2    4    4    0    0  0.80904389754E+03  0.15654513567E+03 -0.39067374534E+02  0.82874531339E+03  0.78956488479E+02 0.  0.
         24    2    4    4    0    0  0.30361831702E+03 -0.43247273288E+03  0.41178997496E+03  0.67427076694E+03  0.76507101375E+02 0.  0.
         11    1    3    3    0    0 -0.10747545901E+04  0.24587755157E+03 -0.26614823552E+03  0.11341904966E+04  0.00000000000E+00 0.  1.
        -11    1    3    3    0    0 -0.37907624441E+02  0.30050045645E+02 -0.11038157311E+02  0.49616873650E+02  0.00000000000E+00 0. -1.
          2    1    6    6  502    0  0.28252599045E+03 -0.41378652919E+03  0.40736811249E+03  0.64574685914E+03  0.00000000000E+00 0. -1.
          3    1    5    5  503    0  0.63462777206E+03  0.12157098611E+03 -0.63101842990E+02  0.64924090777E+03  0.00000000000E+00 0. -1.
         -4    1    5    5    0  503  0.17441612548E+03  0.34974149556E+02  0.24034468455E+02  0.17950440562E+03  0.00000000000E+00 0.  1.
         -1    1    6    6    0  502  0.21092326567E+02 -0.18686203696E+02  0.44218624688E+01  0.28523907801E+02  0.00000000000E+00 0.  1.
<mgrwt>
<rscale>  0 0.26851244E+04</rscale>
<asrwt>0</asrwt>
<pdfrwt beam="1">  1        1 0.21402767E+00 0.26851244E+04</pdfrwt>
<pdfrwt beam="2">  1       -1 0.19932979E+00 0.26851244E+04</pdfrwt>
<totfact> 0.10365056E+00</totfact>
</mgrwt>
</event>
<event>
12    1  0.1518126E-007  0.1845268E+04  0.7818608E-02  0.8682590E-01
          1   -1    0    0  501    0  0.00000000000E+00  0.00000000000E+00  0.27732864813E+04  0.27732864813E+04  0.00000000000E+00 0. -1.
         -1   -1    0    0    0  501 -0.00000000000E+00 -0.00000000000E+00 -0.30694754900E+03  0.30694754900E+03  0.00000000000E+00 0.  1.
         23    2    1    2    0    0 -0.21461988028E+03  0.31211659524E+03  0.19503192850E+04  0.19889187989E+04  0.92597045203E+02 0.  0.
        254    2    1    2    0    0  0.21461988028E+03 -0.31211659524E+03  0.51601964723E+03  0.10913152314E+04  0.88386322243E+03 0.  0.
        -24    2    4    4    0    0 -0.71889620353E+02  0.17401021510E+03  0.47822534072E+03  0.52014020518E+03  0.79991774979E+02 0.  0.
         24    2    4    4    0    0  0.28650950064E+03 -0.48612681034E+03  0.37794306518E+02  0.57117502625E+03  0.80034563232E+02 0.  0.
         13    1    3    3    0    0 -0.11973963501E+03  0.11878800105E+03  0.68881976259E+03  0.70916911574E+03  0.00000000000E+00 0.  1.
        -13    1    3    3    0    0 -0.94880245270E+02  0.19332859419E+03  0.12614995225E+04  0.12797496831E+04  0.00000000000E+00 0. -1.
          2    1    6    6  502    0  0.12828572851E+03 -0.29564203653E+03  0.23783328752E+02  0.32315180431E+03  0.00000000000E+00 0. -1.
          1    1    5    5  503    0 -0.32066898746E+02  0.13394740915E+03  0.25434052323E+03  0.28923916777E+03  0.00000000000E+00 0. -1.
         -2    1    5    5    0  503 -0.39822721607E+02  0.40062805954E+02  0.22388481749E+03  0.23090103741E+03  0.00000000000E+00 0.  1.
         -1    1    6    6    0  502  0.15822377213E+03 -0.19048477381E+03  0.14010977766E+02  0.24802322193E+03  0.00000000000E+00 0.  1.
<mgrwt>
<rscale>  0 0.18452680E+04</rscale>
<asrwt>0</asrwt>
<pdfrwt beam="1">  1        1 0.42665944E+00 0.18452680E+04</pdfrwt>
<pdfrwt beam="2">  1       -1 0.47222702E-01 0.18452680E+04</pdfrwt>
<totfact> 0.36679177E+00</totfact>
</mgrwt>
</event>
<event>
12    1  0.1518126E-007  0.1661295E+04  0.7818608E-02  0.8783752E-01
         -2   -1    0    0    0  501 -0.00000000000E+00  0.00000000000E+00  0.63329464303E+03  0.63329464303E+03  0.00000000000E+00 0.  1.
          2   -1    0    0  501    0  0.00000000000E+00 -0.00000000000E+00 -0.10895017914E+04  0.10895017914E+04  0.00000000000E+00 0. -1.
         23    2    1    2    0    0  0.22062604294E+03  0.11651878375E+03 -0.71244202012E+03  0.76022781465E+03  0.90112265290E+02 0.  0.
        254    2    1    2    0    0 -0.22062604294E+03 -0.11651878375E+03  0.25623487176E+03  0.96256861976E+03  0.89366076363E+03 0.  0.
        -24    2    4    4    0    0 -0.22127028026E+03  0.23178764272E+03  0.44777941289E+03  0.55621949311E+03  0.78661767460E+02 0.  0.
         24    2    4    4    0    0  0.64423731683E+00 -0.34830642647E+03 -0.19154454113E+03  0.40634912665E+03  0.84335755910E+02 0.  0.
         11    1    3    3    0    0  0.65907423166E+02  0.11027341134E+02 -0.29867190636E+03  0.30605603789E+03  0.00000000000E+00 0.  1.
        -11    1    3    3    0    0  0.15471861977E+03  0.10549144262E+03 -0.41377011376E+03  0.45417177676E+03  0.00000000000E+00 0. -1.
          2    1    6    6  502    0  0.36642603393E+02 -0.17002995010E+03 -0.11791777786E+03  0.21013678081E+03  0.00000000000E+00 0. -1.
          3    1    5    5  503    0 -0.52949747206E+01  0.31428961468E+02  0.23102671544E+02  0.39364321520E+02  0.00000000000E+00 0. -1.
         -4    1    5    5    0  503 -0.21597530553E+03  0.20035868126E+03  0.42467674135E+03  0.51685517159E+03  0.00000000000E+00 0.  1.
         -1    1    6    6    0  502 -0.35998366076E+02 -0.17827647637E+03 -0.73626763271E+02  0.19621234584E+03  0.00000000000E+00 0.  1.
<mgrwt>
<rscale>  0 0.16612955E+04</rscale>
<asrwt>0</asrwt>
<pdfrwt beam="1">  1        2 0.16761566E+00 0.16612955E+04</pdfrwt>
<pdfrwt beam="2">  1       -2 0.97429945E-01 0.16612955E+04</pdfrwt>
<totfact> 0.18543290E+01</totfact>
</mgrwt>
</event>
<event>
12    1  0.1518126E-007  0.1151481E+04  0.7818608E-02  0.9156418E-01
          3   -1    0    0  501    0  0.00000000000E+00  0.00000000000E+00  0.33832946498E+03  0.33832946498E+03  0.00000000000E+00 0. -1.
         -3   -1    0    0    0  501 -0.00000000000E+00 -0.00000000000E+00 -0.97974685231E+03  0.97974685231E+03  0.00000000000E+00 0.  1.
         23    2    1    2    0    0 -0.54420344437E+02 -0.16837245136E+03 -0.25835582536E+03  0.32624887563E+03  0.91540920319E+02 0.  0.
        254    2    1    2    0    0  0.54420344437E+02  0.16837245136E+03 -0.38306156198E+03  0.99182744166E+03  0.89759381544E+03 0.  0.
        -24    2    4    4    0    0 -0.96921391988E+02 -0.25786347115E+03 -0.44435416933E+03  0.52871145579E+03  0.78726423151E+02 0.  0.
         24    2    4    4    0    0  0.15134173642E+03  0.42623592251E+03  0.61292607357E+02  0.46311598587E+03  0.78346983566E+02 0.  0.
         13    1    3    3    0    0 -0.55559946622E+02 -0.52669597929E+02 -0.14658421644E+03  0.16537208569E+03  0.00000000000E+00 0.  1.
        -13    1    3    3    0    0  0.11396021845E+01 -0.11570285343E+03 -0.11177160891E+03  0.16087678995E+03  0.00000000000E+00 0. -1.
          2    1    6    6  502    0  0.13006937395E+03  0.25489358872E+03  0.31241095551E+02  0.28786244920E+03  0.00000000000E+00 0. -1.
          3    1    5    5  503    0 -0.86331963654E+02 -0.26026873231E+03 -0.43577744180E+03  0.51487377069E+03  0.00000000000E+00 0. -1.
         -4    1    5    5    0  503 -0.10589428333E+02  0.24052611598E+01 -0.85767275338E+01  0.13837685097E+02  0.00000000000E+00 0.  1.
         -1    1    6    6    0  502  0.21272362475E+02  0.17134233379E+03  0.30051511806E+02  0.17525353667E+03  0.00000000000E+00 0.  1.
<mgrwt>
<rscale>  0 0.11514812E+04</rscale>
<asrwt>0</asrwt>
<pdfrwt beam="1">  1        3 0.52050688E-01 0.11514812E+04</pdfrwt>
<pdfrwt beam="2">  1       -3 0.15073028E+00 0.11514812E+04</pdfrwt>
<totfact> 0.30179179E+00</totfact>
</mgrwt>
</event>
<event>
12    1  0.1518126E-007  0.4072098E+04  0.7818608E-02  0.7990158E-01
         -2   -1    0    0    0  501 -0.00000000000E+00  0.00000000000E+00  0.11503570117E+04  0.11503570117E+04  0.00000000000E+00 0.  1.
          2   -1    0    0  501    0  0.00000000000E+00 -0.00000000000E+00 -0.36036596746E+04  0.36036596746E+04  0.00000000000E+00 0. -1.
         23    2    1    2    0    0 -0.11622583174E+04 -0.11326833024E+04 -0.23970514651E+04  0.28961655697E+04  0.90019002880E+02 0.  0.
        254    2    1    2    0    0  0.11622583174E+04  0.11326833024E+04 -0.56251197809E+02  0.18578511166E+04  0.90256895268E+03 0.  0.
        -24    2    4    4    0    0  0.60933548311E+03  0.28347968496E+03  0.35155590274E+03  0.76265992122E+03  0.80050858306E+02 0.  0.
         24    2    4    4    0    0  0.55292283429E+03  0.84920361742E+03 -0.40780710055E+03  0.10951911954E+04  0.79162356430E+02 0.  0.
         11    1    3    3    0    0 -0.22332919292E+03 -0.19396518252E+03 -0.38444407664E+03  0.48507284866E+03  0.00000000000E+00 0.  1.
        -11    1    3    3    0    0 -0.93892912449E+03 -0.93871811986E+03 -0.20126073884E+04  0.24110927210E+04  0.00000000000E+00 0. -1.
          4    1    6    6  502    0  0.75136684582E+02  0.17151538653E+03 -0.75818851770E+02  0.20201868100E+03  0.00000000000E+00 0. -1.
          3    1    5    5  503    0  0.37076925555E+02  0.87991408536E+01  0.23526269598E+01  0.38179289438E+02  0.00000000000E+00 0. -1.
         -4    1    5    5    0  503  0.57225855756E+03  0.27468054411E+03  0.34920327578E+03  0.72448063178E+03  0.00000000000E+00 0.  1.
         -3    1    6    6    0  502  0.47778614971E+03  0.67768823088E+03 -0.33198824878E+03  0.89317251439E+03  0.00000000000E+00 0.  1.
<mgrwt>
<rscale>  0 0.40720978E+04</rscale>
<asrwt>0</asrwt>
<pdfrwt beam="1">  1        2 0.55440917E+00 0.40720978E+04</pdfrwt>
<pdfrwt beam="2">  1       -2 0.17697800E+00 0.40720978E+04</pdfrwt>
<totfact> 0.10220498E-01</totfact>
</mgrwt>
</event>
<event>
12    1  0.1518126E-007  0.1306641E+04  0.7818608E-02  0.9024315E-01
         -2   -1    0    0    0  501 -0.00000000000E+00  0.00000000000E+00  0.32789164552E+03  0.32789164552E+03  0.00000000000E+00 0. -1.
          2   -1    0    0  501    0  0.00000000000E+00 -0.00000000000E+00 -0.13017335707E+04  0.13017335707E+04  0.00000000000E+00 0.  1.
         23    2    1    2    0    0  0.23943395926E+03 -0.16953629006E+03 -0.66325338968E+02  0.31567720136E+03  0.95822076667E+02 0.  0.
        254    2    1    2    0    0 -0.23943395926E+03  0.16953629006E+03 -0.90751658622E+03  0.13139480149E+04  0.90377090958E+03 0.  0.
        -24    2    4    4    0    0 -0.39010380796E+03  0.43429999387E+03 -0.77037702604E+03  0.97023625049E+03  0.84143650140E+02 0.  0.
         24    2    4    4    0    0  0.15066984871E+03 -0.26476370381E+03 -0.13713956019E+03  0.34371176437E+03  0.80804058298E+02 0.  0.
         13    1    3    3    0    0  0.22274669480E+03 -0.13204779862E+03 -0.82199544210E+02  0.27167899483E+03  0.00000000000E+00 0. -1.
        -13    1    3    3    0    0  0.16687264458E+02 -0.37488491445E+02  0.15874205242E+02  0.43998206532E+02  0.00000000000E+00 0.  1.
          2    1    6    6  502    0  0.13764084932E+03 -0.26244792260E+03 -0.14322504872E+03  0.32914636570E+03  0.00000000000E+00 0. -1.
          3    1    5    5  503    0 -0.34483103019E+03  0.41731496128E+03 -0.71216573318E+03  0.89456148352E+03  0.00000000000E+00 0. -1.
         -4    1    5    5    0  503 -0.45272777773E+02  0.16985032590E+02 -0.58211292857E+02  0.75674766967E+02  0.00000000000E+00 0.  1.
         -1    1    6    6    0  502  0.13028999391E+02 -0.23157812120E+01  0.60854885320E+01  0.14565398671E+02  0.00000000000E+00 0.  1.
<mgrwt>
<rscale>  0 0.13066408E+04</rscale>
<asrwt>0</asrwt>
<pdfrwt beam="1">  1        2 0.20026671E+00 0.13066408E+04</pdfrwt>
<pdfrwt beam="2">  1       -2 0.50444867E-01 0.13066408E+04</pdfrwt>
<totfact> 0.60035132E+01</totfact>
</mgrwt>
</event>
<event>
12    1  0.1518126E-007  0.1647465E+04  0.7818608E-02  0.8791908E-01
          2   -1    0    0  501    0  0.00000000000E+00  0.00000000000E+00  0.20513134912E+04  0.20513134912E+04  0.00000000000E+00 0.  1.
         -2   -1    0    0    0  501 -0.00000000000E+00 -0.00000000000E+00 -0.33078083498E+03  0.33078083498E+03  0.00000000000E+00 0. -1.
         23    2    1    2    0    0 -0.54895320393E+03 -0.14131100968E+03  0.57112707781E+03  0.80983400824E+03  0.91249988109E+02 0.  0.
        254    2    1    2    0    0  0.54895320393E+03  0.14131100968E+03  0.11494055784E+04  0.15722603180E+04  0.91079685011E+03 0.  0.
        -24    2    4    4    0    0  0.37896579003E+03  0.29266870350E+03  0.12261055426E+04  0.13187120846E+04  0.79979500789E+02 0.  0.
         24    2    4    4    0    0  0.16998741391E+03 -0.15135769382E+03 -0.76699964124E+02  0.25354823338E+03  0.81233920181E+02 0.  0.
         13    1    3    3    0    0 -0.51129826693E+02 -0.24975075765E+02  0.26236507986E+02  0.62660736817E+02  0.00000000000E+00 0. -1.
        -13    1    3    3    0    0 -0.49782337724E+03 -0.11633593391E+03  0.54489056982E+03  0.74717327142E+03  0.00000000000E+00 0.  1.
          4    1    6    6  502    0  0.22827328120E+02 -0.38018524272E+02 -0.48424861001E+02  0.65661725989E+02  0.00000000000E+00 0. -1.
          1    1    5    5  503    0  0.37306868926E+03  0.26940197581E+03  0.11413918187E+04  0.12306636239E+04  0.00000000000E+00 0. -1.
         -2    1    5    5    0  503  0.58971007633E+01  0.23266727686E+02  0.84713723875E+02  0.88048460676E+02  0.00000000000E+00 0.  1.
         -3    1    6    6    0  502  0.14716008579E+03 -0.11333916955E+03 -0.28275103123E+02  0.18788650739E+03  0.00000000000E+00 0.  1.
<mgrwt>
<rscale>  0 0.16474649E+04</rscale>
<asrwt>0</asrwt>
<pdfrwt beam="1">  1        2 0.31558669E+00 0.16474649E+04</pdfrwt>
<pdfrwt beam="2">  1       -2 0.50889360E-01 0.16474649E+04</pdfrwt>
<totfact> 0.21821880E+01</totfact>
</mgrwt>
</event>
<event>
12    1  0.1518126E-007  0.2171533E+04  0.7818608E-02  0.8530371E-01
          1   -1    0    0  501    0  0.00000000000E+00  0.00000000000E+00  0.20959684054E+04  0.20959684054E+04  0.00000000000E+00 0.  1.
         -1   -1    0    0    0  501 -0.00000000000E+00 -0.00000000000E+00 -0.56245523370E+03  0.56245523370E+03  0.00000000000E+00 0. -1.
         23    2    1    2    0    0  0.16419740840E+03 -0.68307822290E+03 -0.57182762281E+02  0.70925881262E+03  0.78876786452E+02 0.  0.
        254    2    1    2    0    0 -0.16419740840E+03  0.68307822290E+03  0.15906959340E+04  0.19491648265E+04  0.88055284843E+03 0.  0.
        -24    2    4    4    0    0  0.47184209478E+02  0.51402185437E+03  0.24989434094E+03  0.57909852949E+03  0.80393462618E+02 0.  0.
         24    2    4    4    0    0 -0.21138161788E+03  0.16905636853E+03  0.13408015930E+04  0.13700662970E+04  0.77913427199E+02 0.  0.
         11    1    3    3    0    0 -0.42903528644E+01 -0.84814689996E+02  0.16946367920E+01  0.84940040974E+02  0.00000000000E+00 0.  1.
        -11    1    3    3    0    0  0.16848776126E+03 -0.59826353291E+03 -0.58877399073E+02  0.62431877164E+03  0.00000000000E+00 0. -1.
          4    1    6    6  502    0 -0.15074689898E+03  0.91282707673E+02  0.70670226885E+03  0.72834418861E+03  0.00000000000E+00 0. -1.
          1    1    5    5  503    0  0.66690567670E+02  0.46187798469E+03  0.22041482222E+03  0.51610231389E+03  0.00000000000E+00 0. -1.
         -2    1    5    5    0  503 -0.19506358192E+02  0.52143869686E+02  0.29479518724E+02  0.62996215600E+02  0.00000000000E+00 0.  1.
         -3    1    6    6    0  502 -0.60634718897E+02  0.77773660861E+02  0.63409932418E+03  0.64172210838E+03  0.00000000000E+00 0.  1.
<mgrwt>
<rscale>  0 0.21715325E+04</rscale>
<asrwt>0</asrwt>
<pdfrwt beam="1">  1        1 0.32245667E+00 0.21715325E+04</pdfrwt>
<pdfrwt beam="2">  1       -1 0.86531575E-01 0.21715325E+04</pdfrwt>
<totfact> 0.30862638E+00</totfact>
</mgrwt>
</event>
<event>
12    1  0.1518126E-007  0.2333179E+04  0.7818608E-02  0.8464953E-01
          2   -1    0    0  501    0  0.00000000000E+00  0.00000000000E+00  0.19233274794E+04  0.19233274794E+04  0.00000000000E+00 0. -1.
         -2   -1    0    0    0  501 -0.00000000000E+00 -0.00000000000E+00 -0.70759225770E+03  0.70759225770E+03  0.00000000000E+00 0.  1.
         23    2    1    2    0    0 -0.66296184901E+03 -0.25944258906E+03 -0.25148746047E+03  0.76057440799E+03  0.91643969000E+02 0.  0.
        254    2    1    2    0    0  0.66296184901E+03  0.25944258906E+03  0.14672226822E+04  0.18703453291E+04  0.91576218572E+03 0.  0.
        -24    2    4    4    0    0  0.63276205606E+03  0.34626333480E+03  0.46724597824E+03  0.86315053003E+03  0.80149339888E+02 0.  0.
         24    2    4    4    0    0  0.30199792953E+02 -0.86820745744E+02  0.99997670396E+03  0.10071947991E+04  0.77705118873E+02 0.  0.
         13    1    3    3    0    0 -0.63576366549E+03 -0.24284553771E+03 -0.21866724484E+03  0.71483197851E+03  0.00000000000E+00 0.  1.
        -13    1    3    3    0    0 -0.27198183530E+02 -0.16597051344E+02 -0.32820215633E+02  0.45742429481E+02  0.00000000000E+00 0. -1.
          4    1    6    6  502    0  0.42190708627E+02 -0.57145347280E+02  0.39251922790E+03  0.39889471153E+03  0.00000000000E+00 0. -1.
          3    1    5    5  503    0  0.20372836250E+03  0.15214735099E+03  0.14759336770E+03  0.29400317055E+03  0.00000000000E+00 0. -1.
         -4    1    5    5    0  503  0.42903369356E+03  0.19411598381E+03  0.31965261054E+03  0.56914735948E+03  0.00000000000E+00 0.  1.
         -3    1    6    6    0  502 -0.11990915674E+02 -0.29675398464E+02  0.60745747606E+03  0.60830008758E+03  0.00000000000E+00 0.  1.
<mgrwt>
<rscale>  0 0.23331795E+04</rscale>
<asrwt>0</asrwt>
<pdfrwt beam="1">  1        2 0.29589653E+00 0.23331795E+04</pdfrwt>
<pdfrwt beam="2">  1       -2 0.10886035E+00 0.23331795E+04</pdfrwt>
<totfact> 0.44901024E+00</totfact>
</mgrwt>
</event>
<event>
12    1  0.1518126E-007  0.1259727E+04  0.7818608E-02  0.9062126E-01
          2   -1    0    0  501    0  0.00000000000E+00  0.00000000000E+00  0.26602587102E+04  0.26602587102E+04  0.00000000000E+00 0. -1.
         -2   -1    0    0    0  501 -0.00000000000E+00 -0.00000000000E+00 -0.14913143794E+03  0.14913143794E+03  0.00000000000E+00 0.  1.
         23    2    1    2    0    0  0.92146335847E+02  0.28706769338E+03  0.69277870505E+03  0.75969746230E+03  0.79366820971E+02 0.  0.
        254    2    1    2    0    0 -0.92146335847E+02 -0.28706769338E+03  0.18183485672E+04  0.20496926858E+04  0.89663247026E+03 0.  0.
        -24    2    4    4    0    0  0.38085649047E+03 -0.40282550937E+02  0.95187320520E+03  0.10290519935E+04  0.78810255102E+02 0.  0.
         24    2    4    4    0    0 -0.47300282632E+03 -0.24678514244E+03  0.86647536201E+03  0.10206406923E+04  0.79330256860E+02 0.  0.
         11    1    3    3    0    0 -0.45287391356E+01  0.98048065186E+01  0.50826479538E+01  0.11936373790E+02  0.00000000000E+00 0. -1.
        -11    1    3    3    0    0  0.96675074983E+02  0.27726288686E+03  0.68769605709E+03  0.74776108851E+03  0.00000000000E+00 0.  1.
          4    1    6    6  502    0 -0.43297475744E+03 -0.22500607726E+03  0.82762038601E+03  0.96075510861E+03  0.00000000000E+00 0. -1.
          1    1    5    5  503    0  0.19817385593E+03 -0.17859236977E+02  0.39041809815E+03  0.43819872305E+03  0.00000000000E+00 0. -1.
         -2    1    5    5    0  503  0.18268263454E+03 -0.22423313960E+02  0.56145510705E+03  0.59085327045E+03  0.00000000000E+00 0.  1.
         -3    1    6    6    0  502 -0.40028068879E+02 -0.21779065184E+02  0.38854975998E+02  0.59885583726E+02  0.00000000000E+00 0.  1.
<mgrwt>
<rscale>  0 0.12597273E+04</rscale>
<asrwt>0</asrwt>
<pdfrwt beam="1">  1        2 0.40927054E+00 0.12597273E+04</pdfrwt>
<pdfrwt beam="2">  1       -2 0.22943300E-01 0.12597273E+04</pdfrwt>
<totfact> 0.46500412E+01</totfact>
</mgrwt>
</event>
<event>
12    1  0.1518126E-007  0.1186851E+04  0.7818608E-02  0.9124444E-01
          1   -1    0    0  501    0  0.00000000000E+00  0.00000000000E+00  0.11462294269E+04  0.11462294269E+04  0.00000000000E+00 0. -1.
         -1   -1    0    0    0  501 -0.00000000000E+00 -0.00000000000E+00 -0.30722802573E+03  0.30722802573E+03  0.00000000000E+00 0.  1.
         23    2    1    2    0    0 -0.61769971598E+02 -0.89905708803E+02  0.46637368842E+03  0.48633945866E+03  0.84398376316E+02 0.  0.
        254    2    1    2    0    0  0.61769971598E+02  0.89905708803E+02  0.37262771280E+03  0.96711799402E+03  0.88575800089E+03 0.  0.
        -24    2    4    4    0    0  0.45729224243E+03  0.26767213620E+02  0.29638277918E+03  0.55148052637E+03  0.80345133421E+02 0.  0.
         24    2    4    4    0    0 -0.39552227083E+03  0.63138495182E+02  0.76244933622E+02  0.41563746765E+03  0.80727184449E+02 0.  0.
         11    1    3    3    0    0  0.18737790955E+02 -0.63277045868E+01  0.10312875580E+03  0.10500802316E+03  0.00000000000E+00 0.  1.
        -11    1    3    3    0    0 -0.80507762553E+02 -0.83578004216E+02  0.36324493263E+03  0.38133143550E+03  0.00000000000E+00 0. -1.
          2    1    6    6  502    0 -0.93218844427E+02  0.45367849515E+02  0.13201932272E+01  0.10368094153E+03  0.00000000000E+00 0. -1.
          3    1    5    5  503    0  0.37925300279E+02 -0.18220410838E+02  0.39043515912E+02  0.57399546228E+02  0.00000000000E+00 0. -1.
         -4    1    5    5    0  503  0.41936694215E+03  0.44987624459E+02  0.25733926326E+03  0.49408098015E+03  0.00000000000E+00 0.  1.
         -1    1    6    6    0  502 -0.30230342641E+03  0.17770645667E+02  0.74924740395E+02  0.31195652612E+03  0.00000000000E+00 0.  1.
<mgrwt>
<rscale>  0 0.11868510E+04</rscale>
<asrwt>0</asrwt>
<pdfrwt beam="1">  1        1 0.17634299E+00 0.11868510E+04</pdfrwt>
<pdfrwt beam="2">  1       -1 0.47265851E-01 0.11868510E+04</pdfrwt>
<totfact> 0.51773586E+01</totfact>
</mgrwt>
</event>
<event>
12    1  0.1518126E-007  0.2151913E+04  0.7818608E-02  0.8538714E-01
         -1   -1    0    0    0  501 -0.00000000000E+00  0.00000000000E+00  0.23150053153E+04  0.23150053153E+04  0.00000000000E+00 0.  1.
          1   -1    0    0  501    0  0.00000000000E+00 -0.00000000000E+00 -0.50007778375E+03  0.50007778375E+03  0.00000000000E+00 0. -1.
         23    2    1    2    0    0  0.32588705934E+03  0.66362174158E+03  0.13770391987E+04  0.15655572575E+04  0.90201887147E+02 0.  0.
        254    2    1    2    0    0 -0.32588705934E+03 -0.66362174158E+03  0.43788833292E+03  0.12495258416E+04  0.90717828754E+03 0.  0.
        -24    2    4    4    0    0  0.20729597848E+03  0.66202839705E+02 -0.20323805521E+02  0.23306625239E+03  0.80946786565E+02 0.  0.
         24    2    4    4    0    0 -0.53318303781E+03 -0.72982458128E+03  0.45821213844E+03  0.10164595892E+04  0.79395600825E+02 0.  0.
         11    1    3    3    0    0  0.98168584699E+02  0.13892019958E+03  0.37455968889E+03  0.41137677793E+03  0.00000000000E+00 0. -1.
        -11    1    3    3    0    0  0.22771847464E+03  0.52470154200E+03  0.10024795098E+04  0.11541804795E+04  0.00000000000E+00 0.  1.
          4    1    6    6  502    0 -0.20502793581E+03 -0.21913339118E+03  0.14174740756E+03  0.33188586162E+03  0.00000000000E+00 0. -1.
          3    1    5    5  503    0  0.54617310993E+02 -0.15599433739E+02  0.86230835361E+01  0.57452158904E+02  0.00000000000E+00 0. -1.
         -4    1    5    5    0  503  0.15267866748E+03  0.81802273444E+02 -0.28946889057E+02  0.17561409349E+03  0.00000000000E+00 0.  1.
         -3    1    6    6    0  502 -0.32815510200E+03 -0.51069119010E+03  0.31646473087E+03  0.68457372759E+03  0.00000000000E+00 0.  1.
<mgrwt>
<rscale>  0 0.21519133E+04</rscale>
<asrwt>0</asrwt>
<pdfrwt beam="1">  1        1 0.76935045E-01 0.21519133E+04</pdfrwt>
<pdfrwt beam="2">  1       -1 0.35615466E+00 0.21519133E+04</pdfrwt>
<totfact> 0.57435969E-01</totfact>
</mgrwt>
</event>
<event>
12    1  0.1518126E-007  0.1169553E+04  0.7818608E-02  0.9139932E-01
         -1   -1    0    0    0  501 -0.00000000000E+00  0.00000000000E+00  0.54192617005E+03  0.54192617005E+03  0.00000000000E+00 0.  1.
          1   -1    0    0  501    0  0.00000000000E+00 -0.00000000000E+00 -0.63101533411E+03  0.63101533411E+03  0.00000000000E+00 0. -1.
         23    2    1    2    0    0 -0.79335478546E+02  0.20491866419E+03  0.49578668613E+02  0.24312179598E+03  0.91457018371E+02 0.  0.
        254    2    1    2    0    0  0.79335478546E+02 -0.20491866419E+03 -0.13866783268E+03  0.92981970818E+03  0.89277664889E+03 0.  0.
        -24    2    4    4    0    0 -0.47241520426E+02  0.26874013786E+03 -0.29251503901E+03  0.40967442253E+03  0.88402836386E+02 0.  0.
         24    2    4    4    0    0  0.12657699897E+03 -0.47365880205E+03  0.15384720633E+03  0.52014528565E+03  0.80670675358E+02 0.  0.
         11    1    3    3    0    0 -0.86765820087E+02  0.20218873564E+03  0.61824032924E+02  0.22854059465E+03  0.00000000000E+00 0.  1.
        -11    1    3    3    0    0  0.74303415410E+01  0.27299285561E+01 -0.12245364310E+02  0.14581201337E+02  0.00000000000E+00 0. -1.
          2    1    6    6  502    0  0.85627826119E+02 -0.16881890771E+03  0.58071182885E+02  0.19800053153E+03  0.00000000000E+00 0. -1.
          1    1    5    5  503    0 -0.52653166919E+02  0.11779190733E+03 -0.91231649412E+02  0.15802057864E+03  0.00000000000E+00 0. -1.
         -2    1    5    5    0  503  0.54116464932E+01  0.15094823052E+03 -0.20128338960E+03  0.25165384389E+03  0.00000000000E+00 0.  1.
         -1    1    6    6    0  502  0.40949172852E+02 -0.30483989434E+03  0.95776023443E+02  0.32214475412E+03  0.00000000000E+00 0.  1.
<mgrwt>
<rscale>  0 0.11695533E+04</rscale>
<asrwt>0</asrwt>
<pdfrwt beam="1">  1        1 0.97079282E-01 0.11695533E+04</pdfrwt>
<pdfrwt beam="2">  1       -1 0.83373257E-01 0.11695533E+04</pdfrwt>
<totfact> 0.45079765E+01</totfact>
</mgrwt>
</event>
<event>
12    1  0.1518126E-007  0.1503039E+04  0.7818608E-02  0.8882434E-01
          2   -1    0    0  501    0  0.00000000000E+00  0.00000000000E+00  0.12121858448E+04  0.12121858448E+04  0.00000000000E+00 0. -1.
         -2   -1    0    0    0  501 -0.00000000000E+00 -0.00000000000E+00 -0.46592016216E+03  0.46592016216E+03  0.00000000000E+00 0.  1.
         23    2    1    2    0    0 -0.69805989633E+02 -0.40465431833E+03 -0.27167637213E+02  0.42188792603E+03  0.92915811794E+02 0.  0.
        254    2    1    2    0    0  0.69805989633E+02  0.40465431833E+03  0.77343331982E+03  0.12562180809E+04  0.90070348784E+03 0.  0.
        -24    2    4    4    0    0  0.32501054681E+03  0.14372100700E+03  0.80316140991E+03  0.88187693536E+03  0.79693759964E+02 0.  0.
         24    2    4    4    0    0 -0.25520455717E+03  0.26093331134E+03 -0.29728090090E+02  0.37434114552E+03  0.77665789921E+02 0.  0.
         13    1    3    3    0    0 -0.32251434387E+01 -0.71670957742E+00  0.10273146159E+02  0.10791327760E+02  0.00000000000E+00 0. -1.
        -13    1    3    3    0    0 -0.66580846194E+02 -0.40393760876E+03 -0.37440783372E+02  0.41109659827E+03  0.00000000000E+00 0.  1.
          4    1    6    6  502    0 -0.82697364989E+02  0.96442370169E+02 -0.46752815802E+02  0.13537285816E+03  0.00000000000E+00 0. -1.
          3    1    5    5  503    0  0.24842756283E+02 -0.52554834063E+01  0.30563640197E+02  0.39735610574E+02  0.00000000000E+00 0. -1.
         -4    1    5    5    0  503  0.30016779052E+03  0.14897649040E+03  0.77259776971E+03  0.84214132479E+03  0.00000000000E+00 0.  1.
         -3    1    6    6    0  502 -0.17250719219E+03  0.16449094117E+03  0.17024725712E+02  0.23896828737E+03  0.00000000000E+00 0.  1.
<mgrwt>
<rscale>  0 0.15030394E+04</rscale>
<asrwt>0</asrwt>
<pdfrwt beam="1">  1        2 0.18649013E+00 0.15030394E+04</pdfrwt>
<pdfrwt beam="2">  1       -2 0.71680026E-01 0.15030394E+04</pdfrwt>
<totfact> 0.31754257E+01</totfact>
</mgrwt>
</event>
<event>
12    1  0.1518126E-007  0.2298139E+04  0.7818608E-02  0.8478655E-01
          1   -1    0    0  501    0  0.00000000000E+00  0.00000000000E+00  0.18018070095E+04  0.18018070095E+04  0.00000000000E+00 0. -1.
         -1   -1    0    0    0  501 -0.00000000000E+00 -0.00000000000E+00 -0.73279796090E+03  0.73279796090E+03  0.00000000000E+00 0.  1.
         23    2    1    2    0    0 -0.44300686638E+03  0.29313417263E+03  0.13523199066E+04  0.14558725711E+04  0.92806716858E+02 0.  0.
        254    2    1    2    0    0  0.44300686638E+03 -0.29313417263E+03 -0.28331085802E+03  0.10787323993E+04  0.89510659709E+03 0.  0.
        -24    2    4    4    0    0  0.34207320909E+03  0.10014042476E+03 -0.49450133418E+03  0.61472072328E+03  0.79421741893E+02 0.  0.
         24    2    4    4    0    0  0.10093365729E+03 -0.39327459738E+03  0.21119047616E+03  0.46401167599E+03  0.76504288209E+02 0.  0.
         11    1    3    3    0    0 -0.34956779436E+03  0.27216423447E+03  0.11343736523E+04  0.12178155018E+04  0.00000000000E+00 0. -1.
        -11    1    3    3    0    0 -0.93439072020E+02  0.20969938152E+02  0.21794625434E+03  0.23805706934E+03  0.00000000000E+00 0.  1.
          4    1    6    6  502    0  0.94913754500E+02 -0.28494525173E+03  0.12443559082E+03  0.32509480700E+03  0.00000000000E+00 0. -1.
          1    1    5    5  503    0  0.24159275177E+03  0.10038504559E+03 -0.39113743218E+03  0.47056636720E+03  0.00000000000E+00 0. -1.
         -2    1    5    5    0  503  0.10048045732E+03 -0.24462083067E+00 -0.10336390200E+03  0.14415435609E+03  0.00000000000E+00 0.  1.
         -1    1    6    6    0  502  0.60199027854E+01 -0.10832934565E+03  0.86754885338E+02  0.13891686899E+03  0.00000000000E+00 0.  1.
<mgrwt>
<rscale>  0 0.22981388E+04</rscale>
<asrwt>0</asrwt>
<pdfrwt beam="1">  1        1 0.27720108E+00 0.22981388E+04</pdfrwt>
<pdfrwt beam="2">  1       -1 0.11273815E+00 0.22981388E+04</pdfrwt>
<totfact> 0.26434154E+00</totfact>
</mgrwt>
</event>
<event>
12    1  0.1733879E-007  0.1596040E+04  0.7818608E-02  0.8822984E-01
          2   -1    0    0  501    0  0.00000000000E+00  0.00000000000E+00  0.87176246157E+03  0.87176246157E+03  0.00000000000E+00 0. -1.
         -2   -1    0    0    0  501 -0.00000000000E+00 -0.00000000000E+00 -0.73051587451E+03  0.73051587451E+03  0.00000000000E+00 0.  1.
         23    2    1    2    0    0  0.30816429912E+03  0.26915822707E+03 -0.30376224170E+03  0.51784190106E+03  0.92072517955E+02 0.  0.
        254    2    1    2    0    0 -0.30816429912E+03 -0.26915822707E+03  0.44500882876E+03  0.10844364350E+04  0.90031002298E+03 0.  0.
        -24    2    4    4    0    0 -0.96331426809E+02 -0.13803003839E+03 -0.26724634988E+03  0.32571045663E+03  0.79590544305E+02 0.  0.
         24    2    4    4    0    0 -0.21183287231E+03 -0.13112818868E+03  0.71225517865E+03  0.75872597839E+03  0.79308909453E+02 0.  0.
         11    1    3    3    0    0  0.79809084872E+02  0.29388535330E+02 -0.37483130780E+02  0.92941708237E+02  0.00000000000E+00 0. -1.
        -11    1    3    3    0    0  0.22835521424E+03  0.23976969174E+03 -0.26627911092E+03  0.42490019282E+03  0.00000000000E+00 0.  1.
          2    1    6    6  502    0 -0.75828827672E+01 -0.56526700058E+01  0.27940841081E+01  0.98620330185E+01  0.00000000000E+00 0. -1.
          3    1    5    5  503    0 -0.34148940899E+02 -0.18594999271E+02 -0.18956380161E+02  0.43258161210E+02  0.00000000000E+00 0. -1.
         -4    1    5    5    0  503 -0.62182485910E+02 -0.11943503912E+03 -0.24828996972E+03  0.28245229542E+03  0.00000000000E+00 0.  1.
         -1    1    6    6    0  502 -0.20424998954E+03 -0.12547551867E+03  0.70946109454E+03  0.74886394537E+03  0.00000000000E+00 0.  1.
<mgrwt>
<rscale>  0 0.15960405E+04</rscale>
<asrwt>0</asrwt>
<pdfrwt beam="1">  1        2 0.13411730E+00 0.15960405E+04</pdfrwt>
<pdfrwt beam="2">  1       -2 0.11238706E+00 0.15960405E+04</pdfrwt>
<totfact> 0.18338861E+01</totfact>
</mgrwt>
</event>
<event>
12    1  0.1518126E-007  0.1456091E+04  0.7818608E-02  0.8914188E-01
          1   -1    0    0  501    0  0.00000000000E+00  0.00000000000E+00  0.11410615022E+04  0.11410615022E+04  0.00000000000E+00 0. -1.
         -1   -1    0    0    0  501 -0.00000000000E+00 -0.00000000000E+00 -0.46452410941E+03  0.46452410941E+03  0.00000000000E+00 0.  1.
         23    2    1    2    0    0 -0.52715184065E+01  0.29644440083E+03 -0.15449380284E+03  0.34584806064E+03  0.88518214186E+02 0.  0.
        254    2    1    2    0    0  0.52715184065E+01 -0.29644440083E+03  0.83103119563E+03  0.12597375510E+04  0.89912111394E+03 0.  0.
        -24    2    4    4    0    0  0.42050833879E+03 -0.67459916956E+02  0.55811291481E+03  0.70669876658E+03  0.80963063333E+02 0.  0.
         24    2    4    4    0    0 -0.41523682038E+03 -0.22898448387E+03  0.27291828082E+03  0.55303878438E+03  0.80696952686E+02 0.  0.
         11    1    3    3    0    0 -0.90555360537E+01  0.73439899587E+00 -0.17940153001E+02  0.20109479477E+02  0.00000000000E+00 0. -1.
        -11    1    3    3    0    0  0.37840176472E+01  0.29571000183E+03 -0.13655364984E+03  0.32573858116E+03  0.00000000000E+00 0.  1.
          2    1    6    6  502    0 -0.13595420779E+03 -0.37000462139E+02  0.62618111557E+02  0.15418692781E+03  0.00000000000E+00 0. -1.
          3    1    5    5  503    0  0.64478121612E+02 -0.25166082955E+02  0.13806275025E+03  0.15444119562E+03  0.00000000000E+00 0. -1.
         -4    1    5    5    0  503  0.35603021718E+03 -0.42293834000E+02  0.42005016456E+03  0.55225757096E+03  0.00000000000E+00 0.  1.
         -1    1    6    6    0  502 -0.27928261260E+03 -0.19198402173E+03  0.21030016926E+03  0.39885185657E+03  0.00000000000E+00 0.  1.
<mgrwt>
<rscale>  0 0.14560915E+04</rscale>
<asrwt>0</asrwt>
<pdfrwt beam="1">  1        1 0.17554792E+00 0.14560915E+04</pdfrwt>
<pdfrwt beam="2">  1       -1 0.71465248E-01 0.14560915E+04</pdfrwt>
<totfact> 0.22670098E+01</totfact>
</mgrwt>
</event>
<event>
12    1  0.1518126E-007  0.1740968E+04  0.7818608E-02  0.8738338E-01
          3   -1    0    0  501    0  0.00000000000E+00  0.00000000000E+00  0.54804490209E+03  0.54804490209E+03  0.00000000000E+00 0. -1.
         -3   -1    0    0    0  501 -0.00000000000E+00 -0.00000000000E+00 -0.13826280356E+04  0.13826280356E+04  0.00000000000E+00 0.  1.
         23    2    1    2    0    0 -0.54426704400E+03  0.30034989434E+03 -0.17948597396E+03  0.65321684618E+03  0.89668049381E+02 0.  0.
        254    2    1    2    0    0  0.54426704400E+03 -0.30034989434E+03 -0.65509715959E+03  0.12774560915E+04  0.90349604488E+03 0.  0.
        -24    2    4    4    0    0  0.34100743410E+03 -0.55828930737E+03 -0.15954489017E+03  0.67786630737E+03  0.77943170639E+02 0.  0.
         24    2    4    4    0    0  0.20325960990E+03  0.25793941304E+03 -0.49555226943E+03  0.59958978418E+03  0.78029787535E+02 0.  0.
         13    1    3    3    0    0 -0.22848514042E+03  0.83762880008E+02 -0.45776747548E+02  0.24762308066E+03  0.00000000000E+00 0.  1.
        -13    1    3    3    0    0 -0.31578190357E+03  0.21658701433E+03 -0.13370922641E+03  0.40559376552E+03  0.00000000000E+00 0. -1.
          2    1    6    6  502    0  0.19971127746E+03  0.22147332124E+03 -0.41440918929E+03  0.51055852019E+03  0.00000000000E+00 0. -1.
          1    1    5    5  503    0  0.82684559985E+02 -0.20393213654E+03 -0.62075830484E+02  0.22864483703E+03  0.00000000000E+00 0. -1.
         -2    1    5    5    0  503  0.25832287411E+03 -0.35435717084E+03 -0.97469059682E+02  0.44922147033E+03  0.00000000000E+00 0.  1.
         -1    1    6    6    0  502  0.35483324380E+01  0.36466091795E+02 -0.81143080135E+02  0.89031263990E+02  0.00000000000E+00 0.  1.
<mgrwt>
<rscale>  0 0.17409678E+04</rscale>
<asrwt>0</asrwt>
<pdfrwt beam="1">  1        3 0.84314600E-01 0.17409678E+04</pdfrwt>
<pdfrwt beam="2">  1       -3 0.21271201E+00 0.17409678E+04</pdfrwt>
<totfact> 0.39161944E-01</totfact>
</mgrwt>
</event>
<event>
12    1  0.1518126E-007  0.1536106E+04  0.7818608E-02  0.8860792E-01
          2   -1    0    0  501    0  0.00000000000E+00  0.00000000000E+00  0.22416780998E+04  0.22416780998E+04  0.00000000000E+00 0. -1.
         -2   -1    0    0    0  501 -0.00000000000E+00 -0.00000000000E+00 -0.26315340376E+03  0.26315340376E+03  0.00000000000E+00 0.  1.
         23    2    1    2    0    0  0.12007854884E+02  0.22762330909E+03  0.13659258526E+04  0.13878488795E+04  0.91730682825E+02 0.  0.
        254    2    1    2    0    0 -0.12007854884E+02 -0.22762330909E+03  0.61259884342E+03  0.11169826240E+04  0.90576833682E+03 0.  0.
        -24    2    4    4    0    0  0.66370306136E+02 -0.29358451679E+03  0.81720964733E+03  0.87396227902E+03  0.73359194570E+02 0.  0.
         24    2    4    4    0    0 -0.78378161021E+02  0.65961207700E+02 -0.20461080391E+03  0.24302034500E+03  0.81849190338E+02 0.  0.
         13    1    3    3    0    0  0.18477608623E+02  0.18740161454E+03  0.12661469440E+04  0.12800737756E+04  0.00000000000E+00 0. -1.
        -13    1    3    3    0    0 -0.64697537390E+01  0.40221694550E+02  0.99778908572E+02  0.10777510390E+03  0.00000000000E+00 0.  1.
          2    1    6    6  502    0 -0.89283172580E+02  0.31018351549E+02 -0.14777730488E+03  0.17541879853E+03  0.00000000000E+00 0. -1.
          1    1    5    5  503    0  0.86175274358E+01 -0.16758792791E+03  0.51090934613E+03  0.53776234093E+03  0.00000000000E+00 0. -1.
         -2    1    5    5    0  503  0.57752778701E+02 -0.12599658888E+03  0.30630030120E+03  0.33619993809E+03  0.00000000000E+00 0.  1.
         -1    1    6    6    0  502  0.10905011559E+02  0.34942856151E+02 -0.56833499030E+02  0.67601546470E+02  0.00000000000E+00 0.  1.
<mgrwt>
<rscale>  0 0.15361058E+04</rscale>
<asrwt>0</asrwt>
<pdfrwt beam="1">  1        2 0.34487354E+00 0.15361058E+04</pdfrwt>
<pdfrwt beam="2">  1       -2 0.40485140E-01 0.15361058E+04</pdfrwt>
<totfact> 0.27256559E+01</totfact>
</mgrwt>
</event>
<event>
12    1  0.1518126E-007  0.2282698E+04  0.7818608E-02  0.8484774E-01
         -2   -1    0    0    0  501 -0.00000000000E+00  0.00000000000E+00  0.84368226161E+03  0.84368226161E+03  0.00000000000E+00 0.  1.
          2   -1    0    0  501    0  0.00000000000E+00 -0.00000000000E+00 -0.15440382225E+04  0.15440382225E+04  0.00000000000E+00 0. -1.
         23    2    1    2    0    0  0.77395320634E+02  0.19701560960E+03  0.68579888525E+03  0.72354917968E+03  0.91641247940E+02 0.  0.
        254    2    1    2    0    0 -0.77395320634E+02 -0.19701560960E+03 -0.13861548462E+04  0.16641713045E+04  0.89623416973E+03 0.  0.
        -24    2    4    4    0    0 -0.27674335665E+03 -0.90153711061E+02 -0.48663386405E+02  0.30541325150E+03  0.78705475955E+02 0.  0.
         24    2    4    4    0    0  0.19934803602E+03 -0.10686189854E+03 -0.13374914598E+04  0.13587580530E+04  0.78618933768E+02 0.  0.
         11    1    3    3    0    0  0.56043433180E+01  0.44470257373E+02  0.56841729474E+02  0.72387807430E+02  0.00000000000E+00 0. -1.
        -11    1    3    3    0    0  0.71790977316E+02  0.15254535223E+03  0.62895715577E+03  0.65116137225E+03  0.00000000000E+00 0.  1.
          2    1    6    6  502    0  0.10081084975E+03 -0.77030062144E+02 -0.92264959505E+03  0.93133169878E+03  0.00000000000E+00 0. -1.
          3    1    5    5  503    0 -0.12655248928E+03 -0.70703162587E+02  0.41511715107E+01  0.14502310840E+03  0.00000000000E+00 0. -1.
         -4    1    5    5    0  503 -0.15019086737E+03 -0.19450548474E+02 -0.52814557916E+02  0.16039014310E+03  0.00000000000E+00 0.  1.
         -1    1    6    6    0  502  0.98537186263E+02 -0.29831836398E+02 -0.41484186473E+03  0.42742635421E+03  0.00000000000E+00 0.  1.
<mgrwt>
<rscale>  0 0.22826981E+04</rscale>
<asrwt>0</asrwt>
<pdfrwt beam="1">  1        2 0.23754434E+00 0.22826981E+04</pdfrwt>
<pdfrwt beam="2">  1       -2 0.12979727E+00 0.22826981E+04</pdfrwt>
<totfact> 0.47465256E+00</totfact>
</mgrwt>
</event>
<event>
12    1  0.1518126E-007  0.1331878E+04  0.7818608E-02  0.9004661E-01
         -2   -1    0    0    0  501 -0.00000000000E+00  0.00000000000E+00  0.17450955218E+03  0.17450955218E+03  0.00000000000E+00 0.  1.
          2   -1    0    0  501    0  0.00000000000E+00 -0.00000000000E+00 -0.25412632764E+04  0.25412632764E+04  0.00000000000E+00 0. -1.
         23    2    1    2    0    0  0.10882071086E+03 -0.18875528219E+03 -0.85764269734E+02  0.25602266955E+03  0.10354512879E+03 0.  0.
        254    2    1    2    0    0 -0.10882071086E+03  0.18875528219E+03 -0.22809894545E+04  0.24597501590E+04  0.89442017516E+03 0.  0.
        -24    2    4    4    0    0 -0.38640543352E+03 -0.12911404735E+03 -0.63508652662E+03  0.75866809764E+03  0.79137789948E+02 0.  0.
         24    2    4    4    0    0  0.27758472266E+03  0.31786932954E+03 -0.16459029279E+04  0.17010820614E+04  0.81175998526E+02 0.  0.
         11    1    3    3    0    0  0.14328152264E+02 -0.10469620088E+03 -0.74000178293E+02  0.12900626656E+03  0.00000000000E+00 0. -1.
        -11    1    3    3    0    0  0.94492558596E+02 -0.84059081311E+02 -0.11764091441E+02  0.12701640299E+03  0.00000000000E+00 0.  1.
          2    1    6    6  502    0  0.23646041750E+03  0.21749365863E+03 -0.12320245546E+04  0.12732248520E+04  0.00000000000E+00 0. -1.
          3    1    5    5  503    0 -0.33621844540E+03 -0.11849540396E+03 -0.49919313649E+03  0.61341486068E+03  0.00000000000E+00 0. -1.
         -4    1    5    5    0  503 -0.50186988117E+02 -0.10618643391E+02 -0.13589339013E+03  0.14525323695E+03  0.00000000000E+00 0.  1.
         -1    1    6    6    0  502  0.41124305163E+02  0.10037567091E+03 -0.41387837328E+03  0.42785720942E+03  0.00000000000E+00 0.  1.
<mgrwt>
<rscale>  0 0.13318779E+04</rscale>
<asrwt>0</asrwt>
<pdfrwt beam="1">  1        2 0.39096356E+00 0.13318779E+04</pdfrwt>
<pdfrwt beam="2">  1       -2 0.26847625E-01 0.13318779E+04</pdfrwt>
<totfact> 0.40772003E+01</totfact>
</mgrwt>
</event>
<event>
12    1  0.1518126E-007  0.1648848E+04  0.7818608E-02  0.8791089E-01
          1   -1    0    0  501    0  0.00000000000E+00  0.00000000000E+00  0.21480987377E+04  0.21480987377E+04  0.00000000000E+00 0. -1.
         -1   -1    0    0    0  501 -0.00000000000E+00 -0.00000000000E+00 -0.31640749110E+03  0.31640749110E+03  0.00000000000E+00 0.  1.
         23    2    1    2    0    0 -0.23374852655E+03 -0.25461749909E+03  0.13333789642E+04  0.13805886898E+04  0.93044203490E+02 0.  0.
        254    2    1    2    0    0  0.23374852655E+03  0.25461749909E+03  0.49831228240E+03  0.10839175390E+04  0.89838391348E+03 0.  0.
        -24    2    4    4    0    0  0.18694357054E+03  0.52281782365E+03  0.56375593167E+03  0.79507288209E+03  0.77677294310E+02 0.  0.
         24    2    4    4    0    0  0.46804956012E+02 -0.26820032455E+03 -0.65443649271E+02  0.28884465689E+03  0.70896026589E+02 0.  0.
         13    1    3    3    0    0 -0.16596029873E+03 -0.23400500601E+03  0.10877485639E+04  0.11249435994E+04  0.00000000000E+00 0. -1.
        -13    1    3    3    0    0 -0.67788227824E+02 -0.20612493080E+02  0.24563040031E+03  0.25564509042E+03  0.00000000000E+00 0.  1.
          2    1    6    6  502    0  0.23849158561E+02 -0.13252622543E+03 -0.68775221202E+02  0.15120189762E+03  0.00000000000E+00 0. -1.
          3    1    5    5  503    0  0.13846993050E+03  0.38502990206E+03  0.46151181684E+03  0.61677800238E+03  0.00000000000E+00 0. -1.
         -4    1    5    5    0  503  0.48473640039E+02  0.13778792159E+03  0.10224411483E+03  0.17829487971E+03  0.00000000000E+00 0.  1.
         -1    1    6    6    0  502  0.22955797451E+02 -0.13567409912E+03  0.33315719306E+01  0.13764275927E+03  0.00000000000E+00 0.  1.
<mgrwt>
<rscale>  0 0.16488475E+04</rscale>
<asrwt>0</asrwt>
<pdfrwt beam="1">  1        1 0.33047672E+00 0.16488475E+04</pdfrwt>
<pdfrwt beam="2">  1       -1 0.48678077E-01 0.16488475E+04</pdfrwt>
<totfact> 0.95463333E+00</totfact>
</mgrwt>
</event>
<event>
12    1  0.1518126E-007  0.1629557E+04  0.7818608E-02  0.8802593E-01
         -2   -1    0    0    0  501 -0.00000000000E+00  0.00000000000E+00  0.55213632167E+03  0.55213632167E+03  0.00000000000E+00 0.  1.
          2   -1    0    0  501    0  0.00000000000E+00 -0.00000000000E+00 -0.12023559512E+04  0.12023559512E+04  0.00000000000E+00 0. -1.
         23    2    1    2    0    0 -0.93565362310E+02 -0.37694153224E+03 -0.66312843942E+03  0.77394935070E+03  0.91754425152E+02 0.  0.
        254    2    1    2    0    0  0.93565362310E+02  0.37694153224E+03  0.12908809893E+02  0.98054292216E+03  0.90025462457E+03 0.  0.
        -24    2    4    4    0    0  0.28332830351E+03  0.54399246873E+03 -0.18977777133E+03  0.64691518578E+03  0.79252264958E+02 0.  0.
         24    2    4    4    0    0 -0.18976294120E+03 -0.16705093649E+03  0.20268658123E+03  0.33362773637E+03  0.79433160798E+02 0.  0.
         11    1    3    3    0    0 -0.98164978887E+02 -0.25641753921E+03 -0.50798181736E+03  0.57743557585E+03  0.00000000000E+00 0. -1.
        -11    1    3    3    0    0  0.45996165771E+01 -0.12052399303E+03 -0.15514662206E+03  0.19651377485E+03  0.00000000000E+00 0.  1.
          4    1    6    6  502    0 -0.53245916728E+02 -0.52656666303E+02  0.17935078676E+02  0.77003371365E+02  0.00000000000E+00 0. -1.
          3    1    5    5  503    0  0.15690394981E+03  0.22206751588E+03 -0.68420083368E+02  0.28038213011E+03  0.00000000000E+00 0. -1.
         -4    1    5    5    0  503  0.12642435370E+03  0.32192495285E+03 -0.12135768797E+03  0.36653305567E+03  0.00000000000E+00 0.  1.
         -3    1    6    6    0  502 -0.13651702447E+03 -0.11439427019E+03  0.18475150255E+03  0.25662436501E+03  0.00000000000E+00 0.  1.
<mgrwt>
<rscale>  0 0.16295575E+04</rscale>
<asrwt>0</asrwt>
<pdfrwt beam="1">  1        2 0.18497783E+00 0.16295575E+04</pdfrwt>
<pdfrwt beam="2">  1       -2 0.84944051E-01 0.16295575E+04</pdfrwt>
<totfact> 0.21800321E+01</totfact>
</mgrwt>
</event>
<event>
12    1  0.1518126E-007  0.2317927E+04  0.7818608E-02  0.8470886E-01
         -2   -1    0    0    0  501 -0.00000000000E+00  0.00000000000E+00  0.30645212922E+03  0.30645212922E+03  0.00000000000E+00 0. -1.
          2   -1    0    0  501    0  0.00000000000E+00 -0.00000000000E+00 -0.43830549755E+04  0.43830549755E+04  0.00000000000E+00 0.  1.
         23    2    1    2    0    0 -0.58067858647E+02 -0.31076705091E+03 -0.36196927516E+04  0.36346605811E+04  0.92918717181E+02 0.  0.
        254    2    1    2    0    0  0.58067858647E+02  0.31076705091E+03 -0.45691009469E+03  0.10548465236E+04  0.89665284116E+03 0.  0.
        -24    2    4    4    0    0  0.25125714337E+03 -0.94285784176E+02  0.13246709399E+03  0.30963546748E+03  0.79414296810E+02 0.  0.
         24    2    4    4    0    0 -0.19318928472E+03  0.40505283509E+03 -0.58937718868E+03  0.74521105612E+03  0.81142767257E+02 0.  0.
         11    1    3    3    0    0 -0.52343967251E+02 -0.13184298301E+03 -0.20220841349E+04  0.20270537022E+04  0.00000000000E+00 0.  1.
        -11    1    3    3    0    0 -0.57238913966E+01 -0.17892406790E+03 -0.15976086167E+04  0.16076068789E+04  0.00000000000E+00 0. -1.
          4    1    6    6  502    0 -0.62130722947E+02  0.73306033563E+02 -0.16394056288E+03  0.19002765443E+03  0.00000000000E+00 0. -1.
          3    1    5    5  503    0  0.18405581470E+03 -0.10383271795E+03  0.10928628716E+03  0.23791021164E+03  0.00000000000E+00 0. -1.
         -4    1    5    5    0  503  0.67201328668E+02  0.95469337742E+01  0.23180806824E+02  0.71725255832E+02  0.00000000000E+00 0.  1.
         -3    1    6    6    0  502 -0.13105856177E+03  0.33174680153E+03 -0.42543662580E+03  0.55518340169E+03  0.00000000000E+00 0.  1.
<mgrwt>
<rscale>  0 0.23179271E+04</rscale>
<asrwt>0</asrwt>
<pdfrwt beam="1">  1        2 0.67431611E+00 0.23179271E+04</pdfrwt>
<pdfrwt beam="2">  1       -2 0.47146484E-01 0.23179271E+04</pdfrwt>
<totfact> 0.61959829E-01</totfact>
</mgrwt>
</event>
<event>
12    1  0.1518126E-007  0.1549325E+04  0.7818608E-02  0.8852299E-01
          1   -1    0    0  501    0  0.00000000000E+00  0.00000000000E+00  0.97378594013E+03  0.97378594013E+03  0.00000000000E+00 0. -1.
         -1   -1    0    0    0  501 -0.00000000000E+00 -0.00000000000E+00 -0.61625660346E+03  0.61625660346E+03  0.00000000000E+00 0.  1.
         23    2    1    2    0    0  0.47505965007E+03  0.37524106215E+02 -0.42382193996E+01  0.48502240011E+03  0.90216608425E+02 0.  0.
        254    2    1    2    0    0 -0.47505965007E+03 -0.37524106215E+02  0.36176755607E+03  0.11050201435E+04  0.92903391930E+03 0.  0.
        -24    2    4    4    0    0  0.12522044022E+03  0.90171920229E+02  0.44667160775E+03  0.48031279444E+03  0.85870376056E+02 0.  0.
         24    2    4    4    0    0 -0.60028009029E+03 -0.12769602644E+03 -0.84904051677E+02  0.62470734905E+03  0.80050683949E+02 0.  0.
         11    1    3    3    0    0  0.25039119724E+03 -0.85451484018E+00  0.37876745136E+02  0.25324124797E+03  0.00000000000E+00 0. -1.
        -11    1    3    3    0    0  0.22466845282E+03  0.38378621055E+02 -0.42114964536E+02  0.23178115214E+03  0.00000000000E+00 0.  1.
          4    1    6    6  502    0 -0.54699172950E+03 -0.11184445432E+03 -0.53529639354E+02  0.56086946466E+03  0.00000000000E+00 0. -1.
          1    1    5    5  503    0  0.12574166577E+03  0.61714611242E+02  0.41362900551E+03  0.43670197383E+03  0.00000000000E+00 0. -1.
         -2    1    5    5    0  503 -0.52122555632E+00  0.28457308987E+02  0.33042602244E+02  0.43610820606E+02  0.00000000000E+00 0.  1.
         -3    1    6    6    0  502 -0.53288360790E+02 -0.15851572125E+02 -0.31374412323E+02  0.63837884388E+02  0.00000000000E+00 0.  1.
<mgrwt>
<rscale>  0 0.15493250E+04</rscale>
<asrwt>0</asrwt>
<pdfrwt beam="1">  1        1 0.14981322E+00 0.15493250E+04</pdfrwt>
<pdfrwt beam="2">  1       -1 0.94808708E-01 0.15493250E+04</pdfrwt>
<totfact> 0.16448739E+01</totfact>
</mgrwt>
</event>
<event>
12    1  0.2653330E-007  0.2321183E+04  0.7818608E-02  0.8469615E-01
          1   -1    0    0  501    0  0.00000000000E+00  0.00000000000E+00  0.13589080442E+04  0.13589080442E+04  0.00000000000E+00 0. -1.
         -1   -1    0    0    0  501 -0.00000000000E+00 -0.00000000000E+00 -0.99121694424E+03  0.99121694424E+03  0.00000000000E+00 0.  1.
         23    2    1    2    0    0  0.51044945027E+02  0.69751071549E+03  0.85649319862E+03  0.11099576778E+04  0.96429572920E+02 0.  0.
        254    2    1    2    0    0 -0.51044945027E+02 -0.69751071549E+03 -0.48880209864E+03  0.12401673107E+04  0.89997815651E+03 0.  0.
        -24    2    4    4    0    0  0.81092041617E+02 -0.86945261878E+02 -0.58585773220E+03  0.60281468353E+03  0.77594217093E+02 0.  0.
         24    2    4    4    0    0 -0.13213698664E+03 -0.61056545361E+03  0.97055633554E+02  0.63735262715E+03  0.80921066150E+02 0.  0.
         11    1    3    3    0    0  0.12416081090E+02  0.71449969741E+01  0.21579620634E+02  0.25901545863E+02  0.00000000000E+00 0.  1.
        -11    1    3    3    0    0  0.38628863937E+02  0.69036571851E+03  0.83491357799E+03  0.10840561319E+04  0.00000000000E+00 0. -1.
          4    1    6    6  502    0 -0.86685333034E+02 -0.53283264180E+03  0.80798243756E+02  0.54585101202E+03  0.00000000000E+00 0. -1.
          1    1    5    5  503    0  0.32059074768E+02 -0.46490758491E+02 -0.44128829140E+03  0.44488709920E+03  0.00000000000E+00 0. -1.
         -2    1    5    5    0  503  0.49032966848E+02 -0.40454503387E+02 -0.14456944079E+03  0.15792758433E+03  0.00000000000E+00 0.  1.
         -3    1    6    6    0  502 -0.45451653609E+02 -0.77732811808E+02  0.16257389798E+02  0.91501615125E+02  0.00000000000E+00 0.  1.
<mgrwt>
<rscale>  0 0.23211830E+04</rscale>
<asrwt>0</asrwt>
<pdfrwt beam="1">  1        1 0.20906278E+00 0.23211830E+04</pdfrwt>
<pdfrwt beam="2">  1       -1 0.15249491E+00 0.23211830E+04</pdfrwt>
<totfact> 0.24725760E+00</totfact>
</mgrwt>
</event>
<event>
12    1  0.1518126E-007  0.1143847E+04  0.7818608E-02  0.9163478E-01
         -2   -1    0    0    0  501 -0.00000000000E+00  0.00000000000E+00  0.39500191492E+03  0.39500191492E+03  0.00000000000E+00 0.  1.
          2   -1    0    0  501    0  0.00000000000E+00 -0.00000000000E+00 -0.82808903890E+03  0.82808903890E+03  0.00000000000E+00 0. -1.
         23    2    1    2    0    0 -0.56480241019E+02 -0.18880732965E+03 -0.62840024501E+02  0.22562922624E+03  0.90119108407E+02 0.  0.
        254    2    1    2    0    0  0.56480241019E+02  0.18880732965E+03 -0.37024709949E+03  0.99746172758E+03  0.90499102645E+03 0.  0.
        -24    2    4    4    0    0  0.43855256169E+03  0.25765683185E+03 -0.29649804008E+03  0.59451092650E+03  0.82563682012E+02 0.  0.
         24    2    4    4    0    0 -0.38207232067E+03 -0.68849502208E+02 -0.73749059403E+02  0.40295080108E+03  0.78809340489E+02 0.  0.
         13    1    3    3    0    0 -0.76111153526E+02 -0.15006935228E+03 -0.29394589693E+02  0.17081498789E+03  0.00000000000E+00 0. -1.
        -13    1    3    3    0    0  0.19630912507E+02 -0.38737977368E+02 -0.33445434808E+02  0.54814238350E+02  0.00000000000E+00 0.  1.
          2    1    6    6  502    0 -0.10338361841E+03  0.16291406604E+02 -0.15903219533E+02  0.10586073340E+03  0.00000000000E+00 0. -1.
          3    1    5    5  503    0  0.11030177941E+03  0.10438327001E+03 -0.69633874189E+02  0.16706653176E+03  0.00000000000E+00 0. -1.
         -4    1    5    5    0  503  0.32825078228E+03  0.15327356184E+03 -0.22686416589E+03  0.42744439474E+03  0.00000000000E+00 0.  1.
         -1    1    6    6    0  502 -0.27868870226E+03 -0.85140908812E+02 -0.57845839869E+02  0.29709006767E+03  0.00000000000E+00 0.  1.
<mgrwt>
<rscale>  0 0.11438475E+04</rscale>
<asrwt>0</asrwt>
<pdfrwt beam="1">  1        2 0.12739831E+00 0.11438475E+04</pdfrwt>
<pdfrwt beam="2">  1       -2 0.60769526E-01 0.11438475E+04</pdfrwt>
<totfact> 0.82120959E+01</totfact>
</mgrwt>
</event>
<event>
12    1  0.1518126E-007  0.1443262E+04  0.7818608E-02  0.8923085E-01
          2   -1    0    0  501    0  0.00000000000E+00  0.00000000000E+00  0.14145015259E+04  0.14145015259E+04  0.00000000000E+00 0. -1.
         -2   -1    0    0    0  501 -0.00000000000E+00 -0.00000000000E+00 -0.36815160209E+03  0.36815160209E+03  0.00000000000E+00 0.  1.
         23    2    1    2    0    0 -0.11004444760E+03  0.18742303401E+03 -0.14495874419E+03  0.27252176588E+03  0.77575132871E+02 0.  0.
        254    2    1    2    0    0  0.11004444760E+03 -0.18742303401E+03  0.11913086680E+04  0.15101313621E+04  0.90224343401E+03 0.  0.
        -24    2    4    4    0    0 -0.18936402967E+03 -0.38082317648E+03  0.10168829417E+04  0.11052562432E+04  0.81580749231E+02 0.  0.
         24    2    4    4    0    0  0.29940847727E+03  0.19340014247E+03  0.17442572630E+03  0.40487511885E+03  0.80314858519E+02 0.  0.
         13    1    3    3    0    0 -0.43929101561E+02  0.12843784829E+03 -0.11812862674E+03  0.17994560093E+03  0.00000000000E+00 0.  1.
        -13    1    3    3    0    0 -0.66115346042E+02  0.58985185715E+02 -0.26830117450E+02  0.92576164959E+02  0.00000000000E+00 0. -1.
          2    1    6    6  502    0  0.24399507497E+03  0.19024846584E+03  0.14032990232E+03  0.33973601052E+03  0.00000000000E+00 0. -1.
          3    1    5    5  503    0 -0.15838973114E+03 -0.28605480595E+03  0.85179421320E+03  0.91239686572E+03  0.00000000000E+00 0. -1.
         -4    1    5    5    0  503 -0.30974298524E+02 -0.94768370524E+02  0.16508872847E+03  0.19285937750E+03  0.00000000000E+00 0.  1.
         -3    1    6    6    0  502  0.55413402306E+02  0.31516766325E+01  0.34095823981E+02  0.65139108327E+02  0.00000000000E+00 0.  1.
<mgrwt>
<rscale>  0 0.14432616E+04</rscale>
<asrwt>0</asrwt>
<pdfrwt beam="1">  1        2 0.21761562E+00 0.14432616E+04</pdfrwt>
<pdfrwt beam="2">  1       -2 0.56638709E-01 0.14432616E+04</pdfrwt>
<totfact> 0.40272387E+01</totfact>
</mgrwt>
</event>
<event>
12    1  0.1518126E-007  0.2536733E+04  0.7818608E-02  0.8390015E-01
         -1   -1    0    0    0  501 -0.00000000000E+00  0.00000000000E+00  0.13326268772E+04  0.13326268772E+04  0.00000000000E+00 0.  1.
          1   -1    0    0  501    0  0.00000000000E+00 -0.00000000000E+00 -0.12072045874E+04  0.12072045874E+04  0.00000000000E+00 0. -1.
         23    2    1    2    0    0  0.47429918418E+03 -0.17329805932E+03  0.10393009335E+04  0.11588378663E+04  0.88129656924E+02 0.  0.
        254    2    1    2    0    0 -0.47429918418E+03  0.17329805932E+03 -0.91387864369E+03  0.13809935983E+04  0.90386791613E+03 0.  0.
        -24    2    4    4    0    0 -0.38909131276E+03  0.39096659789E+03 -0.14821004063E+03  0.57660841689E+03  0.79146193586E+02 0.  0.
         24    2    4    4    0    0 -0.85207871423E+02 -0.21766853857E+03 -0.76566860306E+03  0.80438518146E+03  0.78403675956E+02 0.  0.
         13    1    3    3    0    0  0.11275420097E+03 -0.81228508259E+02  0.25869513714E+03  0.29365754609E+03  0.00000000000E+00 0. -1.
        -13    1    3    3    0    0  0.36154498320E+03 -0.92069551062E+02  0.78060579640E+03  0.86518032021E+03  0.00000000000E+00 0.  1.
          2    1    6    6  502    0 -0.72450699433E+02 -0.21664967242E+03 -0.75071300410E+03  0.78470134378E+03  0.00000000000E+00 0. -1.
          1    1    5    5  503    0 -0.16560487919E+03  0.14520453458E+03 -0.22340555508E+02  0.22137848426E+03  0.00000000000E+00 0. -1.
         -2    1    5    5    0  503 -0.22348643356E+03  0.24576206331E+03 -0.12586948512E+03  0.35522993263E+03  0.00000000000E+00 0.  1.
         -1    1    6    6    0  502 -0.12757171990E+02 -0.10188661472E+01 -0.14955598958E+02  0.19683837674E+02  0.00000000000E+00 0.  1.
<mgrwt>
<rscale>  0 0.25367328E+04</rscale>
<asrwt>0</asrwt>
<pdfrwt beam="1">  1        1 0.18572378E+00 0.25367328E+04</pdfrwt>
<pdfrwt beam="2">  1       -1 0.20501952E+00 0.25367328E+04</pdfrwt>
<totfact> 0.12996146E+00</totfact>
</mgrwt>
</event>
<event>
12    1  0.1518126E-007  0.3136192E+04  0.7818608E-02  0.8205875E-01
         -1   -1    0    0    0  501 -0.00000000000E+00  0.00000000000E+00  0.20295534467E+04  0.20295534467E+04  0.00000000000E+00 0.  1.
          1   -1    0    0  501    0  0.00000000000E+00 -0.00000000000E+00 -0.12115599676E+04  0.12115599676E+04  0.00000000000E+00 0. -1.
         23    2    1    2    0    0 -0.13420566992E+04  0.38663852353E+03  0.81273572919E+03  0.16184106480E+04  0.90045144783E+02 0.  0.
        254    2    1    2    0    0  0.13420566992E+04 -0.38663852353E+03  0.52577498789E+01  0.16227027664E+04  0.82615439976E+03 0.  0.
        -24    2    4    4    0    0  0.70541206180E+03  0.67651767710E+02 -0.30773584577E+03  0.77641968840E+03  0.77092432543E+02 0.  0.
         24    2    4    4    0    0  0.63664463745E+03 -0.45429029124E+03  0.31299359565E+03  0.84628307799E+03  0.80833124830E+02 0.  0.
         13    1    3    3    0    0 -0.52567406882E+03  0.14247780769E+03  0.36707348625E+03  0.65679227814E+03  0.00000000000E+00 0.  1.
        -13    1    3    3    0    0 -0.81638263043E+03  0.24416071583E+03  0.44566224294E+03  0.96161836983E+03  0.00000000000E+00 0. -1.
          2    1    6    6  502    0  0.37775269960E+03 -0.22022422094E+03  0.17341158593E+03  0.47039067558E+03  0.00000000000E+00 0. -1.
          1    1    5    5  503    0  0.58603951304E+03  0.78339906129E+02 -0.27563505297E+03  0.65234510358E+03  0.00000000000E+00 0. -1.
         -2    1    5    5    0  503  0.11937254876E+03 -0.10688138418E+02 -0.32100792802E+02  0.12407458482E+03  0.00000000000E+00 0.  1.
         -1    1    6    6    0  502  0.25889193785E+03 -0.23406607030E+03  0.13958200972E+03  0.37589240241E+03  0.00000000000E+00 0.  1.
<mgrwt>
<rscale>  0 0.31361924E+04</rscale>
<asrwt>0</asrwt>
<pdfrwt beam="1">  1        1 0.18639384E+00 0.31361924E+04</pdfrwt>
<pdfrwt beam="2">  1       -1 0.31223899E+00 0.31361924E+04</pdfrwt>
<totfact> 0.24237422E-01</totfact>
</mgrwt>
</event>
<event>
12    1  0.1534012E-007  0.2060883E+04  0.7818608E-02  0.8578673E-01
         -1   -1    0    0    0  501 -0.00000000000E+00  0.00000000000E+00  0.65819385252E+03  0.65819385252E+03  0.00000000000E+00 0.  1.
          1   -1    0    0  501    0  0.00000000000E+00 -0.00000000000E+00 -0.16132170954E+04  0.16132170954E+04  0.00000000000E+00 0. -1.
         23    2    1    2    0    0 -0.16847544325E+03  0.52378464296E+03 -0.10612102082E+04  0.11986488449E+04  0.88643219440E+02 0.  0.
        254    2    1    2    0    0  0.16847544325E+03 -0.52378464296E+03  0.10618696533E+03  0.10727621029E+04  0.91477239285E+03 0.  0.
        -24    2    4    4    0    0  0.15809672358E+03  0.15216635268E+03  0.28535311894E+03  0.36897652010E+03  0.81043796806E+02 0.  0.
         24    2    4    4    0    0  0.10378719674E+02 -0.67595099564E+03 -0.17916615361E+03  0.70378558284E+03  0.78715752515E+02 0.  0.
         13    1    3    3    0    0  0.99482764575E+01  0.43564030671E+02 -0.74499451231E+02  0.86873247933E+02  0.00000000000E+00 0.  1.
        -13    1    3    3    0    0 -0.17842371971E+03  0.48022061229E+03 -0.98671075696E+03  0.11117755970E+04  0.00000000000E+00 0. -1.
          2    1    6    6  502    0 -0.23438153300E+02 -0.53969453588E+03 -0.14325204724E+03  0.55887448333E+03  0.00000000000E+00 0. -1.
          1    1    5    5  503    0  0.16071791089E+03  0.15926855901E+03  0.27773394603E+03  0.35823576810E+03  0.00000000000E+00 0. -1.
         -2    1    5    5    0  503 -0.26211873131E+01 -0.71022063270E+01  0.76191729169E+01  0.10740752003E+02  0.00000000000E+00 0.  1.
         -1    1    6    6    0  502  0.33816872974E+02 -0.13625645976E+03 -0.35914106369E+02  0.14491109951E+03  0.00000000000E+00 0.  1.
<mgrwt>
<rscale>  0 0.20608829E+04</rscale>
<asrwt>0</asrwt>
<pdfrwt beam="1">  1        1 0.24818724E+00 0.20608829E+04</pdfrwt>
<pdfrwt beam="2">  1       -1 0.10126059E+00 0.20608829E+04</pdfrwt>
<totfact> 0.46695422E+00</totfact>
</mgrwt>
</event>
<event>
12    1  0.1518126E-007  0.1234536E+04  0.7818608E-02  0.9083153E-01
          2   -1    0    0  501    0  0.00000000000E+00  0.00000000000E+00  0.42084731436E+03  0.42084731436E+03  0.00000000000E+00 0. -1.
         -2   -1    0    0    0  501 -0.00000000000E+00 -0.00000000000E+00 -0.90536339548E+03  0.90536339548E+03  0.00000000000E+00 0.  1.
         23    2    1    2    0    0  0.30569118425E+02  0.12578310467E+03 -0.38762234218E+03  0.41929255418E+03  0.93804612933E+02 0.  0.
        254    2    1    2    0    0 -0.30569118425E+02 -0.12578310467E+03 -0.96893738932E+02  0.90691815566E+03  0.89238796720E+03 0.  0.
        -24    2    4    4    0    0  0.41597010603E+02  0.35775839729E+03  0.86388593691E+02  0.37889406539E+03  0.79851997782E+02 0.  0.
         24    2    4    4    0    0 -0.72166129028E+02 -0.48354150195E+03 -0.18328233262E+03  0.52802409027E+03  0.78719071150E+02 0.  0.
         13    1    3    3    0    0  0.14961801899E+02  0.24706397641E+01 -0.35034792914E+01  0.15563866617E+02  0.00000000000E+00 0. -1.
        -13    1    3    3    0    0  0.15607316525E+02  0.12331246490E+03 -0.38411886289E+03  0.40372868756E+03  0.00000000000E+00 0.  1.
          2    1    6    6  502    0 -0.75402222056E+02 -0.31089461302E+03 -0.92902839289E+02  0.33312444078E+03  0.00000000000E+00 0. -1.
          1    1    5    5  503    0  0.45035396132E+02  0.31624470990E+03  0.10056607508E+03  0.33489168235E+03  0.00000000000E+00 0. -1.
         -2    1    5    5    0  503 -0.34383855294E+01  0.41513687382E+02 -0.14177481392E+02  0.44002383046E+02  0.00000000000E+00 0.  1.
         -1    1    6    6    0  502  0.32360930281E+01 -0.17264688894E+03 -0.90379493334E+02  0.19489964949E+03  0.00000000000E+00 0.  1.
<mgrwt>
<rscale>  0 0.12345360E+04</rscale>
<asrwt>0</asrwt>
<pdfrwt beam="1">  1        2 0.64745741E-01 0.12345360E+04</pdfrwt>
<pdfrwt beam="2">  1       -2 0.13928668E+00 0.12345360E+04</pdfrwt>
<totfact> 0.26877057E+01</totfact>
</mgrwt>
</event>
<event>
12    1  0.1518126E-007  0.1484466E+04  0.7818608E-02  0.8894849E-01
         -1   -1    0    0    0  501 -0.00000000000E+00  0.00000000000E+00  0.58368840837E+03  0.58368840837E+03  0.00000000000E+00 0.  1.
          1   -1    0    0  501    0  0.00000000000E+00 -0.00000000000E+00 -0.94384197041E+03  0.94384197041E+03  0.00000000000E+00 0. -1.
         23    2    1    2    0    0 -0.33149904924E+03  0.17910742273E+03 -0.37409945831E+03  0.54581067423E+03  0.12644286804E+03 0.  0.
        254    2    1    2    0    0  0.33149904924E+03 -0.17910742273E+03  0.13945896267E+02  0.98171970454E+03  0.90642594940E+03 0.  0.
        -24    2    4    4    0    0 -0.30044071121E+03  0.45515619188E+00 -0.56892017133E+02  0.31607920990E+03  0.80028352446E+02 0.  0.
         24    2    4    4    0    0  0.63193976045E+03 -0.17956257892E+03  0.70837913400E+02  0.66564049465E+03  0.80428089362E+02 0.  0.
         11    1    3    3    0    0 -0.22494017377E+03  0.11896285676E+03 -0.32782225075E+03  0.41499116997E+03  0.00000000000E+00 0. -1.
        -11    1    3    3    0    0 -0.10655887547E+03  0.60144565966E+02 -0.46277207555E+02  0.13081950426E+03  0.00000000000E+00 0.  1.
          2    1    6    6  502    0  0.52560929996E+03 -0.15157910385E+03  0.28343520920E+02  0.54776337602E+03  0.00000000000E+00 0. -1.
          1    1    5    5  503    0 -0.11829466660E+03 -0.10428234527E+02  0.15524132510E+02  0.11976382973E+03  0.00000000000E+00 0. -1.
         -2    1    5    5    0  503 -0.18214604461E+03  0.10883390719E+02 -0.72416149643E+02  0.19631538017E+03  0.00000000000E+00 0.  1.
         -1    1    6    6    0  502  0.10633046049E+03 -0.27983475069E+02  0.42494392480E+02  0.11787711863E+03  0.00000000000E+00 0.  1.
<mgrwt>
<rscale>  0 0.14844657E+04</rscale>
<asrwt>0</asrwt>
<pdfrwt beam="1">  1        1 0.14520646E+00 0.14844657E+04</pdfrwt>
<pdfrwt beam="2">  1       -1 0.89798218E-01 0.14844657E+04</pdfrwt>
<totfact> 0.19716995E+01</totfact>
</mgrwt>
</event>
<event>
12    1  0.1518126E-007  0.1820236E+04  0.7818608E-02  0.8695612E-01
         -2   -1    0    0    0  501 -0.00000000000E+00  0.00000000000E+00  0.79812359647E+03  0.79812359647E+03  0.00000000000E+00 0.  1.
          2   -1    0    0  501    0  0.00000000000E+00 -0.00000000000E+00 -0.10378271344E+04  0.10378271344E+04  0.00000000000E+00 0. -1.
         23    2    1    2    0    0 -0.14010076941E+03  0.32325382876E+03 -0.67039508236E+03  0.76232011875E+03  0.87069705383E+02 0.  0.
        254    2    1    2    0    0  0.14010076941E+03 -0.32325382876E+03  0.43069154442E+03  0.10736306121E+04  0.91818637622E+03 0.  0.
        -24    2    4    4    0    0  0.34448476065E+03  0.95605842398E+02  0.47326076615E+03  0.59871119958E+03  0.81664682142E+02 0.  0.
         24    2    4    4    0    0 -0.20438399124E+03 -0.41885967115E+03 -0.42569221726E+02  0.47491941255E+03  0.80746949037E+02 0.  0.
         13    1    3    3    0    0 -0.88390830178E+02  0.10790432317E+03 -0.29833592595E+03  0.32933357942E+03  0.00000000000E+00 0.  1.
        -13    1    3    3    0    0 -0.51709939231E+02  0.21534950558E+03 -0.37205915641E+03  0.43298653933E+03  0.00000000000E+00 0. -1.
          4    1    6    6  502    0 -0.16547735608E+03 -0.25140653828E+03 -0.32144339278E+02  0.30269004181E+03  0.00000000000E+00 0. -1.
          3    1    5    5  503    0  0.26863276316E+03  0.57650529891E+02  0.30648956020E+03  0.41161024714E+03  0.00000000000E+00 0. -1.
         -4    1    5    5    0  503  0.75851997488E+02  0.37955312507E+02  0.16677120595E+03  0.18710095244E+03  0.00000000000E+00 0.  1.
         -3    1    6    6    0  502 -0.38906635163E+02 -0.16745313287E+03 -0.10424882448E+02  0.17222937073E+03  0.00000000000E+00 0.  1.
<mgrwt>
<rscale>  0 0.18202355E+04</rscale>
<asrwt>0</asrwt>
<pdfrwt beam="1">  1        2 0.15966571E+00 0.18202355E+04</pdfrwt>
<pdfrwt beam="2">  1       -2 0.12278825E+00 0.18202355E+04</pdfrwt>
<totfact> 0.11261637E+01</totfact>
</mgrwt>
</event>
<event>
12    1  0.1518126E-007  0.1717911E+04  0.7818608E-02  0.8751215E-01
          2   -1    0    0  501    0  0.00000000000E+00  0.00000000000E+00  0.18848918010E+04  0.18848918010E+04  0.00000000000E+00 0. -1.
         -2   -1    0    0    0  501 -0.00000000000E+00 -0.00000000000E+00 -0.39143062665E+03  0.39143062665E+03  0.00000000000E+00 0.  1.
         23    2    1    2    0    0 -0.72018727314E+02  0.40458464436E+03 -0.69508230220E+02  0.42653145002E+03  0.90676635671E+02 0.  0.
        254    2    1    2    0    0  0.72018727314E+02 -0.40458464436E+03  0.15629694046E+04  0.18497909776E+04  0.89998770532E+03 0.  0.
        -24    2    4    4    0    0 -0.27001911377E+03 -0.37192581378E+03  0.34027433002E+03  0.57724046739E+03  0.78618094383E+02 0.  0.
         24    2    4    4    0    0  0.34203784108E+03 -0.32658830575E+02  0.12226950746E+04  0.12725505102E+04  0.79655958942E+02 0.  0.
         13    1    3    3    0    0 -0.37215053481E+02  0.14069615892E+03  0.17301036318E+02  0.14655952783E+03  0.00000000000E+00 0. -1.
        -13    1    3    3    0    0 -0.34803673834E+02  0.26388848544E+03 -0.86809266538E+02  0.27997192219E+03  0.00000000000E+00 0.  1.
          4    1    6    6  502    0  0.89637502152E+02 -0.42634214494E+02  0.38593069380E+03  0.39849097663E+03  0.00000000000E+00 0. -1.
          1    1    5    5  503    0 -0.96921054125E+02 -0.14271668919E+03  0.17555598056E+03  0.24613339150E+03  0.00000000000E+00 0. -1.
         -2    1    5    5    0  503 -0.17309805964E+03 -0.22920912460E+03  0.16471834946E+03  0.33110707588E+03  0.00000000000E+00 0.  1.
         -3    1    6    6    0  502  0.25240033893E+03  0.99753839188E+01  0.83676438077E+03  0.87405953362E+03  0.00000000000E+00 0.  1.
<mgrwt>
<rscale>  0 0.17179108E+04</rscale>
<asrwt>0</asrwt>
<pdfrwt beam="1">  1        2 0.28998335E+00 0.17179108E+04</pdfrwt>
<pdfrwt beam="2">  1       -2 0.60220098E-01 0.17179108E+04</pdfrwt>
<totfact> 0.18904008E+01</totfact>
</mgrwt>
</event>
<event>
12    1  0.1518126E-007  0.2254704E+04  0.7818608E-02  0.8495998E-01
          2   -1    0    0  501    0  0.00000000000E+00  0.00000000000E+00  0.90581598432E+03  0.90581598432E+03  0.00000000000E+00 0.  1.
         -2   -1    0    0    0  501 -0.00000000000E+00 -0.00000000000E+00 -0.14030696949E+04  0.14030696949E+04  0.00000000000E+00 0. -1.
         23    2    1    2    0    0 -0.59372725025E+02 -0.94227691682E+03 -0.26433461746E+03  0.98456201000E+03  0.89881327841E+02 0.  0.
        254    2    1    2    0    0  0.59372725025E+02  0.94227691682E+03 -0.23291909312E+03  0.13243236692E+04  0.89898329711E+03 0.  0.
        -24    2    4    4    0    0  0.19130516401E+03  0.16122227399E+03 -0.42987584334E+03  0.50421260466E+03  0.82745529193E+02 0.  0.
         24    2    4    4    0    0 -0.13193243898E+03  0.78105464283E+03  0.19695675022E+03  0.82011106456E+03  0.79609504576E+02 0.  0.
         11    1    3    3    0    0 -0.49375077412E+02 -0.40437181467E+03 -0.75006786116E+02  0.41422274290E+03  0.00000000000E+00 0. -1.
        -11    1    3    3    0    0 -0.99976476134E+01 -0.53790510215E+03 -0.18932783134E+03  0.57033926710E+03  0.00000000000E+00 0.  1.
          4    1    6    6  502    0 -0.72533898614E+02  0.28269758647E+03  0.10307498131E+03  0.30952147521E+03  0.00000000000E+00 0. -1.
          1    1    5    5  503    0  0.22173215580E+02 -0.40385822259E+01 -0.16324879962E+02  0.27829181470E+02  0.00000000000E+00 0. -1.
         -4    1    5    5    0  503  0.16913194843E+03  0.16526085621E+03 -0.41355096338E+03  0.47638342319E+03  0.00000000000E+00 0.  1.
         -3    1    6    6    0  502 -0.59398540368E+02  0.49835705636E+03  0.93881768911E+02  0.51058958935E+03  0.00000000000E+00 0.  1.
<mgrwt>
<rscale>  0 0.22547044E+04</rscale>
<asrwt>0</asrwt>
<pdfrwt beam="1">  1        2 0.13935631E+00 0.22547044E+04</pdfrwt>
<pdfrwt beam="2">  1       -2 0.21585688E+00 0.22547044E+04</pdfrwt>
<totfact> 0.27759374E+00</totfact>
</mgrwt>
</event>
<event>
12    1  0.1518126E-007  0.1311711E+04  0.7818608E-02  0.9020329E-01
         -2   -1    0    0    0  501 -0.00000000000E+00  0.00000000000E+00  0.28875079333E+03  0.28875079333E+03  0.00000000000E+00 0.  1.
          2   -1    0    0  501    0  0.00000000000E+00 -0.00000000000E+00 -0.14896811534E+04  0.14896811534E+04  0.00000000000E+00 0. -1.
         23    2    1    2    0    0 -0.80383474432E+02  0.28747273253E+03 -0.52895303263E+03  0.61416857928E+03  0.91157326265E+02 0.  0.
        254    2    1    2    0    0  0.80383474432E+02 -0.28747273253E+03 -0.67197732748E+03  0.11642633675E+04  0.90269240904E+03 0.  0.
        -24    2    4    4    0    0  0.35645198508E+03  0.15711578681E+03 -0.41897845098E+03  0.57763794308E+03  0.79870287112E+02 0.  0.
         24    2    4    4    0    0 -0.27606851065E+03 -0.44458851934E+03 -0.25299887649E+03  0.58662542442E+03  0.79045448715E+02 0.  0.
         11    1    3    3    0    0  0.10978767624E+02  0.12375244876E+03 -0.19605342447E+03  0.23210374223E+03  0.00000000000E+00 0.  1.
        -11    1    3    3    0    0 -0.91362242055E+02  0.16372028377E+03 -0.33289960816E+03  0.38206483705E+03  0.00000000000E+00 0. -1.
          4    1    6    6  502    0 -0.22564127235E+03 -0.32091326778E+03 -0.21691542337E+03  0.44827626540E+03  0.00000000000E+00 0. -1.
          3    1    5    5  503    0  0.27367977066E+03  0.12814626031E+03 -0.27249164355E+03  0.40690757760E+03  0.00000000000E+00 0. -1.
         -4    1    5    5    0  503  0.82772214414E+02  0.28969526501E+02 -0.14648680743E+03  0.17073036548E+03  0.00000000000E+00 0.  1.
         -3    1    6    6    0  502 -0.50427238297E+02 -0.12367525157E+03 -0.36083453127E+02  0.13834915902E+03  0.00000000000E+00 0.  1.
<mgrwt>
<rscale>  0 0.13117113E+04</rscale>
<asrwt>0</asrwt>
<pdfrwt beam="1">  1        2 0.22918171E+00 0.13117113E+04</pdfrwt>
<pdfrwt beam="2">  1       -2 0.44423199E-01 0.13117113E+04</pdfrwt>
<totfact> 0.60530996E+01</totfact>
</mgrwt>
</event>
<event>
12    1  0.1518126E-007  0.3943770E+04  0.7818608E-02  0.8015987E-01
         -2   -1    0    0    0  501 -0.00000000000E+00  0.00000000000E+00  0.11781077729E+04  0.11781077729E+04  0.00000000000E+00 0.  1.
          2   -1    0    0  501    0  0.00000000000E+00 -0.00000000000E+00 -0.33004885368E+04  0.33004885368E+04  0.00000000000E+00 0. -1.
         23    2    1    2    0    0 -0.13857633761E+04 -0.79215762266E+03 -0.21056231161E+04  0.26447509263E+04  0.11491266851E+03 0.  0.
        254    2    1    2    0    0  0.13857633761E+04  0.79215762266E+03 -0.16757647848E+02  0.18338453834E+04  0.90269277055E+03 0.  0.
        -24    2    4    4    0    0  0.60741801137E+03  0.17048036775E+03  0.39970540793E+03  0.75120372602E+03  0.80761553565E+02 0.  0.
         24    2    4    4    0    0  0.77834536470E+03  0.62167725492E+03 -0.41646305578E+03  0.10826416574E+04  0.79795773920E+02 0.  0.
         11    1    3    3    0    0 -0.50528203374E+03 -0.33440679714E+03 -0.73398524952E+03  0.95177317997E+03  0.00000000000E+00 0.  1.
        -11    1    3    3    0    0 -0.88048134232E+03 -0.45775082553E+03 -0.13716378666E+04  0.16929777463E+04  0.00000000000E+00 0. -1.
          2    1    6    6  502    0  0.22744015435E+03  0.22882594016E+03 -0.14066665338E+03  0.35196227365E+03  0.00000000000E+00 0. -1.
          1    1    5    5  503    0  0.57888629510E+03  0.17130347437E+03  0.36201262391E+03  0.70392283871E+03  0.00000000000E+00 0. -1.
         -2    1    5    5    0  503  0.28531716265E+02 -0.82310662113E+00  0.37692784016E+02  0.47280887306E+02  0.00000000000E+00 0.  1.
         -1    1    6    6    0  502  0.55090521035E+03  0.39285131475E+03 -0.27579640240E+03  0.73067938377E+03  0.00000000000E+00 0.  1.
<mgrwt>
<rscale>  0 0.39437704E+04</rscale>
<asrwt>0</asrwt>
<pdfrwt beam="1">  1        2 0.50776746E+00 0.39437704E+04</pdfrwt>
<pdfrwt beam="2">  1       -2 0.18124735E+00 0.39437704E+04</pdfrwt>
<totfact> 0.15659837E-01</totfact>
</mgrwt>
</event>
<event>
12    1  0.1518126E-007  0.2286985E+04  0.7818608E-02  0.8483071E-01
         -2   -1    0    0    0  501 -0.00000000000E+00  0.00000000000E+00  0.49937091593E+03  0.49937091593E+03  0.00000000000E+00 0.  1.
          2   -1    0    0  501    0  0.00000000000E+00 -0.00000000000E+00 -0.26184438593E+04  0.26184438593E+04  0.00000000000E+00 0. -1.
         23    2    1    2    0    0 -0.54872956959E+02 -0.18267699374E+03 -0.21884087921E+04  0.21986455183E+04  0.92342560067E+02 0.  0.
        254    2    1    2    0    0  0.54872956959E+02  0.18267699374E+03  0.69335848715E+02  0.91916925693E+03  0.89648354002E+03 0.  0.
        -24    2    4    4    0    0  0.37890109547E+03  0.11092107975E+03 -0.23068171691E+03  0.46424025833E+03  0.80221174611E+02 0.  0.
         24    2    4    4    0    0 -0.32402813851E+03  0.71755913983E+02  0.30001756563E+03  0.45492899860E+03  0.82502777832E+02 0.  0.
         11    1    3    3    0    0 -0.46324868421E+02 -0.19037907223E+03 -0.19156342224E+04  0.19256283802E+04  0.00000000000E+00 0. -1.
        -11    1    3    3    0    0 -0.85480885382E+01  0.77020784890E+01 -0.27277456968E+03  0.27301713809E+03  0.00000000000E+00 0.  1.
          2    1    6    6  502    0 -0.24619723014E+03  0.84235148245E+02  0.20363282302E+03  0.33041634787E+03  0.00000000000E+00 0. -1.
          1    1    5    5  503    0  0.22920629200E+03  0.28056358436E+02 -0.11749013611E+03  0.25908804608E+03  0.00000000000E+00 0. -1.
         -2    1    5    5    0  503  0.14969480347E+03  0.82864721318E+02 -0.11319158080E+03  0.20515221225E+03  0.00000000000E+00 0.  1.
         -1    1    6    6    0  502 -0.77830908361E+02 -0.12479234263E+02  0.96384742612E+02  0.12451265073E+03  0.00000000000E+00 0.  1.
<mgrwt>
<rscale>  0 0.22869847E+04</rscale>
<asrwt>0</asrwt>
<pdfrwt beam="1">  1        2 0.40283752E+00 0.22869847E+04</pdfrwt>
<pdfrwt beam="2">  1       -2 0.76826294E-01 0.22869847E+04</pdfrwt>
<totfact> 0.40776953E+00</totfact>
</mgrwt>
</event>
<event>
12    1  0.1631512E-007  0.2280259E+04  0.7818608E-02  0.8485746E-01
          2   -1    0    0  501    0  0.00000000000E+00  0.00000000000E+00  0.19547839338E+04  0.19547839338E+04  0.00000000000E+00 0. -1.
         -2   -1    0    0    0  501 -0.00000000000E+00 -0.00000000000E+00 -0.66498168698E+03  0.66498168698E+03  0.00000000000E+00 0.  1.
         23    2    1    2    0    0  0.89064958002E+02 -0.26705859965E+03  0.15935787921E+04  0.16212841419E+04  0.99075930643E+02 0.  0.
        254    2    1    2    0    0 -0.89064958002E+02  0.26705859965E+03 -0.30377654523E+03  0.99848147886E+03  0.90853299984E+03 0.  0.
        -24    2    4    4    0    0 -0.23926409299E+02 -0.32305022426E+03 -0.15774820067E+02  0.33382020522E+03  0.79076949915E+02 0.  0.
         24    2    4    4    0    0 -0.65138548703E+02  0.59010882391E+03 -0.28800172516E+03  0.66466127364E+03  0.79738073759E+02 0.  0.
         13    1    3    3    0    0  0.26656604622E+01  0.83883507650E+01  0.74570679836E+02  0.75088324428E+02  0.00000000000E+00 0.  1.
        -13    1    3    3    0    0  0.86399297540E+02 -0.27544695041E+03  0.15190081122E+04  0.15461958175E+04  0.00000000000E+00 0. -1.
          2    1    6    6  502    0 -0.80183203197E+02  0.46836709084E+03 -0.24539718708E+03  0.53480543872E+03  0.00000000000E+00 0. -1.
          1    1    5    5  503    0 -0.29138833090E+02 -0.29455489175E+03  0.83672224267E+01  0.29611090195E+03  0.00000000000E+00 0. -1.
         -2    1    5    5    0  503  0.52124237905E+01 -0.28495332511E+02 -0.24142042493E+02  0.37709303261E+02  0.00000000000E+00 0.  1.
         -1    1    6    6    0  502  0.15044654494E+02  0.12174173306E+03 -0.42604538079E+02  0.12985583492E+03  0.00000000000E+00 0.  1.
<mgrwt>
<rscale>  0 0.22802592E+04</rscale>
<asrwt>0</asrwt>
<pdfrwt beam="1">  1        2 0.30073599E+00 0.22802592E+04</pdfrwt>
<pdfrwt beam="2">  1       -2 0.10230488E+00 0.22802592E+04</pdfrwt>
<totfact> 0.50292837E+00</totfact>
</mgrwt>
</event>
<event>
12    1  0.1518126E-007  0.2789439E+04  0.7818608E-02  0.8306555E-01
          2   -1    0    0  501    0  0.00000000000E+00  0.00000000000E+00  0.17390009221E+04  0.17390009221E+04  0.00000000000E+00 0. -1.
         -2   -1    0    0    0  501 -0.00000000000E+00 -0.00000000000E+00 -0.11185977571E+04  0.11185977571E+04  0.00000000000E+00 0.  1.
         23    2    1    2    0    0  0.46154636173E+03  0.41488518895E+03  0.13870241777E+04  0.15221623900E+04  0.89372859465E+02 0.  0.
        254    2    1    2    0    0 -0.46154636173E+03 -0.41488518895E+03 -0.76662101265E+03  0.13354362892E+04  0.90029303092E+03 0.  0.
        -24    2    4    4    0    0 -0.41788614870E+03 -0.68124552204E+03 -0.62089902763E+03  0.10157837075E+04  0.87043915974E+02 0.  0.
         24    2    4    4    0    0 -0.43660213023E+02  0.26636033309E+03 -0.14572198502E+03  0.31965258174E+03  0.89937949986E+02 0.  0.
         13    1    3    3    0    0  0.40196571410E+03  0.36698067081E+03  0.12772783882E+04  0.13884132414E+04  0.00000000000E+00 0. -1.
        -13    1    3    3    0    0  0.59580647621E+02  0.47904518132E+02  0.10974578951E+03  0.13374914857E+03  0.00000000000E+00 0.  1.
          2    1    6    6  502    0 -0.29469009665E+01  0.70227376784E+02 -0.85082567461E+02  0.11036127926E+03  0.00000000000E+00 0. -1.
          3    1    5    5  503    0 -0.28559961300E+03 -0.41693033299E+03 -0.34893137234E+03  0.61412632586E+03  0.00000000000E+00 0. -1.
         -4    1    5    5    0  503 -0.13228653570E+03 -0.26431518905E+03 -0.27196765529E+03  0.40165738163E+03  0.00000000000E+00 0.  1.
         -1    1    6    6    0  502 -0.40713312057E+02  0.19613295631E+03 -0.60639417555E+02  0.20929130247E+03  0.00000000000E+00 0.  1.
<mgrwt>
<rscale>  0 0.27894390E+04</rscale>
<asrwt>0</asrwt>
<pdfrwt beam="1">  1        2 0.26753861E+00 0.27894390E+04</pdfrwt>
<pdfrwt beam="2">  1       -2 0.17209196E+00 0.27894390E+04</pdfrwt>
<totfact> 0.16737263E+00</totfact>
</mgrwt>
</event>
<event>
12    1  0.1518126E-007  0.1573390E+04  0.7818608E-02  0.8837064E-01
         -1   -1    0    0    0  501 -0.00000000000E+00  0.00000000000E+00  0.11345498802E+04  0.11345498802E+04  0.00000000000E+00 0.  1.
          1   -1    0    0  501    0  0.00000000000E+00 -0.00000000000E+00 -0.54549312335E+03  0.54549312335E+03  0.00000000000E+00 0. -1.
         23    2    1    2    0    0  0.72494589332E+02  0.12216808889E+03  0.73004267447E+03  0.74983526034E+03  0.95446863144E+02 0.  0.
        254    2    1    2    0    0 -0.72494589332E+02 -0.12216808889E+03 -0.14098591760E+03  0.93020774322E+03  0.90842110784E+03 0.  0.
        -24    2    4    4    0    0 -0.74150730042E+02  0.38249031954E+03 -0.13013370870E+03  0.41913075970E+03  0.83298477078E+02 0.  0.
         24    2    4    4    0    0  0.16561407095E+01 -0.50465840843E+03 -0.10852208905E+02  0.51107698352E+03  0.79994128794E+02 0.  0.
         11    1    3    3    0    0  0.83283023909E+02  0.13076778703E+03  0.62750498144E+03  0.64637355912E+03  0.00000000000E+00 0.  1.
        -11    1    3    3    0    0 -0.10788434577E+02 -0.85996981390E+01  0.10253769302E+03  0.10346170122E+03  0.00000000000E+00 0. -1.
          4    1    6    6  502    0  0.10376911354E+02 -0.49941311598E+03 -0.15779776825E+02  0.49977008920E+03  0.00000000000E+00 0. -1.
          1    1    5    5  503    0 -0.15634559470E+02  0.25243465474E+03 -0.58761845329E+02  0.25965486483E+03  0.00000000000E+00 0. -1.
         -2    1    5    5    0  503 -0.58516170572E+02  0.13005566479E+03 -0.71371863368E+02  0.15947589487E+03  0.00000000000E+00 0.  1.
         -3    1    6    6    0  502 -0.87207706447E+01 -0.52452924524E+01  0.49275679198E+01  0.11306894320E+02  0.00000000000E+00 0.  1.
<mgrwt>
<rscale>  0 0.15733902E+04</rscale>
<asrwt>0</asrwt>
<pdfrwt beam="1">  1        1 0.83922019E-01 0.15733902E+04</pdfrwt>
<pdfrwt beam="2">  1       -1 0.17454614E+00 0.15733902E+04</pdfrwt>
<totfact> 0.86002441E+00</totfact>
</mgrwt>
</event>
<event>
12    1  0.1518126E-007  0.2457240E+04  0.7818608E-02  0.8418379E-01
          1   -1    0    0  501    0  0.00000000000E+00  0.00000000000E+00  0.20094025210E+04  0.20094025210E+04  0.00000000000E+00 0. -1.
         -1   -1    0    0    0  501 -0.00000000000E+00 -0.00000000000E+00 -0.75122188156E+03  0.75122188156E+03  0.00000000000E+00 0.  1.
         23    2    1    2    0    0 -0.21733432487E+03 -0.39120805292E+03  0.16261430097E+04  0.16889500336E+04  0.89068392582E+02 0.  0.
        254    2    1    2    0    0  0.21733432487E+03  0.39120805292E+03 -0.36796237028E+03  0.10716743689E+04  0.90156070104E+03 0.  0.
        -24    2    4    4    0    0 -0.97605952490E+02  0.27945127541E+03  0.22918499172E+03  0.38271308173E+03  0.79521099142E+02 0.  0.
         24    2    4    4    0    0  0.31494027736E+03  0.11175677751E+03 -0.59714736200E+03  0.68896128721E+03  0.80035790200E+02 0.  0.
         11    1    3    3    0    0 -0.16521249623E+03 -0.21034869762E+03  0.91116216085E+03  0.94960951283E+03  0.00000000000E+00 0. -1.
        -11    1    3    3    0    0 -0.52121828643E+02 -0.18085935530E+03  0.71498084885E+03  0.73934052076E+03  0.00000000000E+00 0.  1.
          4    1    6    6  502    0  0.64411155260E+02 -0.57249209619E-01 -0.16450897868E+03  0.17666919445E+03  0.00000000000E+00 0. -1.
          1    1    5    5  503    0 -0.38383738487E+02  0.21525590090E+03  0.17357972823E+03  0.27917438332E+03  0.00000000000E+00 0. -1.
         -2    1    5    5    0  503 -0.59222214003E+02  0.64195374515E+02  0.55605263485E+02  0.10353869841E+03  0.00000000000E+00 0.  1.
         -3    1    6    6    0  502  0.25052912210E+03  0.11181402672E+03 -0.43263838331E+03  0.51229209276E+03  0.00000000000E+00 0.  1.
<mgrwt>
<rscale>  0 0.24572400E+04</rscale>
<asrwt>0</asrwt>
<pdfrwt beam="1">  1        1 0.30913885E+00 0.24572400E+04</pdfrwt>
<pdfrwt beam="2">  1       -1 0.11557260E+00 0.24572400E+04</pdfrwt>
<totfact> 0.17756663E+00</totfact>
</mgrwt>
</event>
<event>
12    1  0.1518126E-007  0.2043886E+04  0.7818608E-02  0.8586373E-01
         -2   -1    0    0    0  501 -0.00000000000E+00  0.00000000000E+00  0.81759714563E+03  0.81759714563E+03  0.00000000000E+00 0.  1.
          2   -1    0    0  501    0  0.00000000000E+00 -0.00000000000E+00 -0.12773624541E+04  0.12773624541E+04  0.00000000000E+00 0. -1.
         23    2    1    2    0    0  0.60550701582E+03 -0.54374295121E+03 -0.11718024958E+03  0.82735673914E+03  0.92156495773E+02 0.  0.
        254    2    1    2    0    0 -0.60550701582E+03  0.54374295121E+03 -0.34258505888E+03  0.12676028606E+04  0.90948191098E+03 0.  0.
        -24    2    4    4    0    0 -0.60161751417E+03 -0.41507860878E+02 -0.54647449941E+02  0.61081213733E+03  0.80240809094E+02 0.  0.
         24    2    4    4    0    0 -0.38895016409E+01  0.58525081209E+03 -0.28793760893E+03  0.65679072326E+03  0.77021725797E+02 0.  0.
         11    1    3    3    0    0  0.18181296186E+03 -0.13655448752E+03 -0.69592542248E+02  0.23779445557E+03  0.00000000000E+00 0. -1.
        -11    1    3    3    0    0  0.42369405395E+03 -0.40718846369E+03 -0.47587707336E+02  0.58956228357E+03  0.00000000000E+00 0.  1.
          4    1    6    6  502    0 -0.13887917384E+02  0.51091266498E+03 -0.27592826295E+03  0.58082788482E+03  0.00000000000E+00 0. -1.
          1    1    5    5  503    0 -0.53711501799E+03 -0.11613907040E+02 -0.50176859658E+02  0.53957867141E+03  0.00000000000E+00 0. -1.
         -2    1    5    5    0  503 -0.64502496182E+02 -0.29893953837E+02 -0.44705902830E+01  0.71233465922E+02  0.00000000000E+00 0.  1.
         -3    1    6    6    0  502  0.99984157432E+01  0.74338147105E+02 -0.12009345982E+02  0.75962838436E+02  0.00000000000E+00 0.  1.
<mgrwt>
<rscale>  0 0.20438864E+04</rscale>
<asrwt>0</asrwt>
<pdfrwt beam="1">  1        2 0.19651730E+00 0.20438864E+04</pdfrwt>
<pdfrwt beam="2">  1       -2 0.12578418E+00 0.20438864E+04</pdfrwt>
<totfact> 0.74486926E+00</totfact>
</mgrwt>
</event>
<event>
12    1  0.1518126E-007  0.1049607E+04  0.7818608E-02  0.9255750E-01
          2   -1    0    0  501    0  0.00000000000E+00  0.00000000000E+00  0.18674433108E+04  0.18674433108E+04  0.00000000000E+00 0. -1.
         -2   -1    0    0    0  501 -0.00000000000E+00 -0.00000000000E+00 -0.14748446345E+03  0.14748446345E+03  0.00000000000E+00 0.  1.
         23    2    1    2    0    0 -0.37519812495E+02 -0.39567557413E+02  0.65694511159E+03  0.66530940432E+03  0.89924389932E+02 0.  0.
        254    2    1    2    0    0  0.37519812495E+02  0.39567557413E+02  0.10630137357E+04  0.13496183699E+04  0.82975792501E+03 0.  0.
        -24    2    4    4    0    0 -0.12866692595E+03 -0.35683546602E+03  0.58731144233E+03  0.70368455063E+03  0.79689954596E+02 0.  0.
         24    2    4    4    0    0  0.16618673845E+03  0.39640302343E+03  0.47570229340E+03  0.64593381927E+03  0.78641197288E+02 0.  0.
         11    1    3    3    0    0 -0.14461034953E+02 -0.64059164890E+02  0.52720455519E+03  0.53127896736E+03  0.00000000000E+00 0. -1.
        -11    1    3    3    0    0 -0.23058777542E+02  0.24491607476E+02  0.12974055640E+03  0.13403043696E+03  0.00000000000E+00 0.  1.
          2    1    6    6  502    0  0.78272978135E+02  0.20483872290E+03  0.18522815190E+03  0.28704534443E+03  0.00000000000E+00 0. -1.
          3    1    5    5  503    0 -0.85025851412E+02 -0.15635485263E+03  0.32632181838E+03  0.37170171441E+03  0.00000000000E+00 0. -1.
         -4    1    5    5    0  503 -0.43641074539E+02 -0.20048061339E+03  0.26098962395E+03  0.33198283622E+03  0.00000000000E+00 0.  1.
         -1    1    6    6    0  502  0.87913760311E+02  0.19156430054E+03  0.29047414150E+03  0.35888847484E+03  0.00000000000E+00 0.  1.
<mgrwt>
<rscale>  0 0.10496073E+04</rscale>
<asrwt>0</asrwt>
<pdfrwt beam="1">  1        2 0.28729895E+00 0.10496073E+04</pdfrwt>
<pdfrwt beam="2">  1       -2 0.22689919E-01 0.10496073E+04</pdfrwt>
<totfact> 0.13487626E+02</totfact>
</mgrwt>
</event>
<event>
12    1  0.1518126E-007  0.1671941E+04  0.7818608E-02  0.8777531E-01
         -2   -1    0    0    0  501 -0.00000000000E+00  0.00000000000E+00  0.64938271218E+03  0.64938271218E+03  0.00000000000E+00 0.  1.
          2   -1    0    0  501    0  0.00000000000E+00 -0.00000000000E+00 -0.10761712713E+04  0.10761712713E+04  0.00000000000E+00 0. -1.
         23    2    1    2    0    0 -0.45683247063E+03 -0.35646332041E+03 -0.38133074798E+02  0.58907363069E+03  0.98952543957E+02 0.  0.
        254    2    1    2    0    0  0.45683247063E+03  0.35646332041E+03 -0.38865548431E+03  0.11364803528E+04  0.89709113347E+03 0.  0.
        -24    2    4    4    0    0  0.42576540342E+03  0.31451083355E+02  0.18434142088E+03  0.47219608645E+03  0.81988018712E+02 0.  0.
         24    2    4    4    0    0  0.31067067215E+02  0.32501223705E+03 -0.57299690520E+03  0.66428426633E+03  0.79686989099E+02 0.  0.
         13    1    3    3    0    0 -0.20962241453E+03 -0.17530052642E+03 -0.66628963324E+02  0.28126722168E+03  0.00000000000E+00 0.  1.
        -13    1    3    3    0    0 -0.24721005610E+03 -0.18116279399E+03  0.28495888527E+02  0.30780640901E+03  0.00000000000E+00 0. -1.
          4    1    6    6  502    0  0.12490519440E+02  0.31214971341E+03 -0.54624586918E+03  0.62926783348E+03  0.00000000000E+00 0. -1.
          1    1    5    5  503    0  0.42289567571E+03  0.20493897002E+02  0.17907633787E+03  0.45970543518E+03  0.00000000000E+00 0. -1.
         -2    1    5    5    0  503  0.28697277022E+01  0.10957186353E+02  0.52650830162E+01  0.12490651265E+02  0.00000000000E+00 0.  1.
         -1    1    6    6    0  502  0.18576547775E+02  0.12862523647E+02 -0.26751036021E+02  0.35016432856E+02  0.00000000000E+00 0.  1.
<mgrwt>
<rscale>  0 0.16719414E+04</rscale>
<asrwt>0</asrwt>
<pdfrwt beam="1">  1        2 0.16556481E+00 0.16719414E+04</pdfrwt>
<pdfrwt beam="2">  1       -2 0.99905033E-01 0.16719414E+04</pdfrwt>
<totfact> 0.17799144E+01</totfact>
</mgrwt>
</event>
<event>
12    1  0.1518126E-007  0.1781954E+04  0.7818608E-02  0.8715956E-01
          2   -1    0    0  501    0  0.00000000000E+00  0.00000000000E+00  0.12738565946E+04  0.12738565946E+04  0.00000000000E+00 0. -1.
         -2   -1    0    0    0  501 -0.00000000000E+00 -0.00000000000E+00 -0.62317833145E+03  0.62317833145E+03  0.00000000000E+00 0.  1.
         23    2    1    2    0    0 -0.67444030679E+02 -0.48027274737E+03 -0.23640547963E+03  0.54735577379E+03  0.92196437920E+02 0.  0.
        254    2    1    2    0    0  0.67444030679E+02  0.48027274737E+03  0.88708374282E+03  0.13496791523E+04  0.89415079166E+03 0.  0.
        -24    2    4    4    0    0 -0.34296483535E+03  0.14959009242E+03  0.67589610012E+03  0.77667329696E+03  0.79898673458E+02 0.  0.
         24    2    4    4    0    0  0.41040886603E+03  0.33068265495E+03  0.21118764270E+03  0.57300585533E+03  0.77129982650E+02 0.  0.
         11    1    3    3    0    0 -0.74309436508E+02 -0.42106162923E+03 -0.17564951092E+03  0.46224186164E+03  0.00000000000E+00 0. -1.
        -11    1    3    3    0    0  0.68654058289E+01 -0.59211118133E+02 -0.60755968704E+02  0.85113912147E+02  0.00000000000E+00 0.  1.
          4    1    6    6  502    0  0.28276346016E+03  0.27069629732E+03  0.16182920253E+03  0.42358039447E+03  0.00000000000E+00 0. -1.
          3    1    5    5  503    0 -0.16311653353E+03  0.46546364019E+02  0.37164835665E+03  0.40852915259E+03  0.00000000000E+00 0. -1.
         -4    1    5    5    0  503 -0.17984830182E+03  0.10304372840E+03  0.30424774347E+03  0.36814414437E+03  0.00000000000E+00 0.  1.
         -3    1    6    6    0  502  0.12764540586E+03  0.59986357624E+02  0.49358440170E+02  0.14942546086E+03  0.00000000000E+00 0.  1.
<mgrwt>
<rscale>  0 0.17819538E+04</rscale>
<asrwt>0</asrwt>
<pdfrwt beam="1">  1        2 0.19597794E+00 0.17819538E+04</pdfrwt>
<pdfrwt beam="2">  1       -2 0.95873590E-01 0.17819538E+04</pdfrwt>
<totfact> 0.14771451E+01</totfact>
</mgrwt>
</event>
<event>
12    1  0.1518126E-007  0.3432877E+04  0.7818608E-02  0.8129884E-01
         -1   -1    0    0    0  501 -0.00000000000E+00  0.00000000000E+00  0.24091533210E+04  0.24091533210E+04  0.00000000000E+00 0.  1.
          1   -1    0    0  501    0  0.00000000000E+00 -0.00000000000E+00 -0.12229034766E+04  0.12229034766E+04  0.00000000000E+00 0. -1.
         23    2    1    2    0    0  0.10221383831E+03 -0.19805716245E+03  0.22249518422E+04  0.22380168629E+04  0.92921851367E+02 0.  0.
        254    2    1    2    0    0 -0.10221383831E+03  0.19805716245E+03 -0.10387019978E+04  0.13940399346E+04  0.90264676966E+03 0.  0.
        -24    2    4    4    0    0  0.33415812449E+02  0.31038995423E+03  0.14301033940E+02  0.32329308729E+03  0.82797104470E+02 0.  0.
         24    2    4    4    0    0 -0.13562965076E+03 -0.11233279178E+03 -0.10530030318E+04  0.10707468474E+04  0.81666198387E+02 0.  0.
         13    1    3    3    0    0  0.35596625706E+02 -0.34992821087E+01  0.31273252713E+03  0.31477134282E+03  0.00000000000E+00 0.  1.
        -13    1    3    3    0    0  0.66617212600E+02 -0.19455788034E+03  0.19122193150E+04  0.19232455201E+04  0.00000000000E+00 0. -1.
          2    1    6    6  502    0 -0.50034528846E+02  0.32484231061E+01 -0.29150698257E+03  0.29578763872E+03  0.00000000000E+00 0. -1.
          1    1    5    5  503    0  0.29843466627E+01 -0.43498464077E+01  0.44998118939E+01  0.69336711672E+01  0.00000000000E+00 0. -1.
         -2    1    5    5    0  503  0.30431465787E+02  0.31473980064E+03  0.98012220456E+01  0.31635941612E+03  0.00000000000E+00 0.  1.
         -1    1    6    6    0  502 -0.85595121909E+02 -0.11558121488E+03 -0.76149604918E+03  0.77495920863E+03  0.00000000000E+00 0.  1.
<mgrwt>
<rscale>  0 0.34328775E+04</rscale>
<asrwt>0</asrwt>
<pdfrwt beam="1">  1        1 0.18813900E+00 0.34328775E+04</pdfrwt>
<pdfrwt beam="2">  1       -1 0.37063897E+00 0.34328775E+04</pdfrwt>
<totfact> 0.95380098E-02</totfact>
</mgrwt>
</event>
<event>
12    1  0.1518126E-007  0.1170245E+04  0.7818608E-02  0.9139307E-01
         -1   -1    0    0    0  501 -0.00000000000E+00  0.00000000000E+00  0.13562579004E+04  0.13562579004E+04  0.00000000000E+00 0. -1.
          1   -1    0    0  501    0  0.00000000000E+00 -0.00000000000E+00 -0.25243592052E+03  0.25243592052E+03  0.00000000000E+00 0.  1.
         23    2    1    2    0    0  0.88132188561E+02  0.10856305830E+03 -0.14708440952E+02  0.16751927045E+03  0.91066719764E+02 0.  0.
        254    2    1    2    0    0 -0.88132188561E+02 -0.10856305830E+03  0.11185304209E+04  0.14411745505E+04  0.89795354129E+03 0.  0.
        -24    2    4    4    0    0  0.29137715206E+03 -0.35984119891E+02  0.97420220399E+03  0.10206200338E+04  0.79998859063E+02 0.  0.
         24    2    4    4    0    0 -0.37950934062E+03 -0.72578938411E+02  0.14432821686E+03  0.42055451672E+03  0.82100093969E+02 0.  0.
         13    1    3    3    0    0  0.15121958660E+02  0.64070872120E+02 -0.41620905809E+02  0.77884851469E+02  0.00000000000E+00 0.  1.
        -13    1    3    3    0    0  0.73010229901E+02  0.44492186182E+02  0.26912464857E+02  0.89634418982E+02  0.00000000000E+00 0. -1.
          4    1    6    6  502    0 -0.10473110577E+03 -0.42573537352E+02  0.74714776210E+02  0.13551165405E+03  0.00000000000E+00 0. -1.
          1    1    5    5  503    0  0.10506504290E+02  0.14052483201E+02  0.84248327525E+02  0.86056025979E+02  0.00000000000E+00 0. -1.
         -2    1    5    5    0  503  0.28087064777E+03 -0.50036603092E+02  0.88995387647E+03  0.93456400780E+03  0.00000000000E+00 0.  1.
         -3    1    6    6    0  502 -0.27477823485E+03 -0.30005401059E+02  0.69613440654E+02  0.28504286267E+03  0.00000000000E+00 0.  1.
<mgrwt>
<rscale>  0 0.11702448E+04</rscale>
<asrwt>0</asrwt>
<pdfrwt beam="1">  1        1 0.38836296E-01 0.11702448E+04</pdfrwt>
<pdfrwt beam="2">  1       -1 0.20865506E+00 0.11702448E+04</pdfrwt>
<totfact> 0.14309378E+01</totfact>
</mgrwt>
</event>
<event>
12    1  0.1518126E-007  0.1927483E+04  0.7818608E-02  0.8641296E-01
          3   -1    0    0  501    0  0.00000000000E+00  0.00000000000E+00  0.69998531040E+03  0.69998531040E+03  0.00000000000E+00 0. -1.
         -3   -1    0    0    0  501 -0.00000000000E+00 -0.00000000000E+00 -0.13268811637E+04  0.13268811637E+04  0.00000000000E+00 0.  1.
         23    2    1    2    0    0 -0.21509591616E+03 -0.44126138588E+03  0.35504329798E+03  0.61269920495E+03  0.91469713525E+02 0.  0.
        254    2    1    2    0    0  0.21509591616E+03  0.44126138588E+03 -0.98193915128E+03  0.14141672692E+04  0.89145202031E+03 0.  0.
        -24    2    4    4    0    0 -0.10630043791E+03  0.62447936007E+03 -0.59392089261E+03  0.87200027540E+03  0.79800998558E+02 0.  0.
         24    2    4    4    0    0  0.32139635407E+03 -0.18321797419E+03 -0.38801825867E+03  0.54216699375E+03  0.80761609515E+02 0.  0.
         11    1    3    3    0    0 -0.41374302620E+02 -0.18613493198E+03  0.13746312181E+03  0.23506202518E+03  0.00000000000E+00 0.  1.
        -11    1    3    3    0    0 -0.17372161354E+03 -0.25512645390E+03  0.21758017616E+03  0.37763717978E+03  0.00000000000E+00 0. -1.
          2    1    6    6  502    0  0.25783563778E+03 -0.12076814002E+03 -0.25595488882E+03  0.38285384269E+03  0.00000000000E+00 0. -1.
          1    1    5    5  503    0 -0.25685898315E+02  0.39045522865E+02 -0.55365703760E+02  0.72454671215E+02  0.00000000000E+00 0. -1.
         -2    1    5    5    0  503 -0.80614539595E+02  0.58543383721E+03 -0.53855518885E+03  0.79954560419E+03  0.00000000000E+00 0.  1.
         -1    1    6    6    0  502  0.63560716293E+02 -0.62449834170E+02 -0.13206336985E+03  0.15931315106E+03  0.00000000000E+00 0.  1.
<mgrwt>
<rscale>  0 0.19274826E+04</rscale>
<asrwt>0</asrwt>
<pdfrwt beam="1">  1        3 0.10769005E+00 0.19274826E+04</pdfrwt>
<pdfrwt beam="2">  1       -3 0.20413556E+00 0.19274826E+04</pdfrwt>
<totfact> 0.24741652E-01</totfact>
</mgrwt>
</event>
<event>
12    1  0.1518126E-007  0.3663170E+04  0.7818608E-02  0.8076173E-01
          1   -1    0    0  501    0  0.00000000000E+00  0.00000000000E+00  0.17954396441E+04  0.17954396441E+04  0.00000000000E+00 0. -1.
         -1   -1    0    0    0  501 -0.00000000000E+00 -0.00000000000E+00 -0.18684583881E+04  0.18684583881E+04  0.00000000000E+00 0.  1.
         23    2    1    2    0    0 -0.15257443905E+04 -0.68118557603E+03  0.39047942307E+03  0.17185672086E+04  0.95338010521E+02 0.  0.
        254    2    1    2    0    0  0.15257443905E+04  0.68118557603E+03 -0.46349816709E+03  0.19453308236E+04  0.88180027668E+03 0.  0.
        -24    2    4    4    0    0  0.27504983629E+02  0.75571996461E+02  0.17250447348E+03  0.20663071595E+03  0.80441336559E+02 0.  0.
         24    2    4    4    0    0  0.14982394069E+04  0.60561357956E+03 -0.63600264057E+03  0.17387001076E+04  0.84199627265E+02 0.  0.
         11    1    3    3    0    0 -0.11791734659E+04 -0.53846123730E+03  0.34185467913E+03  0.13406174654E+04  0.00000000000E+00 0. -1.
        -11    1    3    3    0    0 -0.34657092462E+03 -0.14272433873E+03  0.48624743937E+02  0.37794974320E+03  0.00000000000E+00 0.  1.
          4    1    6    6  502    0  0.56835617124E+03  0.23779740461E+03 -0.28586415079E+03  0.67918676057E+03  0.00000000000E+00 0. -1.
          1    1    5    5  503    0  0.29110427917E+02  0.10301621737E+02  0.11677969893E+03  0.12079337112E+03  0.00000000000E+00 0. -1.
         -2    1    5    5    0  503 -0.16054442881E+01  0.65270374725E+02  0.55724774549E+02  0.85837344825E+02  0.00000000000E+00 0.  1.
         -3    1    6    6    0  502  0.92988323568E+03  0.36781617496E+03 -0.35013848978E+03  0.10595133471E+04  0.00000000000E+00 0.  1.
<mgrwt>
<rscale>  0 0.36631704E+04</rscale>
<asrwt>0</asrwt>
<pdfrwt beam="1">  1        1 0.27622148E+00 0.36631704E+04</pdfrwt>
<pdfrwt beam="2">  1       -1 0.28745514E+00 0.36631704E+04</pdfrwt>
<totfact> 0.13150532E-01</totfact>
</mgrwt>
</event>
<event>
12    1  0.1518126E-007  0.1551794E+04  0.7818608E-02  0.8850723E-01
         -2   -1    0    0    0  501 -0.00000000000E+00  0.00000000000E+00  0.41637567752E+03  0.41637567752E+03  0.00000000000E+00 0.  1.
          2   -1    0    0  501    0  0.00000000000E+00 -0.00000000000E+00 -0.14458488861E+04  0.14458488861E+04  0.00000000000E+00 0. -1.
         23    2    1    2    0    0  0.43817750227E+03  0.25867612611E+03 -0.32770313829E+03  0.61210073777E+03  0.91460945885E+02 0.  0.
        254    2    1    2    0    0 -0.43817750227E+03 -0.25867612611E+03 -0.70177007031E+03  0.12501238259E+04  0.90078603823E+03 0.  0.
        -24    2    4    4    0    0 -0.26728499963E+03 -0.48171153086E+03 -0.79579970257E+02  0.56292434333E+03  0.84045075121E+02 0.  0.
         24    2    4    4    0    0 -0.17089250264E+03  0.22303540476E+03 -0.62219010005E+03  0.68719948252E+03  0.78572062120E+02 0.  0.
         11    1    3    3    0    0  0.39622927817E+03  0.20900014259E+03 -0.25875898707E+03  0.51733443136E+03  0.00000000000E+00 0. -1.
        -11    1    3    3    0    0  0.41948224101E+02  0.49675983514E+02 -0.68944151219E+02  0.94766306410E+02  0.00000000000E+00 0.  1.
          2    1    6    6  502    0 -0.93945792150E+02  0.16396051375E+03 -0.34261238516E+03  0.39126986646E+03  0.00000000000E+00 0. -1.
          3    1    5    5  503    0 -0.10542888344E+03 -0.14309741891E+03 -0.58117595019E+02  0.18700207382E+03  0.00000000000E+00 0. -1.
         -4    1    5    5    0  503 -0.16185611619E+03 -0.33861411195E+03 -0.21462375237E+02  0.37592226951E+03  0.00000000000E+00 0.  1.
         -1    1    6    6    0  502 -0.76946710491E+02  0.59074891011E+02 -0.27957771489E+03  0.29592961607E+03  0.00000000000E+00 0.  1.
<mgrwt>
<rscale>  0 0.15517942E+04</rscale>
<asrwt>0</asrwt>
<pdfrwt beam="1">  1        2 0.22243829E+00 0.15517942E+04</pdfrwt>
<pdfrwt beam="2">  1       -2 0.64057797E-01 0.15517942E+04</pdfrwt>
<totfact> 0.29536173E+01</totfact>
</mgrwt>
</event>
<event>
12    1  0.1518126E-007  0.1210117E+04  0.7818608E-02  0.9104047E-01
          1   -1    0    0  501    0  0.00000000000E+00  0.00000000000E+00  0.20491732837E+04  0.20491732837E+04  0.00000000000E+00 0. -1.
         -1   -1    0    0    0  501 -0.00000000000E+00 -0.00000000000E+00 -0.17865537193E+03  0.17865537193E+03  0.00000000000E+00 0.  1.
         23    2    1    2    0    0 -0.18816283675E+02  0.25098633453E+03  0.39857627087E+03  0.48284862250E+03  0.10455408123E+03 0.  0.
        254    2    1    2    0    0  0.18816283675E+02 -0.25098633453E+03  0.14719416409E+04  0.17449800331E+04  0.90277069577E+03 0.  0.
        -24    2    4    4    0    0  0.22380133805E+03 -0.52131266356E+03  0.10581673657E+04  0.12032568051E+04  0.79087502356E+02 0.  0.
         24    2    4    4    0    0 -0.20498505437E+03  0.27032632903E+03  0.41377427513E+03  0.54172322799E+03  0.84615059518E+02 0.  0.
         13    1    3    3    0    0 -0.33128000022E+02  0.93218034218E+02  0.80640758315E+02  0.12763227723E+03  0.00000000000E+00 0.  1.
        -13    1    3    3    0    0  0.14311716347E+02  0.15776830031E+03  0.31793551255E+03  0.35521634527E+03  0.00000000000E+00 0. -1.
          2    1    6    6  502    0 -0.49444630659E+02  0.19708776816E+02  0.82322133923E+02  0.98031327228E+02  0.00000000000E+00 0. -1.
          3    1    5    5  503    0  0.29527914816E+02 -0.26845104659E+02  0.99900352051E+02  0.10757619503E+03  0.00000000000E+00 0. -1.
         -4    1    5    5    0  503  0.19427342323E+03 -0.49446755890E+03  0.95826701368E+03  0.10956806101E+04  0.00000000000E+00 0.  1.
         -1    1    6    6    0  502 -0.15554042371E+03  0.25061755222E+03  0.33145214121E+03  0.44369190076E+03  0.00000000000E+00 0.  1.
<mgrwt>
<rscale>  0 0.12101170E+04</rscale>
<asrwt>0</asrwt>
<pdfrwt beam="1">  1        1 0.31525741E+00 0.12101170E+04</pdfrwt>
<pdfrwt beam="2">  1       -1 0.27485443E-01 0.12101170E+04</pdfrwt>
<totfact> 0.32522421E+01</totfact>
</mgrwt>
</event>
<event>
12    1  0.1518126E-007  0.1483918E+04  0.7818608E-02  0.8895218E-01
          2   -1    0    0  501    0  0.00000000000E+00  0.00000000000E+00  0.94423574903E+03  0.94423574903E+03  0.00000000000E+00 0. -1.
         -2   -1    0    0    0  501 -0.00000000000E+00 -0.00000000000E+00 -0.58301432417E+03  0.58301432417E+03  0.00000000000E+00 0.  1.
         23    2    1    2    0    0  0.17027094274E+03 -0.19385270502E+03  0.49724159913E+03  0.56736695618E+03  0.89916571737E+02 0.  0.
        254    2    1    2    0    0 -0.17027094274E+03  0.19385270502E+03 -0.13602017427E+03  0.95988311702E+03  0.91449606087E+03 0.  0.
        -24    2    4    4    0    0  0.26829529671E+03 -0.10770137629E+03 -0.27169830271E+03  0.40484911790E+03  0.80628083711E+02 0.  0.
         24    2    4    4    0    0 -0.43856623945E+03  0.30155408131E+03  0.13567812844E+03  0.55503399912E+03  0.79868487524E+02 0.  0.
         13    1    3    3    0    0  0.98498974046E+02 -0.46174004295E+02  0.21018383980E+03  0.23666713561E+03  0.00000000000E+00 0.  1.
        -13    1    3    3    0    0  0.71771968695E+02 -0.14767870073E+03  0.28705775932E+03  0.33069982057E+03  0.00000000000E+00 0. -1.
          4    1    6    6  502    0 -0.38435497213E+03  0.23824636630E+03  0.94103790798E+02  0.46189349324E+03  0.00000000000E+00 0. -1.
          3    1    5    5  503    0  0.21137224116E+03 -0.53425736910E+02 -0.17103150362E+03  0.27709981762E+03  0.00000000000E+00 0. -1.
         -4    1    5    5    0  503  0.56923055548E+02 -0.54275639380E+02 -0.10066679909E+03  0.12774930028E+03  0.00000000000E+00 0.  1.
         -1    1    6    6    0  502 -0.54211267318E+02  0.63307715014E+02  0.41574337643E+02  0.93140505877E+02  0.00000000000E+00 0.  1.
<mgrwt>
<rscale>  0 0.14839177E+04</rscale>
<asrwt>0</asrwt>
<pdfrwt beam="1">  1        2 0.14526704E+00 0.14839177E+04</pdfrwt>
<pdfrwt beam="2">  1       -2 0.89694511E-01 0.14839177E+04</pdfrwt>
<totfact> 0.28228014E+01</totfact>
</mgrwt>
</event>
<event>
12    1  0.1518126E-007  0.1700464E+04  0.7818608E-02  0.8761100E-01
         -1   -1    0    0    0  501 -0.00000000000E+00  0.00000000000E+00  0.33006421327E+03  0.33006421327E+03  0.00000000000E+00 0. -1.
          1   -1    0    0  501    0  0.00000000000E+00 -0.00000000000E+00 -0.21901638831E+04  0.21901638831E+04  0.00000000000E+00 0.  1.
         23    2    1    2    0    0 -0.44187378387E+03  0.16460041850E+03 -0.10025898301E+03  0.49045229447E+03  0.90254367406E+02 0.  0.
        254    2    1    2    0    0  0.44187378387E+03 -0.16460041850E+03 -0.17598406868E+04  0.20297758018E+04  0.89476523417E+03 0.  0.
        -24    2    4    4    0    0  0.16923824075E+03  0.12186610492E+03 -0.15667387003E+04  0.15826396144E+04  0.81148410502E+02 0.  0.
         24    2    4    4    0    0  0.27263554312E+03 -0.28646652342E+03 -0.19310198650E+03  0.44713618742E+03  0.79051783656E+02 0.  0.
         13    1    3    3    0    0 -0.19738167592E+03  0.90182640695E+02 -0.30707531053E+01  0.21702963898E+03  0.00000000000E+00 0.  1.
        -13    1    3    3    0    0 -0.24449210795E+03  0.74417777807E+02 -0.97188229904E+02  0.27342265549E+03  0.00000000000E+00 0. -1.
          4    1    6    6  502    0  0.11253885993E+03 -0.11714279943E+03 -0.12311864477E+03  0.20382745434E+03  0.00000000000E+00 0. -1.
          3    1    5    5  503    0  0.10073053313E+03  0.10930101962E+03 -0.12161150867E+04  0.12251649919E+04  0.00000000000E+00 0. -1.
         -4    1    5    5    0  503  0.68507707625E+02  0.12565085296E+02 -0.35062361354E+03  0.35747462252E+03  0.00000000000E+00 0.  1.
         -3    1    6    6    0  502  0.16009668318E+03 -0.16932372400E+03 -0.69983341728E+02  0.24330873308E+03  0.00000000000E+00 0.  1.
<mgrwt>
<rscale>  0 0.17004643E+04</rscale>
<asrwt>0</asrwt>
<pdfrwt beam="1">  1        1 0.33694829E+00 0.17004643E+04</pdfrwt>
<pdfrwt beam="2">  1       -1 0.50779110E-01 0.17004643E+04</pdfrwt>
<totfact> 0.82097400E+00</totfact>
</mgrwt>
</event>
<event>
12    1  0.1518126E-007  0.1123980E+04  0.7818608E-02  0.9182129E-01
          2   -1    0    0  501    0  0.00000000000E+00  0.00000000000E+00  0.15630015997E+03  0.15630015997E+03  0.00000000000E+00 0. -1.
         -2   -1    0    0    0  501 -0.00000000000E+00 -0.00000000000E+00 -0.20206809603E+04  0.20206809603E+04  0.00000000000E+00 0.  1.
         23    2    1    2    0    0  0.84251281910E+01 -0.21735350051E+00 -0.70201643849E+03  0.70807077766E+03  0.92011500545E+02 0.  0.
        254    2    1    2    0    0 -0.84251281910E+01  0.21735350051E+00 -0.11623643619E+04  0.14689103426E+04  0.89807330153E+03 0.  0.
        -24    2    4    4    0    0  0.33865307957E+03 -0.17967723813E+03 -0.22807860389E+03  0.45304757288E+03  0.79135551630E+02 0.  0.
         24    2    4    4    0    0 -0.34707820776E+03  0.17989459163E+03 -0.93428575797E+03  0.10158627697E+04  0.79132439688E+02 0.  0.
         13    1    3    3    0    0  0.45715579342E+02 -0.32073370817E+01 -0.22677879308E+03  0.23136296635E+03  0.00000000000E+00 0.  1.
        -13    1    3    3    0    0 -0.37290451151E+02  0.29899835812E+01 -0.47523764541E+03  0.47670781131E+03  0.00000000000E+00 0. -1.
          4    1    6    6  502    0 -0.20010591980E+03  0.12429116587E+03 -0.47043152483E+03  0.52611452423E+03  0.00000000000E+00 0. -1.
          1    1    5    5  503    0  0.41305830625E+02 -0.30353739921E+02 -0.64174142217E+02  0.82133073119E+02  0.00000000000E+00 0. -1.
         -2    1    5    5    0  503  0.29734724895E+03 -0.14932349821E+03 -0.16390446167E+03  0.37091449976E+03  0.00000000000E+00 0.  1.
         -3    1    6    6    0  502 -0.14697228797E+03  0.55603425760E+02 -0.46385423313E+03  0.48974824551E+03  0.00000000000E+00 0.  1.
<mgrwt>
<rscale>  0 0.11239800E+04</rscale>
<asrwt>0</asrwt>
<pdfrwt beam="1">  1        2 0.24046178E-01 0.11239800E+04</pdfrwt>
<pdfrwt beam="2">  1       -2 0.31087401E+00 0.11239800E+04</pdfrwt>
<totfact> 0.62757573E+00</totfact>
</mgrwt>
</event>
<event>
12    1  0.1518126E-007  0.1854516E+04  0.7818608E-02  0.8677834E-01
         -2   -1    0    0    0  501 -0.00000000000E+00  0.00000000000E+00  0.60052509640E+03  0.60052509640E+03  0.00000000000E+00 0.  1.
          2   -1    0    0  501    0  0.00000000000E+00 -0.00000000000E+00 -0.14317600360E+04  0.14317600360E+04  0.00000000000E+00 0. -1.
         23    2    1    2    0    0 -0.16633994673E+02 -0.35696230198E+03 -0.98227190214E+03  0.10501918671E+04  0.10171574678E+03 0.  0.
        254    2    1    2    0    0  0.16633994673E+02  0.35696230198E+03  0.15103696250E+03  0.98209326535E+03  0.90221740340E+03 0.  0.
        -24    2    4    4    0    0  0.31392721058E+03 -0.15854595783E+03 -0.82000104013E+01  0.36105602744E+03  0.81284072844E+02 0.  0.
         24    2    4    4    0    0 -0.29729321590E+03  0.51550825981E+03  0.15923697290E+03  0.62103723791E+03  0.78732554774E+02 0.  0.
         11    1    3    3    0    0 -0.58012276860E+02 -0.25407946447E+03 -0.69551666641E+03  0.74274169924E+03  0.00000000000E+00 0. -1.
        -11    1    3    3    0    0  0.41378282187E+02 -0.10288283751E+03 -0.28675523573E+03  0.30745016785E+03  0.00000000000E+00 0.  1.
          4    1    6    6  502    0 -0.23740116608E+03  0.45790800799E+03  0.15151742905E+03  0.53758402947E+03  0.00000000000E+00 0. -1.
          1    1    5    5  503    0  0.11221454831E+03 -0.82884951152E+02 -0.35352136420E+02  0.14391592521E+03  0.00000000000E+00 0. -1.
         -2    1    5    5    0  503  0.20171266226E+03 -0.75661006674E+02  0.27152126019E+02  0.21714010223E+03  0.00000000000E+00 0.  1.
         -3    1    6    6    0  502 -0.59892049821E+02  0.57600251816E+02  0.77195438506E+01  0.83453208436E+02  0.00000000000E+00 0.  1.
<mgrwt>
<rscale>  0 0.18545165E+04</rscale>
<asrwt>0</asrwt>
<pdfrwt beam="1">  1        2 0.22027077E+00 0.18545165E+04</pdfrwt>
<pdfrwt beam="2">  1       -2 0.92388477E-01 0.18545165E+04</pdfrwt>
<totfact> 0.12975586E+01</totfact>
</mgrwt>
</event>
<event>
12    1  0.1518126E-007  0.3050883E+04  0.7818608E-02  0.8229348E-01
          2   -1    0    0  501    0  0.00000000000E+00  0.00000000000E+00  0.40029311229E+04  0.40029311229E+04  0.00000000000E+00 0. -1.
         -2   -1    0    0    0  501 -0.00000000000E+00 -0.00000000000E+00 -0.58131715181E+03  0.58131715181E+03  0.00000000000E+00 0.  1.
         23    2    1    2    0    0  0.27815695277E+03  0.91381309368E+03  0.45210062722E+02  0.96136980721E+03  0.98804331345E+02 0.  0.
        254    2    1    2    0    0 -0.27815695277E+03 -0.91381309368E+03  0.33764039084E+04  0.36228784675E+04  0.90150949930E+03 0.  0.
        -24    2    4    4    0    0  0.11874662204E+03 -0.73898342018E+03  0.27878138517E+04  0.28876390621E+04  0.79724687830E+02 0.  0.
         24    2    4    4    0    0 -0.39690357481E+03 -0.17482967350E+03  0.58859005669E+03  0.73523940540E+03  0.77723008080E+02 0.  0.
         11    1    3    3    0    0  0.14438178662E+03  0.42704877216E+03 -0.26076064719E+02  0.45154923903E+03  0.00000000000E+00 0. -1.
        -11    1    3    3    0    0  0.13377516615E+03  0.48676432151E+03  0.71286127441E+02  0.50982056818E+03  0.00000000000E+00 0.  1.
          2    1    6    6  502    0 -0.12460936349E+03 -0.44858250944E+02  0.24074731156E+03  0.27477085757E+03  0.00000000000E+00 0. -1.
          3    1    5    5  503    0  0.56772835039E+02 -0.24191787486E+03  0.80139722149E+03  0.83903809186E+03  0.00000000000E+00 0. -1.
         -4    1    5    5    0  503  0.61973787004E+02 -0.49706554532E+03  0.19864166302E+04  0.20486009703E+04  0.00000000000E+00 0.  1.
         -1    1    6    6    0  502 -0.27229421132E+03 -0.12997142255E+03  0.34784274513E+03  0.46046854783E+03  0.00000000000E+00 0.  1.
<mgrwt>
<rscale>  0 0.30508835E+04</rscale>
<asrwt>0</asrwt>
<pdfrwt beam="1">  1        2 0.61583554E+00 0.30508835E+04</pdfrwt>
<pdfrwt beam="2">  1       -2 0.89433411E-01 0.30508835E+04</pdfrwt>
<totfact> 0.31075128E-01</totfact>
</mgrwt>
</event>
<event>
12    1  0.1518126E-007  0.1513293E+04  0.7818608E-02  0.8875661E-01
         -1   -1    0    0    0  501 -0.00000000000E+00  0.00000000000E+00  0.29280696916E+03  0.29280696916E+03  0.00000000000E+00 0.  1.
          1   -1    0    0  501    0  0.00000000000E+00 -0.00000000000E+00 -0.19552608765E+04  0.19552608765E+04  0.00000000000E+00 0. -1.
         23    2    1    2    0    0  0.60382043921E+02  0.41353387297E+03 -0.88331321137E+03  0.98235242462E+03  0.10058728285E+03 0.  0.
        254    2    1    2    0    0 -0.60382043921E+02 -0.41353387297E+03 -0.77914069595E+03  0.12657154210E+04  0.90571466123E+03 0.  0.
        -24    2    4    4    0    0  0.30896155718E+03 -0.41689257681E+03 -0.70969694145E+03  0.88232588433E+03  0.74649534777E+02 0.  0.
         24    2    4    4    0    0 -0.36934360110E+03  0.33587038430E+01 -0.69443754505E+02  0.38338953668E+03  0.75757014406E+02 0.  0.
         11    1    3    3    0    0  0.47341529847E+02  0.72705371373E+02 -0.21988428236E+03  0.23638187135E+03  0.00000000000E+00 0.  1.
        -11    1    3    3    0    0  0.13040514074E+02  0.34082850160E+03 -0.66342892901E+03  0.74597055327E+03  0.00000000000E+00 0. -1.
          2    1    6    6  502    0 -0.21325963895E+03  0.38889165174E+02 -0.33854263152E+02  0.21940408361E+03  0.00000000000E+00 0. -1.
          1    1    5    5  503    0  0.86575706095E+02 -0.73850400140E+02 -0.12706066137E+03  0.17056859663E+03  0.00000000000E+00 0. -1.
         -2    1    5    5    0  503  0.22238585108E+03 -0.34304217667E+03 -0.58263628008E+03  0.71175728771E+03  0.00000000000E+00 0.  1.
         -1    1    6    6    0  502 -0.15608396215E+03 -0.35530461331E+02 -0.35589491353E+02  0.16398545307E+03  0.00000000000E+00 0.  1.
<mgrwt>
<rscale>  0 0.15132931E+04</rscale>
<asrwt>0</asrwt>
<pdfrwt beam="1">  1        1 0.30080935E+00 0.15132931E+04</pdfrwt>
<pdfrwt beam="2">  1       -1 0.45047229E-01 0.15132931E+04</pdfrwt>
<totfact> 0.15101726E+01</totfact>
</mgrwt>
</event>
<event>
12    1  0.1518126E-007  0.2018258E+04  0.7818608E-02  0.8598132E-01
          2   -1    0    0  501    0  0.00000000000E+00  0.00000000000E+00  0.15017761526E+04  0.15017761526E+04  0.00000000000E+00 0. -1.
         -2   -1    0    0    0  501 -0.00000000000E+00 -0.00000000000E+00 -0.67809123086E+03  0.67809123086E+03  0.00000000000E+00 0.  1.
         23    2    1    2    0    0 -0.41731052216E+03 -0.62406384615E+03  0.14624694991E+02  0.75661802145E+03  0.93022538686E+02 0.  0.
        254    2    1    2    0    0  0.41731052216E+03  0.62406384615E+03  0.80906022677E+03  0.14232493620E+04  0.89858585565E+03 0.  0.
        -24    2    4    4    0    0  0.13133899081E+03  0.80529327106E+03  0.52889986730E+03  0.97572604415E+03  0.80988027971E+02 0.  0.
         24    2    4    4    0    0  0.28597153135E+03 -0.18122942491E+03  0.28016035947E+03  0.44752331787E+03  0.84637295692E+02 0.  0.
         11    1    3    3    0    0 -0.31893641363E+03 -0.46981334111E+03  0.50855153232E+02  0.57011512700E+03  0.00000000000E+00 0. -1.
        -11    1    3    3    0    0 -0.98374108532E+02 -0.15425050503E+03 -0.36230458241E+02  0.18650289445E+03  0.00000000000E+00 0.  1.
          4    1    6    6  502    0  0.21364333910E+03 -0.17321017922E+03  0.23592921406E+03  0.36236423192E+03  0.00000000000E+00 0. -1.
          3    1    5    5  503    0  0.96865442644E+02  0.72326300551E+03  0.45403851184E+03  0.85944357543E+03  0.00000000000E+00 0. -1.
         -4    1    5    5    0  503  0.34473548165E+02  0.82030265555E+02  0.74861355453E+02  0.11628246871E+03  0.00000000000E+00 0.  1.
         -1    1    6    6    0  502  0.72328192254E+02 -0.80192456937E+01  0.44231145411E+02  0.85159085955E+02  0.00000000000E+00 0.  1.
<mgrwt>
<rscale>  0 0.20182579E+04</rscale>
<asrwt>0</asrwt>
<pdfrwt beam="1">  1        2 0.23104249E+00 0.20182579E+04</pdfrwt>
<pdfrwt beam="2">  1       -2 0.10432173E+00 0.20182579E+04</pdfrwt>
<totfact> 0.87728315E+00</totfact>
</mgrwt>
</event>
<event>
12    1  0.2139598E-007  0.2337335E+04  0.7818608E-02  0.8463344E-01
         -2   -1    0    0    0  501 -0.00000000000E+00  0.00000000000E+00  0.63148982903E+03  0.63148982903E+03  0.00000000000E+00 0.  1.
          2   -1    0    0  501    0  0.00000000000E+00 -0.00000000000E+00 -0.21627954640E+04  0.21627954640E+04  0.00000000000E+00 0. -1.
         23    2    1    2    0    0 -0.32317805969E+03 -0.64576650480E+03  0.16329349938E+03  0.74588271544E+03  0.90652199419E+02 0.  0.
        254    2    1    2    0    0  0.32317805969E+03  0.64576650480E+03 -0.16945991343E+04  0.20484025776E+04  0.89600695128E+03 0.  0.
        -24    2    4    4    0    0 -0.81970193544E+02 -0.11177292511E+03 -0.75899256756E+03  0.77559151876E+03  0.79121343243E+02 0.  0.
         24    2    4    4    0    0  0.40514825324E+03  0.75753942991E+03 -0.93560656678E+03  0.12728110588E+04  0.81714433672E+02 0.  0.
         11    1    3    3    0    0 -0.30675944953E+03 -0.62515626793E+03  0.17345486925E+03  0.71764079516E+03  0.00000000000E+00 0.  1.
        -11    1    3    3    0    0 -0.16418610166E+02 -0.20610236871E+02 -0.10161369867E+02  0.28241920282E+02  0.00000000000E+00 0. -1.
          4    1    6    6  502    0  0.38642130842E+03  0.74804037958E+03 -0.91249310384E+03  0.12415834654E+04  0.00000000000E+00 0. -1.
          3    1    5    5  503    0 -0.66216274375E+02 -0.12191209768E+03 -0.70267002458E+03  0.71623482043E+03  0.00000000000E+00 0. -1.
         -4    1    5    5    0  503 -0.15753919170E+02  0.10139172578E+02 -0.56322542976E+02  0.59356698334E+02  0.00000000000E+00 0.  1.
         -3    1    6    6    0  502  0.18726944814E+02  0.94990503303E+01 -0.23113462934E+02  0.31227593376E+02  0.00000000000E+00 0.  1.
<mgrwt>
<rscale>  0 0.23373347E+04</rscale>
<asrwt>0</asrwt>
<pdfrwt beam="1">  1        2 0.33273776E+00 0.23373347E+04</pdfrwt>
<pdfrwt beam="2">  1       -2 0.97152282E-01 0.23373347E+04</pdfrwt>
<totfact> 0.43304562E+00</totfact>
</mgrwt>
</event>
<event>
12    1  0.1518126E-007  0.1535872E+04  0.7818608E-02  0.8860943E-01
          1   -1    0    0  501    0  0.00000000000E+00  0.00000000000E+00  0.82112455570E+03  0.82112455570E+03  0.00000000000E+00 0. -1.
         -1   -1    0    0    0  501 -0.00000000000E+00 -0.00000000000E+00 -0.71819301314E+03  0.71819301314E+03  0.00000000000E+00 0.  1.
         23    2    1    2    0    0  0.29145992165E+02 -0.13981978735E+03 -0.44590895628E+03  0.47682840699E+03  0.90174667321E+02 0.  0.
        254    2    1    2    0    0 -0.29145992165E+02  0.13981978735E+03  0.54884049884E+03  0.10624891618E+04  0.89847552225E+03 0.  0.
        -24    2    4    4    0    0  0.10980894138E+03  0.49611762347E+03  0.25155530351E+03  0.57264098276E+03  0.80292742421E+02 0.  0.
         24    2    4    4    0    0 -0.13895493355E+03 -0.35629783612E+03  0.29728519533E+03  0.48984817908E+03  0.72911793351E+02 0.  0.
         11    1    3    3    0    0  0.59438006081E+02 -0.86896169480E+02 -0.32110853336E+03  0.33792678354E+03  0.00000000000E+00 0.  1.
        -11    1    3    3    0    0 -0.30292013915E+02 -0.52923617871E+02 -0.12480042292E+03  0.13890162345E+03  0.00000000000E+00 0. -1.
          2    1    6    6  502    0 -0.55200302485E+02 -0.21749757163E+03  0.14321165105E+03  0.26619888065E+03  0.00000000000E+00 0. -1.
          1    1    5    5  503    0  0.45718557858E+02  0.36006513018E+03  0.16074575532E+03  0.39695879176E+03  0.00000000000E+00 0. -1.
         -2    1    5    5    0  503  0.64090383526E+02  0.13605249330E+03  0.90809548192E+02  0.17568219100E+03  0.00000000000E+00 0.  1.
         -1    1    6    6    0  502 -0.83754631064E+02 -0.13880026449E+03  0.15407354427E+03  0.22364929844E+03  0.00000000000E+00 0.  1.
<mgrwt>
<rscale>  0 0.15358723E+04</rscale>
<asrwt>0</asrwt>
<pdfrwt beam="1">  1        1 0.12632686E+00 0.15358723E+04</pdfrwt>
<pdfrwt beam="2">  1       -1 0.11049123E+00 0.15358723E+04</pdfrwt>
<totfact> 0.15444272E+01</totfact>
</mgrwt>
</event>
<event>
12    1  0.1518126E-007  0.1806815E+04  0.7818608E-02  0.8702684E-01
         -1   -1    0    0    0  501 -0.00000000000E+00  0.00000000000E+00  0.49424950954E+03  0.49424950954E+03  0.00000000000E+00 0.  1.
          1   -1    0    0  501    0  0.00000000000E+00 -0.00000000000E+00 -0.16512809601E+04  0.16512809601E+04  0.00000000000E+00 0. -1.
         23    2    1    2    0    0 -0.51192926781E+02 -0.22077954958E+02 -0.12218273352E+04  0.12265437150E+04  0.91865640275E+02 0.  0.
        254    2    1    2    0    0  0.51192926781E+02  0.22077954958E+02  0.64795884680E+02  0.91898675462E+03  0.91500273041E+03 0.  0.
        -24    2    4    4    0    0  0.34626461311E+03 -0.28681352209E+03 -0.74036763858E+02  0.46235995177E+03  0.78320520021E+02 0.  0.
         24    2    4    4    0    0 -0.29507168632E+03  0.30889147705E+03  0.13883264854E+03  0.45662680285E+03  0.82172307469E+02 0.  0.
         13    1    3    3    0    0 -0.51377672074E+02 -0.29017499438E+02 -0.36898553114E+03  0.37367365796E+03  0.00000000000E+00 0.  1.
        -13    1    3    3    0    0  0.18474529238E+00  0.69395444804E+01 -0.85284180409E+03  0.85287005705E+03  0.00000000000E+00 0. -1.
          2    1    6    6  502    0 -0.21732656015E+02  0.65188678119E+02  0.18565465856E+02  0.71179692433E+02  0.00000000000E+00 0. -1.
          1    1    5    5  503    0  0.24258413028E+03 -0.23321295758E+03 -0.78571153075E+02  0.34555574071E+03  0.00000000000E+00 0. -1.
         -2    1    5    5    0  503  0.10368048283E+03 -0.53600564517E+02  0.45343892163E+01  0.11680421106E+03  0.00000000000E+00 0.  1.
         -1    1    6    6    0  502 -0.27333903031E+03  0.24370279893E+03  0.12026718268E+03  0.38544711042E+03  0.00000000000E+00 0.  1.
<mgrwt>
<rscale>  0 0.18068147E+04</rscale>
<asrwt>0</asrwt>
<pdfrwt beam="1">  1        1 0.25404323E+00 0.18068147E+04</pdfrwt>
<pdfrwt beam="2">  1       -1 0.76038385E-01 0.18068147E+04</pdfrwt>
<totfact> 0.84291359E+00</totfact>
</mgrwt>
</event>
<event>
12    1  0.1518126E-007  0.2922411E+04  0.7818608E-02  0.8266240E-01
         -2   -1    0    0    0  501 -0.00000000000E+00  0.00000000000E+00  0.14945229724E+04  0.14945229724E+04  0.00000000000E+00 0.  1.
          2   -1    0    0  501    0  0.00000000000E+00 -0.00000000000E+00 -0.14286311926E+04  0.14286311926E+04  0.00000000000E+00 0. -1.
         23    2    1    2    0    0  0.13200671600E+04  0.35618241512E+02 -0.19963257409E+02  0.13239560424E+04  0.92817587472E+02 0.  0.
        254    2    1    2    0    0 -0.13200671600E+04 -0.35618241512E+02  0.85855037237E+02  0.15991981226E+04  0.89789619765E+03 0.  0.
        -24    2    4    4    0    0 -0.91692661040E+03  0.14454297096E+03  0.43760931517E+03  0.10295452256E+04  0.82549255475E+02 0.  0.
         24    2    4    4    0    0 -0.40314054961E+03 -0.18016121247E+03 -0.35175427793E+03  0.56965289694E+03  0.76111666180E+02 0.  0.
         11    1    3    3    0    0  0.11185433002E+04  0.47167361496E+02 -0.45686195493E+02  0.11204691441E+04  0.00000000000E+00 0. -1.
        -11    1    3    3    0    0  0.20152385982E+03 -0.11549119985E+02  0.25722938084E+02  0.20348689833E+03  0.00000000000E+00 0.  1.
          2    1    6    6  502    0 -0.28482866982E+03 -0.96647194028E+02 -0.20869992660E+03  0.36609248917E+03  0.00000000000E+00 0. -1.
          3    1    5    5  503    0 -0.17341325527E+02 -0.44511720813E+01  0.19322809544E+02  0.26342085578E+02  0.00000000000E+00 0. -1.
         -4    1    5    5    0  503 -0.89958528487E+03  0.14899414304E+03  0.41828650563E+03  0.10032031401E+04  0.00000000000E+00 0.  1.
         -1    1    6    6    0  502 -0.11831187979E+03 -0.83514018445E+02 -0.14305435133E+03  0.20356040777E+03  0.00000000000E+00 0.  1.
<mgrwt>
<rscale>  0 0.29224114E+04</rscale>
<asrwt>0</asrwt>
<pdfrwt beam="1">  1        2 0.21978941E+00 0.29224114E+04</pdfrwt>
<pdfrwt beam="2">  1       -2 0.22992661E+00 0.29224114E+04</pdfrwt>
<totfact> 0.10275467E+00</totfact>
</mgrwt>
</event>
<event>
12    1  0.1518126E-007  0.1268135E+04  0.7818608E-02  0.9055223E-01
         -2   -1    0    0    0  501 -0.00000000000E+00  0.00000000000E+00  0.31730667823E+03  0.31730667823E+03  0.00000000000E+00 0.  1.
          2   -1    0    0  501    0  0.00000000000E+00 -0.00000000000E+00 -0.12670446499E+04  0.12670446499E+04  0.00000000000E+00 0. -1.
         23    2    1    2    0    0  0.15995814615E+03 -0.16102508311E+03  0.21119382315E+02  0.24179689536E+03  0.80647531817E+02 0.  0.
        254    2    1    2    0    0 -0.15995814615E+03  0.16102508311E+03 -0.97085735402E+03  0.13425544328E+04  0.89909549954E+03 0.  0.
        -24    2    4    4    0    0 -0.25728213170E+03 -0.13720860888E+03 -0.97331587688E+03  0.10186442441E+04  0.72608554572E+02 0.  0.
         24    2    4    4    0    0  0.97323985556E+02  0.29823369199E+03  0.24585228514E+01  0.32391018872E+03  0.80600699888E+02 0.  0.
         13    1    3    3    0    0  0.13181374031E+03 -0.16496177016E+03  0.26691988067E+02  0.21283728521E+03  0.00000000000E+00 0.  1.
        -13    1    3    3    0    0  0.28144405837E+02  0.39366870588E+01 -0.55726057515E+01  0.28959610146E+02  0.00000000000E+00 0. -1.
          2    1    6    6  502    0  0.17910951195E+02  0.59273411404E+02 -0.32088561365E+02  0.69741058514E+02  0.00000000000E+00 0. -1.
          3    1    5    5  503    0 -0.12197634780E+03 -0.98359315841E+02 -0.44024534427E+03  0.46729941963E+03  0.00000000000E+00 0. -1.
         -4    1    5    5    0  503 -0.13530578390E+03 -0.38849293039E+02 -0.53307053260E+03  0.55134482446E+03  0.00000000000E+00 0.  1.
         -1    1    6    6    0  502  0.79413034360E+02  0.23896028058E+03  0.34547084216E+02  0.25416913021E+03  0.00000000000E+00 0.  1.
<mgrwt>
<rscale>  0 0.12681352E+04</rscale>
<asrwt>0</asrwt>
<pdfrwt beam="1">  1        2 0.19492995E+00 0.12681352E+04</pdfrwt>
<pdfrwt beam="2">  1       -2 0.48816411E-01 0.12681352E+04</pdfrwt>
<totfact> 0.67440757E+01</totfact>
</mgrwt>
</event>
<event>
12    1  0.1518126E-007  0.1329833E+04  0.7818608E-02  0.9006236E-01
         -2   -1    0    0    0  501 -0.00000000000E+00  0.00000000000E+00  0.27778438246E+03  0.27778438246E+03  0.00000000000E+00 0. -1.
          2   -1    0    0  501    0  0.00000000000E+00 -0.00000000000E+00 -0.15915716067E+04  0.15915716067E+04  0.00000000000E+00 0.  1.
         23    2    1    2    0    0  0.15949493034E+03  0.31045608021E+03 -0.45734626014E+03  0.58254424848E+03  0.91490924299E+02 0.  0.
        254    2    1    2    0    0 -0.15949493034E+03 -0.31045608021E+03 -0.85644096409E+03  0.12868117407E+04  0.89474673535E+03 0.  0.
        -24    2    4    4    0    0  0.17574997124E+03 -0.14341097221E+01 -0.79704564038E+03  0.82024008128E+03  0.81375235961E+02 0.  0.
         24    2    4    4    0    0 -0.33524490158E+03 -0.30902197049E+03 -0.59395323712E+02  0.46657165939E+03  0.79231222286E+02 0.  0.
         11    1    3    3    0    0  0.15287541611E+03  0.31673040410E+03 -0.44523115618E+03  0.56737978829E+03  0.00000000000E+00 0.  1.
        -11    1    3    3    0    0  0.66195142316E+01 -0.62743238833E+01 -0.12115103956E+02  0.15164460185E+02  0.00000000000E+00 0. -1.
          4    1    6    6  502    0 -0.31034534093E+03 -0.28040621096E+03 -0.76094865377E+02  0.42512621928E+03  0.00000000000E+00 0. -1.
          3    1    5    5  503    0  0.15189248261E+03  0.28975673658E+02 -0.65770391512E+03  0.67563700010E+03  0.00000000000E+00 0. -1.
         -4    1    5    5    0  503  0.23857488638E+02 -0.30409783380E+02 -0.13934172526E+03  0.14460308118E+03  0.00000000000E+00 0.  1.
         -3    1    6    6    0  502 -0.24899560650E+02 -0.28615759536E+02  0.16699541665E+02  0.41445440114E+02  0.00000000000E+00 0.  1.
<mgrwt>
<rscale>  0 0.13298327E+04</rscale>
<asrwt>0</asrwt>
<pdfrwt beam="1">  1        2 0.24485716E+00 0.13298327E+04</pdfrwt>
<pdfrwt beam="2">  1       -2 0.42736061E-01 0.13298327E+04</pdfrwt>
<totfact> 0.57224930E+01</totfact>
</mgrwt>
</event>
<event>
12    1  0.1518126E-007  0.1948994E+04  0.7818608E-02  0.8630846E-01
         -2   -1    0    0    0  501 -0.00000000000E+00  0.00000000000E+00  0.75098746761E+03  0.75098746761E+03  0.00000000000E+00 0.  1.
          2   -1    0    0  501    0  0.00000000000E+00 -0.00000000000E+00 -0.12645276847E+04  0.12645276847E+04  0.00000000000E+00 0. -1.
         23    2    1    2    0    0  0.64955419722E+03  0.32927285590E+03 -0.45141120832E+03  0.86187744826E+03  0.93377663572E+02 0.  0.
        254    2    1    2    0    0 -0.64955419722E+03 -0.32927285590E+03 -0.62129008746E+02  0.11536377040E+04  0.89256857981E+03 0.  0.
        -24    2    4    4    0    0 -0.53367912372E+03  0.14997631637E+02  0.31428452102E+03  0.62460483618E+03  0.79486509402E+02 0.  0.
         24    2    4    4    0    0 -0.11587507351E+03 -0.34427048754E+03 -0.37641352977E+03  0.52903286785E+03  0.78990053937E+02 0.  0.
         11    1    3    3    0    0  0.38702522381E+03  0.19276371133E+03 -0.32105295535E+03  0.53853632413E+03  0.00000000000E+00 0. -1.
        -11    1    3    3    0    0  0.26252897341E+03  0.13650914457E+03 -0.13035825297E+03  0.32334112413E+03  0.00000000000E+00 0.  1.
          2    1    6    6  502    0 -0.11877699770E+02 -0.50690660041E+02 -0.20161877857E+02  0.55831210679E+02  0.00000000000E+00 0. -1.
          3    1    5    5  503    0 -0.10035828462E+03 -0.28207004553E+02  0.64343963187E+02  0.12250537129E+03  0.00000000000E+00 0. -1.
         -4    1    5    5    0  503 -0.43332083910E+03  0.43204636190E+02  0.24994055784E+03  0.50209946489E+03  0.00000000000E+00 0.  1.
         -1    1    6    6    0  502 -0.10399737374E+03 -0.29357982750E+03 -0.35625165191E+03  0.47320165717E+03  0.00000000000E+00 0.  1.
<mgrwt>
<rscale>  0 0.19489940E+04</rscale>
<asrwt>0</asrwt>
<pdfrwt beam="1">  1        2 0.19454272E+00 0.19489940E+04</pdfrwt>
<pdfrwt beam="2">  1       -2 0.11553653E+00 0.19489940E+04</pdfrwt>
<totfact> 0.94332898E+00</totfact>
</mgrwt>
</event>
<event>
12    1  0.1518126E-007  0.3234927E+04  0.7818608E-02  0.8179654E-01
         -2   -1    0    0    0  501 -0.00000000000E+00  0.00000000000E+00  0.83169321310E+03  0.83169321310E+03  0.00000000000E+00 0.  1.
          2   -1    0    0  501    0  0.00000000000E+00 -0.00000000000E+00 -0.31456162740E+04  0.31456162740E+04  0.00000000000E+00 0. -1.
         23    2    1    2    0    0 -0.40467587092E+03  0.83409935835E+03 -0.24399980591E+04  0.26118699549E+04  0.93754108859E+02 0.  0.
        254    2    1    2    0    0  0.40467587092E+03 -0.83409935835E+03  0.12607499816E+03  0.13654395322E+04  0.99450787372E+03 0.  0.
        -24    2    4    4    0    0 -0.18907706727E+03 -0.33095336347E+03 -0.28429953046E+03  0.48220477619E+03  0.80093426713E+02 0.  0.
         24    2    4    4    0    0  0.59375293820E+03 -0.50314599489E+03  0.41037452862E+03  0.88323475603E+03  0.77446347492E+02 0.  0.
         13    1    3    3    0    0 -0.64267704461E+02  0.88750325734E+02 -0.35937525805E+03  0.37570937472E+03  0.00000000000E+00 0.  1.
        -13    1    3    3    0    0 -0.34040816646E+03  0.74534903262E+03 -0.20806228010E+04  0.22361605802E+04  0.00000000000E+00 0. -1.
          2    1    6    6  502    0  0.49699986364E+03 -0.41143498159E+03  0.30688957528E+03  0.71447100707E+03  0.00000000000E+00 0. -1.
          3    1    5    5  503    0 -0.18948349819E+03 -0.29414846310E+03 -0.27270002386E+03  0.44361313939E+03  0.00000000000E+00 0. -1.
         -4    1    5    5    0  503  0.40643092010E+00 -0.36804900369E+02 -0.11599506602E+02  0.38591636797E+02  0.00000000000E+00 0.  1.
         -1    1    6    6    0  502  0.96753074561E+02 -0.91711013300E+02  0.10348495333E+03  0.16876374896E+03  0.00000000000E+00 0.  1.
<mgrwt>
<rscale>  0 0.32349267E+04</rscale>
<asrwt>0</asrwt>
<pdfrwt beam="1">  1        2 0.48394096E+00 0.32349267E+04</pdfrwt>
<pdfrwt beam="2">  1       -2 0.12795280E+00 0.32349267E+04</pdfrwt>
<totfact> 0.53346709E-01</totfact>
</mgrwt>
</event>
<event>
12    1  0.1518126E-007  0.1000784E+04  0.7818608E-02  0.9307686E-01
          1   -1    0    0  501    0  0.00000000000E+00  0.00000000000E+00  0.45262832211E+03  0.45262832211E+03  0.00000000000E+00 0. -1.
         -1   -1    0    0    0  501 -0.00000000000E+00 -0.00000000000E+00 -0.55319577008E+03  0.55319577008E+03  0.00000000000E+00 0.  1.
         23    2    1    2    0    0 -0.15422243772E+02 -0.50948806948E+02 -0.49941070853E+01  0.10717464997E+03  0.92886155902E+02 0.  0.
        254    2    1    2    0    0  0.15422243772E+02  0.50948806948E+02 -0.95573340885E+02  0.89864944222E+03  0.89196576727E+03 0.  0.
        -24    2    4    4    0    0  0.22972695209E+03 -0.29727077988E+02  0.32858072620E+03  0.40971895174E+03  0.79032614144E+02 0.  0.
         24    2    4    4    0    0 -0.21430470832E+03  0.80675884936E+02 -0.42415406709E+03  0.48893049048E+03  0.81922191580E+02 0.  0.
         13    1    3    3    0    0 -0.15142950716E+02  0.16142982366E+02  0.25252377629E+02  0.33579568371E+02  0.00000000000E+00 0. -1.
        -13    1    3    3    0    0 -0.27929305559E+00 -0.67091789314E+02 -0.30246484715E+02  0.73595081599E+02  0.00000000000E+00 0.  1.
          4    1    6    6  502    0 -0.22726077508E+02 -0.15698592447E+02 -0.34869071350E+02  0.44483396234E+02  0.00000000000E+00 0. -1.
          3    1    5    5  503    0  0.73651748379E+02 -0.45569170766E+02  0.97422967139E+02  0.13035476167E+03  0.00000000000E+00 0. -1.
         -4    1    5    5    0  503  0.15607520371E+03  0.15842092778E+02  0.23115775906E+03  0.27936419007E+03  0.00000000000E+00 0.  1.
         -3    1    6    6    0  502 -0.19157863081E+03  0.96374477383E+02 -0.38928499574E+03  0.44444709424E+03  0.00000000000E+00 0.  1.
<mgrwt>
<rscale>  0 0.10007838E+04</rscale>
<asrwt>0</asrwt>
<pdfrwt beam="1">  1        1 0.69635127E-01 0.10007838E+04</pdfrwt>
<pdfrwt beam="2">  1       -1 0.85107041E-01 0.10007838E+04</pdfrwt>
<totfact> 0.69583284E+01</totfact>
</mgrwt>
</event>
<event>
12    1  0.1518126E-007  0.1489176E+04  0.7818608E-02  0.8891683E-01
          1   -1    0    0  501    0  0.00000000000E+00  0.00000000000E+00  0.10599779546E+04  0.10599779546E+04  0.00000000000E+00 0. -1.
         -1   -1    0    0    0  501 -0.00000000000E+00 -0.00000000000E+00 -0.52304054303E+03  0.52304054303E+03  0.00000000000E+00 0.  1.
         23    2    1    2    0    0 -0.22138224936E+03 -0.37714053271E+03  0.36614458427E+03  0.57756584015E+03  0.90969013199E+02 0.  0.
        254    2    1    2    0    0  0.22138224936E+03  0.37714053271E+03  0.17079282732E+03  0.10054526575E+04  0.88911178986E+03 0.  0.
        -24    2    4    4    0    0  0.48025089822E+03  0.45238691225E+03  0.25336340690E+03  0.71146521864E+03  0.81822354862E+02 0.  0.
         24    2    4    4    0    0 -0.25886864886E+03 -0.75246379541E+02 -0.82570579580E+02  0.29398743886E+03  0.83280961813E+02 0.  0.
         13    1    3    3    0    0 -0.22895769919E+03 -0.34918818781E+03  0.33848139269E+03  0.53751620601E+03  0.00000000000E+00 0. -1.
        -13    1    3    3    0    0  0.75754498328E+01 -0.27952344903E+02  0.27663191586E+02  0.40049634136E+02  0.00000000000E+00 0.  1.
          4    1    6    6  502    0 -0.24041275180E+03 -0.42059602279E+02 -0.68548312576E+02  0.25350773663E+03  0.00000000000E+00 0. -1.
          1    1    5    5  503    0  0.44907448977E+03  0.39445087003E+03  0.24127596564E+03  0.64457232164E+03  0.00000000000E+00 0. -1.
         -2    1    5    5    0  503  0.31176408450E+02  0.57936042221E+02  0.12087441257E+02  0.66892896994E+02  0.00000000000E+00 0.  1.
         -3    1    6    6    0  502 -0.18455897060E+02 -0.33186777262E+02 -0.14022267004E+02  0.40479702237E+02  0.00000000000E+00 0.  1.
<mgrwt>
<rscale>  0 0.14891762E+04</rscale>
<asrwt>0</asrwt>
<pdfrwt beam="1">  1        1 0.16307353E+00 0.14891762E+04</pdfrwt>
<pdfrwt beam="2">  1       -1 0.80467776E-01 0.14891762E+04</pdfrwt>
<totfact> 0.20286269E+01</totfact>
</mgrwt>
</event>
<event>
12    1  0.1518126E-007  0.1476145E+04  0.7818608E-02  0.8900473E-01
         -1   -1    0    0    0  501 -0.00000000000E+00  0.00000000000E+00  0.35803115438E+03  0.35803115438E+03  0.00000000000E+00 0.  1.
          1   -1    0    0  501    0  0.00000000000E+00 -0.00000000000E+00 -0.15215177552E+04  0.15215177552E+04  0.00000000000E+00 0. -1.
         23    2    1    2    0    0 -0.16618227137E+03  0.63576371941E+02  0.16902543879E+03  0.26272857687E+03  0.93798740720E+02 0.  0.
        254    2    1    2    0    0  0.16618227137E+03 -0.63576371941E+02 -0.13325120397E+04  0.16168203328E+04  0.89825450192E+03 0.  0.
        -24    2    4    4    0    0  0.23007333604E+03  0.27023313747E+03 -0.16785479036E+03  0.40092992757E+03  0.81301215422E+02 0.  0.
         24    2    4    4    0    0 -0.63891064677E+02 -0.33380950942E+03 -0.11646572493E+04  0.12158904052E+04  0.80325042040E+02 0.  0.
         11    1    3    3    0    0 -0.12327005500E+02  0.40832199802E+02  0.19202321444E+02  0.46775557229E+02  0.00000000000E+00 0. -1.
        -11    1    3    3    0    0 -0.15385526587E+03  0.22744172139E+02  0.14982311735E+03  0.21595301964E+03  0.00000000000E+00 0.  1.
          2    1    6    6  502    0  0.81307267053E+01 -0.34153225491E+01 -0.59708042515E+02  0.60355807391E+02  0.00000000000E+00 0. -1.
          3    1    5    5  503    0  0.41427548837E+02  0.10623691043E+03 -0.57141677704E+02  0.12754487160E+03  0.00000000000E+00 0. -1.
         -4    1    5    5    0  503  0.18864578721E+03  0.16399622704E+03 -0.11071311266E+03  0.27338505597E+03  0.00000000000E+00 0.  1.
         -1    1    6    6    0  502 -0.72021791382E+02 -0.33039418687E+03 -0.11049492068E+04  0.11555345978E+04  0.00000000000E+00 0.  1.
<mgrwt>
<rscale>  0 0.14761447E+04</rscale>
<asrwt>0</asrwt>
<pdfrwt beam="1">  1        1 0.23407966E+00 0.14761447E+04</pdfrwt>
<pdfrwt beam="2">  1       -1 0.55081716E-01 0.14761447E+04</pdfrwt>
<totfact> 0.20408026E+01</totfact>
</mgrwt>
</event>
<event>
12    1  0.1518126E-007  0.1863587E+04  0.7818608E-02  0.8673197E-01
         -2   -1    0    0    0  501 -0.00000000000E+00  0.00000000000E+00  0.68280272088E+03  0.68280272088E+03  0.00000000000E+00 0.  1.
          2   -1    0    0  501    0  0.00000000000E+00 -0.00000000000E+00 -0.12715810149E+04  0.12715810149E+04  0.00000000000E+00 0. -1.
         23    2    1    2    0    0 -0.58045051460E+03 -0.41969518334E+03 -0.31903561058E+03  0.78956013858E+03  0.92491322787E+02 0.  0.
        254    2    1    2    0    0  0.58045051460E+03  0.41969518334E+03 -0.26974268342E+03  0.11648235972E+04  0.87805811337E+03 0.  0.
        -24    2    4    4    0    0  0.32284317086E+03  0.35031550842E+02 -0.53076125732E+03  0.62713954922E+03  0.78368229545E+02 0.  0.
         24    2    4    4    0    0  0.25760734374E+03  0.38466363250E+03  0.26101857390E+03  0.53768404796E+03  0.81521689057E+02 0.  0.
         13    1    3    3    0    0 -0.17880672362E+02 -0.35233337683E+02 -0.70293655685E+01  0.40131265974E+02  0.00000000000E+00 0. -1.
        -13    1    3    3    0    0 -0.56256984224E+03 -0.38446184566E+03 -0.31200624501E+03  0.74942887260E+03  0.00000000000E+00 0.  1.
          2    1    6    6  502    0  0.18575906565E+02  0.81931027252E+02  0.38923950591E+02  0.92589586136E+02  0.00000000000E+00 0. -1.
          1    1    5    5  503    0 -0.25276231055E+01  0.70492562498E+01 -0.11836086979E+02  0.14006207453E+02  0.00000000000E+00 0. -1.
         -2    1    5    5    0  503  0.32537079396E+03  0.27982294592E+02 -0.51892517034E+03  0.61313334177E+03  0.00000000000E+00 0.  1.
         -1    1    6    6    0  502  0.23903143718E+03  0.30273260525E+03  0.22209462331E+03  0.44509446182E+03  0.00000000000E+00 0.  1.
<mgrwt>
<rscale>  0 0.18635868E+04</rscale>
<asrwt>0</asrwt>
<pdfrwt beam="1">  1        2 0.19562785E+00 0.18635868E+04</pdfrwt>
<pdfrwt beam="2">  1       -2 0.10504657E+00 0.18635868E+04</pdfrwt>
<totfact> 0.11849661E+01</totfact>
</mgrwt>
</event>
<event>
12    1  0.1518126E-007  0.1279432E+04  0.7818608E-02  0.9046036E-01
         -1   -1    0    0    0  501 -0.00000000000E+00  0.00000000000E+00  0.74434161016E+03  0.74434161016E+03  0.00000000000E+00 0.  1.
          1   -1    0    0  501    0  0.00000000000E+00 -0.00000000000E+00 -0.54979696372E+03  0.54979696372E+03  0.00000000000E+00 0. -1.
         23    2    1    2    0    0  0.25969212192E+03 -0.55900244336E+02 -0.12389931010E+03  0.30694037332E+03  0.91085225064E+02 0.  0.
        254    2    1    2    0    0 -0.25969212192E+03  0.55900244336E+02  0.31844395654E+03  0.98719820057E+03  0.89587326014E+03 0.  0.
        -24    2    4    4    0    0 -0.36263488340E+03  0.14278948789E+03  0.56724942846E+03  0.69292975856E+03  0.80540919442E+02 0.  0.
         24    2    4    4    0    0  0.10294276148E+03 -0.86889243554E+02 -0.24880547192E+03  0.29426844200E+03  0.80887578259E+02 0.  0.
         11    1    3    3    0    0  0.11465262569E+02 -0.53619353906E+01  0.13708574177E+02  0.18658177909E+02  0.00000000000E+00 0.  1.
        -11    1    3    3    0    0  0.24822685935E+03 -0.50538308945E+02 -0.13760788428E+03  0.28828219541E+03  0.00000000000E+00 0. -1.
          2    1    6    6  502    0  0.10180222134E+03 -0.59938786864E+02 -0.23702369010E+03  0.26483311747E+03  0.00000000000E+00 0. -1.
          3    1    5    5  503    0 -0.19298024899E+03  0.11843547141E+03  0.31338885724E+03  0.38662761571E+03  0.00000000000E+00 0. -1.
         -2    1    5    5    0  503 -0.16965463441E+03  0.24354016476E+02  0.25386057122E+03  0.30630214285E+03  0.00000000000E+00 0.  1.
         -1    1    6    6    0  502  0.11405401396E+01 -0.26950456690E+02 -0.11781781819E+02  0.29435324535E+02  0.00000000000E+00 0.  1.
<mgrwt>
<rscale>  0 0.12794323E+04</rscale>
<asrwt>0</asrwt>
<pdfrwt beam="1">  1        1 0.84584148E-01 0.12794323E+04</pdfrwt>
<pdfrwt beam="2">  1       -1 0.11451409E+00 0.12794323E+04</pdfrwt>
<totfact> 0.26494204E+01</totfact>
</mgrwt>
</event>
<event>
12    1  0.1518126E-007  0.1617581E+04  0.7818608E-02  0.8809820E-01
         -2   -1    0    0    0  501 -0.00000000000E+00  0.00000000000E+00  0.26661831111E+03  0.26661831111E+03  0.00000000000E+00 0.  1.
          2   -1    0    0  501    0  0.00000000000E+00 -0.00000000000E+00 -0.24534772946E+04  0.24534772946E+04  0.00000000000E+00 0. -1.
         23    2    1    2    0    0  0.38731059051E+02 -0.62173985680E+02 -0.16844211471E+04  0.16881876814E+04  0.85658318789E+02 0.  0.
        254    2    1    2    0    0 -0.38731059051E+02  0.62173985680E+02 -0.50243783637E+03  0.10319079242E+04  0.89834541535E+03 0.  0.
        -24    2    4    4    0    0  0.30038905504E+02 -0.35920194379E+03 -0.46837689212E+03  0.59637746885E+03  0.79754623774E+02 0.  0.
         24    2    4    4    0    0 -0.68769964555E+02  0.42137592947E+03 -0.34060944249E+02  0.43553045540E+03  0.78991440622E+02 0.  0.
         13    1    3    3    0    0  0.25640786790E+02 -0.60584927932E+02 -0.16502461855E+04  0.16515569794E+04  0.00000000000E+00 0. -1.
        -13    1    3    3    0    0  0.13090272260E+02 -0.15890577485E+01 -0.34174961547E+02  0.36630702001E+02  0.00000000000E+00 0.  1.
          2    1    6    6  502    0 -0.28853888729E+02  0.20212930447E+03  0.23058030794E+02  0.20547621616E+03  0.00000000000E+00 0. -1.
          3    1    5    5  503    0  0.11165901179E+02 -0.18791901763E+01 -0.13093130914E+02  0.17310077469E+02  0.00000000000E+00 0. -1.
         -4    1    5    5    0  503  0.18873004325E+02 -0.35732275362E+03 -0.45528376121E+03  0.57906739138E+03  0.00000000000E+00 0.  1.
         -1    1    6    6    0  502 -0.39916075826E+02  0.21924662500E+03 -0.57118975043E+02  0.23005423924E+03  0.00000000000E+00 0.  1.
<mgrwt>
<rscale>  0 0.16175809E+04</rscale>
<asrwt>0</asrwt>
<pdfrwt beam="1">  1        2 0.37745804E+00 0.16175809E+04</pdfrwt>
<pdfrwt beam="2">  1       -2 0.41018202E-01 0.16175809E+04</pdfrwt>
<totfact> 0.20001828E+01</totfact>
</mgrwt>
</event>
<event>
12    1  0.1518126E-007  0.1481659E+04  0.7818608E-02  0.8896742E-01
         -2   -1    0    0    0  501 -0.00000000000E+00  0.00000000000E+00  0.22149661581E+04  0.22149661581E+04  0.00000000000E+00 0. -1.
          2   -1    0    0  501    0  0.00000000000E+00 -0.00000000000E+00 -0.24778186929E+03  0.24778186929E+03  0.00000000000E+00 0.  1.
         23    2    1    2    0    0 -0.85867439715E+02 -0.10193942969E+03  0.13349261814E+04  0.13448101744E+04  0.93389671873E+02 0.  0.
        254    2    1    2    0    0  0.85867439715E+02  0.10193942969E+03  0.63225810745E+03  0.11179378530E+04  0.91228825725E+03 0.  0.
        -24    2    4    4    0    0 -0.29364797005E+03 -0.32730146562E+02  0.63745502854E+03  0.70717694722E+03  0.80311446660E+02 0.  0.
         24    2    4    4    0    0  0.37951540977E+03  0.13466957625E+03 -0.51969210930E+01  0.41076090582E+03  0.80806390510E+02 0.  0.
         13    1    3    3    0    0 -0.19781700955E+01 -0.20085800089E+02  0.62092318342E+03  0.62125111850E+03  0.00000000000E+00 0.  1.
        -13    1    3    3    0    0 -0.83889269619E+02 -0.81853629603E+02  0.71400299798E+03  0.72355905589E+03  0.00000000000E+00 0. -1.
          2    1    6    6  502    0  0.37323819901E+03  0.11619770761E+03 -0.83598401900E+01  0.39099686365E+03  0.00000000000E+00 0. -1.
          3    1    5    5  503    0 -0.29389394800E+03 -0.22719602381E+02  0.62621372304E+03  0.69212243132E+03  0.00000000000E+00 0. -1.
         -4    1    5    5    0  503  0.24597794895E+00 -0.10010544180E+02  0.11241305497E+02  0.15054515907E+02  0.00000000000E+00 0.  1.
         -1    1    6    6    0  502  0.62772107543E+01  0.18471868639E+02  0.31629190970E+01  0.19764042175E+02  0.00000000000E+00 0.  1.
<mgrwt>
<rscale>  0 0.14816591E+04</rscale>
<asrwt>0</asrwt>
<pdfrwt beam="1">  1        2 0.38120289E-01 0.14816591E+04</pdfrwt>
<pdfrwt beam="2">  1       -2 0.34076401E+00 0.14816591E+04</pdfrwt>
<totfact> 0.23551289E+00</totfact>
</mgrwt>
</event>
<event>
12    1  0.1518126E-007  0.1406541E+04  0.7818608E-02  0.8949098E-01
         -2   -1    0    0    0  501 -0.00000000000E+00  0.00000000000E+00  0.53068508316E+03  0.53068508316E+03  0.00000000000E+00 0.  1.
          2   -1    0    0  501    0  0.00000000000E+00 -0.00000000000E+00 -0.93198262556E+03  0.93198262556E+03  0.00000000000E+00 0. -1.
         23    2    1    2    0    0  0.13886486130E+03 -0.20522553896E+02  0.28953291903E+03  0.33435580583E+03  0.90883820172E+02 0.  0.
        254    2    1    2    0    0 -0.13886486130E+03  0.20522553896E+02 -0.69083046143E+03  0.11283119029E+04  0.88098603784E+03 0.  0.
        -24    2    4    4    0    0 -0.27969970989E+03 -0.34928004254E+03 -0.51765967900E+03  0.68905778948E+03  0.81244188375E+02 0.  0.
         24    2    4    4    0    0  0.14083484860E+03  0.36980259644E+03 -0.17317078243E+03  0.43925411342E+03  0.79797502219E+02 0.  0.
         11    1    3    3    0    0  0.54624489112E+02  0.36183725211E+02  0.10655947109E+03  0.12509203676E+03  0.00000000000E+00 0. -1.
        -11    1    3    3    0    0  0.84240372183E+02 -0.56706279107E+02  0.18297344794E+03  0.20926376907E+03  0.00000000000E+00 0.  1.
          2    1    6    6  502    0  0.10212816697E+03  0.19532195127E+03 -0.62737331967E+02  0.22916544233E+03  0.00000000000E+00 0. -1.
          1    1    5    5  503    0 -0.77684388818E+02 -0.54351566230E+02 -0.13956531533E+03  0.16872295120E+03  0.00000000000E+00 0. -1.
         -2    1    5    5    0  503 -0.20201532108E+03 -0.29492847631E+03 -0.37809436367E+03  0.52033483828E+03  0.00000000000E+00 0.  1.
         -1    1    6    6    0  502  0.38706681634E+02  0.17448064517E+03 -0.11043345046E+03  0.21008867109E+03  0.00000000000E+00 0.  1.
<mgrwt>
<rscale>  0 0.14065408E+04</rscale>
<asrwt>0</asrwt>
<pdfrwt beam="1">  1        2 0.14338194E+00 0.14065408E+04</pdfrwt>
<pdfrwt beam="2">  1       -2 0.81643859E-01 0.14065408E+04</pdfrwt>
<totfact> 0.35855382E+01</totfact>
</mgrwt>
</event>
<event>
12    1  0.1518126E-007  0.1299705E+04  0.7818608E-02  0.9029800E-01
         -2   -1    0    0    0  501 -0.00000000000E+00  0.00000000000E+00  0.25927337785E+03  0.25927337785E+03  0.00000000000E+00 0.  1.
          2   -1    0    0  501    0  0.00000000000E+00 -0.00000000000E+00 -0.16288133841E+04  0.16288133841E+04  0.00000000000E+00 0. -1.
         23    2    1    2    0    0 -0.23118404861E+03 -0.21994590357E+03 -0.52609332781E+03  0.62190360533E+03  0.90374996166E+02 0.  0.
        254    2    1    2    0    0  0.23118404861E+03  0.21994590357E+03 -0.84344667840E+03  0.12661831566E+04  0.88881675382E+03 0.  0.
        -24    2    4    4    0    0 -0.27975096449E+03  0.20100989054E+03 -0.11520014606E+03  0.37206695655E+03  0.80605013972E+02 0.  0.
         24    2    4    4    0    0  0.51093501310E+03  0.18936013028E+02 -0.72824653234E+03  0.89411620003E+03  0.87679000259E+02 0.  0.
         11    1    3    3    0    0 -0.11522822325E+03 -0.11347449623E+03 -0.18176120357E+03  0.24329229304E+03  0.00000000000E+00 0.  1.
        -11    1    3    3    0    0 -0.11595582536E+03 -0.10647140734E+03 -0.34433212424E+03  0.37861131230E+03  0.00000000000E+00 0. -1.
          2    1    6    6  502    0  0.31862023852E+03  0.27351509688E+02 -0.38418704335E+03  0.49986662796E+03  0.00000000000E+00 0. -1.
          1    1    5    5  503    0 -0.14259533980E+03  0.75271112640E+02 -0.88963593400E+02  0.18415670577E+03  0.00000000000E+00 0. -1.
         -2    1    5    5    0  503 -0.13715562469E+03  0.12573877790E+03 -0.26236552660E+02  0.18791025078E+03  0.00000000000E+00 0.  1.
         -1    1    6    6    0  502  0.19231477458E+03 -0.84154966603E+01 -0.34405948900E+03  0.39424957207E+03  0.00000000000E+00 0.  1.
<mgrwt>
<rscale>  0 0.12997045E+04</rscale>
<asrwt>0</asrwt>
<pdfrwt beam="1">  1        2 0.25058668E+00 0.12997045E+04</pdfrwt>
<pdfrwt beam="2">  1       -2 0.39888212E-01 0.12997045E+04</pdfrwt>
<totfact> 0.62619169E+01</totfact>
</mgrwt>
</event>
<event>
12    1  0.1518126E-007  0.2079327E+04  0.7818608E-02  0.8570405E-01
          2   -1    0    0  501    0  0.00000000000E+00  0.00000000000E+00  0.23141603263E+04  0.23141603263E+04  0.00000000000E+00 0. -1.
         -2   -1    0    0    0  501 -0.00000000000E+00 -0.00000000000E+00 -0.46708115208E+03  0.46708115208E+03  0.00000000000E+00 0.  1.
         23    2    1    2    0    0  0.78156135301E+03  0.23946030265E+03  0.48049934039E+03  0.95263376735E+03  0.91935268052E+02 0.  0.
        254    2    1    2    0    0 -0.78156135301E+03 -0.23946030265E+03  0.13665798338E+04  0.18286077110E+04  0.89893622328E+03 0.  0.
        -24    2    4    4    0    0 -0.10629597656E+03 -0.88220976330E+02  0.10513379562E+04  0.10637414926E+04  0.84573574742E+02 0.  0.
         24    2    4    4    0    0 -0.67526537645E+03 -0.15123932632E+03  0.31524187758E+03  0.76486621843E+03  0.82378566727E+02 0.  0.
         13    1    3    3    0    0  0.28732542843E+03  0.57006228690E+02  0.13443885897E+03  0.32230330239E+03  0.00000000000E+00 0. -1.
        -13    1    3    3    0    0  0.49423592459E+03  0.18245407396E+03  0.34606048142E+03  0.63033046496E+03  0.00000000000E+00 0.  1.
          2    1    6    6  502    0 -0.44480326504E+03 -0.76064700370E+02  0.16967403318E+03  0.48210482343E+03  0.00000000000E+00 0. -1.
          1    1    5    5  503    0  0.64425570313E+01 -0.29139398078E+02  0.11574966974E+03  0.11953492003E+03  0.00000000000E+00 0. -1.
         -2    1    5    5    0  503 -0.11273853360E+03 -0.59081578252E+02  0.93558828647E+03  0.94420657254E+03  0.00000000000E+00 0.  1.
         -1    1    6    6    0  502 -0.23046211141E+03 -0.75174625954E+02  0.14556784440E+03  0.28276139500E+03  0.00000000000E+00 0.  1.
<mgrwt>
<rscale>  0 0.20793275E+04</rscale>
<asrwt>0</asrwt>
<pdfrwt beam="1">  1        2 0.35602466E+00 0.20793275E+04</pdfrwt>
<pdfrwt beam="2">  1       -2 0.71858640E-01 0.20793275E+04</pdfrwt>
<totfact> 0.72107418E+00</totfact>
</mgrwt>
</event>
<event>
12    1  0.1518126E-007  0.1457499E+04  0.7818608E-02  0.8913218E-01
         -1   -1    0    0    0  501 -0.00000000000E+00  0.00000000000E+00  0.48345411058E+03  0.48345411058E+03  0.00000000000E+00 0.  1.
          1   -1    0    0  501    0  0.00000000000E+00 -0.00000000000E+00 -0.10985025470E+04  0.10985025470E+04  0.00000000000E+00 0. -1.
         23    2    1    2    0    0  0.41486492949E+03 -0.14735172418E+03 -0.12542806507E+03  0.46693825446E+03  0.92052667712E+02 0.  0.
        254    2    1    2    0    0 -0.41486492949E+03  0.14735172418E+03 -0.48962037139E+03  0.11150184032E+04  0.89984025858E+03 0.  0.
        -24    2    4    4    0    0 -0.33529261427E+03  0.46832507702E+03 -0.87134487859E+02  0.58849759310E+03  0.83591166725E+02 0.  0.
         24    2    4    4    0    0 -0.79572315219E+02 -0.32097335284E+03 -0.40248588353E+03  0.52652081006E+03  0.76639613743E+02 0.  0.
         11    1    3    3    0    0  0.28420552619E+03 -0.14348175648E+03 -0.10058347204E+03  0.33388146161E+03  0.00000000000E+00 0.  1.
        -11    1    3    3    0    0  0.13065940330E+03 -0.38699676972E+01 -0.24844593029E+02  0.13305679285E+03  0.00000000000E+00 0. -1.
          2    1    6    6  502    0 -0.59223823356E+02 -0.26258734727E+03 -0.36730690043E+03  0.45538328395E+03  0.00000000000E+00 0. -1.
          1    1    5    5  503    0 -0.20139171684E+03  0.20953586505E+03 -0.44862395709E+02  0.29406893223E+03  0.00000000000E+00 0. -1.
         -2    1    5    5    0  503 -0.13390089744E+03  0.25878921197E+03 -0.42272092149E+02  0.29442866087E+03  0.00000000000E+00 0.  1.
         -1    1    6    6    0  502 -0.20348491863E+02 -0.58386005578E+02 -0.35178983100E+02  0.71137526105E+02  0.00000000000E+00 0.  1.
<mgrwt>
<rscale>  0 0.14574986E+04</rscale>
<asrwt>0</asrwt>
<pdfrwt beam="1">  1        1 0.16900039E+00 0.14574986E+04</pdfrwt>
<pdfrwt beam="2">  1       -1 0.74377556E-01 0.14574986E+04</pdfrwt>
<totfact> 0.22451586E+01</totfact>
</mgrwt>
</event>
<event>
12    1  0.1518126E-007  0.1338071E+04  0.7818608E-02  0.8999908E-01
          2   -1    0    0  501    0  0.00000000000E+00  0.00000000000E+00  0.28185655583E+04  0.28185655583E+04  0.00000000000E+00 0. -1.
         -2   -1    0    0    0  501 -0.00000000000E+00 -0.00000000000E+00 -0.15880709103E+03  0.15880709103E+03  0.00000000000E+00 0.  1.
         23    2    1    2    0    0  0.18333209052E+03 -0.18186576111E+03  0.18893284642E+03  0.33255183092E+03  0.90605128503E+02 0.  0.
        254    2    1    2    0    0 -0.18333209052E+03  0.18186576111E+03  0.24708256209E+04  0.26448208184E+04  0.90742057633E+03 0.  0.
        -24    2    4    4    0    0 -0.14232792081E+03 -0.35373820732E+03  0.12351559036E+04  0.12950909175E+04  0.79135466709E+02 0.  0.
         24    2    4    4    0    0 -0.41004169706E+02  0.53560396844E+03  0.12356697173E+04  0.13497299009E+04  0.79612827315E+02 0.  0.
         13    1    3    3    0    0  0.33625721245E+02 -0.21290953714E+02 -0.43738290073E+01  0.40039033698E+02  0.00000000000E+00 0.  1.
        -13    1    3    3    0    0  0.14970636928E+03 -0.16057480740E+03  0.19330667543E+03  0.29251279722E+03  0.00000000000E+00 0. -1.
          4    1    6    6  502    0 -0.36352165880E+02  0.52794863235E+03  0.12302973547E+04  0.13392844431E+04  0.00000000000E+00 0. -1.
          1    1    5    5  503    0 -0.14393026850E+03 -0.27666792393E+03  0.10148135588E+04  0.10616532492E+04  0.00000000000E+00 0. -1.
         -2    1    5    5    0  503  0.16023476891E+01 -0.77070283389E+02  0.22034234483E+03  0.23343766839E+03  0.00000000000E+00 0.  1.
         -3    1    6    6    0  502 -0.46520038264E+01  0.76553360876E+01  0.53723625298E+01  0.10445457834E+02  0.00000000000E+00 0.  1.
<mgrwt>
<rscale>  0 0.13380705E+04</rscale>
<asrwt>0</asrwt>
<pdfrwt beam="1">  1        2 0.43362543E+00 0.13380705E+04</pdfrwt>
<pdfrwt beam="2">  1       -2 0.24431862E-01 0.13380705E+04</pdfrwt>
<totfact> 0.33208307E+01</totfact>
</mgrwt>
</event>
<event>
12    1  0.1518126E-007  0.1961620E+04  0.7818608E-02  0.8624778E-01
         -2   -1    0    0    0  501 -0.00000000000E+00  0.00000000000E+00  0.35154662482E+03  0.35154662482E+03  0.00000000000E+00 0. -1.
          2   -1    0    0  501    0  0.00000000000E+00 -0.00000000000E+00 -0.27364465775E+04  0.27364465775E+04  0.00000000000E+00 0.  1.
         23    2    1    2    0    0 -0.63394043336E+03  0.34463793535E+03 -0.48845751362E+03  0.87601301093E+03  0.90289939513E+02 0.  0.
        254    2    1    2    0    0  0.63394043336E+03 -0.34463793535E+03 -0.18964424391E+04  0.22119801914E+04  0.88074210921E+03 0.  0.
        -24    2    4    4    0    0  0.21480019727E+03  0.23824622649E+03 -0.25262299199E+03  0.41642393990E+03  0.81793229901E+02 0.  0.
         24    2    4    4    0    0  0.41914023608E+03 -0.58288416185E+03 -0.16438194471E+04  0.17955562515E+04  0.80295666592E+02 0.  0.
         11    1    3    3    0    0 -0.21118122587E+02  0.95025367367E+01  0.89509758511E+00  0.23174867977E+02  0.00000000000E+00 0.  1.
        -11    1    3    3    0    0 -0.61282231077E+03  0.33513539862E+03 -0.48935261120E+03  0.85283814295E+03  0.00000000000E+00 0. -1.
          4    1    6    6  502    0  0.27233893394E+03 -0.44027479182E+03 -0.11685462425E+04  0.12780886934E+04  0.00000000000E+00 0. -1.
          3    1    5    5  503    0  0.20178843977E+03  0.21781664580E+03 -0.25590380775E+03  0.39198140827E+03  0.00000000000E+00 0. -1.
         -4    1    5    5    0  503  0.13011757508E+02  0.20429580688E+02  0.32808157578E+01  0.24442531631E+02  0.00000000000E+00 0.  1.
         -3    1    6    6    0  502  0.14680130214E+03 -0.14260937002E+03 -0.47527320456E+03  0.51746755811E+03  0.00000000000E+00 0.  1.
<mgrwt>
<rscale>  0 0.19616203E+04</rscale>
<asrwt>0</asrwt>
<pdfrwt beam="1">  1        2 0.42099179E+00 0.19616203E+04</pdfrwt>
<pdfrwt beam="2">  1       -2 0.54084095E-01 0.19616203E+04</pdfrwt>
<totfact> 0.75882865E+00</totfact>
</mgrwt>
</event>
<event>
12    1  0.1518126E-007  0.1826509E+04  0.7818608E-02  0.8692328E-01
         -1   -1    0    0    0  501 -0.00000000000E+00  0.00000000000E+00  0.16180802219E+04  0.16180802219E+04  0.00000000000E+00 0.  1.
          1   -1    0    0  501    0  0.00000000000E+00 -0.00000000000E+00 -0.51544633342E+03  0.51544633342E+03  0.00000000000E+00 0. -1.
         23    2    1    2    0    0  0.32515428478E+03 -0.52306103469E+03  0.79532747885E+03  0.10099743532E+04  0.90466793028E+02 0.  0.
        254    2    1    2    0    0 -0.32515428478E+03  0.52306103469E+03  0.30730640964E+03  0.11235522021E+04  0.88803950731E+03 0.  0.
        -24    2    4    4    0    0 -0.33307775698E+03 -0.15007678933E+03 -0.12250775437E+02  0.37392318495E+03  0.78769485539E+02 0.  0.
         24    2    4    4    0    0  0.79234722039E+01  0.67313782403E+03  0.31955718508E+03  0.74962901716E+03  0.81544817626E+02 0.  0.
         11    1    3    3    0    0  0.32299373103E+02 -0.57595415097E+02  0.45880611956E+02  0.80408406878E+02  0.00000000000E+00 0. -1.
        -11    1    3    3    0    0  0.29285491168E+03 -0.46546561960E+03  0.74944686689E+03  0.92956594635E+03  0.00000000000E+00 0.  1.
          2    1    6    6  502    0  0.81478135704E+01  0.54102584542E+03  0.29134447860E+03  0.61453800329E+03  0.00000000000E+00 0. -1.
          1    1    5    5  503    0 -0.32501054331E+03 -0.15390560302E+03 -0.22521001196E+02  0.36031372913E+03  0.00000000000E+00 0. -1.
         -2    1    5    5    0  503 -0.80672136732E+01  0.38288136847E+01  0.10270225759E+02  0.13609455824E+02  0.00000000000E+00 0.  1.
         -1    1    6    6    0  502 -0.22434136656E+00  0.13211197861E+03  0.28212706479E+02  0.13509101387E+03  0.00000000000E+00 0.  1.
<mgrwt>
<rscale>  0 0.18265087E+04</rscale>
<asrwt>0</asrwt>
<pdfrwt beam="1">  1        1 0.79299437E-01 0.18265087E+04</pdfrwt>
<pdfrwt beam="2">  1       -1 0.24893542E+00 0.18265087E+04</pdfrwt>
<totfact> 0.28342322E+00</totfact>
</mgrwt>
</event>
<event>
12    1  0.1518126E-007  0.1455654E+04  0.7818608E-02  0.8914490E-01
          2   -1    0    0  501    0  0.00000000000E+00  0.00000000000E+00  0.38950581775E+04  0.38950581775E+04  0.00000000000E+00 0. -1.
         -2   -1    0    0    0  501 -0.00000000000E+00 -0.00000000000E+00 -0.13600110517E+03  0.13600110517E+03  0.00000000000E+00 0.  1.
         23    2    1    2    0    0  0.85822658367E+02  0.40421400483E+03  0.73898412454E+03  0.85176111616E+03  0.92978343110E+02 0.  0.
        254    2    1    2    0    0 -0.85822658367E+02 -0.40421400483E+03  0.30200729478E+04  0.31792981665E+04  0.90351631489E+03 0.  0.
        -24    2    4    4    0    0  0.13206706126E+03  0.13041610386E+03  0.19549875174E+04  0.19654482227E+04  0.80996631289E+02 0.  0.
         24    2    4    4    0    0 -0.21788971963E+03 -0.53463010870E+03  0.10650854304E+04  0.12138499438E+04  0.75626906190E+02 0.  0.
         13    1    3    3    0    0 -0.74726030253E+01  0.17452644363E+03  0.33394437426E+03  0.37687420238E+03  0.00000000000E+00 0. -1.
        -13    1    3    3    0    0  0.93295261393E+02  0.22968756120E+03  0.40503975028E+03  0.47488691378E+03  0.00000000000E+00 0.  1.
          2    1    6    6  502    0 -0.16124466801E+03 -0.29747788964E+03  0.62808037188E+03  0.71342686473E+03  0.00000000000E+00 0. -1.
          1    1    5    5  503    0  0.14748539062E+01  0.18622031665E+02  0.49864115502E+03  0.49899093853E+03  0.00000000000E+00 0. -1.
         -2    1    5    5    0  503  0.13059220735E+03  0.11179407220E+03  0.14563463624E+04  0.14664572842E+04  0.00000000000E+00 0.  1.
         -1    1    6    6    0  502 -0.56645051620E+02 -0.23715221906E+03  0.43700505855E+03  0.50042307908E+03  0.00000000000E+00 0.  1.
<mgrwt>
<rscale>  0 0.14556541E+04</rscale>
<asrwt>0</asrwt>
<pdfrwt beam="1">  1        2 0.59923963E+00 0.14556541E+04</pdfrwt>
<pdfrwt beam="2">  1       -2 0.20923250E-01 0.14556541E+04</pdfrwt>
<totfact> 0.81229467E+00</totfact>
</mgrwt>
</event>
<event>
12    1  0.1518126E-007  0.1398882E+04  0.7818608E-02  0.8954628E-01
         -2   -1    0    0    0  501 -0.00000000000E+00  0.00000000000E+00  0.15161419432E+04  0.15161419432E+04  0.00000000000E+00 0.  1.
          2   -1    0    0  501    0  0.00000000000E+00 -0.00000000000E+00 -0.32267287886E+03  0.32267287886E+03  0.00000000000E+00 0. -1.
         23    2    1    2    0    0 -0.16558524441E+03  0.36009447464E+03  0.26760134672E+03  0.48943365459E+03  0.10415525743E+03 0.  0.
        254    2    1    2    0    0  0.16558524441E+03 -0.36009447464E+03  0.92586771759E+03  0.13493811675E+04  0.89806013204E+03 0.  0.
        -24    2    4    4    0    0 -0.26565436724E+03 -0.46849062283E+02  0.38355524433E+01  0.28117895625E+03  0.79245293276E+02 0.  0.
         24    2    4    4    0    0  0.43123961164E+03 -0.31324541235E+03  0.92203216515E+03  0.10682022112E+04  0.82597575207E+02 0.  0.
         13    1    3    3    0    0 -0.20985239355E+02  0.15195870665E+02 -0.53250370099E+01  0.26450912560E+02  0.00000000000E+00 0.  1.
        -13    1    3    3    0    0 -0.14460000505E+03  0.34489860397E+03  0.27292638373E+03  0.46298274203E+03  0.00000000000E+00 0. -1.
          2    1    6    6  502    0  0.11348466068E+03 -0.12996461483E+03  0.29442881237E+03  0.34125927807E+03  0.00000000000E+00 0. -1.
          3    1    5    5  503    0 -0.13127941699E+03  0.16060113632E+02 -0.67480064700E+01  0.13243016336E+03  0.00000000000E+00 0. -1.
         -4    1    5    5    0  503 -0.13437495025E+03 -0.62909175916E+02  0.10583558913E+02  0.14874879289E+03  0.00000000000E+00 0.  1.
         -1    1    6    6    0  502  0.31775495096E+03 -0.18328079753E+03  0.62760335279E+03  0.72694293313E+03  0.00000000000E+00 0.  1.
<mgrwt>
<rscale>  0 0.13988822E+04</rscale>
<asrwt>0</asrwt>
<pdfrwt beam="1">  1        2 0.49641982E-01 0.13988822E+04</pdfrwt>
<pdfrwt beam="2">  1       -2 0.23325260E+00 0.13988822E+04</pdfrwt>
<totfact> 0.80394280E+00</totfact>
</mgrwt>
</event>
<event>
12    1  0.1518126E-007  0.1935013E+04  0.7818608E-02  0.8637622E-01
          2   -1    0    0  501    0  0.00000000000E+00  0.00000000000E+00  0.58030130420E+03  0.58030130420E+03  0.00000000000E+00 0. -1.
         -2   -1    0    0    0  501 -0.00000000000E+00 -0.00000000000E+00 -0.16130738572E+04  0.16130738572E+04  0.00000000000E+00 0.  1.
         23    2    1    2    0    0  0.52226921398E+03  0.54905491943E+03 -0.46966017995E+03  0.89940306061E+03  0.11882232273E+03 0.  0.
        254    2    1    2    0    0 -0.52226921398E+03 -0.54905491943E+03 -0.56311237307E+03  0.12939721008E+04  0.88489650048E+03 0.  0.
        -24    2    4    4    0    0 -0.69896866263E+02 -0.66885929439E+03 -0.24027513253E+03  0.71976885024E+03  0.89870634071E+02 0.  0.
         24    2    4    4    0    0 -0.45237234772E+03  0.11980437495E+03 -0.32283724054E+03  0.57420325057E+03  0.80570837468E+02 0.  0.
         11    1    3    3    0    0  0.15478270798E+03  0.90443759401E+02 -0.10416705990E+03  0.20733677115E+03  0.00000000000E+00 0.  1.
        -11    1    3    3    0    0  0.36748650600E+03  0.45861116003E+03 -0.36549312004E+03  0.69206628945E+03  0.00000000000E+00 0. -1.
          4    1    6    6  502    0 -0.35708813179E+03  0.59391606937E+02 -0.24303388058E+03  0.43601005029E+03  0.00000000000E+00 0. -1.
          3    1    5    5  503    0  0.10119320606E+02 -0.28804526382E+03 -0.81793214585E+02  0.29960407977E+03  0.00000000000E+00 0. -1.
         -4    1    5    5    0  503 -0.80016186869E+02 -0.38081403056E+03 -0.15848191794E+03  0.42016477048E+03  0.00000000000E+00 0.  1.
         -3    1    6    6    0  502 -0.95284215923E+02  0.60412768017E+02 -0.79803359969E+02  0.13819320029E+03  0.00000000000E+00 0.  1.
<mgrwt>
<rscale>  0 0.19350130E+04</rscale>
<asrwt>0</asrwt>
<pdfrwt beam="1">  1        2 0.89277124E-01 0.19350130E+04</pdfrwt>
<pdfrwt beam="2">  1       -2 0.24816521E+00 0.19350130E+04</pdfrwt>
<totfact> 0.31800479E+00</totfact>
</mgrwt>
</event>
<event>
12    1  0.1518126E-007  0.2108473E+04  0.7818608E-02  0.8557520E-01
          1   -1    0    0  501    0  0.00000000000E+00  0.00000000000E+00  0.11928343702E+04  0.11928343702E+04  0.00000000000E+00 0. -1.
         -1   -1    0    0    0  501 -0.00000000000E+00 -0.00000000000E+00 -0.93174250612E+03  0.93174250612E+03  0.00000000000E+00 0.  1.
         23    2    1    2    0    0  0.57374014193E+03 -0.48796301857E+03 -0.31812833609E+03  0.82266709701E+03  0.91048648131E+02 0.  0.
        254    2    1    2    0    0 -0.57374014193E+03  0.48796301857E+03  0.57922020021E+03  0.13019097793E+04  0.89004908588E+03 0.  0.
        -24    2    4    4    0    0 -0.66622048648E+03  0.31815140991E+03  0.73244649897E+03  0.10429723402E+04  0.79015013327E+02 0.  0.
         24    2    4    4    0    0  0.92480344557E+02  0.16981160867E+03 -0.15322629877E+03  0.25893743914E+03  0.78623801671E+02 0.  0.
         13    1    3    3    0    0  0.55844524544E+02 -0.17292216125E+02 -0.31683250373E+02  0.66494059992E+02  0.00000000000E+00 0. -1.
        -13    1    3    3    0    0  0.51789561738E+03 -0.47067080245E+03 -0.28644508571E+03  0.75617303702E+03  0.00000000000E+00 0.  1.
          4    1    6    6  502    0  0.45345435008E+02  0.29432920142E+02 -0.72019161221E+02  0.90051456663E+02  0.00000000000E+00 0. -1.
          3    1    5    5  503    0 -0.47895112644E+03  0.26688582837E+03  0.53530337307E+03  0.76627144546E+03  0.00000000000E+00 0. -1.
         -4    1    5    5    0  503 -0.18726936005E+03  0.51265581538E+02  0.19714312590E+03  0.27670089474E+03  0.00000000000E+00 0.  1.
         -3    1    6    6    0  502  0.47134909549E+02  0.14037868852E+03 -0.81207137547E+02  0.16888598248E+03  0.00000000000E+00 0.  1.
<mgrwt>
<rscale>  0 0.21084729E+04</rscale>
<asrwt>0</asrwt>
<pdfrwt beam="1">  1        1 0.18351298E+00 0.21084729E+04</pdfrwt>
<pdfrwt beam="2">  1       -1 0.14334500E+00 0.21084729E+04</pdfrwt>
<totfact> 0.39155282E+00</totfact>
</mgrwt>
</event>
<event>
12    1  0.1518126E-007  0.1940463E+04  0.7818608E-02  0.8634973E-01
          2   -1    0    0  501    0  0.00000000000E+00  0.00000000000E+00  0.28685793583E+04  0.28685793583E+04  0.00000000000E+00 0. -1.
         -2   -1    0    0    0  501 -0.00000000000E+00 -0.00000000000E+00 -0.32815877294E+03  0.32815877294E+03  0.00000000000E+00 0.  1.
         23    2    1    2    0    0 -0.58982705455E+03  0.40087129558E+03  0.60735558816E+03  0.94069663302E+03  0.86229896162E+02 0.  0.
        254    2    1    2    0    0  0.58982705455E+03 -0.40087129558E+03  0.19330649972E+04  0.22560414983E+04  0.91890652869E+03 0.  0.
        -24    2    4    4    0    0  0.40268370050E+03  0.23800021093E+03  0.10046292462E+04  0.11111049201E+04  0.80473338740E+02 0.  0.
         24    2    4    4    0    0  0.18714335405E+03 -0.63887150651E+03  0.92843575106E+03  0.11449365781E+04  0.75547251991E+02 0.  0.
         13    1    3    3    0    0 -0.56419857004E+03  0.36511055238E+03  0.58666978237E+03  0.89208025169E+03  0.00000000000E+00 0. -1.
        -13    1    3    3    0    0 -0.25628484507E+02  0.35760743200E+02  0.20685805792E+02  0.48616381330E+02  0.00000000000E+00 0.  1.
          2    1    6    6  502    0  0.24754730879E+02 -0.20391994212E+03  0.26923614250E+03  0.33865061630E+03  0.00000000000E+00 0. -1.
          3    1    5    5  503    0  0.26924283444E+01  0.71956083244E+01  0.50628676388E+02  0.51208288609E+02  0.00000000000E+00 0. -1.
         -4    1    5    5    0  503  0.39999127215E+03  0.23080460261E+03  0.95400056978E+03  0.10598966315E+04  0.00000000000E+00 0.  1.
         -1    1    6    6    0  502  0.16238862317E+03 -0.43495156439E+03  0.65919960856E+03  0.80628596183E+03  0.00000000000E+00 0.  1.
<mgrwt>
<rscale>  0 0.19404633E+04</rscale>
<asrwt>0</asrwt>
<pdfrwt beam="1">  1        2 0.44131988E+00 0.19404633E+04</pdfrwt>
<pdfrwt beam="2">  1       -2 0.50485967E-01 0.19404633E+04</pdfrwt>
<totfact> 0.72900265E+00</totfact>
</mgrwt>
</event>
<event>
12    1  0.1518126E-007  0.1922913E+04  0.7818608E-02  0.8643534E-01
          2   -1    0    0  501    0  0.00000000000E+00  0.00000000000E+00  0.44590759878E+03  0.44590759878E+03  0.00000000000E+00 0. -1.
         -2   -1    0    0    0  501 -0.00000000000E+00 -0.00000000000E+00 -0.20730730528E+04  0.20730730528E+04  0.00000000000E+00 0.  1.
         23    2    1    2    0    0  0.30829854932E+03  0.65090633396E+03 -0.91853784547E+03  0.11708271962E+04  0.91637867735E+02 0.  0.
        254    2    1    2    0    0 -0.30829854932E+03 -0.65090633396E+03 -0.70862760850E+03  0.13481534553E+04  0.89254557327E+03 0.  0.
        -24    2    4    4    0    0 -0.44158046393E+02  0.14160554523E+03 -0.43314141247E+03  0.46490501681E+03  0.80765883613E+02 0.  0.
         24    2    4    4    0    0 -0.26414050293E+03 -0.79251187918E+03 -0.27548619603E+03  0.88324843848E+03  0.79936699577E+02 0.  0.
         11    1    3    3    0    0  0.95731556842E+02  0.12127403518E+03 -0.21924250947E+03  0.26821484027E+03  0.00000000000E+00 0. -1.
        -11    1    3    3    0    0  0.21256699248E+03  0.52963229877E+03 -0.69929533601E+03  0.90261235597E+03  0.00000000000E+00 0.  1.
          4    1    6    6  502    0 -0.48892496021E+02 -0.25169073907E+03 -0.67593934306E+02  0.26515588671E+03  0.00000000000E+00 0. -1.
          3    1    5    5  503    0 -0.25280568337E+02  0.63973382599E+02 -0.94002997362E+02  0.11648289286E+03  0.00000000000E+00 0. -1.
         -4    1    5    5    0  503 -0.18877478056E+02  0.77632162627E+02 -0.33913841511E+03  0.34842212394E+03  0.00000000000E+00 0.  1.
         -3    1    6    6    0  502 -0.21524800691E+03 -0.54082114011E+03 -0.20789226173E+03  0.61809255177E+03  0.00000000000E+00 0.  1.
<mgrwt>
<rscale>  0 0.19229134E+04</rscale>
<asrwt>0</asrwt>
<pdfrwt beam="1">  1        2 0.68601170E-01 0.19229134E+04</pdfrwt>
<pdfrwt beam="2">  1       -2 0.31893431E+00 0.19229134E+04</pdfrwt>
<totfact> 0.16001872E+00</totfact>
</mgrwt>
</event>
<event>
12    1  0.1518126E-007  0.2355656E+04  0.7818608E-02  0.8456295E-01
          1   -1    0    0  501    0  0.00000000000E+00  0.00000000000E+00  0.16094116264E+04  0.16094116264E+04  0.00000000000E+00 0. -1.
         -1   -1    0    0    0  501 -0.00000000000E+00 -0.00000000000E+00 -0.86197851123E+03  0.86197851123E+03  0.00000000000E+00 0.  1.
         23    2    1    2    0    0  0.58842506120E+03  0.51827954163E+03 -0.33647960844E+03  0.85824713140E+03  0.92259827301E+02 0.  0.
        254    2    1    2    0    0 -0.58842506120E+03 -0.51827954163E+03  0.10839127236E+04  0.16131430062E+04  0.90139105287E+03 0.  0.
        -24    2    4    4    0    0 -0.61471523996E+03 -0.44140379263E+03  0.12182753565E+04  0.14366172643E+04  0.83439711860E+02 0.  0.
         24    2    4    4    0    0  0.26290178766E+02 -0.76875749000E+02 -0.13436263288E+03  0.17652574191E+03  0.80665768194E+02 0.  0.
         11    1    3    3    0    0  0.16999160486E+01  0.16985219539E+02 -0.20779427396E+01  0.17196082210E+02  0.00000000000E+00 0. -1.
        -11    1    3    3    0    0  0.58672514515E+03  0.50129432209E+03 -0.33440166570E+03  0.84105104919E+03  0.00000000000E+00 0.  1.
          4    1    6    6  502    0  0.49165792210E+02 -0.61392565404E+02 -0.12436460363E+03  0.14714916529E+03  0.00000000000E+00 0. -1.
          3    1    5    5  503    0 -0.34690522270E+03 -0.29193302978E+03  0.76699067802E+03  0.89097857863E+03  0.00000000000E+00 0. -1.
         -4    1    5    5    0  503 -0.26781001727E+03 -0.14947076285E+03  0.45128467845E+03  0.54563868567E+03  0.00000000000E+00 0.  1.
         -3    1    6    6    0  502 -0.22875613444E+02 -0.15483183596E+02 -0.99980292470E+01  0.29376576614E+02  0.00000000000E+00 0.  1.
<mgrwt>
<rscale>  0 0.23556555E+04</rscale>
<asrwt>0</asrwt>
<pdfrwt beam="1">  1        1 0.24760179E+00 0.23556555E+04</pdfrwt>
<pdfrwt beam="2">  1       -1 0.13261208E+00 0.23556555E+04</pdfrwt>
<totfact> 0.23844675E+00</totfact>
</mgrwt>
</event>
<event>
12    1  0.1518126E-007  0.5066126E+04  0.7818608E-02  0.7818387E-01
          2   -1    0    0  501    0  0.00000000000E+00  0.00000000000E+00  0.31639434648E+04  0.31639434648E+04  0.00000000000E+00 0. -1.
         -2   -1    0    0    0  501 -0.00000000000E+00 -0.00000000000E+00 -0.20279784510E+04  0.20279784510E+04  0.00000000000E+00 0.  1.
         23    2    1    2    0    0 -0.21027410909E+04  0.40724070343E+02  0.18461312798E+04  0.28000748495E+04  0.95078469572E+02 0.  0.
        254    2    1    2    0    0  0.21027410909E+04 -0.40724070343E+02 -0.71016626601E+03  0.23918470663E+04  0.89073998322E+03 0.  0.
        -24    2    4    4    0    0  0.30451559797E+03  0.26862307036E+03  0.43127966588E+02  0.41618828073E+03  0.80402488627E+02 0.  0.
         24    2    4    4    0    0  0.17982254930E+04 -0.30934714070E+03 -0.75329423260E+03  0.19756587855E+04  0.80404347445E+02 0.  0.
         13    1    3    3    0    0 -0.39917288264E+02 -0.94736673620E+01  0.25809492788E+02  0.48469270611E+02  0.00000000000E+00 0.  1.
        -13    1    3    3    0    0 -0.20628238027E+04  0.50197737705E+02  0.18203217870E+04  0.27516055789E+04  0.00000000000E+00 0. -1.
          2    1    6    6  502    0  0.59262805892E+03 -0.63945059335E+02 -0.24124592701E+03  0.64303700059E+03  0.00000000000E+00 0. -1.
          3    1    5    5  503    0  0.89494872681E+02  0.36160118982E+02  0.20823921221E+02  0.98744732194E+02  0.00000000000E+00 0. -1.
         -4    1    5    5    0  503  0.21502072529E+03  0.23246295137E+03  0.22304045367E+02  0.31744354853E+03  0.00000000000E+00 0.  1.
         -1    1    6    6    0  502  0.12055974340E+04 -0.24540208136E+03 -0.51204830559E+03  0.13326217850E+04  0.00000000000E+00 0.  1.
<mgrwt>
<rscale>  0 0.50661264E+04</rscale>
<asrwt>0</asrwt>
<pdfrwt beam="1">  1        2 0.48676054E+00 0.50661264E+04</pdfrwt>
<pdfrwt beam="2">  1       -2 0.31199668E+00 0.50661264E+04</pdfrwt>
<totfact> 0.26568532E-02</totfact>
</mgrwt>
</event>
<event>
12    1  0.1518126E-007  0.1715457E+04  0.7818608E-02  0.8752597E-01
         -3   -1    0    0    0  501 -0.00000000000E+00  0.00000000000E+00  0.21827478220E+04  0.21827478220E+04  0.00000000000E+00 0.  1.
          3   -1    0    0  501    0  0.00000000000E+00 -0.00000000000E+00 -0.33705146416E+03  0.33705146416E+03  0.00000000000E+00 0. -1.
         23    2    1    2    0    0 -0.19630339205E+03 -0.44255853972E+03  0.10699608719E+03  0.50432057810E+03  0.92184597464E+02 0.  0.
        254    2    1    2    0    0  0.19630339205E+03  0.44255853972E+03  0.17387002706E+04  0.20154787080E+04  0.89704108528E+03 0.  0.
        -24    2    4    4    0    0  0.32632289372E+03 -0.11815996300E+03  0.10836798587E+04  0.11406603696E+04  0.79345036574E+02 0.  0.
         24    2    4    4    0    0 -0.13001950167E+03  0.56071850272E+03  0.65502041192E+03  0.87481833842E+03  0.70321227947E+02 0.  0.
         13    1    3    3    0    0 -0.13075904066E+02 -0.88528263955E+02 -0.68419415206E+01  0.89749902228E+02  0.00000000000E+00 0.  1.
        -13    1    3    3    0    0 -0.18322748798E+03 -0.35403027576E+03  0.11383802871E+03  0.41457067587E+03  0.00000000000E+00 0. -1.
          2    1    6    6  502    0 -0.29069563303E+02  0.10315051179E+03  0.84068494415E+02  0.13620785347E+03  0.00000000000E+00 0. -1.
          3    1    5    5  503    0  0.27361913272E+02 -0.37367866928E+02  0.14408474762E+03  0.15134545343E+03  0.00000000000E+00 0. -1.
         -4    1    5    5    0  503  0.29896098045E+03 -0.80792096072E+02  0.93959511109E+03  0.98931491619E+03  0.00000000000E+00 0.  1.
         -1    1    6    6    0  502 -0.10094993837E+03  0.45756799092E+03  0.57095191751E+03  0.73861048495E+03  0.00000000000E+00 0.  1.
<mgrwt>
<rscale>  0 0.17154572E+04</rscale>
<asrwt>0</asrwt>
<pdfrwt beam="1">  1        3 0.51854073E-01 0.17154572E+04</pdfrwt>
<pdfrwt beam="2">  1       -3 0.33580735E+00 0.17154572E+04</pdfrwt>
<totfact> 0.22063112E-01</totfact>
</mgrwt>
</event>
<event>
12    1  0.1518126E-007  0.1470221E+04  0.7818608E-02  0.8904501E-01
         -2   -1    0    0    0  501 -0.00000000000E+00  0.00000000000E+00  0.16804012465E+04  0.16804012465E+04  0.00000000000E+00 0.  1.
          2   -1    0    0  501    0  0.00000000000E+00 -0.00000000000E+00 -0.32158238187E+03  0.32158238187E+03  0.00000000000E+00 0. -1.
         23    2    1    2    0    0  0.20379218199E+02  0.10311829267E+03  0.99436368145E+03  0.10050480965E+04  0.10155712938E+03 0.  0.
        254    2    1    2    0    0 -0.20379218199E+02 -0.10311829267E+03  0.36445518316E+03  0.99693553182E+03  0.92195671225E+03 0.  0.
        -24    2    4    4    0    0  0.23507686693E+03  0.23771494557E+03 -0.10377558012E+03  0.35911371108E+03  0.80148348375E+02 0.  0.
         24    2    4    4    0    0 -0.25545608513E+03 -0.34083323824E+03  0.46823076328E+03  0.63782182074E+03  0.78431623781E+02 0.  0.
         11    1    3    3    0    0  0.15749993474E+02  0.76533402771E+02  0.94938881634E+03  0.95259883930E+03  0.00000000000E+00 0.  1.
        -11    1    3    3    0    0  0.46292247249E+01  0.26584889900E+02  0.44974865107E+02  0.52449257229E+02  0.00000000000E+00 0. -1.
          4    1    6    6  502    0 -0.18504153049E+03 -0.18901877544E+03  0.26302485638E+03  0.37302887362E+03  0.00000000000E+00 0. -1.
          1    1    5    5  503    0  0.15693605043E+03  0.11669905235E+03 -0.87139241545E+02  0.21410474110E+03  0.00000000000E+00 0. -1.
         -2    1    5    5    0  503  0.78140816498E+02  0.12101589322E+03 -0.16636338576E+02  0.14500896999E+03  0.00000000000E+00 0.  1.
         -3    1    6    6    0  502 -0.70414554635E+02 -0.15181446280E+03  0.20520590690E+03  0.26479294712E+03  0.00000000000E+00 0.  1.
<mgrwt>
<rscale>  0 0.14702210E+04</rscale>
<asrwt>0</asrwt>
<pdfrwt beam="1">  1        2 0.49474214E-01 0.14702210E+04</pdfrwt>
<pdfrwt beam="2">  1       -2 0.25852326E+00 0.14702210E+04</pdfrwt>
<totfact> 0.56111849E+00</totfact>
</mgrwt>
</event>
<event>
12    1  0.1518126E-007  0.2488400E+04  0.7818608E-02  0.8407130E-01
          1   -1    0    0  501    0  0.00000000000E+00  0.00000000000E+00  0.15669839834E+04  0.15669839834E+04  0.00000000000E+00 0. -1.
         -1   -1    0    0    0  501 -0.00000000000E+00 -0.00000000000E+00 -0.98790676135E+03  0.98790676135E+03  0.00000000000E+00 0.  1.
         23    2    1    2    0    0 -0.35760464044E+02 -0.58393131486E+03 -0.67852084768E+03  0.90070166076E+03  0.92835067183E+02 0.  0.
        254    2    1    2    0    0  0.35760464044E+02  0.58393131486E+03  0.12575980697E+04  0.16541890840E+04  0.90140669475E+03 0.  0.
        -24    2    4    4    0    0 -0.43070762948E+02  0.75672044649E+03  0.12311851432E+04  0.14480739713E+04  0.81366115736E+02 0.  0.
         24    2    4    4    0    0  0.78831226992E+02 -0.17278913163E+03  0.26412926482E+02  0.20611511264E+03  0.75599937938E+02 0.  0.
         13    1    3    3    0    0  0.96374585504E+01 -0.84404293116E+02 -0.58262302608E+02  0.10301194692E+03  0.00000000000E+00 0. -1.
        -13    1    3    3    0    0 -0.45397922594E+02 -0.49952702175E+03 -0.62025854507E+03  0.79768971384E+03  0.00000000000E+00 0.  1.
          2    1    6    6  502    0  0.58478244463E+02 -0.14250166269E+03  0.50835539628E+02  0.16220567510E+03  0.00000000000E+00 0. -1.
          1    1    5    5  503    0 -0.80792755034E+00  0.36791993177E+03  0.66411154282E+03  0.75921661616E+03  0.00000000000E+00 0. -1.
         -2    1    5    5    0  503 -0.42262835397E+02  0.38880051472E+03  0.56707360041E+03  0.68885735518E+03  0.00000000000E+00 0.  1.
         -1    1    6    6    0  502  0.20352982529E+02 -0.30287468939E+02 -0.24422613147E+02  0.43909437545E+02  0.00000000000E+00 0.  1.
<mgrwt>
<rscale>  0 0.24884003E+04</rscale>
<asrwt>0</asrwt>
<pdfrwt beam="1">  1        1 0.24107446E+00 0.24884003E+04</pdfrwt>
<pdfrwt beam="2">  1       -1 0.15198566E+00 0.24884003E+04</pdfrwt>
<totfact> 0.17606045E+00</totfact>
</mgrwt>
</event>
<event>
12    1  0.1518126E-007  0.1484222E+04  0.7818608E-02  0.8895014E-01
         -1   -1    0    0    0  501 -0.00000000000E+00  0.00000000000E+00  0.16335308422E+04  0.16335308422E+04  0.00000000000E+00 0.  1.
          1   -1    0    0  501    0  0.00000000000E+00 -0.00000000000E+00 -0.33713998274E+03  0.33713998274E+03  0.00000000000E+00 0. -1.
         23    2    1    2    0    0 -0.23027744584E+03 -0.22910260204E+03  0.85858001216E+03  0.92246024960E+03  0.90871175266E+02 0.  0.
        254    2    1    2    0    0  0.23027744584E+03  0.22910260204E+03  0.43781084730E+03  0.10482105753E+04  0.89529401199E+03 0.  0.
        -24    2    4    4    0    0  0.31648059195E+03  0.25259167710E+03 -0.15686485377E+03  0.44196728249E+03  0.82255553115E+02 0.  0.
         24    2    4    4    0    0 -0.86203146112E+02 -0.23489075061E+02  0.59467570107E+03  0.60624329285E+03  0.76870160882E+02 0.  0.
         11    1    3    3    0    0 -0.20053806267E+03 -0.14474352992E+03  0.65288963568E+03  0.69816264610E+03  0.00000000000E+00 0.  1.
        -11    1    3    3    0    0 -0.29739383172E+02 -0.84359072122E+02  0.20569037648E+03  0.22429760350E+03  0.00000000000E+00 0. -1.
          2    1    6    6  502    0 -0.77657641362E+02 -0.16855800758E+02  0.58838982608E+03  0.59373177001E+03  0.00000000000E+00 0. -1.
          3    1    5    5  503    0  0.27792536432E+03  0.18577691035E+03 -0.14295755824E+03  0.36358277188E+03  0.00000000000E+00 0. -1.
         -4    1    5    5    0  503  0.38555227631E+02  0.66814766754E+02 -0.13907295531E+02  0.78384510607E+02  0.00000000000E+00 0.  1.
         -1    1    6    6    0  502 -0.85455047505E+01 -0.66332743024E+01  0.62858749884E+01  0.12511522840E+02  0.00000000000E+00 0.  1.
<mgrwt>
<rscale>  0 0.14842218E+04</rscale>
<asrwt>0</asrwt>
<pdfrwt beam="1">  1        1 0.51867691E-01 0.14842218E+04</pdfrwt>
<pdfrwt beam="2">  1       -1 0.25131243E+00 0.14842218E+04</pdfrwt>
<totfact> 0.49849845E+00</totfact>
</mgrwt>
</event>
<event>
12    1  0.1518126E-007  0.1102744E+04  0.7818608E-02  0.9202521E-01
          2   -1    0    0  501    0  0.00000000000E+00  0.00000000000E+00  0.94374599782E+03  0.94374599782E+03  0.00000000000E+00 0. -1.
         -2   -1    0    0    0  501 -0.00000000000E+00 -0.00000000000E+00 -0.32213256254E+03  0.32213256254E+03  0.00000000000E+00 0.  1.
         23    2    1    2    0    0  0.88237907408E+02  0.74675837793E+01 -0.55893758804E+02  0.13986312122E+03  0.92714008073E+02 0.  0.
        254    2    1    2    0    0 -0.88237907408E+02 -0.74675837793E+01  0.67750719408E+03  0.11260154391E+04  0.89501568592E+03 0.  0.
        -24    2    4    4    0    0 -0.42839608122E+03 -0.19665971019E+03  0.24087152780E+03  0.53553968270E+03  0.81150568823E+02 0.  0.
         24    2    4    4    0    0  0.34015817381E+03  0.18919212641E+03  0.43663566628E+03  0.59047575645E+03  0.80682525840E+02 0.  0.
         13    1    3    3    0    0  0.50447340108E+02 -0.13018586176E+02 -0.76210821690E+02  0.92317425509E+02  0.00000000000E+00 0.  1.
        -13    1    3    3    0    0  0.37790567300E+02  0.20486169956E+02  0.20317062886E+02  0.47545695711E+02  0.00000000000E+00 0. -1.
          4    1    6    6  502    0  0.33999772399E+03  0.17331061444E+03  0.41882320346E+03  0.56661088690E+03  0.00000000000E+00 0. -1.
          3    1    5    5  503    0 -0.31775697675E+03 -0.16439486036E+03  0.14655491509E+03  0.38661804087E+03  0.00000000000E+00 0. -1.
         -4    1    5    5    0  503 -0.11063910447E+03 -0.32264849837E+02  0.94316612709E+02  0.14892164183E+03  0.00000000000E+00 0.  1.
         -3    1    6    6    0  502  0.16044981894E+00  0.15881511975E+02  0.17812462820E+02  0.23864869547E+02  0.00000000000E+00 0.  1.
<mgrwt>
<rscale>  0 0.11027444E+04</rscale>
<asrwt>0</asrwt>
<pdfrwt beam="1">  1        2 0.14519169E+00 0.11027444E+04</pdfrwt>
<pdfrwt beam="2">  1       -2 0.49558856E-01 0.11027444E+04</pdfrwt>
<totfact> 0.10482869E+02</totfact>
</mgrwt>
</event>
<event>
12    1  0.1518126E-007  0.1623499E+04  0.7818608E-02  0.8806241E-01
         -2   -1    0    0    0  501 -0.00000000000E+00  0.00000000000E+00  0.21989762691E+03  0.21989762691E+03  0.00000000000E+00 0.  1.
          2   -1    0    0  501    0  0.00000000000E+00 -0.00000000000E+00 -0.29965626350E+04  0.29965626350E+04  0.00000000000E+00 0. -1.
         23    2    1    2    0    0  0.63138787790E+02 -0.36484953729E+03 -0.14054858391E+03  0.40634007793E+03  0.90866182427E+02 0.  0.
        254    2    1    2    0    0 -0.63138787790E+02  0.36484953729E+03 -0.26361164241E+04  0.28101201839E+04  0.90031325393E+03 0.  0.
        -24    2    4    4    0    0  0.10221075077E+02 -0.27404480450E+03 -0.12173591144E+04  0.12503618706E+04  0.78971948411E+02 0.  0.
         24    2    4    4    0    0 -0.73359862868E+02  0.63889434179E+03 -0.14187573097E+04  0.15597583134E+04  0.80037758809E+02 0.  0.
         11    1    3    3    0    0  0.17600015208E+02 -0.65265931790E+02 -0.65575176010E+02  0.94178055280E+02  0.00000000000E+00 0. -1.
        -11    1    3    3    0    0  0.45538772583E+02 -0.29958360550E+03 -0.74973407904E+02  0.31216202265E+03  0.00000000000E+00 0.  1.
          4    1    6    6  502    0 -0.75409364996E+02  0.36341957743E+03 -0.86474702309E+03  0.94103548048E+03  0.00000000000E+00 0. -1.
          1    1    5    5  503    0  0.22842769181E+02 -0.21341347447E+03 -0.79404787278E+03  0.82254430121E+03  0.00000000000E+00 0. -1.
         -2    1    5    5    0  503 -0.12621694104E+02 -0.60631330034E+02 -0.42331124165E+03  0.42781756936E+03  0.00000000000E+00 0.  1.
         -3    1    6    6    0  502  0.20495021284E+01  0.27547476436E+03 -0.55401028662E+03  0.61872283289E+03  0.00000000000E+00 0.  1.
<mgrwt>
<rscale>  0 0.16234987E+04</rscale>
<asrwt>0</asrwt>
<pdfrwt beam="1">  1        2 0.46100961E+00 0.16234987E+04</pdfrwt>
<pdfrwt beam="2">  1       -2 0.33830406E-01 0.16234987E+04</pdfrwt>
<totfact> 0.13769877E+01</totfact>
</mgrwt>
</event>
<event>
12    1  0.1518126E-007  0.1307192E+04  0.7818608E-02  0.9023882E-01
          2   -1    0    0  501    0  0.00000000000E+00  0.00000000000E+00  0.15456451673E+04  0.15456451673E+04  0.00000000000E+00 0.  1.
         -2   -1    0    0    0  501 -0.00000000000E+00 -0.00000000000E+00 -0.27638130514E+03  0.27638130514E+03  0.00000000000E+00 0. -1.
         23    2    1    2    0    0  0.43730986622E+02  0.50476724107E+02 -0.12007500859E+03  0.16486858544E+03  0.91122686027E+02 0.  0.
        254    2    1    2    0    0 -0.43730986622E+02 -0.50476724107E+02  0.13893388708E+04  0.16571578870E+04  0.90080489886E+03 0.  0.
        -24    2    4    4    0    0 -0.45579592824E+03 -0.22110459627E+01  0.56613650626E+03  0.73198402970E+03  0.86805870151E+02 0.  0.
         24    2    4    4    0    0  0.41206494162E+03 -0.48265678144E+02  0.82320236450E+03  0.92517385731E+03  0.78469366836E+02 0.  0.
         13    1    3    3    0    0  0.25175455890E+02  0.17393971716E+02 -0.12307211386E+03  0.12681915881E+03  0.00000000000E+00 0. -1.
        -13    1    3    3    0    0  0.18555530732E+02  0.33082752391E+02  0.29971052713E+01  0.38049426625E+02  0.00000000000E+00 0.  1.
          4    1    6    6  502    0  0.35560951833E+03 -0.63061487419E+02  0.74138988719E+03  0.82467802539E+03  0.00000000000E+00 0. -1.
          1    1    5    5  503    0 -0.38392500655E+03  0.24033975521E+02  0.43989743933E+03  0.58436786339E+03  0.00000000000E+00 0. -1.
         -2    1    5    5    0  503 -0.71870921692E+02 -0.26245021484E+02  0.12623906693E+03  0.14761616631E+03  0.00000000000E+00 0.  1.
         -3    1    6    6    0  502  0.56455423288E+02  0.14795809275E+02  0.81812477306E+02  0.10049583192E+03  0.00000000000E+00 0.  1.
<mgrwt>
<rscale>  0 0.13071915E+04</rscale>
<asrwt>0</asrwt>
<pdfrwt beam="1">  1        2 0.23779156E+00 0.13071915E+04</pdfrwt>
<pdfrwt beam="2">  1       -2 0.42520202E-01 0.13071915E+04</pdfrwt>
<totfact> 0.61430560E+01</totfact>
</mgrwt>
</event>
<event>
12    1  0.1518126E-007  0.2046471E+04  0.7818608E-02  0.8585197E-01
          1   -1    0    0  501    0  0.00000000000E+00  0.00000000000E+00  0.20744205636E+04  0.20744205636E+04  0.00000000000E+00 0. -1.
         -1   -1    0    0    0  501 -0.00000000000E+00 -0.00000000000E+00 -0.50472465007E+03  0.50472465007E+03  0.00000000000E+00 0.  1.
         23    2    1    2    0    0  0.86899543278E+02 -0.45510202984E+03  0.13700690922E+04  0.14491669414E+04  0.91247567199E+02 0.  0.
        254    2    1    2    0    0 -0.86899543278E+02  0.45510202984E+03  0.19962682141E+03  0.11299782723E+04  0.10111036742E+04 0.  0.
        -24    2    4    4    0    0  0.44102781623E+03  0.16900226857E+03  0.20865503456E+03  0.52317065458E+03  0.84281130110E+02 0.  0.
         24    2    4    4    0    0 -0.52792735951E+03  0.28609976127E+03 -0.90282131504E+01  0.60680761773E+03  0.87026467159E+02 0.  0.
         11    1    3    3    0    0  0.55508673690E+02 -0.17333735858E+03  0.42103537197E+03  0.45869144006E+03  0.00000000000E+00 0. -1.
        -11    1    3    3    0    0  0.31390869588E+02 -0.28176467126E+03  0.94903372019E+03  0.99047550132E+03  0.00000000000E+00 0.  1.
          2    1    6    6  502    0 -0.12992647611E+03  0.50761113105E+02  0.30372237248E+02  0.14275872160E+03  0.00000000000E+00 0. -1.
          3    1    5    5  503    0  0.12107330557E+02 -0.56860304324E+01  0.17779503601E+02  0.22249250405E+02  0.00000000000E+00 0. -1.
         -4    1    5    5    0  503  0.42892048568E+03  0.17468829900E+03  0.19087553096E+03  0.50092140417E+03  0.00000000000E+00 0.  1.
         -1    1    6    6    0  502 -0.39800088340E+03  0.23533864817E+03 -0.39400450398E+02  0.46404889613E+03  0.00000000000E+00 0.  1.
<mgrwt>
<rscale>  0 0.20464713E+04</rscale>
<asrwt>0</asrwt>
<pdfrwt beam="1">  1        1 0.31914162E+00 0.20464713E+04</pdfrwt>
<pdfrwt beam="2">  1       -1 0.77649948E-01 0.20464713E+04</pdfrwt>
<totfact> 0.40727040E+00</totfact>
</mgrwt>
</event>
<event>
12    1  0.1518126E-007  0.1829685E+04  0.7818608E-02  0.8690671E-01
          2   -1    0    0  501    0  0.00000000000E+00  0.00000000000E+00  0.42497761945E+04  0.42497761945E+04  0.00000000000E+00 0. -1.
         -2   -1    0    0    0  501 -0.00000000000E+00 -0.00000000000E+00 -0.19693671776E+03  0.19693671776E+03  0.00000000000E+00 0.  1.
         23    2    1    2    0    0 -0.48874497217E+03 -0.29100912649E+03  0.59570339578E+03  0.82875104062E+03  0.91694013258E+02 0.  0.
        254    2    1    2    0    0  0.48874497217E+03  0.29100912649E+03  0.34571360810E+04  0.36179618716E+04  0.90238587244E+03 0.  0.
        -24    2    4    4    0    0  0.23727159986E+03  0.11067838370E+03  0.31894218088E+04  0.32011595715E+04  0.80396585635E+02 0.  0.
         24    2    4    4    0    0  0.25147337231E+03  0.18033074279E+03  0.26771427215E+03  0.41680230013E+03  0.79342246650E+02 0.  0.
         13    1    3    3    0    0 -0.27445773263E+03 -0.15771961727E+03  0.26546059629E+03  0.41312450043E+03  0.00000000000E+00 0.  1.
        -13    1    3    3    0    0 -0.21428723954E+03 -0.13328950923E+03  0.33024279949E+03  0.41562654019E+03  0.00000000000E+00 0. -1.
          4    1    6    6  502    0  0.87774190785E+02  0.10831083029E+03  0.99453840738E+02  0.17125014150E+03  0.00000000000E+00 0. -1.
          3    1    5    5  503    0  0.18090731592E+03  0.48603450310E+02  0.19831925565E+04  0.19920196958E+04  0.00000000000E+00 0. -1.
         -4    1    5    5    0  503  0.56364283941E+02  0.62074933391E+02  0.12062292524E+04  0.12091398757E+04  0.00000000000E+00 0.  1.
         -3    1    6    6    0  502  0.16369918153E+03  0.72019912501E+02  0.16826043142E+03  0.24555215863E+03  0.00000000000E+00 0.  1.
<mgrwt>
<rscale>  0 0.18296852E+04</rscale>
<asrwt>0</asrwt>
<pdfrwt beam="1">  1        2 0.65381166E+00 0.18296852E+04</pdfrwt>
<pdfrwt beam="2">  1       -2 0.30297960E-01 0.18296852E+04</pdfrwt>
<totfact> 0.20292922E+00</totfact>
</mgrwt>
</event>
<event>
12    1  0.1518126E-007  0.2129535E+04  0.7818608E-02  0.8548344E-01
          3   -1    0    0  501    0  0.00000000000E+00  0.00000000000E+00  0.16003576460E+04  0.16003576460E+04  0.00000000000E+00 0.  1.
         -3   -1    0    0    0  501 -0.00000000000E+00 -0.00000000000E+00 -0.70842249489E+03  0.70842249489E+03  0.00000000000E+00 0. -1.
         23    2    1    2    0    0 -0.17403165701E+03 -0.60005324387E+03  0.10230802309E+04  0.12024327594E+04  0.93810814938E+02 0.  0.
        254    2    1    2    0    0  0.17403165701E+03  0.60005324387E+03 -0.13114507976E+03  0.11063473815E+04  0.90357876439E+03 0.  0.
        -24    2    4    4    0    0  0.44625029424E+03  0.10959558855E+03  0.12818083978E+03  0.48385540800E+03  0.80840645910E+02 0.  0.
         24    2    4    4    0    0 -0.27221863723E+03  0.49045765532E+03 -0.25932591955E+03  0.62249197348E+03  0.74797235092E+02 0.  0.
         11    1    3    3    0    0 -0.11382116917E+01 -0.18560401160E+02  0.71868147703E+02  0.74234861564E+02  0.00000000000E+00 0. -1.
        -11    1    3    3    0    0 -0.17289344531E+03 -0.58149284271E+03  0.95121208320E+03  0.11281978979E+04  0.00000000000E+00 0.  1.
          4    1    6    6  502    0 -0.48039961710E+02  0.11993900700E+03 -0.90230647152E+02  0.15759052321E+03  0.00000000000E+00 0. -1.
          1    1    5    5  503    0  0.10003502933E+03  0.64192019199E+01 -0.84276717434E+00  0.10024431905E+03  0.00000000000E+00 0. -1.
         -2    1    5    5    0  503  0.34621526491E+03  0.10317638663E+03  0.12902360696E+03  0.38361108895E+03  0.00000000000E+00 0.  1.
         -3    1    6    6    0  502 -0.22417867552E+03  0.37051864832E+03 -0.16909527240E+03  0.46490145027E+03  0.00000000000E+00 0.  1.
<mgrwt>
<rscale>  0 0.21295346E+04</rscale>
<asrwt>0</asrwt>
<pdfrwt beam="1">  1        3 0.24620887E+00 0.21295346E+04</pdfrwt>
<pdfrwt beam="2">  1       -3 0.10898808E+00 0.21295346E+04</pdfrwt>
<totfact> 0.13296738E-01</totfact>
</mgrwt>
</event>
<event>
12    1  0.1518126E-007  0.1432756E+04  0.7818608E-02  0.8930444E-01
         -2   -1    0    0    0  501 -0.00000000000E+00  0.00000000000E+00  0.91269774059E+03  0.91269774059E+03  0.00000000000E+00 0.  1.
          2   -1    0    0  501    0  0.00000000000E+00 -0.00000000000E+00 -0.56228614866E+03  0.56228614866E+03  0.00000000000E+00 0. -1.
         23    2    1    2    0    0 -0.81807833754E+01 -0.65413781108E+02  0.50319204706E+03  0.51502412061E+03  0.87759447382E+02 0.  0.
        254    2    1    2    0    0  0.81807833754E+01  0.65413781108E+02 -0.15278045513E+03  0.95995976864E+03  0.94542847533E+03 0.  0.
        -24    2    4    4    0    0  0.31124179896E+03  0.38035536374E+03 -0.13674985634E+03  0.51529341410E+03  0.72698825731E+02 0.  0.
         24    2    4    4    0    0 -0.30306101558E+03 -0.31494158263E+03 -0.16030598794E+02  0.44466635454E+03  0.80230961122E+02 0.  0.
         13    1    3    3    0    0 -0.76100961911E+01 -0.29874263306E+02  0.44996724703E+03  0.45102207104E+03  0.00000000000E+00 0. -1.
        -13    1    3    3    0    0 -0.57068718436E+00 -0.35539517802E+02  0.53224800037E+02  0.64002049564E+02  0.00000000000E+00 0.  1.
          4    1    6    6  502    0 -0.12976231225E+03 -0.86125426713E+02  0.12347764651E+02  0.15623160403E+03  0.00000000000E+00 0. -1.
          3    1    5    5  503    0  0.25878012989E+03  0.28594472399E+03 -0.82315378179E+02  0.39434421802E+03  0.00000000000E+00 0. -1.
         -4    1    5    5    0  503  0.52461669071E+02  0.94410639751E+02 -0.54434478160E+02  0.12094919608E+03  0.00000000000E+00 0.  1.
         -3    1    6    6    0  502 -0.17329870334E+03 -0.22881615592E+03 -0.28378363446E+02  0.28843475051E+03  0.00000000000E+00 0.  1.
<mgrwt>
<rscale>  0 0.14327558E+04</rscale>
<asrwt>0</asrwt>
<pdfrwt beam="1">  1        2 0.86505561E-01 0.14327558E+04</pdfrwt>
<pdfrwt beam="2">  1       -2 0.14041504E+00 0.14327558E+04</pdfrwt>
<totfact> 0.18545185E+01</totfact>
</mgrwt>
</event>
<event>
12    1  0.1518126E-007  0.2099966E+04  0.7818608E-02  0.8561258E-01
         -2   -1    0    0    0  501 -0.00000000000E+00  0.00000000000E+00  0.37966869173E+03  0.37966869173E+03  0.00000000000E+00 0.  1.
          2   -1    0    0  501    0  0.00000000000E+00 -0.00000000000E+00 -0.29037531015E+04  0.29037531015E+04  0.00000000000E+00 0. -1.
         23    2    1    2    0    0 -0.53717244261E+02  0.21594713632E+03 -0.23314605181E+04  0.23435717083E+04  0.84270377216E+02 0.  0.
        254    2    1    2    0    0  0.53717244261E+02 -0.21594713632E+03 -0.19262389168E+03  0.93985008493E+03  0.89257801367E+03 0.  0.
        -24    2    4    4    0    0 -0.13891929689E+03 -0.43414164265E+03 -0.36769177807E+03  0.59108484609E+03  0.80040706418E+02 0.  0.
         24    2    4    4    0    0  0.19263654116E+03  0.21819450633E+03  0.17506788640E+03  0.34876523884E+03  0.79188050842E+02 0.  0.
         11    1    3    3    0    0 -0.58688513991E+02  0.21410918183E+03 -0.20367818419E+04  0.20488453712E+04  0.00000000000E+00 0. -1.
        -11    1    3    3    0    0  0.49712697296E+01  0.18379544891E+01 -0.29467867623E+03  0.29472633718E+03  0.00000000000E+00 0.  1.
          4    1    6    6  502    0  0.64004238271E+02  0.29924652325E+02  0.63149314542E+02  0.94762140438E+02  0.00000000000E+00 0. -1.
          1    1    5    5  503    0 -0.10586534902E+03 -0.35435533169E+03 -0.33417885270E+03  0.49844827095E+03  0.00000000000E+00 0. -1.
         -2    1    5    5    0  503 -0.33053947877E+02 -0.79786310960E+02 -0.33512925368E+02  0.92636575140E+02  0.00000000000E+00 0.  1.
         -3    1    6    6    0  502  0.12863230289E+03  0.18826985400E+03  0.11191857186E+03  0.25400309840E+03  0.00000000000E+00 0.  1.
<mgrwt>
<rscale>  0 0.20999658E+04</rscale>
<asrwt>0</asrwt>
<pdfrwt beam="1">  1        2 0.44673124E+00 0.20999658E+04</pdfrwt>
<pdfrwt beam="2">  1       -2 0.58410569E-01 0.20999658E+04</pdfrwt>
<totfact> 0.50550154E+00</totfact>
</mgrwt>
</event>
<event>
12    1  0.2007156E-007  0.1732072E+04  0.7818608E-02  0.8743281E-01
         -1   -1    0    0    0  501 -0.00000000000E+00  0.00000000000E+00  0.39597757895E+03  0.39597757895E+03  0.00000000000E+00 0.  1.
          1   -1    0    0  501    0  0.00000000000E+00 -0.00000000000E+00 -0.18940925199E+04  0.18940925199E+04  0.00000000000E+00 0. -1.
         23    2    1    2    0    0  0.30339685808E+03  0.54870809739E+03 -0.57786681868E+03  0.85769485081E+03  0.92629192686E+02 0.  0.
        254    2    1    2    0    0 -0.30339685808E+03 -0.54870809739E+03 -0.92024812230E+03  0.14323752481E+04  0.90095061745E+03 0.  0.
        -24    2    4    4    0    0  0.31365642786E+03 -0.14340932481E+03 -0.32326163532E+03  0.47958005538E+03  0.80946621105E+02 0.  0.
         24    2    4    4    0    0 -0.61705328594E+03 -0.40529877259E+03 -0.59698648698E+03  0.95279519270E+03  0.80024751457E+02 0.  0.
         13    1    3    3    0    0  0.14083678806E+03  0.25021657285E+03 -0.20275251626E+03  0.35149952639E+03  0.00000000000E+00 0.  1.
        -13    1    3    3    0    0  0.16256007002E+03  0.29849152454E+03 -0.37511430242E+03  0.50619532442E+03  0.00000000000E+00 0. -1.
          4    1    6    6  502    0 -0.40797896561E+03 -0.28037023180E+03 -0.35259665615E+03  0.60776533727E+03  0.00000000000E+00 0. -1.
          1    1    5    5  503    0  0.25975155382E+03 -0.10825982029E+03 -0.29954458885E+03  0.41099637360E+03  0.00000000000E+00 0. -1.
         -2    1    5    5    0  503  0.53904874042E+02 -0.35149504518E+02 -0.23717046463E+02  0.68583681779E+02  0.00000000000E+00 0.  1.
         -3    1    6    6    0  502 -0.20907432033E+03 -0.12492854079E+03 -0.24438983083E+03  0.34502985543E+03  0.00000000000E+00 0.  1.
<mgrwt>
<rscale>  0 0.17320718E+04</rscale>
<asrwt>0</asrwt>
<pdfrwt beam="1">  1        1 0.29139885E+00 0.17320718E+04</pdfrwt>
<pdfrwt beam="2">  1       -1 0.60919628E-01 0.17320718E+04</pdfrwt>
<totfact> 0.91206393E+00</totfact>
</mgrwt>
</event>
<event>
12    1  0.1518126E-007  0.1638392E+04  0.7818608E-02  0.8797304E-01
         -1   -1    0    0    0  501 -0.00000000000E+00  0.00000000000E+00  0.74127980825E+03  0.74127980825E+03  0.00000000000E+00 0.  1.
          1   -1    0    0  501    0  0.00000000000E+00 -0.00000000000E+00 -0.90530175952E+03  0.90530175952E+03  0.00000000000E+00 0. -1.
         23    2    1    2    0    0 -0.39949899563E+03 -0.19422962184E+03 -0.39981584101E+03  0.60861235846E+03  0.11502913822E+03 0.  0.
        254    2    1    2    0    0  0.39949899563E+03  0.19422962184E+03  0.23579388974E+03  0.10379692093E+04  0.90799599533E+03 0.  0.
        -24    2    4    4    0    0  0.40549672178E+03  0.39608773318E+03  0.45378230970E+03  0.73054773587E+03  0.80427147393E+02 0.  0.
         24    2    4    4    0    0 -0.59977261585E+01 -0.20185811134E+03 -0.21798841996E+03  0.30742147344E+03  0.78780335478E+02 0.  0.
         11    1    3    3    0    0 -0.16746654417E+03 -0.90760871658E+02 -0.24779602382E+03  0.31254671437E+03  0.00000000000E+00 0. -1.
        -11    1    3    3    0    0 -0.23203245146E+03 -0.10346875018E+03 -0.15201981719E+03  0.29606564409E+03  0.00000000000E+00 0.  1.
          4    1    6    6  502    0 -0.23876907634E+02 -0.19630712663E+03 -0.20340781462E+03  0.28369232230E+03  0.00000000000E+00 0. -1.
          1    1    5    5  503    0  0.40321510774E+03  0.37799009891E+03  0.42832051572E+03  0.69922628824E+03  0.00000000000E+00 0. -1.
         -2    1    5    5    0  503  0.22816140431E+01  0.18097634272E+02  0.25461793982E+02  0.31321447631E+02  0.00000000000E+00 0.  1.
         -3    1    6    6    0  502  0.17879181475E+02 -0.55509847133E+01 -0.14580605350E+02  0.23729151141E+02  0.00000000000E+00 0.  1.
<mgrwt>
<rscale>  0 0.16383918E+04</rscale>
<asrwt>0</asrwt>
<pdfrwt beam="1">  1        1 0.13927719E+00 0.16383918E+04</pdfrwt>
<pdfrwt beam="2">  1       -1 0.11404305E+00 0.16383918E+04</pdfrwt>
<totfact> 0.12070452E+01</totfact>
</mgrwt>
</event>
<event>
12    1  0.1518126E-007  0.1833715E+04  0.7818608E-02  0.8688573E-01
          2   -1    0    0  501    0  0.00000000000E+00  0.00000000000E+00  0.31284260325E+04  0.31284260325E+04  0.00000000000E+00 0. -1.
         -2   -1    0    0    0  501 -0.00000000000E+00 -0.00000000000E+00 -0.26870620631E+03  0.26870620631E+03  0.00000000000E+00 0.  1.
         23    2    1    2    0    0 -0.38693268475E+03 -0.55382460587E+03  0.13624628364E+04  0.15234564880E+04  0.90421754126E+02 0.  0.
        254    2    1    2    0    0  0.38693268475E+03  0.55382460587E+03  0.14972569898E+04  0.18736757509E+04  0.90135660489E+03 0.  0.
        -24    2    4    4    0    0  0.44279187530E+02 -0.93160307198E+02 -0.64374881348E+02  0.14681555942E+03  0.82287264224E+02 0.  0.
         24    2    4    4    0    0  0.34265349722E+03  0.64698491307E+03  0.15616318712E+04  0.17268601914E+04  0.85738689225E+02 0.  0.
         11    1    3    3    0    0 -0.80687399154E+02 -0.66235507406E+02  0.17525404257E+03  0.20398916211E+03  0.00000000000E+00 0.  1.
        -11    1    3    3    0    0 -0.30624528559E+03 -0.48758909846E+03  0.11872087938E+04  0.13194673258E+04  0.00000000000E+00 0. -1.
          2    1    6    6  502    0  0.28771764826E+03  0.50040771455E+03  0.12920763519E+04  0.14151503895E+04  0.00000000000E+00 0. -1.
          1    1    5    5  503    0  0.34441092062E+02 -0.78125424147E+02 -0.84300824341E+02  0.11998499783E+03  0.00000000000E+00 0. -1.
         -2    1    5    5    0  503  0.98380954679E+01 -0.15034883050E+02  0.19925942993E+02  0.26830561585E+02  0.00000000000E+00 0.  1.
         -1    1    6    6    0  502  0.54935848957E+02  0.14657719852E+03  0.26955551929E+03  0.31170980190E+03  0.00000000000E+00 0.  1.
<mgrwt>
<rscale>  0 0.18337148E+04</rscale>
<asrwt>0</asrwt>
<pdfrwt beam="1">  1        2 0.48129629E+00 0.18337148E+04</pdfrwt>
<pdfrwt beam="2">  1       -2 0.41339419E-01 0.18337148E+04</pdfrwt>
<totfact> 0.75648497E+00</totfact>
</mgrwt>
</event>
<event>
12    1  0.1518126E-007  0.1696672E+04  0.7818608E-02  0.8763265E-01
          2   -1    0    0  501    0  0.00000000000E+00  0.00000000000E+00  0.17970699607E+04  0.17970699607E+04  0.00000000000E+00 0. -1.
         -2   -1    0    0    0  501 -0.00000000000E+00 -0.00000000000E+00 -0.40047081607E+03  0.40047081607E+03  0.00000000000E+00 0.  1.
         23    2    1    2    0    0 -0.48447445910E+03  0.15006757411E+03  0.89145189693E+03  0.10299090375E+04  0.93756934537E+02 0.  0.
        254    2    1    2    0    0  0.48447445910E+03 -0.15006757411E+03  0.50514724768E+03  0.11676317392E+04  0.92247187395E+03 0.  0.
        -24    2    4    4    0    0  0.41187383381E+03  0.34355298167E+03  0.32014489488E+03  0.62948142951E+03  0.78009039146E+02 0.  0.
         24    2    4    4    0    0  0.72600625284E+02 -0.49362055578E+03  0.18500235280E+03  0.53815030969E+03  0.80298078422E+02 0.  0.
         11    1    3    3    0    0 -0.28644578996E+03  0.41289663260E+02  0.52146090229E+03  0.59638703834E+03  0.00000000000E+00 0.  1.
        -11    1    3    3    0    0 -0.19802866913E+03  0.10877791085E+03  0.36999099463E+03  0.43352199921E+03  0.00000000000E+00 0. -1.
          2    1    6    6  502    0  0.83624784210E+02 -0.45855998828E+03  0.18473776698E+03  0.50139645984E+03  0.00000000000E+00 0. -1.
          1    1    5    5  503    0  0.74247818769E+02  0.85262949859E+02  0.38000574205E+02  0.11927511413E+03  0.00000000000E+00 0. -1.
         -2    1    5    5    0  503  0.33762601504E+03  0.25829003181E+03  0.28214432067E+03  0.51020631538E+03  0.00000000000E+00 0.  1.
         -1    1    6    6    0  502 -0.11024158926E+02 -0.35060567499E+02  0.26458581386E+00  0.36753849854E+02  0.00000000000E+00 0.  1.
<mgrwt>
<rscale>  0 0.16966721E+04</rscale>
<asrwt>0</asrwt>
<pdfrwt beam="1">  1        2 0.27647230E+00 0.16966721E+04</pdfrwt>
<pdfrwt beam="2">  1       -2 0.61610896E-01 0.16966721E+04</pdfrwt>
<totfact> 0.20181203E+01</totfact>
</mgrwt>
</event>
<event>
12    1  0.1518126E-007  0.1901980E+04  0.7818608E-02  0.8653871E-01
         -2   -1    0    0    0  501 -0.00000000000E+00  0.00000000000E+00  0.29434170059E+03  0.29434170059E+03  0.00000000000E+00 0.  1.
          2   -1    0    0  501    0  0.00000000000E+00 -0.00000000000E+00 -0.30725577385E+04  0.30725577385E+04  0.00000000000E+00 0. -1.
         23    2    1    2    0    0  0.31497257453E+03  0.55804612972E+03 -0.44727247401E+03  0.78684227026E+03  0.91896064464E+02 0.  0.
        254    2    1    2    0    0 -0.31497257453E+03 -0.55804612972E+03 -0.23309435639E+04  0.25800571689E+04  0.90153973333E+03 0.  0.
        -24    2    4    4    0    0 -0.42506724297E+03 -0.44371117699E+03 -0.23208744050E+04  0.24021627761E+04  0.79788655681E+02 0.  0.
         24    2    4    4    0    0  0.11009466844E+03 -0.11433495273E+03 -0.10069158915E+02  0.17789439273E+03  0.79697613304E+02 0.  0.
         13    1    3    3    0    0 -0.48313201244E+01  0.12413966649E+02 -0.22352416885E+01  0.13507202801E+02  0.00000000000E+00 0. -1.
        -13    1    3    3    0    0  0.31980389465E+03  0.54563216307E+03 -0.44503723232E+03  0.77333506746E+03  0.00000000000E+00 0.  1.
          2    1    6    6  502    0 -0.12527489824E+02 -0.14039706659E+02  0.24994023678E+01  0.18981527245E+02  0.00000000000E+00 0. -1.
          3    1    5    5  503    0 -0.24054696788E+03 -0.28944800783E+03 -0.15240998951E+04  0.15698800857E+04  0.00000000000E+00 0. -1.
         -4    1    5    5    0  503 -0.18452027509E+03 -0.15426316916E+03 -0.79677450988E+03  0.83228269048E+03  0.00000000000E+00 0.  1.
         -1    1    6    6    0  502  0.12262215826E+03 -0.10029524608E+03 -0.12568561283E+02  0.15891286548E+03  0.00000000000E+00 0.  1.
<mgrwt>
<rscale>  0 0.19019799E+04</rscale>
<asrwt>0</asrwt>
<pdfrwt beam="1">  1        2 0.47270118E+00 0.19019799E+04</pdfrwt>
<pdfrwt beam="2">  1       -2 0.45283340E-01 0.19019799E+04</pdfrwt>
<totfact> 0.68087147E+00</totfact>
</mgrwt>
</event>
<event>
12    1  0.1518126E-007  0.1281017E+04  0.7818608E-02  0.9044755E-01
         -1   -1    0    0    0  501 -0.00000000000E+00  0.00000000000E+00  0.50097306711E+03  0.50097306711E+03  0.00000000000E+00 0.  1.
          1   -1    0    0  501    0  0.00000000000E+00 -0.00000000000E+00 -0.81890912687E+03  0.81890912687E+03  0.00000000000E+00 0. -1.
         23    2    1    2    0    0  0.21461683730E+03 -0.90032205045E+02  0.14003444463E+03  0.28537514982E+03  0.87539394849E+02 0.  0.
        254    2    1    2    0    0 -0.21461683730E+03  0.90032205045E+02 -0.45797050439E+03  0.10345070442E+04  0.89794301419E+03 0.  0.
        -24    2    4    4    0    0 -0.32116046376E+03  0.35688100045E+03 -0.53863823586E+03  0.72594975500E+03  0.79773464838E+02 0.  0.
         24    2    4    4    0    0  0.10654362645E+03 -0.26684879541E+03  0.80667731464E+02  0.30855728916E+03  0.78361303242E+02 0.  0.
         13    1    3    3    0    0  0.94417526441E+02 -0.28254764202E+02  0.10854048990E+03  0.14660845456E+03  0.00000000000E+00 0.  1.
        -13    1    3    3    0    0  0.12019931086E+03 -0.61777440843E+02  0.31493954729E+02  0.13876669526E+03  0.00000000000E+00 0. -1.
          2    1    6    6  502    0  0.30345295297E+02 -0.17180492432E+03  0.62869646198E+02  0.18544638412E+03  0.00000000000E+00 0. -1.
          3    1    5    5  503    0 -0.27135676287E+03  0.32979032780E+03 -0.44728452393E+03  0.61843318024E+03  0.00000000000E+00 0. -1.
         -2    1    5    5    0  503 -0.49803700881E+02  0.27090672652E+02 -0.91353711923E+02  0.10751657476E+03  0.00000000000E+00 0.  1.
         -1    1    6    6    0  502  0.76198331157E+02 -0.95043871086E+02  0.17798085266E+02  0.12311090505E+03  0.00000000000E+00 0.  1.
<mgrwt>
<rscale>  0 0.12810174E+04</rscale>
<asrwt>0</asrwt>
<pdfrwt beam="1">  1        1 0.12598602E+00 0.12810174E+04</pdfrwt>
<pdfrwt beam="2">  1       -1 0.77072780E-01 0.12810174E+04</pdfrwt>
<totfact> 0.35378074E+01</totfact>
</mgrwt>
</event>
<event>
12    1  0.1518126E-007  0.1408288E+04  0.7818608E-02  0.8947841E-01
         -1   -1    0    0    0  501 -0.00000000000E+00  0.00000000000E+00  0.64827555295E+03  0.64827555295E+03  0.00000000000E+00 0.  1.
          1   -1    0    0  501    0  0.00000000000E+00 -0.00000000000E+00 -0.76482706389E+03  0.76482706389E+03  0.00000000000E+00 0. -1.
         23    2    1    2    0    0 -0.92098883407E+02 -0.13307042425E+03  0.34319725862E+03  0.38970712260E+03  0.88866984571E+02 0.  0.
        254    2    1    2    0    0  0.92098883407E+02  0.13307042425E+03 -0.45974876956E+03  0.10233954942E+04  0.89987747187E+03 0.  0.
        -24    2    4    4    0    0  0.79258197305E+00 -0.37868943744E+03 -0.16961723484E+03  0.42248782244E+03  0.79496135423E+02 0.  0.
         24    2    4    4    0    0  0.91306301434E+02  0.51175986169E+03 -0.29013153472E+03  0.60090767179E+03  0.81723471899E+02 0.  0.
         11    1    3    3    0    0 -0.23148733679E+00 -0.16797922191E+02  0.12392098368E+03  0.12505452399E+03  0.00000000000E+00 0. -1.
        -11    1    3    3    0    0 -0.91867396071E+02 -0.11627250206E+03  0.21927627494E+03  0.26465259861E+03  0.00000000000E+00 0.  1.
          4    1    6    6  502    0  0.32802116901E+02  0.51353147024E+02 -0.21239499203E+02  0.64530929862E+02  0.00000000000E+00 0. -1.
          3    1    5    5  503    0 -0.27178747631E+02 -0.29856104964E+03 -0.15067279504E+03  0.33552894935E+03  0.00000000000E+00 0. -1.
         -4    1    5    5    0  503  0.27971329604E+02 -0.80128387800E+02 -0.18944439790E+02  0.86958873096E+02  0.00000000000E+00 0.  1.
         -3    1    6    6    0  502  0.58504184533E+02  0.46040671466E+03 -0.26889203552E+03  0.53637674193E+03  0.00000000000E+00 0.  1.
<mgrwt>
<rscale>  0 0.14082879E+04</rscale>
<asrwt>0</asrwt>
<pdfrwt beam="1">  1        1 0.11766570E+00 0.14082879E+04</pdfrwt>
<pdfrwt beam="2">  1       -1 0.99734700E-01 0.14082879E+04</pdfrwt>
<totfact> 0.22202946E+01</totfact>
</mgrwt>
</event>
<event>
12    1  0.1518126E-007  0.2469742E+04  0.7818608E-02  0.8413845E-01
          2   -1    0    0  501    0  0.00000000000E+00  0.00000000000E+00  0.14032366283E+04  0.14032366283E+04  0.00000000000E+00 0. -1.
         -2   -1    0    0    0  501 -0.00000000000E+00 -0.00000000000E+00 -0.10867064586E+04  0.10867064586E+04  0.00000000000E+00 0.  1.
         23    2    1    2    0    0  0.89123418339E+03  0.55532792573E+03  0.11957323520E+03  0.10604586385E+04  0.87105055372E+02 0.  0.
        254    2    1    2    0    0 -0.89123418339E+03 -0.55532792573E+03  0.19695693449E+03  0.14294844484E+04  0.94970852337E+03 0.  0.
        -24    2    4    4    0    0 -0.55140933234E+03  0.62529628065E+02 -0.22464028663E+03  0.60393666828E+03  0.79460900696E+02 0.  0.
         24    2    4    4    0    0 -0.33982485105E+03 -0.61785755380E+03  0.42159722113E+03  0.82554778010E+03  0.80969341016E+02 0.  0.
         11    1    3    3    0    0  0.41865771837E+03  0.28053439806E+03  0.97816079770E+02  0.51336324285E+03  0.00000000000E+00 0.  1.
        -11    1    3    3    0    0  0.47257646502E+03  0.27479352768E+03  0.21757155426E+02  0.54709539566E+03  0.00000000000E+00 0. -1.
          2    1    6    6  502    0 -0.10583621000E+02 -0.49452404996E+02  0.13943268553E+02  0.52459204448E+02  0.00000000000E+00 0. -1.
          3    1    5    5  503    0 -0.36298429996E+03  0.81858219808E+01 -0.12517246244E+03  0.38404785516E+03  0.00000000000E+00 0. -1.
         -4    1    5    5    0  503 -0.18842503238E+03  0.54343806084E+02 -0.99467824189E+02  0.21988881312E+03  0.00000000000E+00 0.  1.
         -1    1    6    6    0  502 -0.32924123005E+03 -0.56840514880E+03  0.40765395257E+03  0.77308857565E+03  0.00000000000E+00 0.  1.
<mgrwt>
<rscale>  0 0.24697419E+04</rscale>
<asrwt>0</asrwt>
<pdfrwt beam="1">  1        2 0.21588256E+00 0.24697419E+04</pdfrwt>
<pdfrwt beam="2">  1       -2 0.16718561E+00 0.24697419E+04</pdfrwt>
<totfact> 0.28765483E+00</totfact>
</mgrwt>
</event>
<event>
12    1  0.1518126E-007  0.1455156E+04  0.7818608E-02  0.8914834E-01
         -1   -1    0    0    0  501 -0.00000000000E+00  0.00000000000E+00  0.53290951084E+03  0.53290951084E+03  0.00000000000E+00 0. -1.
          1   -1    0    0  501    0  0.00000000000E+00 -0.00000000000E+00 -0.99335782897E+03  0.99335782897E+03  0.00000000000E+00 0.  1.
         23    2    1    2    0    0 -0.23854156888E+03 -0.15594303870E+03  0.20332007568E+03  0.36644314535E+03  0.10826455649E+03 0.  0.
        254    2    1    2    0    0  0.23854156888E+03  0.15594303870E+03 -0.66376839381E+03  0.11598241945E+04  0.90740474433E+03 0.  0.
        -24    2    4    4    0    0  0.52445102994E+03  0.30444127820E+03 -0.36072841428E+03  0.71016949735E+03  0.80513051249E+02 0.  0.
         24    2    4    4    0    0 -0.28590946106E+03 -0.14849823951E+03 -0.30303997953E+03  0.44965469711E+03  0.80994878683E+02 0.  0.
         11    1    3    3    0    0 -0.16649196851E+03 -0.11596355413E+03  0.19858790549E+03  0.28390892496E+03  0.00000000000E+00 0. -1.
        -11    1    3    3    0    0 -0.72049600376E+02 -0.39979484572E+02  0.47321701953E+01  0.82534220392E+02  0.00000000000E+00 0.  1.
          4    1    6    6  502    0 -0.76186041762E+01 -0.12669636555E+02 -0.42379987867E+02  0.44884587463E+02  0.00000000000E+00 0. -1.
          1    1    5    5  503    0  0.10673008812E+03  0.44957583829E+02 -0.37644134326E+02  0.12177675026E+03  0.00000000000E+00 0. -1.
         -2    1    5    5    0  503  0.41772094182E+03  0.25948369437E+03 -0.32308427995E+03  0.58839274709E+03  0.00000000000E+00 0.  1.
         -3    1    6    6    0  502 -0.27829085688E+03 -0.13582860295E+03 -0.26065999167E+03  0.40477010964E+03  0.00000000000E+00 0.  1.
<mgrwt>
<rscale>  0 0.14551561E+04</rscale>
<asrwt>0</asrwt>
<pdfrwt beam="1">  1        1 0.15282428E+00 0.14551561E+04</pdfrwt>
<pdfrwt beam="2">  1       -1 0.81986079E-01 0.14551561E+04</pdfrwt>
<totfact> 0.22010249E+01</totfact>
</mgrwt>
</event>
<event>
12    1  0.1518126E-007  0.1489696E+04  0.7818608E-02  0.8891334E-01
         -1   -1    0    0    0  501 -0.00000000000E+00  0.00000000000E+00  0.64677498308E+03  0.64677498308E+03  0.00000000000E+00 0.  1.
          1   -1    0    0  501    0  0.00000000000E+00 -0.00000000000E+00 -0.85779177531E+03  0.85779177531E+03  0.00000000000E+00 0. -1.
         23    2    1    2    0    0 -0.13719306252E+03 -0.30153371791E+03 -0.42217016228E+03  0.54547385527E+03  0.97824135145E+02 0.  0.
        254    2    1    2    0    0  0.13719306252E+03  0.30153371791E+03  0.21115337005E+03  0.95909290313E+03  0.87494510211E+03 0.  0.
        -24    2    4    4    0    0 -0.24678503575E+03  0.91442869027E+02 -0.20952378205E+03  0.34686414061E+03  0.84556872167E+02 0.  0.
         24    2    4    4    0    0  0.38397809827E+03  0.21009084888E+03  0.42067715210E+03  0.61222876252E+03  0.79230338991E+02 0.  0.
         11    1    3    3    0    0 -0.15039902560E+03 -0.27068261769E+03 -0.39720503903E+03  0.50364748530E+03  0.00000000000E+00 0. -1.
        -11    1    3    3    0    0  0.13205963073E+02 -0.30851100218E+02 -0.24965123252E+02  0.41826369963E+02  0.00000000000E+00 0.  1.
          2    1    6    6  502    0  0.15447649229E+03  0.12336726854E+03  0.16073199348E+03  0.25478862483E+03  0.00000000000E+00 0. -1.
          3    1    5    5  503    0 -0.47978434449E+02  0.57153941959E+02 -0.59999940807E+02  0.95752264466E+02  0.00000000000E+00 0. -1.
         -4    1    5    5    0  503 -0.19880660130E+03  0.34288927068E+02 -0.14952384124E+03  0.25111187614E+03  0.00000000000E+00 0.  1.
         -1    1    6    6    0  502  0.22950160599E+03  0.86723580344E+02  0.25994515863E+03  0.35744013769E+03  0.00000000000E+00 0.  1.
<mgrwt>
<rscale>  0 0.14896956E+04</rscale>
<asrwt>0</asrwt>
<pdfrwt beam="1">  1        1 0.13196797E+00 0.14896956E+04</pdfrwt>
<pdfrwt beam="2">  1       -1 0.99503843E-01 0.14896956E+04</pdfrwt>
<totfact> 0.18418333E+01</totfact>
</mgrwt>
</event>
<event>
12    1  0.1518126E-007  0.1366055E+04  0.7818608E-02  0.8978763E-01
         -2   -1    0    0    0  501 -0.00000000000E+00  0.00000000000E+00  0.55477671253E+03  0.55477671253E+03  0.00000000000E+00 0. -1.
          2   -1    0    0  501    0  0.00000000000E+00 -0.00000000000E+00 -0.84092692037E+03  0.84092692037E+03  0.00000000000E+00 0.  1.
         23    2    1    2    0    0 -0.11141497007E+03  0.29479034844E+03 -0.29508208142E+03  0.44075024601E+03  0.88728233912E+02 0.  0.
        254    2    1    2    0    0  0.11141497007E+03 -0.29479034844E+03  0.89318735889E+01  0.95495338689E+03  0.90141086508E+03 0.  0.
        -24    2    4    4    0    0  0.82384726157E+02  0.30675148143E+03  0.96190420326E+02  0.34122373942E+03  0.79355711349E+02 0.  0.
         24    2    4    4    0    0  0.29030243909E+02 -0.60154182987E+03 -0.87258546738E+02  0.61372964747E+03  0.79716360052E+02 0.  0.
         11    1    3    3    0    0 -0.76460557561E+02  0.24057805882E+03 -0.27476583516E+03  0.37312234377E+03  0.00000000000E+00 0.  1.
        -11    1    3    3    0    0 -0.34954412505E+02  0.54212289620E+02 -0.20316246262E+02  0.67627902241E+02  0.00000000000E+00 0. -1.
          4    1    6    6  502    0  0.12145780533E+02 -0.54782876457E+02 -0.30249828926E+02  0.63747436715E+02  0.00000000000E+00 0. -1.
          3    1    5    5  503    0  0.54049523675E+01  0.13007843858E+02  0.25974985867E+02  0.29548560079E+02  0.00000000000E+00 0. -1.
         -4    1    5    5    0  503  0.76979773789E+02  0.29374363757E+03  0.70215434459E+02  0.31167517935E+03  0.00000000000E+00 0.  1.
         -3    1    6    6    0  502  0.16884463376E+02 -0.54675895341E+03 -0.57008717812E+02  0.54998221075E+03  0.00000000000E+00 0.  1.
<mgrwt>
<rscale>  0 0.13660552E+04</rscale>
<asrwt>0</asrwt>
<pdfrwt beam="1">  1        2 0.12937337E+00 0.13660552E+04</pdfrwt>
<pdfrwt beam="2">  1       -2 0.85350264E-01 0.13660552E+04</pdfrwt>
<totfact> 0.37522071E+01</totfact>
</mgrwt>
</event>
<event>
12    1  0.1518126E-007  0.1679676E+04  0.7818608E-02  0.8773042E-01
          4   -1    0    0  501    0  0.00000000000E+00  0.00000000000E+00  0.25636753697E+04  0.25636753697E+04  0.00000000000E+00 0. -1.
         -4   -1    0    0    0  501 -0.00000000000E+00 -0.00000000000E+00 -0.27512363390E+03  0.27512363390E+03  0.00000000000E+00 0.  1.
         23    2    1    2    0    0  0.13938137089E+03  0.10567599072E+03  0.17746801577E+04  0.17854511216E+04  0.88042398568E+02 0.  0.
        254    2    1    2    0    0 -0.13938137089E+03 -0.10567599072E+03  0.51387157812E+03  0.10533478820E+04  0.90270880143E+03 0.  0.
        -24    2    4    4    0    0  0.36441590665E+02 -0.46466835897E+03  0.12324355122E+03  0.48876705389E+03  0.80371553992E+02 0.  0.
         24    2    4    4    0    0 -0.17582296156E+03  0.35899236825E+03  0.39062802690E+03  0.56458082812E+03  0.79824944790E+02 0.  0.
         11    1    3    3    0    0  0.15052265039E+03  0.92988393051E+02  0.16785913330E+04  0.16878900358E+04  0.00000000000E+00 0. -1.
        -11    1    3    3    0    0 -0.11141279497E+02  0.12687597671E+02  0.96088824661E+02  0.97561085830E+02  0.00000000000E+00 0.  1.
          4    1    6    6  502    0 -0.82561092572E+02  0.13913476958E+03  0.10780755127E+03  0.19441524175E+03  0.00000000000E+00 0. -1.
          3    1    5    5  503    0 -0.48510707267E+01 -0.44173379805E+02 -0.10357679029E+02  0.45630054630E+02  0.00000000000E+00 0. -1.
         -4    1    5    5    0  503  0.41292661392E+02 -0.42049497917E+03  0.13360123025E+03  0.44313699926E+03  0.00000000000E+00 0.  1.
         -3    1    6    6    0  502 -0.93261868984E+02  0.21985759867E+03  0.28282047564E+03  0.37016558638E+03  0.00000000000E+00 0.  1.
<mgrwt>
<rscale>  0 0.16796758E+04</rscale>
<asrwt>0</asrwt>
<pdfrwt beam="1">  1        4 0.39441158E+00 0.16796758E+04</pdfrwt>
<pdfrwt beam="2">  1       -4 0.42326715E-01 0.16796758E+04</pdfrwt>
<totfact> 0.78169342E-02</totfact>
</mgrwt>
</event>
<event>
12    1  0.1626889E-007  0.1695618E+04  0.7818608E-02  0.8763867E-01
         -2   -1    0    0    0  501 -0.00000000000E+00  0.00000000000E+00  0.23729588831E+03  0.23729588831E+03  0.00000000000E+00 0.  1.
          2   -1    0    0  501    0  0.00000000000E+00 -0.00000000000E+00 -0.30290467328E+04  0.30290467328E+04  0.00000000000E+00 0. -1.
         23    2    1    2    0    0 -0.22549556934E+03  0.44761079573E+02 -0.20889200543E+04  0.21032293523E+04  0.84468391654E+02 0.  0.
        254    2    1    2    0    0  0.22549556934E+03 -0.44761079573E+02 -0.70283079014E+03  0.11631132687E+04  0.89778034637E+03 0.  0.
        -24    2    4    4    0    0  0.34102065423E+03 -0.11827397010E+03 -0.86247347558E+03  0.93817686499E+03  0.77662830925E+02 0.  0.
         24    2    4    4    0    0 -0.11552508490E+03  0.73512890524E+02  0.15964268544E+03  0.22493640375E+03  0.79752168656E+02 0.  0.
         11    1    3    3    0    0 -0.23287401256E+02 -0.46265387013E+01 -0.77180230634E+02  0.80749587728E+02  0.00000000000E+00 0.  1.
        -11    1    3    3    0    0 -0.20220816808E+03  0.49387618274E+02 -0.20117398237E+04  0.20224797646E+04  0.00000000000E+00 0. -1.
          2    1    6    6  502    0 -0.87372916402E+02  0.46259159013E+02  0.15716662232E+03  0.18567520967E+03  0.00000000000E+00 0. -1.
          1    1    5    5  503    0  0.28774425998E+03 -0.10368037275E+03 -0.78935105577E+03  0.84653497747E+03  0.00000000000E+00 0. -1.
         -2    1    5    5    0  503  0.53276394258E+02 -0.14593597352E+02 -0.73122419815E+02  0.91641887521E+02  0.00000000000E+00 0.  1.
         -1    1    6    6    0  502 -0.28152168494E+02  0.27253731511E+02  0.24760631148E+01  0.39261194082E+02  0.00000000000E+00 0.  1.
<mgrwt>
<rscale>  0 0.16956183E+04</rscale>
<asrwt>0</asrwt>
<pdfrwt beam="1">  1        2 0.46600718E+00 0.16956183E+04</pdfrwt>
<pdfrwt beam="2">  1       -2 0.36507060E-01 0.16956183E+04</pdfrwt>
<totfact> 0.11283687E+01</totfact>
</mgrwt>
</event>
<event>
12    1  0.1518126E-007  0.1151745E+04  0.7818608E-02  0.9156175E-01
          2   -1    0    0  501    0  0.00000000000E+00  0.00000000000E+00  0.44384026904E+03  0.44384026904E+03  0.00000000000E+00 0. -1.
         -2   -1    0    0    0  501 -0.00000000000E+00 -0.00000000000E+00 -0.74718112120E+03  0.74718112120E+03  0.00000000000E+00 0.  1.
         23    2    1    2    0    0  0.19604854511E+03 -0.22324604285E+02 -0.88936479480E+01  0.21892938006E+03  0.94432814642E+02 0.  0.
        254    2    1    2    0    0 -0.19604854511E+03  0.22324604285E+02 -0.29444720421E+03  0.97209201019E+03  0.90516865843E+03 0.  0.
        -24    2    4    4    0    0 -0.31901984374E+03  0.81937039214E+02 -0.56451297919E+03  0.65816372886E+03  0.77570943118E+02 0.  0.
         24    2    4    4    0    0  0.12297129863E+03 -0.59612434929E+02  0.27006577498E+03  0.31392828133E+03  0.83305824030E+02 0.  0.
         13    1    3    3    0    0  0.85157132863E+02 -0.35912509624E+02  0.35097050284E+02  0.98859741875E+02  0.00000000000E+00 0. -1.
        -13    1    3    3    0    0  0.11089141225E+03  0.13587905339E+02 -0.43990698232E+02  0.12006963818E+03  0.00000000000E+00 0.  1.
          4    1    6    6  502    0  0.69319773842E+02 -0.50531702971E+02  0.23246162236E+03  0.24778436174E+03  0.00000000000E+00 0. -1.
          3    1    5    5  503    0 -0.11892574863E+03 -0.56413492782E+01 -0.22259035241E+03  0.25243142335E+03  0.00000000000E+00 0. -1.
         -4    1    5    5    0  503 -0.20009409510E+03  0.87578388492E+02 -0.34192262678E+03  0.40573230551E+03  0.00000000000E+00 0.  1.
         -3    1    6    6    0  502  0.53651524784E+02 -0.90807319576E+01  0.37604152620E+02  0.66143919590E+02  0.00000000000E+00 0.  1.
<mgrwt>
<rscale>  0 0.11517449E+04</rscale>
<asrwt>0</asrwt>
<pdfrwt beam="1">  1        2 0.68283118E-01 0.11517449E+04</pdfrwt>
<pdfrwt beam="2">  1       -2 0.11495094E+00 0.11517449E+04</pdfrwt>
<totfact> 0.41269313E+01</totfact>
</mgrwt>
</event>
<event>
12    1  0.1518126E-007  0.1227088E+04  0.7818608E-02  0.9089472E-01
         -2   -1    0    0    0  501 -0.00000000000E+00  0.00000000000E+00  0.41721155894E+03  0.41721155894E+03  0.00000000000E+00 0.  1.
          2   -1    0    0  501    0  0.00000000000E+00 -0.00000000000E+00 -0.90226678581E+03  0.90226678581E+03  0.00000000000E+00 0. -1.
         23    2    1    2    0    0 -0.79954188030E+02  0.58504343551E+02  0.14908460430E+03  0.19923350524E+03  0.87477654143E+02 0.  0.
        254    2    1    2    0    0  0.79954188030E+02 -0.58504343551E+02 -0.63413983117E+03  0.11202448395E+04  0.91815017538E+03 0.  0.
        -24    2    4    4    0    0  0.28997610378E+03  0.21044101055E+03  0.30773196184E+02  0.36868902342E+03  0.81320641296E+02 0.  0.
         24    2    4    4    0    0 -0.21002191575E+03 -0.26894535410E+03 -0.66491302736E+03  0.75155581609E+03  0.79284312171E+02 0.  0.
         11    1    3    3    0    0  0.17027862150E+01 -0.59036894252E+01 -0.84607213901E+01  0.10456425592E+02  0.00000000000E+00 0. -1.
        -11    1    3    3    0    0 -0.81656974245E+02  0.64408032977E+02  0.15754532569E+03  0.18877707965E+03  0.00000000000E+00 0.  1.
          4    1    6    6  502    0 -0.46423435927E+02 -0.19633977570E+02 -0.72142652002E+02  0.88006765174E+02  0.00000000000E+00 0. -1.
          1    1    5    5  503    0  0.22804342081E+03  0.15580767818E+03 -0.10451112623E+02  0.27638570895E+03  0.00000000000E+00 0. -1.
         -2    1    5    5    0  503  0.61932682964E+02  0.54633332373E+02  0.41224308807E+02  0.92303314469E+02  0.00000000000E+00 0.  1.
         -3    1    6    6    0  502 -0.16359847982E+03 -0.24931137653E+03 -0.59277037535E+03  0.66354905091E+03  0.00000000000E+00 0.  1.
<mgrwt>
<rscale>  0 0.12270878E+04</rscale>
<asrwt>0</asrwt>
<pdfrwt beam="1">  1        2 0.13881027E+00 0.12270878E+04</pdfrwt>
<pdfrwt beam="2">  1       -2 0.64186394E-01 0.12270878E+04</pdfrwt>
<totfact> 0.64573312E+01</totfact>
</mgrwt>
</event>
<event>
12    1  0.1518126E-007  0.1853152E+04  0.7818608E-02  0.8678534E-01
          2   -1    0    0  501    0  0.00000000000E+00  0.00000000000E+00  0.14656766041E+04  0.14656766041E+04  0.00000000000E+00 0. -1.
         -2   -1    0    0    0  501 -0.00000000000E+00 -0.00000000000E+00 -0.58576542725E+03  0.58576542725E+03  0.00000000000E+00 0.  1.
         23    2    1    2    0    0 -0.91877024157E+02  0.72425301067E+03  0.25782542469E+03  0.77956236228E+03  0.90882979887E+02 0.  0.
        254    2    1    2    0    0  0.91877024157E+02 -0.72425301067E+03  0.62208575218E+03  0.12718796691E+04  0.83528641707E+03 0.  0.
        -24    2    4    4    0    0  0.31847100778E+03 -0.39676178521E+03 -0.15888287303E+02  0.51576927498E+03  0.83197417886E+02 0.  0.
         24    2    4    4    0    0 -0.22659398362E+03 -0.32749122546E+03  0.63797403948E+03  0.75611039410E+03  0.78081475725E+02 0.  0.
         11    1    3    3    0    0 -0.69758585523E+02  0.59483260272E+03  0.24692154450E+03  0.64781350298E+03  0.00000000000E+00 0. -1.
        -11    1    3    3    0    0 -0.22118438634E+02  0.12942040796E+03  0.10903880187E+02  0.13174885930E+03  0.00000000000E+00 0.  1.
          4    1    6    6  502    0 -0.40764757109E+02 -0.19506817575E+02  0.88477963699E+02  0.99351051401E+02  0.00000000000E+00 0. -1.
          1    1    5    5  503    0  0.14881970555E+03 -0.17515888830E+03 -0.48123134339E+02  0.23482712145E+03  0.00000000000E+00 0. -1.
         -2    1    5    5    0  503  0.16965130223E+03 -0.22160289691E+03  0.32234847035E+02  0.28094215354E+03  0.00000000000E+00 0.  1.
         -3    1    6    6    0  502 -0.18582922652E+03 -0.30798440789E+03  0.54949607578E+03  0.65675934270E+03  0.00000000000E+00 0.  1.
<mgrwt>
<rscale>  0 0.18531516E+04</rscale>
<asrwt>0</asrwt>
<pdfrwt beam="1">  1        2 0.22548871E+00 0.18531516E+04</pdfrwt>
<pdfrwt beam="2">  1       -2 0.90117758E-01 0.18531516E+04</pdfrwt>
<totfact> 0.13149443E+01</totfact>
</mgrwt>
</event>
<event>
12    1  0.1518126E-007  0.3915861E+04  0.7818608E-02  0.8021739E-01
         -2   -1    0    0    0  501 -0.00000000000E+00  0.00000000000E+00  0.13649307006E+04  0.13649307006E+04  0.00000000000E+00 0.  1.
          2   -1    0    0  501    0  0.00000000000E+00 -0.00000000000E+00 -0.28085612397E+04  0.28085612397E+04  0.00000000000E+00 0. -1.
         23    2    1    2    0    0 -0.71951497226E+03  0.13221242889E+04 -0.18376359019E+04  0.23768805799E+04  0.83313581290E+02 0.  0.
        254    2    1    2    0    0  0.71951497226E+03 -0.13221242889E+04  0.39400536285E+03  0.17966113603E+04  0.89825259453E+03 0.  0.
        -24    2    4    4    0    0 -0.68056266402E+02 -0.28964236627E+03 -0.19949961688E+03  0.36702652850E+03  0.79900061022E+02 0.  0.
         24    2    4    4    0    0  0.78757123866E+03 -0.10324819226E+04  0.59350497973E+03  0.14295848318E+04  0.71953137317E+02 0.  0.
         11    1    3    3    0    0 -0.13421883020E+03  0.24824524062E+03 -0.29497536528E+03  0.40822893086E+03  0.00000000000E+00 0.  1.
        -11    1    3    3    0    0 -0.58529614206E+03  0.10738790482E+04 -0.15426605366E+04  0.19686516491E+04  0.00000000000E+00 0. -1.
          4    1    6    6  502    0  0.57950583343E+03 -0.78355919290E+03  0.47525252150E+03  0.10842771689E+04  0.00000000000E+00 0. -1.
          3    1    5    5  503    0  0.18037321869E+01 -0.13392359809E+03 -0.60739340215E+02  0.14706478513E+03  0.00000000000E+00 0. -1.
         -4    1    5    5    0  503 -0.69859998589E+02 -0.15571876818E+03 -0.13876027666E+03  0.21996174337E+03  0.00000000000E+00 0.  1.
         -3    1    6    6    0  502  0.20806540523E+03 -0.24892272969E+03  0.11825245823E+03  0.34530766294E+03  0.00000000000E+00 0.  1.
<mgrwt>
<rscale>  0 0.39158608E+04</rscale>
<asrwt>0</asrwt>
<pdfrwt beam="1">  1        2 0.43208634E+00 0.39158608E+04</pdfrwt>
<pdfrwt beam="2">  1       -2 0.20998934E+00 0.39158608E+04</pdfrwt>
<totfact> 0.20778292E-01</totfact>
</mgrwt>
</event>
<event>
12    1  0.1518126E-007  0.3027322E+04  0.7818608E-02  0.8235972E-01
          1   -1    0    0  501    0  0.00000000000E+00  0.00000000000E+00  0.14236573306E+04  0.14236573306E+04  0.00000000000E+00 0. -1.
         -1   -1    0    0    0  501 -0.00000000000E+00 -0.00000000000E+00 -0.16093545253E+04  0.16093545253E+04  0.00000000000E+00 0.  1.
         23    2    1    2    0    0 -0.13445426671E+04  0.29874442941E+02 -0.39146480591E+03  0.14037194797E+04  0.92174928658E+02 0.  0.
        254    2    1    2    0    0  0.13445426671E+04 -0.29874442941E+02  0.20576761121E+03  0.16292923761E+04  0.89641835725E+03 0.  0.
        -24    2    4    4    0    0  0.12043253716E+04 -0.33148442480E+03  0.52450292411E+02  0.12528024331E+04  0.80507009947E+02 0.  0.
         24    2    4    4    0    0  0.14021729550E+03  0.30160998186E+03  0.15331731880E+03  0.37648994306E+03  0.87229615796E+02 0.  0.
         11    1    3    3    0    0 -0.79239217033E+03  0.31217224364E+02 -0.18558716174E+03  0.81443382868E+03  0.00000000000E+00 0.  1.
        -11    1    3    3    0    0 -0.55215049675E+03 -0.13427814223E+01 -0.20587764417E+03  0.58928565101E+03  0.00000000000E+00 0. -1.
          4    1    6    6  502    0  0.83467862058E+01  0.83205043714E+02  0.10975800961E+02  0.84339885856E+02  0.00000000000E+00 0. -1.
          1    1    5    5  503    0  0.45812827149E+02  0.28842868930E+01  0.17301838795E+01  0.45936127161E+02  0.00000000000E+00 0. -1.
         -2    1    5    5    0  503  0.11585125444E+04 -0.33436871169E+03  0.50720108531E+02  0.12068663059E+04  0.00000000000E+00 0.  1.
         -3    1    6    6    0  502  0.13187050929E+03  0.21840493814E+03  0.14234151784E+03  0.29215005721E+03  0.00000000000E+00 0.  1.
<mgrwt>
<rscale>  0 0.30273218E+04</rscale>
<asrwt>0</asrwt>
<pdfrwt beam="1">  1        1 0.21902420E+00 0.30273218E+04</pdfrwt>
<pdfrwt beam="2">  1       -1 0.24759300E+00 0.30273218E+04</pdfrwt>
<totfact> 0.45389718E-01</totfact>
</mgrwt>
</event>
<event>
12    1  0.1518126E-007  0.1589651E+04  0.7818608E-02  0.8826931E-01
         -2   -1    0    0    0  501 -0.00000000000E+00  0.00000000000E+00  0.12542043832E+04  0.12542043832E+04  0.00000000000E+00 0.  1.
          2   -1    0    0  501    0  0.00000000000E+00 -0.00000000000E+00 -0.50370395751E+03  0.50370395751E+03  0.00000000000E+00 0. -1.
         23    2    1    2    0    0  0.14870326786E+03  0.13535120683E+03  0.80263406368E+03  0.83229265035E+03  0.89760818779E+02 0.  0.
        254    2    1    2    0    0 -0.14870326786E+03 -0.13535120683E+03 -0.52133638017E+02  0.92561569033E+03  0.90200547609E+03 0.  0.
        -24    2    4    4    0    0 -0.28861950867E+03  0.94576220843E+01 -0.40912296254E+03  0.50728324016E+03  0.81018639014E+02 0.  0.
         24    2    4    4    0    0  0.13991624080E+03 -0.14480882892E+03  0.35698932453E+03  0.41833245017E+03  0.83752669614E+02 0.  0.
         11    1    3    3    0    0  0.14344140991E+02 -0.94352806454E+01  0.13393303108E+03  0.13502901805E+03  0.00000000000E+00 0. -1.
        -11    1    3    3    0    0  0.13435912687E+03  0.14478648748E+03  0.66870103260E+03  0.69726363230E+03  0.00000000000E+00 0.  1.
          2    1    6    6  502    0  0.31296109435E+02 -0.15277743464E+02  0.17259389482E+02  0.38868270304E+02  0.00000000000E+00 0. -1.
          3    1    5    5  503    0 -0.15603390390E+03 -0.35275623408E+02 -0.21501699271E+03  0.26799861180E+03  0.00000000000E+00 0. -1.
         -4    1    5    5    0  503 -0.13258560476E+03  0.44733245493E+02 -0.19410596983E+03  0.23928462835E+03  0.00000000000E+00 0.  1.
         -1    1    6    6    0  502  0.10862013137E+03 -0.12953108545E+03  0.33972993504E+03  0.37946417987E+03  0.00000000000E+00 0.  1.
<mgrwt>
<rscale>  0 0.15896512E+04</rscale>
<asrwt>0</asrwt>
<pdfrwt beam="1">  1        2 0.77492917E-01 0.15896512E+04</pdfrwt>
<pdfrwt beam="2">  1       -2 0.19295452E+00 0.15896512E+04</pdfrwt>
<totfact> 0.86681702E+00</totfact>
</mgrwt>
</event>
<event>
12    1  0.1518126E-007  0.2282927E+04  0.7818608E-02  0.8484683E-01
          2   -1    0    0  501    0  0.00000000000E+00  0.00000000000E+00  0.85441878788E+03  0.85441878788E+03  0.00000000000E+00 0. -1.
         -2   -1    0    0    0  501 -0.00000000000E+00 -0.00000000000E+00 -0.15249420106E+04  0.15249420106E+04  0.00000000000E+00 0.  1.
         23    2    1    2    0    0 -0.69369616845E+03  0.67031165537E+03 -0.32146219331E+03  0.10209951920E+04  0.92526487364E+02 0.  0.
        254    2    1    2    0    0  0.69369616845E+03 -0.67031165537E+03 -0.34906102943E+03  0.13583656065E+04  0.89038274314E+03 0.  0.
        -24    2    4    4    0    0  0.19264899332E+03 -0.13706793894E+03 -0.54255583256E+03  0.59723681081E+03  0.80148126818E+02 0.  0.
         24    2    4    4    0    0  0.50104717513E+03 -0.53324371643E+03  0.19349480312E+03  0.76112879572E+03  0.80496409960E+02 0.  0.
         13    1    3    3    0    0 -0.19053919807E+03  0.20348824246E+03 -0.51692945619E+02  0.28352215336E+03  0.00000000000E+00 0. -1.
        -13    1    3    3    0    0 -0.50315697038E+03  0.46682341291E+03 -0.26976924769E+03  0.73747303861E+03  0.00000000000E+00 0.  1.
          4    1    6    6  502    0  0.26928842258E+03 -0.31835616073E+03  0.75409947898E+02  0.42373760732E+03  0.00000000000E+00 0. -1.
          1    1    5    5  503    0  0.16996592927E+02  0.58226143964E+01 -0.15995058837E+02  0.24054706748E+02  0.00000000000E+00 0. -1.
         -2    1    5    5    0  503  0.17565240040E+03 -0.14289055333E+03 -0.52656077372E+03  0.57318210406E+03  0.00000000000E+00 0.  1.
         -3    1    6    6    0  502  0.23175875255E+03 -0.21488755570E+03  0.11808485523E+03  0.33739118840E+03  0.00000000000E+00 0.  1.
<mgrwt>
<rscale>  0 0.22829272E+04</rscale>
<asrwt>0</asrwt>
<pdfrwt beam="1">  1        2 0.13144904E+00 0.22829272E+04</pdfrwt>
<pdfrwt beam="2">  1       -2 0.23460646E+00 0.22829272E+04</pdfrwt>
<totfact> 0.22887560E+00</totfact>
</mgrwt>
</event>
<event>
12    1  0.1518126E-007  0.3162298E+04  0.7818608E-02  0.8198846E-01
         -2   -1    0    0    0  501 -0.00000000000E+00  0.00000000000E+00  0.10309429984E+04  0.10309429984E+04  0.00000000000E+00 0.  1.
          2   -1    0    0  501    0  0.00000000000E+00 -0.00000000000E+00 -0.24249956610E+04  0.24249956610E+04  0.00000000000E+00 0. -1.
         23    2    1    2    0    0 -0.35493346607E+03  0.64824667759E+03  0.72344692205E+03  0.10379763611E+04  0.88419210317E+02 0.  0.
        254    2    1    2    0    0  0.35493346607E+03 -0.64824667759E+03 -0.21174995847E+04  0.24179622984E+04  0.90362363014E+03 0.  0.
        -24    2    4    4    0    0  0.39905489095E+03 -0.72335330838E+03 -0.21416605167E+04  0.22968435981E+04  0.79346898355E+02 0.  0.
         24    2    4    4    0    0 -0.44121424879E+02  0.75106630790E+02  0.24160932067E+02  0.12111870031E+03  0.80611927187E+02 0.  0.
         11    1    3    3    0    0 -0.18783326310E+03  0.36149693524E+03  0.45824131519E+03  0.61314473973E+03  0.00000000000E+00 0.  1.
        -11    1    3    3    0    0 -0.16710020297E+03  0.28674974234E+03  0.26520560687E+03  0.42483162133E+03  0.00000000000E+00 0. -1.
          4    1    6    6  502    0 -0.11183887859E+02  0.14932581209E+02  0.45582755637E+02  0.49252907941E+02  0.00000000000E+00 0. -1.
          3    1    5    5  503    0  0.31979678153E+03 -0.51410464697E+03 -0.15204646099E+04  0.16365775874E+04  0.00000000000E+00 0. -1.
         -4    1    5    5    0  503  0.79258109423E+02 -0.20924866141E+03 -0.62119590681E+03  0.66026601067E+03  0.00000000000E+00 0.  1.
         -3    1    6    6    0  502 -0.32937537020E+02  0.60174049581E+02 -0.21421823570E+02  0.71865792370E+02  0.00000000000E+00 0.  1.
<mgrwt>
<rscale>  0 0.31622981E+04</rscale>
<asrwt>0</asrwt>
<pdfrwt beam="1">  1        2 0.37307625E+00 0.31622981E+04</pdfrwt>
<pdfrwt beam="2">  1       -2 0.15860662E+00 0.31622981E+04</pdfrwt>
<totfact> 0.83795433E-01</totfact>
</mgrwt>
</event>
<event>
12    1  0.1518126E-007  0.1537289E+04  0.7818608E-02  0.8860028E-01
         -1   -1    0    0    0  501 -0.00000000000E+00  0.00000000000E+00  0.12548330652E+04  0.12548330652E+04  0.00000000000E+00 0.  1.
          1   -1    0    0  501    0  0.00000000000E+00 -0.00000000000E+00 -0.47083074447E+03  0.47083074447E+03  0.00000000000E+00 0. -1.
         23    2    1    2    0    0 -0.47444653752E+03  0.32869521827E+02  0.29794937816E+03  0.56836746019E+03  0.89932282416E+02 0.  0.
        254    2    1    2    0    0  0.47444653752E+03 -0.32869521827E+02  0.48605294258E+03  0.11572963495E+04  0.93643336928E+03 0.  0.
        -24    2    4    4    0    0  0.34762002082E+03  0.43032327384E+03  0.31474846863E+03  0.64125740046E+03  0.78272959974E+02 0.  0.
         24    2    4    4    0    0  0.12682651671E+03 -0.46319279566E+03  0.17130447395E+03  0.51603894902E+03  0.79488633276E+02 0.  0.
         11    1    3    3    0    0 -0.31391535401E+02  0.14274048284E+02  0.66029657383E+00  0.34490766022E+02  0.00000000000E+00 0.  1.
        -11    1    3    3    0    0 -0.44305500212E+03  0.18595473543E+02  0.29728908159E+03  0.53387669416E+03  0.00000000000E+00 0. -1.
          4    1    6    6  502    0  0.12204073292E+03 -0.34695289986E+03  0.15266389554E+03  0.39821667496E+03  0.00000000000E+00 0. -1.
          1    1    5    5  503    0  0.15707554273E+03  0.20544018871E+03  0.10317167924E+03  0.27842915195E+03  0.00000000000E+00 0. -1.
         -2    1    5    5    0  503  0.19054447808E+03  0.22488308513E+03  0.21157678939E+03  0.36282824851E+03  0.00000000000E+00 0.  1.
         -3    1    6    6    0  502  0.47857837870E+01 -0.11623989580E+03  0.18640578410E+02  0.11782227406E+03  0.00000000000E+00 0.  1.
<mgrwt>
<rscale>  0 0.15372885E+04</rscale>
<asrwt>0</asrwt>
<pdfrwt beam="1">  1        1 0.72435500E-01 0.15372885E+04</pdfrwt>
<pdfrwt beam="2">  1       -1 0.19305124E+00 0.15372885E+04</pdfrwt>
<totfact> 0.78085544E+00</totfact>
</mgrwt>
</event>
<event>
12    1  0.1518126E-007  0.2323471E+04  0.7818608E-02  0.8468724E-01
          2   -1    0    0  501    0  0.00000000000E+00  0.00000000000E+00  0.83568115585E+03  0.83568115585E+03  0.00000000000E+00 0. -1.
         -2   -1    0    0    0  501 -0.00000000000E+00 -0.00000000000E+00 -0.16150050876E+04  0.16150050876E+04  0.00000000000E+00 0.  1.
         23    2    1    2    0    0 -0.25490542687E+03 -0.94753795548E+03 -0.25933730022E+03  0.10190182155E+04  0.91309005425E+02 0.  0.
        254    2    1    2    0    0  0.25490542687E+03  0.94753795548E+03 -0.51998663156E+03  0.14316680280E+04  0.90359409672E+03 0.  0.
        -24    2    4    4    0    0 -0.19186690132E+03  0.33830504349E+02 -0.33398360637E+03  0.39480927335E+03  0.79824195255E+02 0.  0.
         24    2    4    4    0    0  0.44677232819E+03  0.91370745113E+03 -0.18600302518E+03  0.10368587546E+04  0.77537940395E+02 0.  0.
         13    1    3    3    0    0 -0.10590599622E+03 -0.46433706735E+03 -0.82613591229E+02  0.48337355907E+03  0.00000000000E+00 0. -1.
        -13    1    3    3    0    0 -0.14899943065E+03 -0.48320088814E+03 -0.17672370899E+03  0.53564465642E+03  0.00000000000E+00 0.  1.
          4    1    6    6  502    0  0.30475805542E+03  0.68988688418E+03 -0.15515968104E+03  0.76999734540E+03  0.00000000000E+00 0. -1.
          3    1    5    5  503    0 -0.13262436137E+03 -0.10941167095E+02 -0.17994378501E+03  0.22380504045E+03  0.00000000000E+00 0. -1.
         -4    1    5    5    0  503 -0.59242539948E+02  0.44771671444E+02 -0.15403982137E+03  0.17100423290E+03  0.00000000000E+00 0.  1.
         -3    1    6    6    0  502  0.14201427277E+03  0.22382056696E+03 -0.30843344146E+02  0.26686140924E+03  0.00000000000E+00 0.  1.
<mgrwt>
<rscale>  0 0.23234710E+04</rscale>
<asrwt>0</asrwt>
<pdfrwt beam="1">  1        2 0.12856633E+00 0.23234710E+04</pdfrwt>
<pdfrwt beam="2">  1       -2 0.24846232E+00 0.23234710E+04</pdfrwt>
<totfact> 0.19300928E+00</totfact>
</mgrwt>
</event>
<event>
12    1  0.1518126E-007  0.1461694E+04  0.7818608E-02  0.8910334E-01
          2   -1    0    0  501    0  0.00000000000E+00  0.00000000000E+00  0.16244635834E+04  0.16244635834E+04  0.00000000000E+00 0. -1.
         -2   -1    0    0    0  501 -0.00000000000E+00 -0.00000000000E+00 -0.32880821746E+03  0.32880821746E+03  0.00000000000E+00 0.  1.
         23    2    1    2    0    0  0.16847428303E+03  0.38341132394E+03  0.18781673259E+03  0.46786301481E+03  0.90735044012E+02 0.  0.
        254    2    1    2    0    0 -0.16847428303E+03 -0.38341132394E+03  0.11078386334E+04  0.14854087861E+04  0.89651826350E+03 0.  0.
        -24    2    4    4    0    0  0.33376602907E+03 -0.82023341662E+02  0.21274574309E+03  0.41212196681E+03  0.80350317873E+02 0.  0.
         24    2    4    4    0    0 -0.50224031211E+03 -0.30138798228E+03  0.89509289027E+03  0.10732868193E+04  0.87597187211E+02 0.  0.
         13    1    3    3    0    0  0.16187294757E+03  0.38199301560E+03  0.16918546976E+03  0.44804602253E+03  0.00000000000E+00 0.  1.
        -13    1    3    3    0    0  0.66013354639E+01  0.14183083416E+01  0.18631262829E+02  0.19816992281E+02  0.00000000000E+00 0. -1.
          2    1    6    6  502    0 -0.45776646843E+03 -0.30064087769E+03  0.83295052179E+03  0.99686591310E+03  0.00000000000E+00 0. -1.
          1    1    5    5  503    0  0.30603902982E+03 -0.69510626680E+02  0.16255958661E+03  0.35343632269E+03  0.00000000000E+00 0. -1.
         -2    1    5    5    0  503  0.27726999251E+02 -0.12512714982E+02  0.50186156479E+02  0.58685644120E+02  0.00000000000E+00 0.  1.
         -1    1    6    6    0  502 -0.44473843675E+02 -0.74710458618E+00  0.62142368487E+02  0.76420906156E+02  0.00000000000E+00 0.  1.
<mgrwt>
<rscale>  0 0.14616935E+04</rscale>
<asrwt>0</asrwt>
<pdfrwt beam="1">  1        2 0.24991747E+00 0.14616935E+04</pdfrwt>
<pdfrwt beam="2">  1       -2 0.50585880E-01 0.14616935E+04</pdfrwt>
<totfact> 0.38682926E+01</totfact>
</mgrwt>
</event>
<event>
12    1  0.1518126E-007  0.1172062E+04  0.7818608E-02  0.9137668E-01
         -1   -1    0    0    0  501 -0.00000000000E+00  0.00000000000E+00  0.44086867504E+03  0.44086867504E+03  0.00000000000E+00 0.  1.
          1   -1    0    0  501    0  0.00000000000E+00 -0.00000000000E+00 -0.77899034976E+03  0.77899034976E+03  0.00000000000E+00 0. -1.
         23    2    1    2    0    0 -0.53789220861E+02  0.10731019716E+03 -0.26424776935E+03  0.30457079454E+03  0.92345690680E+02 0.  0.
        254    2    1    2    0    0  0.53789220861E+02 -0.10731019716E+03 -0.73873905366E+02  0.91528823025E+03  0.90437073806E+03 0.  0.
        -24    2    4    4    0    0  0.24445295343E+03  0.36889217129E+02  0.34103725245E+03  0.42942944605E+03  0.83577394058E+02 0.  0.
         24    2    4    4    0    0 -0.19066373257E+03 -0.14419941429E+03 -0.41491115781E+03  0.48585878420E+03  0.82227485138E+02 0.  0.
         11    1    3    3    0    0 -0.39966338501E+01  0.10116230614E+03 -0.17979525702E+03  0.20633981611E+03  0.00000000000E+00 0. -1.
        -11    1    3    3    0    0 -0.49792587011E+02  0.61478910210E+01 -0.84452512326E+02  0.98230978431E+02  0.00000000000E+00 0.  1.
          4    1    6    6  502    0 -0.59632493968E+02 -0.25120384913E+02 -0.55687373232E+02  0.85370671852E+02  0.00000000000E+00 0. -1.
          3    1    5    5  503    0  0.73572928832E+02  0.45376763751E+02  0.83092728414E+02  0.11990174336E+03  0.00000000000E+00 0. -1.
         -4    1    5    5    0  503  0.17088002460E+03 -0.84875466219E+01  0.25794452403E+03  0.30952770269E+03  0.00000000000E+00 0.  1.
         -3    1    6    6    0  502 -0.13103123860E+03 -0.11907902937E+03 -0.35922378458E+03  0.40048811235E+03  0.00000000000E+00 0.  1.
<mgrwt>
<rscale>  0 0.11720622E+04</rscale>
<asrwt>0</asrwt>
<pdfrwt beam="1">  1        1 0.11984467E+00 0.11720622E+04</pdfrwt>
<pdfrwt beam="2">  1       -1 0.67825950E-01 0.11720622E+04</pdfrwt>
<totfact> 0.50370813E+01</totfact>
</mgrwt>
</event>
<event>
12    1  0.1518126E-007  0.1551487E+04  0.7818608E-02  0.8850918E-01
          2   -1    0    0  501    0  0.00000000000E+00  0.00000000000E+00  0.26215780511E+04  0.26215780511E+04  0.00000000000E+00 0. -1.
         -2   -1    0    0    0  501 -0.00000000000E+00 -0.00000000000E+00 -0.22954811967E+03  0.22954811967E+03  0.00000000000E+00 0.  1.
         23    2    1    2    0    0  0.28238826974E+02  0.27452049025E+03  0.93302238077E+01  0.29045416892E+03  0.90097948089E+02 0.  0.
        254    2    1    2    0    0 -0.28238826974E+02 -0.27452049025E+03  0.23826997077E+04  0.25606720019E+04  0.89645093198E+03 0.  0.
        -24    2    4    4    0    0 -0.55337906276E+02  0.17665382315E+03  0.87354961631E+02  0.21983564527E+03  0.80174587658E+02 0.  0.
         24    2    4    4    0    0  0.27099079303E+02 -0.45117431340E+03  0.22953447460E+04  0.23408363566E+04  0.81330954367E+02 0.  0.
         13    1    3    3    0    0  0.43393918119E+02  0.88020113862E+02  0.28941511002E+02  0.10231414190E+03  0.00000000000E+00 0. -1.
        -13    1    3    3    0    0 -0.15155091145E+02  0.18650037639E+03 -0.19611287194E+02  0.18814002702E+03  0.00000000000E+00 0.  1.
          2    1    6    6  502    0  0.64896615311E+01 -0.27699615200E+01  0.89797149360E+02  0.90073949768E+02  0.00000000000E+00 0. -1.
          3    1    5    5  503    0 -0.11983457281E+01  0.69169452043E+02  0.69690421562E+02  0.98196761586E+02  0.00000000000E+00 0. -1.
         -4    1    5    5    0  503 -0.54139560548E+02  0.10748437111E+03  0.17664540069E+02  0.12163888369E+03  0.00000000000E+00 0.  1.
         -1    1    6    6    0  502  0.20609417772E+02 -0.44840435188E+03  0.22055475967E+04  0.22507624069E+04  0.00000000000E+00 0.  1.
<mgrwt>
<rscale>  0 0.15514874E+04</rscale>
<asrwt>0</asrwt>
<pdfrwt beam="1">  1        2 0.40331968E+00 0.15514874E+04</pdfrwt>
<pdfrwt beam="2">  1       -2 0.35315097E-01 0.15514874E+04</pdfrwt>
<totfact> 0.21490537E+01</totfact>
</mgrwt>
</event>
<event>
12    1  0.1518126E-007  0.2347412E+04  0.7818608E-02  0.8459458E-01
          2   -1    0    0  501    0  0.00000000000E+00  0.00000000000E+00  0.18652841521E+04  0.18652841521E+04  0.00000000000E+00 0. -1.
         -2   -1    0    0    0  501 -0.00000000000E+00 -0.00000000000E+00 -0.73853965152E+03  0.73853965152E+03  0.00000000000E+00 0.  1.
         23    2    1    2    0    0 -0.45874295160E+03 -0.29753441974E+03  0.14162262590E+04  0.15209757275E+04  0.93265858830E+02 0.  0.
        254    2    1    2    0    0  0.45874295160E+03  0.29753441974E+03 -0.28948175839E+03  0.10828480761E+04  0.88870042253E+03 0.  0.
        -24    2    4    4    0    0  0.42168413893E+03  0.44047099920E+03 -0.51464329748E+03  0.80200369613E+03  0.80746459990E+02 0.  0.
         24    2    4    4    0    0  0.37058812670E+02 -0.14293657946E+03  0.22516153909E+03  0.28084438002E+03  0.79822464009E+02 0.  0.
         11    1    3    3    0    0 -0.32847112540E+02 -0.58364923222E+01  0.46702689569E+02  0.57394587357E+02  0.00000000000E+00 0.  1.
        -11    1    3    3    0    0 -0.42589583906E+03 -0.29169792742E+03  0.13695235694E+04  0.14635811401E+04  0.00000000000E+00 0. -1.
          2    1    6    6  502    0  0.60538264429E+02 -0.11483101877E+03  0.18972592565E+03  0.22988469109E+03  0.00000000000E+00 0. -1.
          3    1    5    5  503    0  0.31420505578E+03  0.37463465690E+03 -0.41521337975E+03  0.64146558283E+03  0.00000000000E+00 0. -1.
         -4    1    5    5    0  503  0.10747908315E+03  0.65836342293E+02 -0.99429917730E+02  0.16053811330E+03  0.00000000000E+00 0.  1.
         -1    1    6    6    0  502 -0.23479451759E+02 -0.28105560686E+02  0.35435613436E+02  0.50959688931E+02  0.00000000000E+00 0.  1.
<mgrwt>
<rscale>  0 0.23474125E+04</rscale>
<asrwt>0</asrwt>
<pdfrwt beam="1">  1        2 0.28696679E+00 0.23474125E+04</pdfrwt>
<pdfrwt beam="2">  1       -2 0.11362149E+00 0.23474125E+04</pdfrwt>
<totfact> 0.43535553E+00</totfact>
</mgrwt>
</event>
<event>
12    1  0.1518126E-007  0.2318118E+04  0.7818608E-02  0.8470812E-01
         -2   -1    0    0    0  501 -0.00000000000E+00  0.00000000000E+00  0.28571257703E+03  0.28571257703E+03  0.00000000000E+00 0. -1.
          2   -1    0    0  501    0  0.00000000000E+00 -0.00000000000E+00 -0.47019893500E+04  0.47019893500E+04  0.00000000000E+00 0.  1.
         23    2    1    2    0    0  0.11227916515E+03  0.97757034761E+03 -0.15883127071E+04  0.18704397015E+04  0.86931155451E+02 0.  0.
        254    2    1    2    0    0 -0.11227916515E+03 -0.97757034761E+03 -0.28279640659E+04  0.31172622256E+04  0.86700209322E+03 0.  0.
        -24    2    4    4    0    0 -0.29904944631E+02  0.37116790658E+02 -0.11403716980E+04  0.11448128864E+04  0.88752315858E+02 0.  0.
         24    2    4    4    0    0 -0.82374220516E+02 -0.10146871383E+04 -0.16875923679E+04  0.19724493391E+04  0.78821916087E+02 0.  0.
         11    1    3    3    0    0  0.11138490992E+03  0.96411003080E+03 -0.15402328941E+04  0.18205032595E+04  0.00000000000E+00 0. -1.
        -11    1    3    3    0    0  0.89425522389E+00  0.13460316810E+02 -0.48079812964E+02  0.49936441961E+02  0.00000000000E+00 0.  1.
          4    1    6    6  502    0 -0.73600719699E+02 -0.42691583709E+03 -0.72236209051E+03  0.84230706260E+03  0.00000000000E+00 0. -1.
          3    1    5    5  503    0 -0.33943596585E+02  0.19389320967E+02 -0.17681520180E+03  0.18108486713E+03  0.00000000000E+00 0. -1.
         -4    1    5    5    0  503  0.40386519541E+01  0.17727469691E+02 -0.96355649616E+03  0.96372801930E+03  0.00000000000E+00 0.  1.
         -3    1    6    6    0  502 -0.87735008177E+01 -0.58777130118E+03 -0.96523027741E+03  0.11301422765E+04  0.00000000000E+00 0.  1.
<mgrwt>
<rscale>  0 0.23181178E+04</rscale>
<asrwt>0</asrwt>
<pdfrwt beam="1">  1        2 0.72338294E+00 0.23181178E+04</pdfrwt>
<pdfrwt beam="2">  1       -2 0.43955784E-01 0.23181178E+04</pdfrwt>
<totfact> 0.34308992E-01</totfact>
</mgrwt>
</event>
<event>
12    1  0.1518126E-007  0.2279804E+04  0.7818608E-02  0.8485927E-01
          2   -1    0    0  501    0  0.00000000000E+00  0.00000000000E+00  0.85263112058E+03  0.85263112058E+03  0.00000000000E+00 0. -1.
         -2   -1    0    0    0  501 -0.00000000000E+00 -0.00000000000E+00 -0.15239605812E+04  0.15239605812E+04  0.00000000000E+00 0.  1.
         23    2    1    2    0    0 -0.19111538374E+03  0.70150888531E+03 -0.94626569545E+03  0.11966403362E+04  0.88822980665E+02 0.  0.
        254    2    1    2    0    0  0.19111538374E+03 -0.70150888531E+03  0.27493623482E+03  0.11799513655E+04  0.88772489305E+03 0.  0.
        -24    2    4    4    0    0 -0.23049570185E+03 -0.16157009917E+03  0.38287609995E+03  0.48195218947E+03  0.80315873317E+02 0.  0.
         24    2    4    4    0    0  0.42161108559E+03 -0.53993878614E+03 -0.10793986512E+03  0.69799917606E+03  0.79133021140E+02 0.  0.
         13    1    3    3    0    0 -0.10914290359E+03  0.36116349010E+03 -0.42009399787E+03  0.56465051761E+03  0.00000000000E+00 0. -1.
        -13    1    3    3    0    0 -0.81972480151E+02  0.34034539521E+03 -0.52617169757E+03  0.63198981864E+03  0.00000000000E+00 0.  1.
          2    1    6    6  502    0  0.24317064835E+03 -0.25264971261E+03 -0.38724187042E+02  0.35279371333E+03  0.00000000000E+00 0. -1.
          3    1    5    5  503    0 -0.15140802452E+03 -0.13328857366E+03  0.31457405923E+03  0.37369382186E+03  0.00000000000E+00 0. -1.
         -4    1    5    5    0  503 -0.79087677336E+02 -0.28281525512E+02  0.68302040717E+02  0.10825836761E+03  0.00000000000E+00 0.  1.
         -1    1    6    6    0  502  0.17844043724E+03 -0.28728907353E+03 -0.69215678082E+02  0.34520546274E+03  0.00000000000E+00 0.  1.
<mgrwt>
<rscale>  0 0.22798037E+04</rscale>
<asrwt>0</asrwt>
<pdfrwt beam="1">  1        2 0.13117402E+00 0.22798037E+04</pdfrwt>
<pdfrwt beam="2">  1       -2 0.23445547E+00 0.22798037E+04</pdfrwt>
<totfact> 0.23008933E+00</totfact>
</mgrwt>
</event>
<event>
12    1  0.1518126E-007  0.1919392E+04  0.7818608E-02  0.8645264E-01
          2   -1    0    0  501    0  0.00000000000E+00  0.00000000000E+00  0.33144510147E+04  0.33144510147E+04  0.00000000000E+00 0.  1.
         -2   -1    0    0    0  501 -0.00000000000E+00 -0.00000000000E+00 -0.27787901878E+03  0.27787901878E+03  0.00000000000E+00 0. -1.
         23    2    1    2    0    0 -0.26853607535E+03  0.20471359302E+02  0.24851707131E+04  0.25016817762E+04  0.99033003708E+02 0.  0.
        254    2    1    2    0    0  0.26853607535E+03 -0.20471359302E+02  0.55140128284E+03  0.10906482573E+04  0.90163160222E+03 0.  0.
        -24    2    4    4    0    0  0.35389155731E+03  0.34915260075E+02 -0.13744883399E+03  0.39012855192E+03  0.82763490366E+02 0.  0.
         24    2    4    4    0    0 -0.85355481956E+02 -0.55386619378E+02  0.68885011684E+03  0.70051970538E+03  0.76551539826E+02 0.  0.
         11    1    3    3    0    0 -0.20431842974E+03  0.28853806095E+02  0.14653938709E+04  0.14798505870E+04  0.00000000000E+00 0. -1.
        -11    1    3    3    0    0 -0.64217645614E+02 -0.83824467930E+01  0.10197768422E+04  0.10218311893E+04  0.00000000000E+00 0.  1.
          2    1    6    6  502    0 -0.25659566796E+02  0.24114626566E+01  0.49640987455E+02  0.55932603692E+02  0.00000000000E+00 0. -1.
          3    1    5    5  503    0  0.53028159908E+02 -0.24228390468E+02 -0.26637423024E+02  0.64097994924E+02  0.00000000000E+00 0. -1.
         -4    1    5    5    0  503  0.30086339740E+03  0.59143650544E+02 -0.11081141097E+03  0.32603055700E+03  0.00000000000E+00 0.  1.
         -1    1    6    6    0  502 -0.59695915160E+02 -0.57798082034E+02  0.63920912938E+03  0.64458710169E+03  0.00000000000E+00 0.  1.
<mgrwt>
<rscale>  0 0.19193920E+04</rscale>
<asrwt>0</asrwt>
<pdfrwt beam="1">  1        2 0.50991551E+00 0.19193920E+04</pdfrwt>
<pdfrwt beam="2">  1       -2 0.42750621E-01 0.19193920E+04</pdfrwt>
<totfact> 0.53107258E+00</totfact>
</mgrwt>
</event>
<event>
12    1  0.1518126E-007  0.1375894E+04  0.7818608E-02  0.8971455E-01
          1   -1    0    0  501    0  0.00000000000E+00  0.00000000000E+00  0.25026925381E+03  0.25026925381E+03  0.00000000000E+00 0.  1.
         -1   -1    0    0    0  501 -0.00000000000E+00 -0.00000000000E+00 -0.18910480971E+04  0.18910480971E+04  0.00000000000E+00 0. -1.
         23    2    1    2    0    0 -0.59618155214E+02  0.23238442357E+03 -0.52831394268E+01  0.25615769628E+03  0.89621476530E+02 0.  0.
        254    2    1    2    0    0  0.59618155214E+02 -0.23238442357E+03 -0.16354957039E+04  0.18851596547E+04  0.90632437976E+03 0.  0.
        -24    2    4    4    0    0  0.10423669141E+03  0.32557300501E+03 -0.44336790681E+03  0.56571348634E+03  0.81200852321E+02 0.  0.
         24    2    4    4    0    0 -0.44618536193E+02 -0.55795742857E+03 -0.11921277971E+04  0.13194461683E+04  0.80387813948E+02 0.  0.
         11    1    3    3    0    0 -0.16288997275E+02  0.24308054324E+02  0.28620193290E+02  0.40930775722E+02  0.00000000000E+00 0. -1.
        -11    1    3    3    0    0 -0.43329157939E+02  0.20807636924E+03 -0.33903332717E+02  0.21522692056E+03  0.00000000000E+00 0.  1.
          4    1    6    6  502    0  0.63587341737E+01 -0.28413954016E+02 -0.10754517905E+03  0.11141701764E+03  0.00000000000E+00 0. -1.
          3    1    5    5  503    0  0.51002419155E+02  0.16497396033E+03 -0.15851771408E+03  0.23440460751E+03  0.00000000000E+00 0. -1.
         -4    1    5    5    0  503  0.53234272252E+02  0.16059904468E+03 -0.28485019273E+03  0.33130887883E+03  0.00000000000E+00 0.  1.
         -3    1    6    6    0  502 -0.50977270367E+02 -0.52954347455E+03 -0.10845826181E+04  0.12080291507E+04  0.00000000000E+00 0.  1.
<mgrwt>
<rscale>  0 0.13758942E+04</rscale>
<asrwt>0</asrwt>
<pdfrwt beam="1">  1        1 0.38502962E-01 0.13758942E+04</pdfrwt>
<pdfrwt beam="2">  1       -1 0.29093048E+00 0.13758942E+04</pdfrwt>
<totfact> 0.41152163E+00</totfact>
</mgrwt>
</event>
<event>
12    1  0.1518126E-007  0.1792599E+04  0.7818608E-02  0.8710245E-01
         -1   -1    0    0    0  501 -0.00000000000E+00  0.00000000000E+00  0.70422764497E+03  0.70422764497E+03  0.00000000000E+00 0.  1.
          1   -1    0    0  501    0  0.00000000000E+00 -0.00000000000E+00 -0.11407570991E+04  0.11407570991E+04  0.00000000000E+00 0. -1.
         23    2    1    2    0    0  0.13892679276E+03  0.62263073894E+03  0.38149208670E+02  0.64533458727E+03  0.89619621600E+02 0.  0.
        254    2    1    2    0    0 -0.13892679276E+03 -0.62263073894E+03 -0.47467866285E+03  0.11996501569E+04  0.89825997075E+03 0.  0.
        -24    2    4    4    0    0 -0.91202173259E+01 -0.32801870075E+03 -0.71459807090E+03  0.79022592488E+03  0.78276196981E+02 0.  0.
         24    2    4    4    0    0 -0.12980657544E+03 -0.29461203819E+03  0.23991940805E+03  0.40942423198E+03  0.80130389341E+02 0.  0.
         13    1    3    3    0    0  0.39793091923E+02  0.20301272561E+03 -0.29236233741E+02  0.20893160193E+03  0.00000000000E+00 0. -1.
        -13    1    3    3    0    0  0.99133700840E+02  0.41961801334E+03  0.67385442411E+02  0.43640298533E+03  0.00000000000E+00 0.  1.
          2    1    6    6  502    0 -0.28981765734E+02 -0.34828839286E+02  0.62157146852E+01  0.45734296760E+02  0.00000000000E+00 0. -1.
          3    1    5    5  503    0 -0.29687644564E+02 -0.52437747013E+02 -0.14911444721E+03  0.16082969849E+03  0.00000000000E+00 0. -1.
         -4    1    5    5    0  503  0.20567427239E+02 -0.27558095374E+03 -0.56548362369E+03  0.62939622639E+03  0.00000000000E+00 0.  1.
         -1    1    6    6    0  502 -0.10082480970E+03 -0.25978319891E+03  0.23370369336E+03  0.36368993522E+03  0.00000000000E+00 0.  1.
<mgrwt>
<rscale>  0 0.17925989E+04</rscale>
<asrwt>0</asrwt>
<pdfrwt beam="1">  1        1 0.17550109E+00 0.17925989E+04</pdfrwt>
<pdfrwt beam="2">  1       -1 0.10834271E+00 0.17925989E+04</pdfrwt>
<totfact> 0.88280555E+00</totfact>
</mgrwt>
</event>
<event>
12    1  0.1518126E-007  0.1530655E+04  0.7818608E-02  0.8864319E-01
         -1   -1    0    0    0  501 -0.00000000000E+00  0.00000000000E+00  0.48754068104E+03  0.48754068104E+03  0.00000000000E+00 0.  1.
          1   -1    0    0  501    0  0.00000000000E+00 -0.00000000000E+00 -0.12013901180E+04  0.12013901180E+04  0.00000000000E+00 0. -1.
         23    2    1    2    0    0  0.10521844970E+03 -0.24860867589E+03  0.22249025383E+03  0.36156567585E+03  0.91381776185E+02 0.  0.
        254    2    1    2    0    0 -0.10521844970E+03  0.24860867589E+03 -0.93633969081E+03  0.13273651232E+04  0.90127074615E+03 0.  0.
        -24    2    4    4    0    0  0.11296498109E+03  0.38818052307E+03 -0.97097707352E+03  0.10547950459E+04  0.79692572650E+02 0.  0.
         24    2    4    4    0    0 -0.21818343080E+03 -0.13957184719E+03  0.34637382713E+02  0.27257007730E+03  0.77526697065E+02 0.  0.
         11    1    3    3    0    0 -0.16918675319E+02 -0.24484326478E+02  0.23041890381E+02  0.37638444840E+02  0.00000000000E+00 0. -1.
        -11    1    3    3    0    0  0.12213712502E+03 -0.22412434941E+03  0.19944836345E+03  0.32392723101E+03  0.00000000000E+00 0.  1.
          2    1    6    6  502    0 -0.16271702082E+03 -0.13925642066E+03  0.19399159179E+02  0.21504768527E+03  0.00000000000E+00 0. -1.
          1    1    5    5  503    0  0.10602452902E+03  0.34775906447E+03 -0.79632245150E+03  0.87538963578E+03  0.00000000000E+00 0. -1.
         -2    1    5    5    0  503  0.69404520667E+01  0.40421458605E+02 -0.17465462203E+03  0.17940541014E+03  0.00000000000E+00 0.  1.
         -1    1    6    6    0  502 -0.55466409973E+02 -0.31542652684E+00  0.15238223534E+02  0.57522392037E+02  0.00000000000E+00 0.  1.
<mgrwt>
<rscale>  0 0.15306555E+04</rscale>
<asrwt>0</asrwt>
<pdfrwt beam="1">  1        1 0.18482925E+00 0.15306555E+04</pdfrwt>
<pdfrwt beam="2">  1       -1 0.75006259E-01 0.15306555E+04</pdfrwt>
<totfact> 0.18390332E+01</totfact>
</mgrwt>
</event>
<event>
12    1  0.1518126E-007  0.1458192E+04  0.7818608E-02  0.8912741E-01
         -2   -1    0    0    0  501 -0.00000000000E+00  0.00000000000E+00  0.45307225802E+03  0.45307225802E+03  0.00000000000E+00 0.  1.
          2   -1    0    0  501    0  0.00000000000E+00 -0.00000000000E+00 -0.11732800809E+04  0.11732800809E+04  0.00000000000E+00 0. -1.
         23    2    1    2    0    0 -0.17779351908E+03  0.37912907974E+03 -0.12133393690E+03  0.44520677786E+03  0.90209513241E+02 0.  0.
        254    2    1    2    0    0  0.17779351908E+03 -0.37912907974E+03 -0.59887388600E+03  0.11811455611E+04  0.92795770947E+03 0.  0.
        -24    2    4    4    0    0  0.17974654393E+03 -0.88489708194E+02  0.22009699942E+03  0.30828111845E+03  0.80344945872E+02 0.  0.
         24    2    4    4    0    0 -0.19530248545E+01 -0.29063937155E+03 -0.81897088543E+03  0.87286444262E+03  0.81877746749E+02 0.  0.
         13    1    3    3    0    0 -0.13772936153E+03  0.24979886755E+03 -0.12089200109E+03  0.30981240644E+03  0.00000000000E+00 0. -1.
        -13    1    3    3    0    0 -0.40064157547E+02  0.12933021219E+03 -0.44193580864E+00  0.13539437142E+03  0.00000000000E+00 0.  1.
          4    1    6    6  502    0  0.34107424989E+01 -0.92308641293E+02 -0.16083798982E+03  0.18547608307E+03  0.00000000000E+00 0. -1.
          3    1    5    5  503    0  0.97781842940E+02 -0.39906976582E+01  0.92217170005E+02  0.13446643046E+03  0.00000000000E+00 0. -1.
         -4    1    5    5    0  503  0.81964700992E+02 -0.84499010535E+02  0.12787982942E+03  0.17381468799E+03  0.00000000000E+00 0.  1.
         -3    1    6    6    0  502 -0.53637673534E+01 -0.19833073025E+03 -0.65813289561E+03  0.68738835955E+03  0.00000000000E+00 0.  1.
<mgrwt>
<rscale>  0 0.14581916E+04</rscale>
<asrwt>0</asrwt>
<pdfrwt beam="1">  1        2 0.18050462E+00 0.14581916E+04</pdfrwt>
<pdfrwt beam="2">  1       -2 0.69703426E-01 0.14581916E+04</pdfrwt>
<totfact> 0.35743780E+01</totfact>
</mgrwt>
</event>
<event>
12    1  0.1518126E-007  0.1793264E+04  0.7818608E-02  0.8709890E-01
          1   -1    0    0  501    0  0.00000000000E+00  0.00000000000E+00  0.70495916267E+03  0.70495916267E+03  0.00000000000E+00 0. -1.
         -1   -1    0    0    0  501 -0.00000000000E+00 -0.00000000000E+00 -0.11404186935E+04  0.11404186935E+04  0.00000000000E+00 0.  1.
         23    2    1    2    0    0 -0.16571232084E+03  0.49404975891E+03  0.25518460134E+03  0.58832840081E+03  0.97290230135E+02 0.  0.
        254    2    1    2    0    0  0.16571232084E+03 -0.49404975891E+03 -0.69064413218E+03  0.12570494554E+04  0.91194203676E+03 0.  0.
        -24    2    4    4    0    0 -0.11217797454E+02 -0.73187991615E+03 -0.55242951225E+03  0.92050635867E+03  0.79872020801E+02 0.  0.
         24    2    4    4    0    0  0.17693011829E+03  0.23783015725E+03 -0.13821461993E+03  0.33654309671E+03  0.79312825710E+02 0.  0.
         13    1    3    3    0    0 -0.19412592220E+02  0.99069113453E+02  0.92103791469E+02  0.13665520985E+03  0.00000000000E+00 0. -1.
        -13    1    3    3    0    0 -0.14629972862E+03  0.39498064545E+03  0.16308080987E+03  0.45167319095E+03  0.00000000000E+00 0.  1.
          4    1    6    6  502    0  0.17329945792E+03  0.24128020066E+03 -0.14293089248E+03  0.32966358211E+03  0.00000000000E+00 0. -1.
          3    1    5    5  503    0 -0.38934692472E+02 -0.59680840923E+03 -0.43772510507E+03  0.74114739102E+03  0.00000000000E+00 0. -1.
         -2    1    5    5    0  503  0.27716895018E+02 -0.13507150692E+03 -0.11470440718E+03  0.17935896765E+03  0.00000000000E+00 0.  1.
         -3    1    6    6    0  502  0.36306603705E+01 -0.34500434121E+01  0.47162725491E+01  0.68795145925E+01  0.00000000000E+00 0.  1.
<mgrwt>
<rscale>  0 0.17932636E+04</rscale>
<asrwt>0</asrwt>
<pdfrwt beam="1">  1        1 0.10845526E+00 0.17932636E+04</pdfrwt>
<pdfrwt beam="2">  1       -1 0.17544903E+00 0.17932636E+04</pdfrwt>
<totfact> 0.57122353E+00</totfact>
</mgrwt>
</event>
<event>
12    1  0.1518126E-007  0.1188355E+04  0.7818608E-02  0.9123110E-01
         -2   -1    0    0    0  501 -0.00000000000E+00  0.00000000000E+00  0.20591832584E+03  0.20591832584E+03  0.00000000000E+00 0.  1.
          2   -1    0    0  501    0  0.00000000000E+00 -0.00000000000E+00 -0.17145010538E+04  0.17145010538E+04  0.00000000000E+00 0. -1.
         23    2    1    2    0    0 -0.11795281822E+03  0.15590254545E+03 -0.86362027876E+02  0.23242692528E+03  0.91353186763E+02 0.  0.
        254    2    1    2    0    0  0.11795281822E+03 -0.15590254545E+03 -0.14222207000E+04  0.16879924543E+04  0.88791234658E+03 0.  0.
        -24    2    4    4    0    0  0.18009976692E+03  0.19729360024E+03 -0.70908584194E+02  0.28764065688E+03  0.79677032073E+02 0.  0.
         24    2    4    4    0    0 -0.62146948696E+02 -0.35319614569E+03 -0.13513121159E+04  0.14003517974E+04  0.79567339890E+02 0.  0.
         11    1    3    3    0    0 -0.11710804728E+03  0.11561438299E+03 -0.36938862670E+02  0.16865781888E+03  0.00000000000E+00 0.  1.
        -11    1    3    3    0    0 -0.84477093589E+00  0.40288162459E+02 -0.49423165206E+02  0.63769106401E+02  0.00000000000E+00 0. -1.
          2    1    6    6  502    0 -0.31483893843E+02 -0.12262394482E+03 -0.34466664525E+03  0.36718246658E+03  0.00000000000E+00 0. -1.
          3    1    5    5  503    0  0.39631254835E+02  0.26612484135E+02  0.15664119830E+02  0.50241669177E+02  0.00000000000E+00 0. -1.
         -4    1    5    5    0  503  0.14046851208E+03  0.17068111611E+03 -0.86572704024E+02  0.23739898771E+03  0.00000000000E+00 0.  1.
         -1    1    6    6    0  502 -0.30663054853E+02 -0.23057220088E+03 -0.10066454706E+04  0.10331693309E+04  0.00000000000E+00 0.  1.
<mgrwt>
<rscale>  0 0.11883555E+04</rscale>
<asrwt>0</asrwt>
<pdfrwt beam="1">  1        2 0.26376939E+00 0.11883555E+04</pdfrwt>
<pdfrwt beam="2">  1       -2 0.31679743E-01 0.11883555E+04</pdfrwt>
<totfact> 0.87997067E+01</totfact>
</mgrwt>
</event>
<event>
12    1  0.1518126E-007  0.2952930E+04  0.7818608E-02  0.8257301E-01
         -2   -1    0    0    0  501 -0.00000000000E+00  0.00000000000E+00  0.20266068345E+04  0.20266068345E+04  0.00000000000E+00 0.  1.
          2   -1    0    0  501    0  0.00000000000E+00 -0.00000000000E+00 -0.10756645241E+04  0.10756645241E+04  0.00000000000E+00 0. -1.
         23    2    1    2    0    0  0.45469971643E+03  0.70616231550E+03  0.15139139934E+04  0.17336813805E+04  0.91096112931E+02 0.  0.
        254    2    1    2    0    0 -0.45469971643E+03 -0.70616231550E+03 -0.56297168304E+03  0.13685899780E+04  0.92232551961E+03 0.  0.
        -24    2    4    4    0    0 -0.42308303501E+03 -0.39458288111E+03  0.13565695795E+03  0.59950499340E+03  0.79426206621E+02 0.  0.
         24    2    4    4    0    0 -0.31616681423E+02 -0.31157943439E+03 -0.69862864099E+03  0.76908498464E+03  0.72995733440E+02 0.  0.
         11    1    3    3    0    0  0.45812270320E+03  0.70078674206E+03  0.14920070572E+04  0.17108663092E+04  0.00000000000E+00 0.  1.
        -11    1    3    3    0    0 -0.34229867670E+01  0.53755734398E+01  0.21906936180E+02  0.22815071356E+02  0.00000000000E+00 0. -1.
          2    1    6    6  502    0  0.15647742994E+02 -0.16679411587E+02 -0.52880089898E+02  0.57613874539E+02  0.00000000000E+00 0. -1.
          1    1    5    5  503    0 -0.60796067854E+00  0.10604875420E+01  0.63007660757E+01  0.64182476701E+01  0.00000000000E+00 0. -1.
         -2    1    5    5    0  503 -0.42247507433E+03 -0.39564336865E+03  0.12935619188E+03  0.59308674573E+03  0.00000000000E+00 0.  1.
         -1    1    6    6    0  502 -0.47264424417E+02 -0.29490002281E+03 -0.64574855110E+03  0.71147111010E+03  0.00000000000E+00 0.  1.
<mgrwt>
<rscale>  0 0.29529301E+04</rscale>
<asrwt>0</asrwt>
<pdfrwt beam="1">  1        2 0.16548685E+00 0.29529301E+04</pdfrwt>
<pdfrwt beam="2">  1       -2 0.31178567E+00 0.29529301E+04</pdfrwt>
<totfact> 0.52150515E-01</totfact>
</mgrwt>
</event>
<event>
12    1  0.1518126E-007  0.4034747E+04  0.7818608E-02  0.7997574E-01
          1   -1    0    0  501    0  0.00000000000E+00  0.00000000000E+00  0.24971575411E+04  0.24971575411E+04  0.00000000000E+00 0. -1.
         -1   -1    0    0    0  501 -0.00000000000E+00 -0.00000000000E+00 -0.16297711036E+04  0.16297711036E+04  0.00000000000E+00 0.  1.
         23    2    1    2    0    0 -0.10351866409E+04  0.97762016182E+03  0.17227232129E+04  0.22368079293E+04  0.90453756323E+02 0.  0.
        254    2    1    2    0    0  0.10351866409E+04 -0.97762016182E+03 -0.85533677543E+03  0.18901207153E+04  0.90199931081E+03 0.  0.
        -24    2    4    4    0    0  0.10871774244E+04 -0.54956970273E+03 -0.76951690754E+03  0.14432070630E+04  0.81906930285E+02 0.  0.
         24    2    4    4    0    0 -0.51990783494E+02 -0.42805045910E+03 -0.85819867895E+02  0.44691365237E+03  0.80227961731E+02 0.  0.
         11    1    3    3    0    0 -0.80997890527E+03  0.76067939674E+03  0.12839010794E+04  0.16979696562E+04  0.00000000000E+00 0. -1.
        -11    1    3    3    0    0 -0.22520773567E+03  0.21694076508E+03  0.43882213348E+03  0.53883827313E+03  0.00000000000E+00 0.  1.
          4    1    6    6  502    0 -0.56976528670E+02 -0.42331068364E+03 -0.74366993915E+02  0.43355358318E+03  0.00000000000E+00 0. -1.
          3    1    5    5  503    0  0.32074286877E+03 -0.13437044806E+03 -0.25230998873E+03  0.42964140349E+03  0.00000000000E+00 0. -1.
         -4    1    5    5    0  503  0.76643455566E+03 -0.41519925466E+03 -0.51720691880E+03  0.10135656595E+04  0.00000000000E+00 0.  1.
         -3    1    6    6    0  502  0.49857451757E+01 -0.47397754612E+01 -0.11452873980E+02  0.13360069191E+02  0.00000000000E+00 0.  1.
<mgrwt>
<rscale>  0 0.40347467E+04</rscale>
<asrwt>0</asrwt>
<pdfrwt beam="1">  1        1 0.38417809E+00 0.40347467E+04</pdfrwt>
<pdfrwt beam="2">  1       -1 0.25073401E+00 0.40347467E+04</pdfrwt>
<totfact> 0.73236082E-02</totfact>
</mgrwt>
</event>
<event>
12    1  0.1518126E-007  0.4248107E+04  0.7818608E-02  0.7956284E-01
         -2   -1    0    0    0  501 -0.00000000000E+00  0.00000000000E+00  0.91241996845E+03  0.91241996845E+03  0.00000000000E+00 0.  1.
          2   -1    0    0  501    0  0.00000000000E+00 -0.00000000000E+00 -0.49446570030E+04  0.49446570030E+04  0.00000000000E+00 0. -1.
         23    2    1    2    0    0 -0.18474105825E+03 -0.19435350300E+04 -0.11650199690E+04  0.22752323969E+04  0.89181052531E+02 0.  0.
        254    2    1    2    0    0  0.18474105825E+03  0.19435350300E+04 -0.28672170656E+04  0.35818445746E+04  0.89287131423E+03 0.  0.
        -24    2    4    4    0    0 -0.12823876983E+03  0.66399698937E+03 -0.41574811480E+03  0.79768556334E+03  0.78221346329E+02 0.  0.
         24    2    4    4    0    0  0.31297982808E+03  0.12795380407E+04 -0.24514689508E+04  0.27841590113E+04  0.81654228074E+02 0.  0.
         11    1    3    3    0    0 -0.24248496842E+02 -0.70812915570E+03 -0.42246069023E+03  0.82492904273E+03  0.00000000000E+00 0. -1.
        -11    1    3    3    0    0 -0.16049256141E+03 -0.12354058743E+04 -0.74255927873E+03  0.14503033541E+04  0.00000000000E+00 0.  1.
          2    1    6    6  502    0  0.88745460564E+02  0.47579844290E+03 -0.83989261355E+03  0.96937068108E+03  0.00000000000E+00 0. -1.
          3    1    5    5  503    0 -0.39110639919E+02  0.25132002711E+03 -0.11387468522E+03  0.27867336097E+03  0.00000000000E+00 0. -1.
         -4    1    5    5    0  503 -0.89128129910E+02  0.41267696226E+03 -0.30187342957E+03  0.51901220236E+03  0.00000000000E+00 0.  1.
         -1    1    6    6    0  502  0.22423436752E+03  0.80373959776E+03 -0.16115763373E+04  0.18147883302E+04  0.00000000000E+00 0.  1.
<mgrwt>
<rscale>  0 0.42481072E+04</rscale>
<asrwt>0</asrwt>
<pdfrwt beam="1">  1        2 0.76071646E+00 0.42481072E+04</pdfrwt>
<pdfrwt beam="2">  1       -2 0.14037230E+00 0.42481072E+04</pdfrwt>
<totfact> 0.10955626E-02</totfact>
</mgrwt>
</event>
<event>
12    1  0.1518126E-007  0.2203133E+04  0.7818608E-02  0.8517125E-01
         -2   -1    0    0    0  501 -0.00000000000E+00  0.00000000000E+00  0.82087858197E+03  0.82087858197E+03  0.00000000000E+00 0.  1.
          2   -1    0    0  501    0  0.00000000000E+00 -0.00000000000E+00 -0.14782315108E+04  0.14782315108E+04  0.00000000000E+00 0. -1.
         23    2    1    2    0    0 -0.36032102732E+03 -0.64152091132E+03  0.28711800658E+03  0.79532084252E+03  0.93371143596E+02 0.  0.
        254    2    1    2    0    0  0.36032102732E+03  0.64152091132E+03 -0.94447093542E+03  0.15037892503E+04  0.90993210679E+03 0.  0.
        -24    2    4    4    0    0  0.35190940518E+03  0.17753127673E+03  0.48223352017E+02  0.40516410934E+03  0.80466639940E+02 0.  0.
         24    2    4    4    0    0  0.84116221438E+01  0.46398963459E+03 -0.99269428744E+03  0.10986251409E+04  0.78600989624E+02 0.  0.
         13    1    3    3    0    0 -0.23377118141E+02 -0.51295581265E+02  0.50485291471E+02  0.75673581684E+02  0.00000000000E+00 0. -1.
        -13    1    3    3    0    0 -0.33694390918E+03 -0.59022533005E+03  0.23663271511E+03  0.71964726084E+03  0.00000000000E+00 0.  1.
          2    1    6    6  502    0  0.63846069759E+00  0.44451621221E+03 -0.97355597280E+03  0.10702365639E+04  0.00000000000E+00 0. -1.
          3    1    5    5  503    0  0.35374373599E+03  0.16717673600E+03  0.43609475626E+02  0.39368068047E+03  0.00000000000E+00 0. -1.
         -4    1    5    5    0  503 -0.18343308078E+01  0.10354540727E+02  0.46138763904E+01  0.11483428866E+02  0.00000000000E+00 0.  1.
         -1    1    6    6    0  502  0.77731614462E+01  0.19473422379E+02 -0.19138314642E+02  0.28388577022E+02  0.00000000000E+00 0.  1.
<mgrwt>
<rscale>  0 0.22031328E+04</rscale>
<asrwt>0</asrwt>
<pdfrwt beam="1">  1        2 0.22742023E+00 0.22031328E+04</pdfrwt>
<pdfrwt beam="2">  1       -2 0.12628901E+00 0.22031328E+04</pdfrwt>
<totfact> 0.55771185E+00</totfact>
</mgrwt>
</event>
<event>
12    1  0.1518126E-007  0.2232197E+04  0.7818608E-02  0.8505145E-01
          2   -1    0    0  501    0  0.00000000000E+00  0.00000000000E+00  0.77023043732E+03  0.77023043732E+03  0.00000000000E+00 0. -1.
         -2   -1    0    0    0  501 -0.00000000000E+00 -0.00000000000E+00 -0.16172762850E+04  0.16172762850E+04  0.00000000000E+00 0.  1.
         23    2    1    2    0    0 -0.82213499809E+03 -0.43692955928E+03 -0.42211343130E+03  0.10263703827E+04  0.91885900334E+02 0.  0.
        254    2    1    2    0    0  0.82213499809E+03  0.43692955928E+03 -0.42493241638E+03  0.13611363397E+04  0.89739132032E+03 0.  0.
        -24    2    4    4    0    0  0.22974212105E+03  0.61932040015E+03 -0.18384231649E+03  0.69109922566E+03  0.86492439874E+02 0.  0.
         24    2    4    4    0    0  0.59239287704E+03 -0.18239084087E+03 -0.24109009989E+03  0.67003711400E+03  0.81422099373E+02 0.  0.
         13    1    3    3    0    0 -0.18088098915E+02 -0.14127313409E+02 -0.27797676115E+02  0.36048177539E+02  0.00000000000E+00 0.  1.
        -13    1    3    3    0    0 -0.80404689918E+03 -0.42280224587E+03 -0.39431575518E+03  0.99032220513E+03  0.00000000000E+00 0. -1.
          4    1    6    6  502    0  0.16230077669E+03 -0.83048787028E+02 -0.50091619176E+02  0.18907092175E+03  0.00000000000E+00 0. -1.
          1    1    5    5  503    0  0.29607465883E+02  0.13348832987E+03 -0.69419287188E+02  0.15334527603E+03  0.00000000000E+00 0. -1.
         -2    1    5    5    0  503  0.20013465516E+03  0.48583207028E+03 -0.11442302930E+03  0.53775394963E+03  0.00000000000E+00 0.  1.
         -3    1    6    6    0  502  0.43009210036E+03 -0.99342053839E+02 -0.19099848071E+03  0.48096619225E+03  0.00000000000E+00 0.  1.
<mgrwt>
<rscale>  0 0.22321966E+04</rscale>
<asrwt>0</asrwt>
<pdfrwt beam="1">  1        2 0.11849699E+00 0.22321966E+04</pdfrwt>
<pdfrwt beam="2">  1       -2 0.24881173E+00 0.22321966E+04</pdfrwt>
<totfact> 0.21574105E+00</totfact>
</mgrwt>
</event>
<event>
12    1  0.1518126E-007  0.1299540E+04  0.7818608E-02  0.9029930E-01
          1   -1    0    0  501    0  0.00000000000E+00  0.00000000000E+00  0.11280876342E+04  0.11280876342E+04  0.00000000000E+00 0. -1.
         -1   -1    0    0    0  501 -0.00000000000E+00 -0.00000000000E+00 -0.37426268754E+03  0.37426268754E+03  0.00000000000E+00 0.  1.
         23    2    1    2    0    0  0.14871567572E+02 -0.34795904000E+02  0.56441914938E+03  0.57285353317E+03  0.90334244964E+02 0.  0.
        254    2    1    2    0    0 -0.14871567572E+02  0.34795904000E+02  0.18940579724E+03  0.92949678854E+03  0.90920724009E+03 0.  0.
        -24    2    4    4    0    0  0.26096683203E+03 -0.15944763251E+03 -0.22576175055E+03  0.38833342994E+03  0.79418196093E+02 0.  0.
         24    2    4    4    0    0 -0.27583839960E+03  0.19424353651E+03  0.41516754779E+03  0.54116335860E+03  0.81708713015E+02 0.  0.
         13    1    3    3    0    0 -0.34231714391E+01 -0.45417764709E+02  0.53320150748E+03  0.53514328832E+03  0.00000000000E+00 0. -1.
        -13    1    3    3    0    0  0.18294739011E+02  0.10621860710E+02  0.31217641901E+02  0.37710244845E+02  0.00000000000E+00 0.  1.
          4    1    6    6  502    0 -0.88013035355E+02  0.11073993940E+03  0.16240391742E+03  0.21537098450E+03  0.00000000000E+00 0. -1.
          3    1    5    5  503    0  0.29947456547E+02 -0.11050717937E+02 -0.59006603204E+02  0.67087612435E+02  0.00000000000E+00 0. -1.
         -4    1    5    5    0  503  0.23101937548E+03 -0.14839691457E+03 -0.16675514735E+03  0.32124581751E+03  0.00000000000E+00 0.  1.
         -3    1    6    6    0  502 -0.18782536424E+03  0.83503597108E+02  0.25276363037E+03  0.32579237410E+03  0.00000000000E+00 0.  1.
<mgrwt>
<rscale>  0 0.12995401E+04</rscale>
<asrwt>0</asrwt>
<pdfrwt beam="1">  1        1 0.17355194E+00 0.12995401E+04</pdfrwt>
<pdfrwt beam="2">  1       -1 0.57578875E-01 0.12995401E+04</pdfrwt>
<totfact> 0.36252019E+01</totfact>
</mgrwt>
</event>
<event>
12    1  0.1518126E-007  0.1258131E+04  0.7818608E-02  0.9063443E-01
         -4   -1    0    0    0  501 -0.00000000000E+00  0.00000000000E+00  0.68459643534E+03  0.68459643534E+03  0.00000000000E+00 0.  1.
          4   -1    0    0  501    0  0.00000000000E+00 -0.00000000000E+00 -0.57803854261E+03  0.57803854261E+03  0.00000000000E+00 0. -1.
         23    2    1    2    0    0 -0.18354208022E+02  0.18299138884E+03 -0.20635476624E+03  0.29084681627E+03  0.90481244685E+02 0.  0.
        254    2    1    2    0    0  0.18354208022E+02 -0.18299138884E+03  0.31291265898E+03  0.97178816168E+03  0.90146279662E+03 0.  0.
        -24    2    4    4    0    0 -0.21512768620E+03  0.29898258072E+03  0.15303197879E+03  0.40724754215E+03  0.82226936669E+02 0.  0.
         24    2    4    4    0    0  0.23348189422E+03 -0.48197396956E+03  0.15988068019E+03  0.56454061953E+03  0.79571206740E+02 0.  0.
         11    1    3    3    0    0 -0.18321177953E+02  0.19274927152E+03 -0.18703482757E+03  0.26920247762E+03  0.00000000000E+00 0. -1.
        -11    1    3    3    0    0 -0.33030068949E-01 -0.97578826739E+01 -0.19319938675E+02  0.21644338651E+02  0.00000000000E+00 0.  1.
          4    1    6    6  502    0  0.23848907078E+02 -0.11916517255E+03  0.49541754115E+02  0.13123831041E+03  0.00000000000E+00 0. -1.
          1    1    5    5  503    0 -0.37612611229E+02  0.24543181754E+02  0.43530928103E+02  0.62546126943E+02  0.00000000000E+00 0. -1.
         -2    1    5    5    0  503 -0.17751507497E+03  0.27443939896E+03  0.10950105069E+03  0.34470141521E+03  0.00000000000E+00 0.  1.
         -3    1    6    6    0  502  0.20963298714E+03 -0.36280879701E+03  0.11033892607E+03  0.43330230913E+03  0.00000000000E+00 0.  1.
<mgrwt>
<rscale>  0 0.12581306E+04</rscale>
<asrwt>0</asrwt>
<pdfrwt beam="1">  1        4 0.88929007E-01 0.12581306E+04</pdfrwt>
<pdfrwt beam="2">  1       -4 0.10532253E+00 0.12581306E+04</pdfrwt>
<totfact> 0.15557351E+00</totfact>
</mgrwt>
</event>
<event>
12    1  0.1518126E-007  0.1382433E+04  0.7818608E-02  0.8966633E-01
          1   -1    0    0  501    0  0.00000000000E+00  0.00000000000E+00  0.80575654250E+03  0.80575654250E+03  0.00000000000E+00 0. -1.
         -1   -1    0    0    0  501 -0.00000000000E+00 -0.00000000000E+00 -0.59295857078E+03  0.59295857078E+03  0.00000000000E+00 0.  1.
         23    2    1    2    0    0  0.49133347860E+02  0.57773424453E+02 -0.32311027070E+03  0.34414640431E+03  0.91020031461E+02 0.  0.
        254    2    1    2    0    0 -0.49133347860E+02 -0.57773424453E+02  0.53590824241E+03  0.10545687090E+04  0.90507771114E+03 0.  0.
        -24    2    4    4    0    0 -0.77874691144E+02  0.28195528123E+03 -0.10823968550E+03  0.32150819790E+03  0.78028479826E+02 0.  0.
         24    2    4    4    0    0  0.28741343284E+02 -0.33972870568E+03  0.64414792791E+03  0.73306051107E+03  0.78800390759E+02 0.  0.
         11    1    3    3    0    0  0.17731152016E+02 -0.24317428280E+02 -0.69443307217E+02  0.75684238698E+02  0.00000000000E+00 0. -1.
        -11    1    3    3    0    0  0.31402195844E+02  0.82090852733E+02 -0.25366696348E+03  0.26846216561E+03  0.00000000000E+00 0.  1.
          2    1    6    6  502    0  0.20472660693E+02 -0.27645795022E+02  0.38125910351E+02  0.51351775610E+02  0.00000000000E+00 0. -1.
          1    1    5    5  503    0 -0.49951397693E+02  0.11256639320E+03 -0.96291882506E+01  0.12352755270E+03  0.00000000000E+00 0. -1.
         -2    1    5    5    0  503 -0.27923293451E+02  0.16938888802E+03 -0.98610497250E+02  0.19798064519E+03  0.00000000000E+00 0.  1.
         -1    1    6    6    0  502  0.82686825913E+01 -0.31208291066E+03  0.60602201756E+03  0.68170873546E+03  0.00000000000E+00 0.  1.
<mgrwt>
<rscale>  0 0.13824330E+04</rscale>
<asrwt>0</asrwt>
<pdfrwt beam="1">  1        1 0.12396255E+00 0.13824330E+04</pdfrwt>
<pdfrwt beam="2">  1       -1 0.91224395E-01 0.13824330E+04</pdfrwt>
<totfact> 0.25027145E+01</totfact>
</mgrwt>
</event>
<event>
12    1  0.1518126E-007  0.1234746E+04  0.7818608E-02  0.9082976E-01
         -1   -1    0    0    0  501 -0.00000000000E+00  0.00000000000E+00  0.60378399798E+03  0.60378399798E+03  0.00000000000E+00 0.  1.
          1   -1    0    0  501    0  0.00000000000E+00 -0.00000000000E+00 -0.63126773547E+03  0.63126773547E+03  0.00000000000E+00 0. -1.
         23    2    1    2    0    0 -0.80506601391E+02  0.24368131515E+03  0.91138690809E+02  0.28721626016E+03  0.91241563552E+02 0.  0.
        254    2    1    2    0    0  0.80506601391E+02 -0.24368131515E+03 -0.11862242829E+03  0.94783547328E+03  0.90468718776E+03 0.  0.
        -24    2    4    4    0    0  0.40868767041E+03 -0.32531857905E+03  0.99924673146E+02  0.53766398185E+03  0.78992577184E+02 0.  0.
         24    2    4    4    0    0 -0.32818106902E+03  0.81637263901E+02 -0.21854710144E+03  0.41017149144E+03  0.78168791207E+02 0.  0.
         11    1    3    3    0    0  0.41852863805E+01  0.63281812237E+02 -0.92132447577E+01  0.64085788292E+02  0.00000000000E+00 0.  1.
        -11    1    3    3    0    0 -0.84691887771E+02  0.18039950291E+03  0.10035193557E+03  0.22313047187E+03  0.00000000000E+00 0. -1.
          4    1    6    6  502    0 -0.55447519366E+02  0.23301115409E+02 -0.79043680646E+01  0.60661754159E+02  0.00000000000E+00 0. -1.
          3    1    5    5  503    0  0.88172366853E+02 -0.89922615375E+02 -0.61554139082E+01  0.12608858851E+03  0.00000000000E+00 0. -1.
         -4    1    5    5    0  503  0.32051530356E+03 -0.23539596367E+03  0.10608008705E+03  0.41157539334E+03  0.00000000000E+00 0.  1.
         -3    1    6    6    0  502 -0.27273354966E+03  0.58336148492E+02 -0.21064273338E+03  0.34950973728E+03  0.00000000000E+00 0.  1.
<mgrwt>
<rscale>  0 0.12347459E+04</rscale>
<asrwt>0</asrwt>
<pdfrwt beam="1">  1        1 0.97118113E-01 0.12347459E+04</pdfrwt>
<pdfrwt beam="2">  1       -1 0.92889846E-01 0.12347459E+04</pdfrwt>
<totfact> 0.35372595E+01</totfact>
</mgrwt>
</event>
<event>
12    1  0.1518126E-007  0.1358938E+04  0.7818608E-02  0.8984090E-01
         -2   -1    0    0    0  501 -0.00000000000E+00  0.00000000000E+00  0.36172849165E+03  0.36172849165E+03  0.00000000000E+00 0.  1.
          2   -1    0    0  501    0  0.00000000000E+00 -0.00000000000E+00 -0.12763113717E+04  0.12763113717E+04  0.00000000000E+00 0. -1.
         23    2    1    2    0    0  0.22058106744E+03 -0.25375028384E+03 -0.58737996885E+02  0.35343087121E+03  0.91749738894E+02 0.  0.
        254    2    1    2    0    0 -0.22058106744E+03  0.25375028384E+03 -0.85584488320E+03  0.12846089922E+04  0.89705327868E+03 0.  0.
        -24    2    4    4    0    0 -0.25651142183E+03 -0.21784558153E+03 -0.55148739890E+02  0.35107432537E+03  0.83408581684E+02 0.  0.
         24    2    4    4    0    0  0.35930354394E+02  0.47159586537E+03 -0.80069614331E+03  0.93353466680E+03  0.81725207865E+02 0.  0.
         11    1    3    3    0    0  0.21461151495E+03 -0.26157595300E+03 -0.54481524769E+02  0.34270733590E+03  0.00000000000E+00 0.  1.
        -11    1    3    3    0    0  0.59695524846E+01  0.78256691617E+01 -0.42564721165E+01  0.10723535311E+02  0.00000000000E+00 0. -1.
          4    1    6    6  502    0  0.71952568134E+01  0.13733569745E+03 -0.16549129049E+03  0.21517488874E+03  0.00000000000E+00 0. -1.
          1    1    5    5  503    0 -0.64365796535E+02 -0.19002848008E+02  0.75746880939E+01  0.67538432730E+02  0.00000000000E+00 0. -1.
         -2    1    5    5    0  503 -0.19214562529E+03 -0.19884273352E+03 -0.62723427984E+02  0.28353589264E+03  0.00000000000E+00 0.  1.
         -3    1    6    6    0  502  0.28735097580E+02  0.33426016792E+03 -0.63520485282E+03  0.71835977806E+03  0.00000000000E+00 0.  1.
<mgrwt>
<rscale>  0 0.13589381E+04</rscale>
<asrwt>0</asrwt>
<pdfrwt beam="1">  1        2 0.19635560E+00 0.13589381E+04</pdfrwt>
<pdfrwt beam="2">  1       -2 0.55650537E-01 0.13589381E+04</pdfrwt>
<totfact> 0.50538256E+01</totfact>
</mgrwt>
</event>
<event>
12    1  0.1518126E-007  0.1865849E+04  0.7818608E-02  0.8672045E-01
         -1   -1    0    0    0  501 -0.00000000000E+00  0.00000000000E+00  0.16028246825E+04  0.16028246825E+04  0.00000000000E+00 0.  1.
          1   -1    0    0  501    0  0.00000000000E+00 -0.00000000000E+00 -0.54300910756E+03  0.54300910756E+03  0.00000000000E+00 0. -1.
         23    2    1    2    0    0  0.53455458641E+03  0.74366241650E+02 -0.12507660557E+03  0.56168812026E+03  0.92576689441E+02 0.  0.
        254    2    1    2    0    0 -0.53455458641E+03 -0.74366241650E+02  0.11848921805E+04  0.15841456698E+04  0.90236859428E+03 0.  0.
        -24    2    4    4    0    0 -0.74602112588E+03 -0.19250384144E+03  0.74019598527E+03  0.10713271265E+04  0.79034588725E+02 0.  0.
         24    2    4    4    0    0  0.21146653947E+03  0.11813759979E+03  0.44469619523E+03  0.51281854325E+03  0.80954076184E+02 0.  0.
         13    1    3    3    0    0  0.27933952807E+03  0.49240852617E+01 -0.31609816719E+02  0.28116543007E+03  0.00000000000E+00 0.  1.
        -13    1    3    3    0    0  0.25521505835E+03  0.69442156388E+02 -0.93466788852E+02  0.28052269019E+03  0.00000000000E+00 0. -1.
          2    1    6    6  502    0  0.12413338482E+03  0.85917942494E+02  0.19689590960E+03  0.24811084073E+03  0.00000000000E+00 0. -1.
          3    1    5    5  503    0 -0.31141177997E+02 -0.15102939238E+02  0.57070838658E+02  0.66745429550E+02  0.00000000000E+00 0. -1.
         -4    1    5    5    0  503 -0.71487994788E+03 -0.17740090220E+03  0.68312514661E+03  0.10045816970E+04  0.00000000000E+00 0.  1.
         -1    1    6    6    0  502  0.87333154650E+02  0.32219657293E+02  0.24780028563E+03  0.26470770252E+03  0.00000000000E+00 0.  1.
<mgrwt>
<rscale>  0 0.18658493E+04</rscale>
<asrwt>0</asrwt>
<pdfrwt beam="1">  1        1 0.83539863E-01 0.18658493E+04</pdfrwt>
<pdfrwt beam="2">  1       -1 0.24658841E+00 0.18658493E+04</pdfrwt>
<totfact> 0.27203291E+00</totfact>
</mgrwt>
</event>
<event>
12    1  0.1518126E-007  0.1351528E+04  0.7818608E-02  0.8989672E-01
          2   -1    0    0  501    0  0.00000000000E+00  0.00000000000E+00  0.18730932867E+04  0.18730932867E+04  0.00000000000E+00 0.  1.
         -2   -1    0    0    0  501 -0.00000000000E+00 -0.00000000000E+00 -0.24379838023E+03  0.24379838023E+03  0.00000000000E+00 0. -1.
         23    2    1    2    0    0  0.20911203329E+03 -0.29525557151E+03  0.58255929344E+03  0.69161318598E+03  0.89720530910E+02 0.  0.
        254    2    1    2    0    0 -0.20911203329E+03  0.29525557151E+03  0.10467356131E+04  0.14252784810E+04  0.89713968238E+03 0.  0.
        -24    2    4    4    0    0  0.70763934840E+02  0.20183579030E+03 -0.91891012827E+02  0.24608404853E+03  0.79800877105E+02 0.  0.
         24    2    4    4    0    0 -0.27987596813E+03  0.93419781219E+02  0.11386266259E+04  0.11791944324E+04  0.83493133027E+02 0.  0.
         11    1    3    3    0    0  0.53914205903E+02 -0.61406638288E+02  0.71603989745E+02  0.10864919775E+03  0.00000000000E+00 0. -1.
        -11    1    3    3    0    0  0.15519782738E+03 -0.23384893323E+03  0.51095530370E+03  0.58296398823E+03  0.00000000000E+00 0.  1.
          2    1    6    6  502    0 -0.77946257641E+01  0.23109812582E+02  0.12368186279E+03  0.12606356655E+03  0.00000000000E+00 0. -1.
          3    1    5    5  503    0 -0.93438907547E+01  0.43765290244E+02  0.33950274721E+01  0.44880231017E+02  0.00000000000E+00 0. -1.
         -4    1    5    5    0  503  0.80107825595E+02  0.15807050005E+03 -0.95286040299E+02  0.20120381752E+03  0.00000000000E+00 0.  1.
         -1    1    6    6    0  502 -0.27208134236E+03  0.70309968636E+02  0.10149447631E+04  0.10531308659E+04  0.00000000000E+00 0.  1.
<mgrwt>
<rscale>  0 0.13515282E+04</rscale>
<asrwt>0</asrwt>
<pdfrwt beam="1">  1        2 0.28816819E+00 0.13515282E+04</pdfrwt>
<pdfrwt beam="2">  1       -2 0.37507444E-01 0.13515282E+04</pdfrwt>
<totfact> 0.51476675E+01</totfact>
</mgrwt>
</event>
<event>
12    1  0.1518126E-007  0.3182238E+04  0.7818608E-02  0.8193524E-01
         -1   -1    0    0    0  501 -0.00000000000E+00  0.00000000000E+00  0.23424822334E+04  0.23424822334E+04  0.00000000000E+00 0.  1.
          1   -1    0    0  501    0  0.00000000000E+00 -0.00000000000E+00 -0.10807596229E+04  0.10807596229E+04  0.00000000000E+00 0. -1.
         23    2    1    2    0    0 -0.69190135835E+03 -0.54648190798E+03 -0.67566078618E+03  0.11146275963E+04  0.92234565220E+02 0.  0.
        254    2    1    2    0    0  0.69190135835E+03  0.54648190798E+03  0.19373833967E+04  0.23086142600E+04  0.89379830510E+03 0.  0.
        -24    2    4    4    0    0 -0.13484071605E+03  0.54918439292E+02  0.79845567307E+03  0.81579480273E+03  0.82411435037E+02 0.  0.
         24    2    4    4    0    0  0.82674207440E+03  0.49156346868E+03  0.11389277236E+04  0.14928194573E+04  0.78844600358E+02 0.  0.
         13    1    3    3    0    0 -0.22083648509E+03 -0.23019685304E+03 -0.25136014678E+03  0.40612961932E+03  0.00000000000E+00 0. -1.
        -13    1    3    3    0    0 -0.47106487327E+03 -0.31628505494E+03 -0.42430063940E+03  0.70849797699E+03  0.00000000000E+00 0.  1.
          2    1    6    6  502    0  0.52835360583E+03  0.27008442295E+03  0.70973328047E+03  0.92510780870E+03  0.00000000000E+00 0. -1.
          1    1    5    5  503    0 -0.13958041377E+03  0.38369257839E+02  0.62779700994E+03  0.64427011225E+03  0.00000000000E+00 0. -1.
         -4    1    5    5    0  503  0.47396977217E+01  0.16549181453E+02  0.17065866313E+03  0.17152469048E+03  0.00000000000E+00 0.  1.
         -1    1    6    6    0  502  0.29838846857E+03  0.22147904573E+03  0.42919444317E+03  0.56771164857E+03  0.00000000000E+00 0.  1.
<mgrwt>
<rscale>  0 0.31822383E+04</rscale>
<asrwt>0</asrwt>
<pdfrwt beam="1">  1        1 0.16627071E+00 0.31822383E+04</pdfrwt>
<pdfrwt beam="2">  1       -1 0.36038188E+00 0.31822383E+04</pdfrwt>
<totfact> 0.14552610E-01</totfact>
</mgrwt>
</event>
<event>
12    1  0.1518126E-007  0.1295566E+04  0.7818608E-02  0.9033089E-01
          2   -1    0    0  501    0  0.00000000000E+00  0.00000000000E+00  0.13020989213E+04  0.13020989213E+04  0.00000000000E+00 0. -1.
         -2   -1    0    0    0  501 -0.00000000000E+00 -0.00000000000E+00 -0.32226661507E+03  0.32226661507E+03  0.00000000000E+00 0.  1.
         23    2    1    2    0    0  0.10853841558E+03  0.30551743276E+03  0.22492242423E+03  0.40510419243E+03  0.91639622572E+02 0.  0.
        254    2    1    2    0    0 -0.10853841558E+03 -0.30551743276E+03  0.75490988198E+03  0.12192613439E+04  0.90088168228E+03 0.  0.
        -24    2    4    4    0    0  0.13437668650E+03 -0.52899150351E+03  0.67221913064E+03  0.86965893033E+03  0.80864026924E+02 0.  0.
         24    2    4    4    0    0 -0.24291510209E+03  0.22347407075E+03  0.82690751334E+02  0.34960241357E+03  0.80222690688E+02 0.  0.
         13    1    3    3    0    0  0.10213066049E+02  0.22992262530E+02 -0.75292976943E+01  0.26261020127E+02  0.00000000000E+00 0. -1.
        -13    1    3    3    0    0  0.98325349535E+02  0.28252517023E+03  0.23245172192E+03  0.37884317230E+03  0.00000000000E+00 0.  1.
          2    1    6    6  502    0 -0.14644750707E+03  0.17618448362E+03  0.33860419432E+02  0.23159095967E+03  0.00000000000E+00 0. -1.
          1    1    5    5  503    0  0.50566877905E+02 -0.25847894624E+03  0.26478277564E+03  0.37346792776E+03  0.00000000000E+00 0. -1.
         -2    1    5    5    0  503  0.83809808598E+02 -0.27051255726E+03  0.40743635501E+03  0.49619100257E+03  0.00000000000E+00 0.  1.
         -1    1    6    6    0  502 -0.96467595016E+02  0.47289587126E+02  0.48830331903E+02  0.11801145390E+03  0.00000000000E+00 0.  1.
<mgrwt>
<rscale>  0 0.12955663E+04</rscale>
<asrwt>0</asrwt>
<pdfrwt beam="1">  1        2 0.20032291E+00 0.12955663E+04</pdfrwt>
<pdfrwt beam="2">  1       -2 0.49579480E-01 0.12955663E+04</pdfrwt>
<totfact> 0.62210849E+01</totfact>
</mgrwt>
</event>
<event>
12    1  0.1518126E-007  0.1489277E+04  0.7818608E-02  0.8891615E-01
         -2   -1    0    0    0  501 -0.00000000000E+00  0.00000000000E+00  0.29927216951E+03  0.29927216951E+03  0.00000000000E+00 0.  1.
          2   -1    0    0  501    0  0.00000000000E+00 -0.00000000000E+00 -0.18527825442E+04  0.18527825442E+04  0.00000000000E+00 0. -1.
         23    2    1    2    0    0 -0.14449110500E+03  0.11573605440E+02 -0.11576535869E+04  0.11705196516E+04  0.94566377839E+02 0.  0.
        254    2    1    2    0    0  0.14449110500E+03 -0.11573605440E+02 -0.39585678779E+03  0.98153506208E+03  0.88639542750E+03 0.  0.
        -24    2    4    4    0    0  0.38237030871E+03  0.33795454546E+02  0.11680756981E+03  0.40901812208E+03  0.79389105611E+02 0.  0.
         24    2    4    4    0    0 -0.23787920372E+03 -0.45369059986E+02 -0.51266435759E+03  0.57251694000E+03  0.79410552681E+02 0.  0.
         11    1    3    3    0    0 -0.32271342546E+02  0.18374476494E+02 -0.96038965887E+02  0.10296865496E+03  0.00000000000E+00 0.  1.
        -11    1    3    3    0    0 -0.11221976245E+03 -0.68008710542E+01 -0.10616146210E+04  0.10675509967E+04  0.00000000000E+00 0. -1.
          2    1    6    6  502    0 -0.22909887364E+03 -0.30446217607E+02 -0.50071738960E+03  0.55148088844E+03  0.00000000000E+00 0. -1.
          1    1    5    5  503    0  0.18953059672E+03  0.43849050405E+02  0.88984096254E+02  0.21392231231E+03  0.00000000000E+00 0. -1.
         -2    1    5    5    0  503  0.19283971199E+03 -0.10053595858E+02  0.27823473551E+02  0.19509580977E+03  0.00000000000E+00 0.  1.
         -1    1    6    6    0  502 -0.87803300818E+01 -0.14922842379E+02 -0.11946967992E+02  0.21036051560E+02  0.00000000000E+00 0.  1.
<mgrwt>
<rscale>  0 0.14892767E+04</rscale>
<asrwt>0</asrwt>
<pdfrwt beam="1">  1        2 0.28504347E+00 0.14892767E+04</pdfrwt>
<pdfrwt beam="2">  1       -2 0.46041872E-01 0.14892767E+04</pdfrwt>
<totfact> 0.34888128E+01</totfact>
</mgrwt>
</event>
<event>
12    1  0.1518126E-007  0.2390125E+04  0.7818608E-02  0.8443210E-01
          1   -1    0    0  501    0  0.00000000000E+00  0.00000000000E+00  0.65942054082E+03  0.65942054082E+03  0.00000000000E+00 0. -1.
         -1   -1    0    0    0  501 -0.00000000000E+00 -0.00000000000E+00 -0.21658014616E+04  0.21658014616E+04  0.00000000000E+00 0.  1.
         23    2    1    2    0    0 -0.43825269953E+02  0.32483558786E+03  0.49959576397E+03  0.60369338857E+03  0.86086971152E+02 0.  0.
        254    2    1    2    0    0  0.43825269953E+02 -0.32483558786E+03 -0.20059766847E+04  0.22215286138E+04  0.89655346128E+03 0.  0.
        -24    2    4    4    0    0  0.12640340956E+03  0.19899041947E+02 -0.17961939966E+04  0.18026170885E+04  0.82107857482E+02 0.  0.
         24    2    4    4    0    0 -0.82578139612E+02 -0.34473462980E+03 -0.20978268810E+03  0.41891152537E+03  0.76269100752E+02 0.  0.
         13    1    3    3    0    0 -0.15215388836E+02  0.27477436438E+01  0.20206246992E+02  0.25443084916E+02  0.00000000000E+00 0.  1.
        -13    1    3    3    0    0 -0.28609881116E+02  0.32208784421E+03  0.47938951698E+03  0.57825030365E+03  0.00000000000E+00 0. -1.
          4    1    6    6  502    0 -0.49016793400E+02 -0.30374306231E+03 -0.16273855222E+03  0.34806081410E+03  0.00000000000E+00 0. -1.
          1    1    5    5  503    0  0.98938952858E+02 -0.21904025979E+00 -0.16284690275E+04  0.16314718318E+04  0.00000000000E+00 0. -1.
         -4    1    5    5    0  503  0.27464456706E+02  0.20118082207E+02 -0.16772496912E+03  0.17114525667E+03  0.00000000000E+00 0.  1.
         -3    1    6    6    0  502 -0.33561346212E+02 -0.40991567492E+02 -0.47044135886E+02  0.70850711262E+02  0.00000000000E+00 0.  1.
<mgrwt>
<rscale>  0 0.23901247E+04</rscale>
<asrwt>0</asrwt>
<pdfrwt beam="1">  1        1 0.10144931E+00 0.23901247E+04</pdfrwt>
<pdfrwt beam="2">  1       -1 0.33320022E+00 0.23901247E+04</pdfrwt>
<totfact> 0.53649283E-01</totfact>
</mgrwt>
</event>
<event>
12    1  0.1518126E-007  0.2016232E+04  0.7818608E-02  0.8599069E-01
         -2   -1    0    0    0  501 -0.00000000000E+00  0.00000000000E+00  0.56218158105E+03  0.56218158105E+03  0.00000000000E+00 0. -1.
          2   -1    0    0  501    0  0.00000000000E+00 -0.00000000000E+00 -0.18077752547E+04  0.18077752547E+04  0.00000000000E+00 0.  1.
         23    2    1    2    0    0  0.21153917111E+03 -0.47144275908E+03  0.23022554339E+03  0.57296681544E+03  0.90994916165E+02 0.  0.
        254    2    1    2    0    0 -0.21153917111E+03  0.47144275908E+03 -0.14758192171E+04  0.17969900203E+04  0.88550758084E+03 0.  0.
        -24    2    4    4    0    0 -0.37574780439E+02  0.62975293066E+01 -0.12372109988E+04  0.12405350640E+04  0.82369086213E+02 0.  0.
         24    2    4    4    0    0 -0.17396439067E+03  0.46514522978E+03 -0.23860821827E+03  0.55645495638E+03  0.78003478466E+02 0.  0.
         13    1    3    3    0    0  0.20221009325E+03 -0.36709110810E+03  0.19671331112E+03  0.46296968608E+03  0.00000000000E+00 0. -1.
        -13    1    3    3    0    0  0.93290778579E+01 -0.10435165099E+03  0.33512232268E+02  0.10999712937E+03  0.00000000000E+00 0.  1.
          4    1    6    6  502    0 -0.16320976395E+03  0.46399335460E+03 -0.23267738994E+03  0.54411949786E+03  0.00000000000E+00 0. -1.
          1    1    5    5  503    0 -0.35517776473E+02  0.41978019663E+02 -0.76423423560E+03  0.76620991473E+03  0.00000000000E+00 0. -1.
         -2    1    5    5    0  503 -0.20570039659E+01 -0.35680490357E+02 -0.47297676320E+03  0.47432514922E+03  0.00000000000E+00 0.  1.
         -3    1    6    6    0  502 -0.10754626716E+02  0.11518751731E+01 -0.59308283329E+01  0.12335458521E+02  0.00000000000E+00 0.  1.
<mgrwt>
<rscale>  0 0.20162321E+04</rscale>
<asrwt>0</asrwt>
<pdfrwt beam="1">  1        2 0.27811927E+00 0.20162321E+04</pdfrwt>
<pdfrwt beam="2">  1       -2 0.86489474E-01 0.20162321E+04</pdfrwt>
<totfact> 0.91792538E+00</totfact>
</mgrwt>
</event>
<event>
12    1  0.1518126E-007  0.2005447E+04  0.7818608E-02  0.8604078E-01
          2   -1    0    0  501    0  0.00000000000E+00  0.00000000000E+00  0.17000808407E+04  0.17000808407E+04  0.00000000000E+00 0. -1.
         -2   -1    0    0    0  501 -0.00000000000E+00 -0.00000000000E+00 -0.59141583931E+03  0.59141583931E+03  0.00000000000E+00 0.  1.
         23    2    1    2    0    0  0.65300827700E+03 -0.68685806442E+02 -0.72354834795E+02  0.66682895782E+03  0.91038931396E+02 0.  0.
        254    2    1    2    0    0 -0.65300827700E+03  0.68685806442E+02  0.11810198362E+04  0.16246677222E+04  0.90199767420E+03 0.  0.
        -24    2    4    4    0    0 -0.94033074410E+02  0.42721033664E+02  0.10318213297E+04  0.10400306160E+04  0.79631149806E+02 0.  0.
         24    2    4    4    0    0 -0.55897520259E+03  0.25964772778E+02  0.14919850654E+03  0.58463710623E+03  0.80080616215E+02 0.  0.
         11    1    3    3    0    0  0.53461956350E+03 -0.56313511512E+02 -0.23294763553E+02  0.53808171802E+03  0.00000000000E+00 0. -1.
        -11    1    3    3    0    0  0.11838871350E+03 -0.12372294930E+02 -0.49060071242E+02  0.12874723980E+03  0.00000000000E+00 0.  1.
          2    1    6    6  502    0 -0.12922372750E+03 -0.20748329591E+01  0.69214698972E+02  0.14660747333E+03  0.00000000000E+00 0. -1.
          3    1    5    5  503    0 -0.68167566426E+00 -0.18636729747E+02  0.13720274894E+03  0.13846438782E+03  0.00000000000E+00 0. -1.
         -4    1    5    5    0  503 -0.93351398745E+02  0.61357763411E+02  0.89461858073E+03  0.90156622817E+03  0.00000000000E+00 0.  1.
         -1    1    6    6    0  502 -0.42975147509E+03  0.28039605737E+02  0.79983807569E+02  0.43802963291E+03  0.00000000000E+00 0.  1.
<mgrwt>
<rscale>  0 0.20054473E+04</rscale>
<asrwt>0</asrwt>
<pdfrwt beam="1">  1        2 0.26155090E+00 0.20054473E+04</pdfrwt>
<pdfrwt beam="2">  1       -2 0.90987053E-01 0.20054473E+04</pdfrwt>
<totfact> 0.93838533E+00</totfact>
</mgrwt>
</event>
<event>
12    1  0.1518126E-007  0.2988994E+04  0.7818608E-02  0.8246881E-01
          1   -1    0    0  501    0  0.00000000000E+00  0.00000000000E+00  0.15127323267E+04  0.15127323267E+04  0.00000000000E+00 0. -1.
         -1   -1    0    0    0  501 -0.00000000000E+00 -0.00000000000E+00 -0.14764813426E+04  0.14764813426E+04  0.00000000000E+00 0.  1.
         23    2    1    2    0    0  0.71702803182E+03 -0.79387643980E+03 -0.83006017927E+03  0.13569700838E+04  0.89436608563E+02 0.  0.
        254    2    1    2    0    0 -0.71702803182E+03  0.79387643980E+03  0.86631116331E+03  0.16322435855E+04  0.87712889056E+03 0.  0.
        -24    2    4    4    0    0 -0.48747945421E+03  0.81618834601E+03  0.27532864742E+03  0.99283833385E+03  0.78246141375E+02 0.  0.
         24    2    4    4    0    0 -0.22954857761E+03 -0.22311906211E+02  0.59098251590E+03  0.63940525165E+03  0.79927286378E+02 0.  0.
         11    1    3    3    0    0  0.19321121507E+03 -0.23518410892E+03 -0.18941125548E+03  0.35849513584E+03  0.00000000000E+00 0. -1.
        -11    1    3    3    0    0  0.52381681676E+03 -0.55869233088E+03 -0.64064892379E+03  0.99847494793E+03  0.00000000000E+00 0.  1.
          4    1    6    6  502    0 -0.11738547754E+03 -0.50003853098E+02  0.28167595196E+03  0.30922657967E+03  0.00000000000E+00 0. -1.
          3    1    5    5  503    0 -0.27223594218E+03  0.45318458116E+03  0.19344411227E+03  0.56294697564E+03  0.00000000000E+00 0. -1.
         -4    1    5    5    0  503 -0.21524351204E+03  0.36300376485E+03  0.81884535152E+02  0.42989135821E+03  0.00000000000E+00 0.  1.
         -1    1    6    6    0  502 -0.11216310007E+03  0.27691946887E+02  0.30930656394E+03  0.33017867199E+03  0.00000000000E+00 0.  1.
<mgrwt>
<rscale>  0 0.29889938E+04</rscale>
<asrwt>0</asrwt>
<pdfrwt beam="1">  1        1 0.23272805E+00 0.29889938E+04</pdfrwt>
<pdfrwt beam="2">  1       -1 0.22715097E+00 0.29889938E+04</pdfrwt>
<totfact> 0.53839415E-01</totfact>
</mgrwt>
</event>
<event>
12    1  0.1518126E-007  0.1347249E+04  0.7818608E-02  0.8992913E-01
          2   -1    0    0  501    0  0.00000000000E+00  0.00000000000E+00  0.24103298335E+04  0.24103298335E+04  0.00000000000E+00 0.  1.
         -2   -1    0    0    0  501 -0.00000000000E+00 -0.00000000000E+00 -0.18826043434E+03  0.18826043434E+03  0.00000000000E+00 0. -1.
         23    2    1    2    0    0 -0.65693995065E+02  0.11917110076E+03 -0.31093676273E+02  0.16744146280E+03  0.92479049067E+02 0.  0.
        254    2    1    2    0    0  0.65693995065E+02 -0.11917110076E+03  0.22531630754E+04  0.24311488050E+04  0.90289712341E+03 0.  0.
        -24    2    4    4    0    0 -0.19919502474E+03 -0.43231930351E+03  0.14051155324E+04  0.14859700030E+04  0.84726337380E+02 0.  0.
         24    2    4    4    0    0  0.26488901980E+03  0.31314820275E+03  0.84804754298E+03  0.94517880202E+03  0.77138465963E+02 0.  0.
         13    1    3    3    0    0 -0.85124410559E+02  0.11038574953E+03 -0.13972159183E+02  0.14009425472E+03  0.00000000000E+00 0. -1.
        -13    1    3    3    0    0  0.19430415493E+02  0.87853512290E+01 -0.17121517090E+02  0.27347208083E+02  0.00000000000E+00 0.  1.
          2    1    6    6  502    0  0.11978211617E+03  0.97649211548E+02  0.37263629597E+03  0.40341161726E+03  0.00000000000E+00 0. -1.
          1    1    5    5  503    0 -0.20741141007E+01 -0.77088573991E+02  0.21277792382E+03  0.22632144188E+03  0.00000000000E+00 0. -1.
         -2    1    5    5    0  503 -0.19712091064E+03 -0.35523072952E+03  0.11923376086E+04  0.12596485611E+04  0.00000000000E+00 0.  1.
         -1    1    6    6    0  502  0.14510690363E+03  0.21549899120E+03  0.47541124702E+03  0.54176718476E+03  0.00000000000E+00 0.  1.
<mgrwt>
<rscale>  0 0.13472487E+04</rscale>
<asrwt>0</asrwt>
<pdfrwt beam="1">  1        2 0.37081995E+00 0.13472487E+04</pdfrwt>
<pdfrwt beam="2">  1       -2 0.28963145E-01 0.13472487E+04</pdfrwt>
<totfact> 0.42091614E+01</totfact>
</mgrwt>
</event>
<event>
12    1  0.1518126E-007  0.2900344E+04  0.7818608E-02  0.8272775E-01
          2   -1    0    0  501    0  0.00000000000E+00  0.00000000000E+00  0.23307558762E+04  0.23307558762E+04  0.00000000000E+00 0. -1.
         -2   -1    0    0    0  501 -0.00000000000E+00 -0.00000000000E+00 -0.90228160931E+03  0.90228160931E+03  0.00000000000E+00 0.  1.
         23    2    1    2    0    0  0.68655232576E+03  0.75412263868E+03  0.15561678235E+04  0.18627763874E+04  0.90678137111E+02 0.  0.
        254    2    1    2    0    0 -0.68655232576E+03 -0.75412263868E+03 -0.12769355661E+03  0.13702610981E+04  0.90623108658E+03 0.  0.
        -24    2    4    4    0    0  0.14207110746E+03 -0.18120212271E+03 -0.25430278529E+03  0.35178662205E+03  0.77881396977E+02 0.  0.
         24    2    4    4    0    0 -0.82862343322E+03 -0.57292051597E+03  0.12660922868E+03  0.10184744760E+04  0.80035303423E+02 0.  0.
         13    1    3    3    0    0  0.45943880239E+03  0.44674339108E+03  0.93793259982E+03  0.11359494850E+04  0.00000000000E+00 0. -1.
        -13    1    3    3    0    0  0.22711352337E+03  0.30737924760E+03  0.61823522365E+03  0.72682690244E+03  0.00000000000E+00 0.  1.
          4    1    6    6  502    0 -0.51074557902E+03 -0.36855707862E+03  0.42137253741E+02  0.63124552660E+03  0.00000000000E+00 0. -1.
          1    1    5    5  503    0  0.62493139243E+02 -0.28891916203E+02 -0.51572655479E+02  0.86022520700E+02  0.00000000000E+00 0. -1.
         -2    1    5    5    0  503  0.79577968219E+02 -0.15231020650E+03 -0.20273012981E+03  0.26576410135E+03  0.00000000000E+00 0.  1.
         -3    1    6    6    0  502 -0.31787785420E+03 -0.20436343735E+03  0.84471974942E+02  0.38722894941E+03  0.00000000000E+00 0.  1.
<mgrwt>
<rscale>  0 0.29003435E+04</rscale>
<asrwt>0</asrwt>
<pdfrwt beam="1">  1        2 0.35857783E+00 0.29003435E+04</pdfrwt>
<pdfrwt beam="2">  1       -2 0.13881256E+00 0.29003435E+04</pdfrwt>
<totfact> 0.13798702E+00</totfact>
</mgrwt>
</event>
<event>
12    1  0.1518126E-007  0.1540000E+04  0.7818608E-02  0.8858280E-01
         -2   -1    0    0    0  501 -0.00000000000E+00  0.00000000000E+00  0.13739022457E+03  0.13739022457E+03  0.00000000000E+00 0.  1.
          2   -1    0    0  501    0  0.00000000000E+00 -0.00000000000E+00 -0.43154478987E+04  0.43154478987E+04  0.00000000000E+00 0. -1.
         23    2    1    2    0    0  0.28554583569E+03  0.40975494720E+03 -0.15407644966E+04  0.16221401331E+04  0.89150639073E+02 0.  0.
        254    2    1    2    0    0 -0.28554583569E+03 -0.40975494720E+03 -0.26372931775E+04  0.28306979901E+04  0.89894397277E+03 0.  0.
        -24    2    4    4    0    0  0.13155536059E+03 -0.49787921439E+03 -0.89887606748E+03  0.10389384368E+04  0.78894649164E+02 0.  0.
         24    2    4    4    0    0 -0.41710119628E+03  0.88124267193E+02 -0.17384171100E+04  0.17917595533E+04  0.81049085477E+02 0.  0.
         13    1    3    3    0    0  0.31741920958E+02  0.10542974555E+03 -0.29558601906E+03  0.31542681474E+03  0.00000000000E+00 0.  1.
        -13    1    3    3    0    0  0.25380391473E+03  0.30432520165E+03 -0.12451784776E+04  0.13067133184E+04  0.00000000000E+00 0. -1.
          2    1    6    6  502    0 -0.14540417755E+03 -0.65219031133E+01 -0.63242622922E+03  0.64895904761E+03  0.00000000000E+00 0. -1.
          1    1    5    5  503    0  0.16785991899E+02 -0.20505808268E+03 -0.38246416916E+03  0.43429186900E+03  0.00000000000E+00 0. -1.
         -2    1    5    5    0  503  0.11476936869E+03 -0.29282113172E+03 -0.51641189833E+03  0.60464656776E+03  0.00000000000E+00 0.  1.
         -1    1    6    6    0  502 -0.27169701874E+03  0.94646170306E+02 -0.11059908808E+04  0.11428005057E+04  0.00000000000E+00 0.  1.
<mgrwt>
<rscale>  0 0.15400005E+04</rscale>
<asrwt>0</asrwt>
<pdfrwt beam="1">  1        2 0.66391517E+00 0.15400005E+04</pdfrwt>
<pdfrwt beam="2">  1       -2 0.21136954E-01 0.15400005E+04</pdfrwt>
<totfact> 0.35311995E+00</totfact>
</mgrwt>
</event>
<event>
12    1  0.1518126E-007  0.2096693E+04  0.7818608E-02  0.8562702E-01
          2   -1    0    0  501    0  0.00000000000E+00  0.00000000000E+00  0.12081925568E+04  0.12081925568E+04  0.00000000000E+00 0. -1.
         -2   -1    0    0    0  501 -0.00000000000E+00 -0.00000000000E+00 -0.90964829559E+03  0.90964829559E+03  0.00000000000E+00 0.  1.
         23    2    1    2    0    0  0.46855385402E+03  0.69116407981E+03  0.28854879407E+03  0.88826191373E+03  0.92186341120E+02 0.  0.
        254    2    1    2    0    0 -0.46855385402E+03 -0.69116407981E+03  0.99954671761E+01  0.12295789387E+04  0.90250427021E+03 0.  0.
        -24    2    4    4    0    0 -0.58450708407E+03 -0.72232816215E+02  0.19906907831E+02  0.59453800614E+03  0.78822869141E+02 0.  0.
         24    2    4    4    0    0  0.11595323005E+03 -0.61893126360E+03 -0.99114406545E+01  0.63504093254E+03  0.81594661142E+02 0.  0.
         13    1    3    3    0    0  0.94521312031E+02  0.17382489167E+03  0.32858607417E+02  0.20057183121E+03  0.00000000000E+00 0.  1.
        -13    1    3    3    0    0  0.37403254199E+03  0.51733918814E+03  0.25569018665E+03  0.68769008253E+03  0.00000000000E+00 0. -1.
          2    1    6    6  502    0  0.92584293844E+02 -0.59077144950E+03 -0.14519357694E+02  0.59815848131E+03  0.00000000000E+00 0. -1.
          3    1    5    5  503    0 -0.38303330216E+03 -0.80148417781E+02  0.31362655027E+02  0.39258361602E+03  0.00000000000E+00 0. -1.
         -4    1    5    5    0  503 -0.20147378192E+03  0.79156015663E+01 -0.11455747197E+02  0.20195439013E+03  0.00000000000E+00 0.  1.
         -1    1    6    6    0  502  0.23368936209E+02 -0.28159814099E+02  0.46079170390E+01  0.36882451234E+02  0.00000000000E+00 0.  1.
<mgrwt>
<rscale>  0 0.20966929E+04</rscale>
<asrwt>0</asrwt>
<pdfrwt beam="1">  1        2 0.18587578E+00 0.20966929E+04</pdfrwt>
<pdfrwt beam="2">  1       -2 0.13994589E+00 0.20966929E+04</pdfrwt>
<totfact> 0.62074308E+00</totfact>
</mgrwt>
</event>
<event>
12    1  0.1518126E-007  0.2462287E+04  0.7818608E-02  0.8416546E-01
          1   -1    0    0  501    0  0.00000000000E+00  0.00000000000E+00  0.16817584953E+04  0.16817584953E+04  0.00000000000E+00 0. -1.
         -1   -1    0    0    0  501 -0.00000000000E+00 -0.00000000000E+00 -0.90126733292E+03  0.90126733292E+03  0.00000000000E+00 0.  1.
         23    2    1    2    0    0  0.85585117561E+03 -0.57173456041E+03  0.58456284887E+03  0.11869788829E+04  0.88563547407E+02 0.  0.
        254    2    1    2    0    0 -0.85585117561E+03  0.57173456041E+03  0.19592831352E+03  0.13960469453E+04  0.92260366737E+03 0.  0.
        -24    2    4    4    0    0 -0.25626874510E+03 -0.19701399583E+03  0.24988664218E+03  0.41641209423E+03  0.80420855568E+02 0.  0.
         24    2    4    4    0    0 -0.59958243050E+03  0.76874855623E+03 -0.53958328664E+02  0.97963485105E+03  0.79369430448E+02 0.  0.
         13    1    3    3    0    0  0.79611160987E+03 -0.52539143672E+03  0.56595767736E+03  0.11091158414E+04  0.00000000000E+00 0.  1.
        -13    1    3    3    0    0  0.59739565737E+02 -0.46343123684E+02  0.18605171517E+02  0.77863041518E+02  0.00000000000E+00 0. -1.
          2    1    6    6  502    0 -0.53373780107E+03  0.65563868889E+03 -0.67195012218E+02  0.84808802629E+03  0.00000000000E+00 0. -1.
          3    1    5    5  503    0 -0.17244005469E+03 -0.16382789487E+03  0.14700950697E+03  0.27961928893E+03  0.00000000000E+00 0. -1.
         -4    1    5    5    0  503 -0.83828690408E+02 -0.33186100952E+02  0.10287713521E+03  0.13679280530E+03  0.00000000000E+00 0.  1.
         -1    1    6    6    0  502 -0.65844629433E+02  0.11310986734E+03  0.13236683555E+02  0.13154682477E+03  0.00000000000E+00 0.  1.
<mgrwt>
<rscale>  0 0.24622867E+04</rscale>
<asrwt>0</asrwt>
<pdfrwt beam="1">  1        1 0.25873208E+00 0.24622867E+04</pdfrwt>
<pdfrwt beam="2">  1       -1 0.13865651E+00 0.24622867E+04</pdfrwt>
<totfact> 0.18791409E+00</totfact>
</mgrwt>
</event>
<event>
12    1  0.1624914E-007  0.1999477E+04  0.7818608E-02  0.8606865E-01
         -1   -1    0    0    0  501 -0.00000000000E+00  0.00000000000E+00  0.37028717917E+03  0.37028717917E+03  0.00000000000E+00 0.  1.
          1   -1    0    0  501    0  0.00000000000E+00 -0.00000000000E+00 -0.26991945221E+04  0.26991945221E+04  0.00000000000E+00 0. -1.
         23    2    1    2    0    0 -0.23259913394E+03  0.67133707591E+03 -0.39194279342E+03  0.81654744088E+03  0.91294815264E+02 0.  0.
        254    2    1    2    0    0  0.23259913394E+03 -0.67133707591E+03 -0.19369645496E+04  0.22529342604E+04  0.90503330821E+03 0.  0.
        -24    2    4    4    0    0  0.35450726147E+03 -0.47322576556E+03 -0.45417464979E+03  0.74984694007E+03  0.79861113193E+02 0.  0.
         24    2    4    4    0    0 -0.12190812753E+03 -0.19811131035E+03 -0.14827898998E+04  0.15030873204E+04  0.80597288500E+02 0.  0.
         13    1    3    3    0    0 -0.22863432142E+01 -0.29844337010E+01 -0.22447578579E+01  0.43787152967E+01  0.00000000000E+00 0. -1.
        -13    1    3    3    0    0 -0.23031279073E+03  0.67432150961E+03 -0.38969803556E+03  0.81216872558E+03  0.00000000000E+00 0.  1.
          2    1    6    6  502    0 -0.28091474119E+02 -0.27158983401E+02 -0.47501538063E+03  0.47661971543E+03  0.00000000000E+00 0. -1.
          3    1    5    5  503    0  0.10148308127E+03 -0.17701180090E+03 -0.19279373121E+03  0.28071589951E+03  0.00000000000E+00 0. -1.
         -4    1    5    5    0  503  0.25302418020E+03 -0.29621396466E+03 -0.26138091858E+03  0.46913104056E+03  0.00000000000E+00 0.  1.
         -3    1    6    6    0  502 -0.93816653412E+02 -0.17095232695E+03 -0.10077745191E+04  0.10264676049E+04  0.00000000000E+00 0.  1.
<mgrwt>
<rscale>  0 0.19994771E+04</rscale>
<asrwt>0</asrwt>
<pdfrwt beam="1">  1        1 0.41526070E+00 0.19994771E+04</pdfrwt>
<pdfrwt beam="2">  1       -1 0.56967257E-01 0.19994771E+04</pdfrwt>
<totfact> 0.28466160E+00</totfact>
</mgrwt>
</event>
<event>
12    1  0.1518126E-007  0.1225347E+04  0.7818608E-02  0.9090955E-01
         -2   -1    0    0    0  501 -0.00000000000E+00  0.00000000000E+00  0.98171813277E+03  0.98171813277E+03  0.00000000000E+00 0.  1.
          2   -1    0    0  501    0  0.00000000000E+00 -0.00000000000E+00 -0.38235883319E+03  0.38235883319E+03  0.00000000000E+00 0. -1.
         23    2    1    2    0    0  0.12026408267E+03 -0.22436948768E+03  0.24896354707E+03  0.36526183111E+03  0.81414009306E+02 0.  0.
        254    2    1    2    0    0 -0.12026408267E+03  0.22436948768E+03  0.35039575252E+03  0.99881513485E+03  0.90002742938E+03 0.  0.
        -24    2    4    4    0    0 -0.75646964311E+02 -0.20235069321E+03 -0.19357932758E+03  0.30153816262E+03  0.82365291219E+02 0.  0.
         24    2    4    4    0    0 -0.44617118359E+02  0.42672018089E+03  0.54397508009E+03  0.69727697223E+03  0.78774921205E+02 0.  0.
         11    1    3    3    0    0  0.41569183141E+02 -0.19310349138E+02  0.28027303777E+02  0.53725378806E+02  0.00000000000E+00 0. -1.
        -11    1    3    3    0    0  0.78694899530E+02 -0.20505913854E+03  0.22093624329E+03  0.31153645230E+03  0.00000000000E+00 0.  1.
          2    1    6    6  502    0  0.19978068371E+02  0.47505171225E+02  0.65439402370E+02  0.83295737535E+02  0.00000000000E+00 0. -1.
          3    1    5    5  503    0 -0.41126074414E+02 -0.10165204170E+03 -0.44472494420E+02  0.11833129062E+03  0.00000000000E+00 0. -1.
         -4    1    5    5    0  503 -0.34520889897E+02 -0.10069865151E+03 -0.14910683316E+03  0.18320687200E+03  0.00000000000E+00 0.  1.
         -1    1    6    6    0  502 -0.64595186731E+02  0.37921500967E+03  0.47853567772E+03  0.61398123469E+03  0.00000000000E+00 0.  1.
<mgrwt>
<rscale>  0 0.12253466E+04</rscale>
<asrwt>0</asrwt>
<pdfrwt beam="1">  1        2 0.58824436E-01 0.12253466E+04</pdfrwt>
<pdfrwt beam="2">  1       -2 0.15103356E+00 0.12253466E+04</pdfrwt>
<totfact> 0.24223267E+01</totfact>
</mgrwt>
</event>
<event>
12    1  0.1518126E-007  0.2549204E+04  0.7818608E-02  0.8385663E-01
         -2   -1    0    0    0  501 -0.00000000000E+00  0.00000000000E+00  0.44544668901E+03  0.44544668901E+03  0.00000000000E+00 0.  1.
          2   -1    0    0  501    0  0.00000000000E+00 -0.00000000000E+00 -0.36471471980E+04  0.36471471980E+04  0.00000000000E+00 0. -1.
         23    2    1    2    0    0 -0.12778534042E+03 -0.95493443704E+03 -0.22485328245E+04  0.24478978293E+04  0.89861267616E+02 0.  0.
        254    2    1    2    0    0  0.12778534042E+03  0.95493443704E+03 -0.95316768452E+03  0.16446960578E+04  0.93180878693E+03 0.  0.
        -24    2    4    4    0    0 -0.17344513844E+03  0.10065672727E+04 -0.72948551767E+03  0.12577460894E+04  0.80716878056E+02 0.  0.
         24    2    4    4    0    0  0.30123047886E+03 -0.51632835706E+02 -0.22368216686E+03  0.38694996835E+03  0.79314658902E+02 0.  0.
         11    1    3    3    0    0 -0.36050264260E+02 -0.41352125366E+03 -0.86742501653E+03  0.96162654294E+03  0.00000000000E+00 0.  1.
        -11    1    3    3    0    0 -0.91735076156E+02 -0.54141318337E+03 -0.13811078080E+04  0.14862712863E+04  0.00000000000E+00 0. -1.
          4    1    6    6  502    0  0.28685709042E+03 -0.57596145843E+02 -0.18734937207E+03  0.34742494665E+03  0.00000000000E+00 0. -1.
          3    1    5    5  503    0 -0.94244018915E+02  0.72934181465E+03 -0.50054762619E+03  0.88958942428E+03  0.00000000000E+00 0. -1.
         -2    1    5    5    0  503 -0.79201119528E+02  0.27722545809E+03 -0.22893789148E+03  0.36815666516E+03  0.00000000000E+00 0.  1.
         -3    1    6    6    0  502  0.14373388438E+02  0.59633101366E+01 -0.36332794786E+02  0.39525021694E+02  0.00000000000E+00 0.  1.
<mgrwt>
<rscale>  0 0.25492035E+04</rscale>
<asrwt>0</asrwt>
<pdfrwt beam="1">  1        2 0.56109957E+00 0.25492035E+04</pdfrwt>
<pdfrwt beam="2">  1       -2 0.68530260E-01 0.25492035E+04</pdfrwt>
<totfact> 0.11054124E+00</totfact>
</mgrwt>
</event>
<event>
12    1  0.1518126E-007  0.1203504E+04  0.7818608E-02  0.9109795E-01
         -1   -1    0    0    0  501 -0.00000000000E+00  0.00000000000E+00  0.45943622462E+03  0.45943622462E+03  0.00000000000E+00 0.  1.
          1   -1    0    0  501    0  0.00000000000E+00 -0.00000000000E+00 -0.78815130985E+03  0.78815130985E+03  0.00000000000E+00 0. -1.
         23    2    1    2    0    0  0.84629840042E+02 -0.18122699424E+03  0.85409940871E+02  0.24203707298E+03  0.10621512808E+03 0.  0.
        254    2    1    2    0    0 -0.84629840042E+02  0.18122699424E+03 -0.41412502609E+03  0.10055504615E+04  0.89421851921E+03 0.  0.
        -24    2    4    4    0    0  0.30956894615E+03 -0.17476468237E+03 -0.81076197986E+02  0.37354063490E+03  0.81139567532E+02 0.  0.
         24    2    4    4    0    0 -0.39419878619E+03  0.35599167660E+03 -0.33304882811E+03  0.63200982659E+03  0.79950873417E+02 0.  0.
         11    1    3    3    0    0  0.88908406402E+02 -0.14070817193E+03  0.23747192700E+02  0.16812918705E+03  0.00000000000E+00 0. -1.
        -11    1    3    3    0    0 -0.42785663601E+01 -0.40518822311E+02  0.61662748171E+02  0.73907885936E+02  0.00000000000E+00 0.  1.
          2    1    6    6  502    0 -0.34997014367E+03  0.31118867283E+03 -0.32138054707E+03  0.56798146765E+03  0.00000000000E+00 0. -1.
          3    1    5    5  503    0  0.76482028477E+02 -0.29893112706E+02  0.13587748310E+02  0.83232960847E+02  0.00000000000E+00 0. -1.
         -4    1    5    5    0  503  0.23308691767E+03 -0.14487156966E+03 -0.94663946296E+02  0.29030767405E+03  0.00000000000E+00 0.  1.
         -3    1    6    6    0  502 -0.44228642514E+02  0.44803003774E+02 -0.11668281032E+02  0.64028358936E+02  0.00000000000E+00 0.  1.
<mgrwt>
<rscale>  0 0.12035037E+04</rscale>
<asrwt>0</asrwt>
<pdfrwt beam="1">  1        1 0.12125405E+00 0.12035037E+04</pdfrwt>
<pdfrwt beam="2">  1       -1 0.70682497E-01 0.12035037E+04</pdfrwt>
<totfact> 0.45329786E+01</totfact>
</mgrwt>
</event>
<event>
12    1  0.1518126E-007  0.1875685E+04  0.7818608E-02  0.8667055E-01
         -2   -1    0    0    0  501 -0.00000000000E+00  0.00000000000E+00  0.85989484372E+03  0.85989484372E+03  0.00000000000E+00 0.  1.
          2   -1    0    0  501    0  0.00000000000E+00 -0.00000000000E+00 -0.10228556713E+04  0.10228556713E+04  0.00000000000E+00 0. -1.
         23    2    1    2    0    0  0.67396093884E+03 -0.54894571350E+02  0.19225041128E+03  0.70909930852E+03  0.92870057961E+02 0.  0.
        254    2    1    2    0    0 -0.67396093884E+03  0.54894571350E+02 -0.35521123881E+03  0.11736512065E+04  0.89109223383E+03 0.  0.
        -24    2    4    4    0    0 -0.42474058610E+03 -0.40256906046E+03 -0.22503669705E+03  0.63201497254E+03  0.79592691702E+02 0.  0.
         24    2    4    4    0    0 -0.24922035273E+03  0.45746363180E+03 -0.13017454176E+03  0.54163623391E+03  0.70997464218E+02 0.  0.
         11    1    3    3    0    0  0.36304689355E+02 -0.92795896299E+01 -0.96400030949E+01  0.38692000627E+02  0.00000000000E+00 0. -1.
        -11    1    3    3    0    0  0.63765624948E+03 -0.45614981720E+02  0.20189041438E+03  0.67040730789E+03  0.00000000000E+00 0.  1.
          4    1    6    6  502    0 -0.22006183689E+03  0.35767808201E+03 -0.12220487122E+03  0.43737267056E+03  0.00000000000E+00 0. -1.
          1    1    5    5  503    0 -0.42843063559E+02 -0.46947456730E+02  0.41745541410E+00  0.63559154003E+02  0.00000000000E+00 0. -1.
         -2    1    5    5    0  503 -0.38189752254E+03 -0.35562160372E+03 -0.22545415247E+03  0.56845581853E+03  0.00000000000E+00 0.  1.
         -3    1    6    6    0  502 -0.29158515848E+02  0.99785549794E+02 -0.79696705352E+01  0.10426356335E+03  0.00000000000E+00 0.  1.
<mgrwt>
<rscale>  0 0.18756847E+04</rscale>
<asrwt>0</asrwt>
<pdfrwt beam="1">  1        2 0.15736241E+00 0.18756847E+04</pdfrwt>
<pdfrwt beam="2">  1       -2 0.13229151E+00 0.18756847E+04</pdfrwt>
<totfact> 0.94944764E+00</totfact>
</mgrwt>
</event>
<event>
12    1  0.1518126E-007  0.2007404E+04  0.7818608E-02  0.8603167E-01
          1   -1    0    0  501    0  0.00000000000E+00  0.00000000000E+00  0.20391745101E+04  0.20391745101E+04  0.00000000000E+00 0. -1.
         -1   -1    0    0    0  501 -0.00000000000E+00 -0.00000000000E+00 -0.49403222398E+03  0.49403222398E+03  0.00000000000E+00 0.  1.
         23    2    1    2    0    0  0.39894457244E+03  0.11018442088E+03 -0.23731754787E+03  0.48576006018E+03  0.91355563873E+02 0.  0.
        254    2    1    2    0    0 -0.39894457244E+03 -0.11018442088E+03  0.17824598340E+04  0.20474466739E+04  0.91846472125E+03 0.  0.
        -24    2    4    4    0    0  0.28245544559E+03 -0.10941478189E+03  0.45311541375E+03  0.55154405748E+03  0.84466537302E+02 0.  0.
         24    2    4    4    0    0 -0.68140001803E+03 -0.76963899465E+00  0.13293444202E+04  0.14959026164E+04  0.79129471614E+02 0.  0.
         11    1    3    3    0    0  0.36072669621E+03  0.11986572470E+03 -0.19254890615E+03  0.42610635125E+03  0.00000000000E+00 0.  1.
        -11    1    3    3    0    0  0.38217876229E+02 -0.96813038165E+01 -0.44768641720E+02  0.59653708925E+02  0.00000000000E+00 0. -1.
          4    1    6    6  502    0 -0.67881049733E+03 -0.23324528292E+01  0.13296093974E+04  0.14928664646E+04  0.00000000000E+00 0. -1.
          3    1    5    5  503    0  0.13189155583E+03 -0.84538983050E+02  0.27936453740E+03  0.32029169035E+03  0.00000000000E+00 0. -1.
         -4    1    5    5    0  503  0.15056388976E+03 -0.24875798836E+02  0.17375087635E+03  0.23125236713E+03  0.00000000000E+00 0.  1.
         -3    1    6    6    0  502 -0.25895206979E+01  0.15628138346E+01 -0.26497718586E+00  0.30361517478E+01  0.00000000000E+00 0.  1.
<mgrwt>
<rscale>  0 0.20074042E+04</rscale>
<asrwt>0</asrwt>
<pdfrwt beam="1">  1        1 0.31371915E+00 0.20074042E+04</pdfrwt>
<pdfrwt beam="2">  1       -1 0.76004958E-01 0.20074042E+04</pdfrwt>
<totfact> 0.45176124E+00</totfact>
</mgrwt>
</event>
<event>
12    1  0.1518126E-007  0.1523664E+04  0.7818608E-02  0.8868867E-01
         -2   -1    0    0    0  501 -0.00000000000E+00  0.00000000000E+00  0.19947137649E+03  0.19947137649E+03  0.00000000000E+00 0. -1.
          2   -1    0    0  501    0  0.00000000000E+00 -0.00000000000E+00 -0.29096310367E+04  0.29096310367E+04  0.00000000000E+00 0.  1.
         23    2    1    2    0    0  0.93917323085E+02 -0.42597840730E+03 -0.43859690842E+03  0.62498297566E+03  0.89209891389E+02 0.  0.
        254    2    1    2    0    0 -0.93917323085E+02  0.42597840730E+03 -0.22715627518E+04  0.24841194375E+04  0.90585538444E+03 0.  0.
        -24    2    4    4    0    0 -0.97659996615E+02  0.67694280137E+03 -0.19523631788E+04  0.20702299276E+04  0.79630017420E+02 0.  0.
         24    2    4    4    0    0  0.37426735294E+01 -0.25096439407E+03 -0.31919957296E+03  0.41388950996E+03  0.80118814178E+02 0.  0.
         13    1    3    3    0    0  0.90915198885E+02 -0.41215648880E+03 -0.39105036082E+03  0.57537720614E+03  0.00000000000E+00 0. -1.
        -13    1    3    3    0    0  0.30021242004E+01 -0.13821918507E+02 -0.47546547601E+02  0.49605769520E+02  0.00000000000E+00 0.  1.
          2    1    6    6  502    0 -0.18830379955E+02 -0.88863444345E+02 -0.65537882540E+02  0.11201120032E+03  0.00000000000E+00 0. -1.
          3    1    5    5  503    0 -0.41553073742E+02  0.17974302378E+03 -0.62642974881E+03  0.65303020047E+03  0.00000000000E+00 0. -1.
         -4    1    5    5    0  503 -0.56106922873E+02  0.49719977759E+03 -0.13259334300E+04  0.14171997271E+04  0.00000000000E+00 0.  1.
         -1    1    6    6    0  502  0.22573053485E+02 -0.16210094972E+03 -0.25366169042E+03  0.30187830964E+03  0.00000000000E+00 0.  1.
<mgrwt>
<rscale>  0 0.15236641E+04</rscale>
<asrwt>0</asrwt>
<pdfrwt beam="1">  1        2 0.44763555E+00 0.15236641E+04</pdfrwt>
<pdfrwt beam="2">  1       -2 0.30687904E-01 0.15236641E+04</pdfrwt>
<totfact> 0.18899417E+01</totfact>
</mgrwt>
</event>
<event>
12    1  0.1518126E-007  0.1845419E+04  0.7818608E-02  0.8682512E-01
         -1   -1    0    0    0  501 -0.00000000000E+00  0.00000000000E+00  0.93031875916E+03  0.93031875916E+03  0.00000000000E+00 0.  1.
          1   -1    0    0  501    0  0.00000000000E+00 -0.00000000000E+00 -0.91516259167E+03  0.91516259167E+03  0.00000000000E+00 0. -1.
         23    2    1    2    0    0  0.10019782063E+03 -0.69256977545E+03  0.96930595978E+01  0.70575222440E+03  0.91102962167E+02 0.  0.
        254    2    1    2    0    0 -0.10019782063E+03  0.69256977545E+03  0.54631078873E+01  0.11397291264E+04  0.89958887217E+03 0.  0.
        -24    2    4    4    0    0 -0.26156813598E+02  0.38327707068E+03  0.44346977581E+03  0.59224824490E+03  0.80666286175E+02 0.  0.
         24    2    4    4    0    0 -0.74041007031E+02  0.30929270477E+03 -0.43800666793E+03  0.54748088152E+03  0.82106190574E+02 0.  0.
         13    1    3    3    0    0  0.37855954646E+02 -0.16791606156E+03  0.39367822040E+02  0.17657492020E+03  0.00000000000E+00 0.  1.
        -13    1    3    3    0    0  0.62341865983E+02 -0.52465371389E+03 -0.29674762442E+02  0.52917730420E+03  0.00000000000E+00 0. -1.
          2    1    6    6  502    0  0.11827972565E+02  0.17559237900E+02 -0.51477342050E+02  0.55660978388E+02  0.00000000000E+00 0. -1.
          3    1    5    5  503    0 -0.41026137576E+02  0.21886299631E+03  0.20826669246E+03  0.30489206337E+03  0.00000000000E+00 0. -1.
         -4    1    5    5    0  503  0.14869323978E+02  0.16441407437E+03  0.23520308335E+03  0.28735618153E+03  0.00000000000E+00 0.  1.
         -1    1    6    6    0  502 -0.85868979596E+02  0.29173346687E+03 -0.38652932588E+03  0.49181990313E+03  0.00000000000E+00 0.  1.
<mgrwt>
<rscale>  0 0.18454191E+04</rscale>
<asrwt>0</asrwt>
<pdfrwt beam="1">  1        1 0.14079425E+00 0.18454191E+04</pdfrwt>
<pdfrwt beam="2">  1       -1 0.14312596E+00 0.18454191E+04</pdfrwt>
<totfact> 0.65747825E+00</totfact>
</mgrwt>
</event>
<event>
12    1  0.1518126E-007  0.3464765E+04  0.7818608E-02  0.8122191E-01
         -2   -1    0    0    0  501 -0.00000000000E+00  0.00000000000E+00  0.11564169444E+04  0.11564169444E+04  0.00000000000E+00 0.  1.
          2   -1    0    0  501    0  0.00000000000E+00 -0.00000000000E+00 -0.25952132177E+04  0.25952132177E+04  0.00000000000E+00 0. -1.
         23    2    1    2    0    0  0.22625055815E+03 -0.15642281455E+04 -0.10161520546E+04  0.18811854011E+04  0.91074194974E+02 0.  0.
        254    2    1    2    0    0 -0.22625055815E+03  0.15642281455E+04 -0.42264421878E+03  0.18704447610E+04  0.90660711574E+03 0.  0.
        -24    2    4    4    0    0  0.27585699370E+02  0.36428952274E+03 -0.51661852222E+03  0.63777296161E+03  0.79948895440E+02 0.  0.
         24    2    4    4    0    0 -0.25383625752E+03  0.11999386227E+04  0.93974303431E+02  0.12326717994E+04  0.79768737324E+02 0.  0.
         11    1    3    3    0    0  0.17115953461E+03 -0.13867904003E+04 -0.90004492901E+03  0.16620962893E+04  0.00000000000E+00 0. -1.
        -11    1    3    3    0    0  0.55091023536E+02 -0.17743774515E+03 -0.11610712555E+03  0.21908911174E+03  0.00000000000E+00 0.  1.
          2    1    6    6  502    0 -0.13643962229E+03  0.78136949699E+03  0.34945109714E+02  0.79396172581E+03  0.00000000000E+00 0. -1.
          3    1    5    5  503    0  0.49682668586E+02  0.20882295875E+03 -0.33273496004E+03  0.39596458085E+03  0.00000000000E+00 0. -1.
         -4    1    5    5    0  503 -0.22096969216E+02  0.15546656398E+03 -0.18388356218E+03  0.24180838076E+03  0.00000000000E+00 0.  1.
         -1    1    6    6    0  502 -0.11739663522E+03  0.41856912574E+03  0.59029193717E+02  0.43871007362E+03  0.00000000000E+00 0.  1.
<mgrwt>
<rscale>  0 0.34647647E+04</rscale>
<asrwt>0</asrwt>
<pdfrwt beam="1">  1        2 0.39926357E+00 0.34647647E+04</pdfrwt>
<pdfrwt beam="2">  1       -2 0.17791030E+00 0.34647647E+04</pdfrwt>
<totfact> 0.47313791E-01</totfact>
</mgrwt>
</event>
<event>
12    1  0.1518126E-007  0.3559878E+04  0.7818608E-02  0.8099744E-01
          2   -1    0    0  501    0  0.00000000000E+00  0.00000000000E+00  0.15018059319E+04  0.15018059319E+04  0.00000000000E+00 0. -1.
         -2   -1    0    0    0  501 -0.00000000000E+00 -0.00000000000E+00 -0.21095820325E+04  0.21095820325E+04  0.00000000000E+00 0.  1.
         23    2    1    2    0    0  0.91855801742E+03  0.37380496522E+03 -0.16391153924E+04  0.19179223297E+04  0.90817453965E+02 0.  0.
        254    2    1    2    0    0 -0.91855801742E+03 -0.37380496522E+03  0.10313392917E+04  0.16934656347E+04  0.90591729083E+03 0.  0.
        -24    2    4    4    0    0 -0.91180593520E+03  0.17102569830E+02  0.54741911111E+03  0.10665164908E+04  0.78148452471E+02 0.  0.
         24    2    4    4    0    0 -0.67520822225E+01 -0.39090753505E+03  0.48392018061E+03  0.62694914386E+03  0.77667214597E+02 0.  0.
         13    1    3    3    0    0  0.65977954062E+02  0.53874421758E+02 -0.14534442929E+03  0.16846526902E+03  0.00000000000E+00 0. -1.
        -13    1    3    3    0    0  0.85258006336E+03  0.31993054346E+03 -0.14937709631E+04  0.17494570607E+04  0.00000000000E+00 0.  1.
          2    1    6    6  502    0  0.72095347086E+01 -0.26487784488E+03  0.27020275949E+03  0.37844653696E+03  0.00000000000E+00 0. -1.
          3    1    5    5  503    0 -0.44088544920E+03  0.38425604129E+02  0.29402058165E+03  0.53132345027E+03  0.00000000000E+00 0. -1.
         -4    1    5    5    0  503 -0.47092048600E+03 -0.21323034299E+02  0.25339852947E+03  0.53519304056E+03  0.00000000000E+00 0.  1.
         -1    1    6    6    0  502 -0.13961616931E+02 -0.12602969017E+03  0.21371742112E+03  0.24850260691E+03  0.00000000000E+00 0.  1.
<mgrwt>
<rscale>  0 0.35598780E+04</rscale>
<asrwt>0</asrwt>
<pdfrwt beam="1">  1        2 0.23104707E+00 0.35598780E+04</pdfrwt>
<pdfrwt beam="2">  1       -2 0.32455108E+00 0.35598780E+04</pdfrwt>
<totfact> 0.23232607E-01</totfact>
</mgrwt>
</event>
<event>
12    1  0.1518126E-007  0.2589134E+04  0.7818608E-02  0.8371901E-01
          1   -1    0    0  501    0  0.00000000000E+00  0.00000000000E+00  0.18524087023E+04  0.18524087023E+04  0.00000000000E+00 0. -1.
         -1   -1    0    0    0  501 -0.00000000000E+00 -0.00000000000E+00 -0.90471599378E+03  0.90471599378E+03  0.00000000000E+00 0.  1.
         23    2    1    2    0    0 -0.51935465562E+03 -0.92896681581E+03  0.83243075526E+03  0.13542556952E+04  0.91427142906E+02 0.  0.
        254    2    1    2    0    0  0.51935465562E+03  0.92896681581E+03  0.11526195331E+03  0.14028690009E+04  0.90666835873E+03 0.  0.
        -24    2    4    4    0    0  0.17139817534E+03  0.99622942873E+03 -0.23237731470E+02  0.10142992302E+04  0.80078255539E+02 0.  0.
         24    2    4    4    0    0  0.34795648028E+03 -0.67262612925E+02  0.13849968478E+03  0.38856977075E+03  0.78780281735E+02 0.  0.
         11    1    3    3    0    0 -0.20983752117E+03 -0.37476752353E+03  0.39340554799E+03  0.58245206427E+03  0.00000000000E+00 0.  1.
        -11    1    3    3    0    0 -0.30951713445E+03 -0.55419929228E+03  0.43902520727E+03  0.77180363092E+03  0.00000000000E+00 0. -1.
          4    1    6    6  502    0  0.28215679882E+03 -0.29527227065E+02  0.13057546311E+03  0.31230476754E+03  0.00000000000E+00 0. -1.
          1    1    5    5  503    0  0.57339117814E+02  0.36852157420E+03 -0.46783743206E+02  0.37587849594E+03  0.00000000000E+00 0. -1.
         -2    1    5    5    0  503  0.11405905753E+03  0.62770785454E+03  0.23546011737E+02  0.63842073425E+03  0.00000000000E+00 0.  1.
         -3    1    6    6    0  502  0.65799681455E+02 -0.37735385860E+02  0.79242216677E+01  0.76265003210E+02  0.00000000000E+00 0.  1.
<mgrwt>
<rscale>  0 0.25891340E+04</rscale>
<asrwt>0</asrwt>
<pdfrwt beam="1">  1        1 0.28498595E+00 0.25891340E+04</pdfrwt>
<pdfrwt beam="2">  1       -1 0.13918708E+00 0.25891340E+04</pdfrwt>
<totfact> 0.14080767E+00</totfact>
</mgrwt>
</event>
<event>
12    1  0.1518126E-007  0.1797743E+04  0.7818608E-02  0.8707501E-01
          1   -1    0    0  501    0  0.00000000000E+00  0.00000000000E+00  0.15224241826E+04  0.15224241826E+04  0.00000000000E+00 0. -1.
         -1   -1    0    0    0  501 -0.00000000000E+00 -0.00000000000E+00 -0.53071269549E+03  0.53071269549E+03  0.00000000000E+00 0.  1.
         23    2    1    2    0    0  0.87101035765E+01 -0.20652128933E+03  0.11000314136E+04  0.11227377059E+04  0.87999639563E+02 0.  0.
        254    2    1    2    0    0 -0.87101035765E+01  0.20652128933E+03 -0.10831992642E+03  0.93039917223E+03  0.90065670728E+03 0.  0.
        -24    2    4    4    0    0  0.32148970773E+03  0.24693022939E+03 -0.32453599876E+03  0.52552282623E+03  0.80749340784E+02 0.  0.
         24    2    4    4    0    0 -0.33019981130E+03 -0.40408940056E+02  0.21621607234E+03  0.40487634600E+03  0.80688709201E+02 0.  0.
         11    1    3    3    0    0  0.22488470777E+02 -0.65316795308E+01  0.14675233717E+03  0.14860902604E+03  0.00000000000E+00 0.  1.
        -11    1    3    3    0    0 -0.13778367200E+02 -0.19998960980E+03  0.95327907640E+03  0.97412867987E+03  0.00000000000E+00 0. -1.
          4    1    6    6  502    0 -0.32689693309E+03 -0.50875150639E+02  0.20507378089E+03  0.38923661368E+03  0.00000000000E+00 0. -1.
          3    1    5    5  503    0  0.23607583082E+03  0.16470604564E+03 -0.18391260197E+03  0.34158999477E+03  0.00000000000E+00 0. -1.
         -4    1    5    5    0  503  0.85413876906E+02  0.82224183747E+02 -0.14062339679E+03  0.18393283145E+03  0.00000000000E+00 0.  1.
         -3    1    6    6    0  502 -0.33028782103E+01  0.10466210584E+02  0.11142291448E+02  0.15639732324E+02  0.00000000000E+00 0.  1.
<mgrwt>
<rscale>  0 0.17977429E+04</rscale>
<asrwt>0</asrwt>
<pdfrwt beam="1">  1        1 0.23421910E+00 0.17977429E+04</pdfrwt>
<pdfrwt beam="2">  1       -1 0.81648108E-01 0.17977429E+04</pdfrwt>
<totfact> 0.88950730E+00</totfact>
</mgrwt>
</event>
<event>
12    1  0.1518126E-007  0.1332974E+04  0.7818608E-02  0.9003818E-01
         -2   -1    0    0    0  501 -0.00000000000E+00  0.00000000000E+00  0.14463287137E+03  0.14463287137E+03  0.00000000000E+00 0.  1.
          2   -1    0    0  501    0  0.00000000000E+00 -0.00000000000E+00 -0.30712570632E+04  0.30712570632E+04  0.00000000000E+00 0. -1.
         23    2    1    2    0    0 -0.22244600928E+03 -0.24458753292E+03 -0.10740752166E+04  0.11304689798E+04  0.12254491030E+03 0.  0.
        254    2    1    2    0    0  0.22244600928E+03  0.24458753292E+03 -0.18525489753E+04  0.20854209548E+04  0.89874221259E+03 0.  0.
        -24    2    4    4    0    0  0.45756738983E+03 -0.10284955403E+03 -0.13183853670E+04  0.14015783257E+04  0.79598242029E+02 0.  0.
         24    2    4    4    0    0 -0.23512138055E+03  0.34743708695E+03 -0.53416360821E+03  0.68384262907E+03  0.79469415573E+02 0.  0.
         11    1    3    3    0    0 -0.14198922299E+03 -0.14031129993E+03 -0.44452449244E+03  0.48728864620E+03  0.00000000000E+00 0.  1.
        -11    1    3    3    0    0 -0.80456786291E+02 -0.10427623299E+03 -0.62955072415E+03  0.64318033358E+03  0.00000000000E+00 0. -1.
          2    1    6    6  502    0 -0.92914269771E+02  0.77639665929E+02 -0.13211582259E+03  0.17920817456E+03  0.00000000000E+00 0. -1.
          3    1    5    5  503    0  0.19758195411E+03 -0.10717166599E+02 -0.48843348612E+03  0.52699217890E+03  0.00000000000E+00 0. -1.
         -4    1    5    5    0  503  0.25998543572E+03 -0.92132387433E+02 -0.82995188092E+03  0.87458614684E+03  0.00000000000E+00 0.  1.
         -1    1    6    6    0  502 -0.14220711077E+03  0.26979742102E+03 -0.40204778562E+03  0.50463445450E+03  0.00000000000E+00 0.  1.
<mgrwt>
<rscale>  0 0.13329737E+04</rscale>
<asrwt>0</asrwt>
<pdfrwt beam="1">  1        2 0.47250110E+00 0.13329737E+04</pdfrwt>
<pdfrwt beam="2">  1       -2 0.22251211E-01 0.13329737E+04</pdfrwt>
<totfact> 0.27481734E+01</totfact>
</mgrwt>
</event>
<event>
12    1  0.1518126E-007  0.1957117E+04  0.7818608E-02  0.8626937E-01
         -2   -1    0    0    0  501 -0.00000000000E+00  0.00000000000E+00  0.72750640128E+03  0.72750640128E+03  0.00000000000E+00 0.  1.
          2   -1    0    0  501    0  0.00000000000E+00 -0.00000000000E+00 -0.13162448348E+04  0.13162448348E+04  0.00000000000E+00 0. -1.
         23    2    1    2    0    0 -0.14249185882E+03 -0.68835469552E+03  0.86837968226E+02  0.71392875868E+03  0.89539505656E+02 0.  0.
        254    2    1    2    0    0  0.14249185882E+03  0.68835469552E+03 -0.67557640171E+03  0.13298224774E+04  0.90437173226E+03 0.  0.
        -24    2    4    4    0    0  0.46424578947E+03  0.14609994083E+03 -0.40959663251E+03  0.64123585204E+03  0.80899139863E+02 0.  0.
         24    2    4    4    0    0 -0.32175393065E+03  0.54225475469E+03 -0.26597976920E+03  0.68858662533E+03  0.76423112295E+02 0.  0.
         11    1    3    3    0    0 -0.13952664922E+03 -0.55818629411E+03  0.44771707976E+02  0.57709975794E+03  0.00000000000E+00 0.  1.
        -11    1    3    3    0    0 -0.29652095987E+01 -0.13016840140E+03  0.42066260250E+02  0.13682900074E+03  0.00000000000E+00 0. -1.
          4    1    6    6  502    0 -0.17248927087E+03  0.22431536999E+03 -0.10007765410E+03  0.30014241724E+03  0.00000000000E+00 0. -1.
          1    1    5    5  503    0  0.33439906135E+02  0.78348831934E+01 -0.61250447733E+02  0.70222717581E+02  0.00000000000E+00 0. -1.
         -2    1    5    5    0  503  0.43080588333E+03  0.13826505764E+03 -0.34834618478E+03  0.57101313446E+03  0.00000000000E+00 0.  1.
         -3    1    6    6    0  502 -0.14926465977E+03  0.31793938470E+03 -0.16590211511E+03  0.38844420809E+03  0.00000000000E+00 0.  1.
<mgrwt>
<rscale>  0 0.19571168E+04</rscale>
<asrwt>0</asrwt>
<pdfrwt beam="1">  1        2 0.20249920E+00 0.19571168E+04</pdfrwt>
<pdfrwt beam="2">  1       -2 0.11192406E+00 0.19571168E+04</pdfrwt>
<totfact> 0.95007817E+00</totfact>
</mgrwt>
</event>
<event>
12    1  0.1518126E-007  0.1908116E+04  0.7818608E-02  0.8650827E-01
         -2   -1    0    0    0  501 -0.00000000000E+00  0.00000000000E+00  0.92687567920E+03  0.92687567920E+03  0.00000000000E+00 0.  1.
          2   -1    0    0  501    0  0.00000000000E+00 -0.00000000000E+00 -0.98203798422E+03  0.98203798422E+03  0.00000000000E+00 0. -1.
         23    2    1    2    0    0 -0.66071254909E+03 -0.26182281838E+03 -0.17395841950E+03  0.73800553109E+03  0.96428063608E+02 0.  0.
        254    2    1    2    0    0  0.66071254909E+03  0.26182281838E+03  0.11879611448E+03  0.11709081323E+04  0.92294153487E+03 0.  0.
        -24    2    4    4    0    0  0.78634143042E+03  0.40460645524E+02  0.30428006523E+03  0.84770688717E+03  0.77786241946E+02 0.  0.
         24    2    4    4    0    0 -0.12562888133E+03  0.22136217286E+03 -0.18548395075E+03  0.32320124516E+03  0.72601112152E+02 0.  0.
         13    1    3    3    0    0 -0.19535894819E+03 -0.73899330093E+02 -0.96924712111E+02  0.23026208859E+03  0.00000000000E+00 0. -1.
        -13    1    3    3    0    0 -0.46535360090E+03 -0.18792348829E+03 -0.77033707393E+02  0.50774344250E+03  0.00000000000E+00 0.  1.
          2    1    6    6  502    0 -0.11773123484E+03  0.21551552036E+03 -0.19173041873E+03  0.31155759763E+03  0.00000000000E+00 0. -1.
          1    1    5    5  503    0  0.37964899271E+03 -0.11817946845E+01  0.18180266310E+03  0.42093581769E+03  0.00000000000E+00 0. -1.
         -2    1    5    5    0  503  0.40669243771E+03  0.41642440208E+02  0.12247740213E+03  0.42677106948E+03  0.00000000000E+00 0.  1.
         -1    1    6    6    0  502 -0.78976464924E+01  0.58466525040E+01  0.62464679786E+01  0.11643647531E+02  0.00000000000E+00 0.  1.
<mgrwt>
<rscale>  0 0.19081165E+04</rscale>
<asrwt>0</asrwt>
<pdfrwt beam="1">  1        2 0.15108277E+00 0.19081165E+04</pdfrwt>
<pdfrwt beam="2">  1       -2 0.14259626E+00 0.19081165E+04</pdfrwt>
<totfact> 0.82890331E+00</totfact>
</mgrwt>
</event>
<event>
12    1  0.1518126E-007  0.2375898E+04  0.7818608E-02  0.8448583E-01
          2   -1    0    0  501    0  0.00000000000E+00  0.00000000000E+00  0.12287590539E+04  0.12287590539E+04  0.00000000000E+00 0. -1.
         -2   -1    0    0    0  501 -0.00000000000E+00 -0.00000000000E+00 -0.11484940973E+04  0.11484940973E+04  0.00000000000E+00 0.  1.
         23    2    1    2    0    0  0.79013612715E+03 -0.65527335472E+02 -0.59283331157E+03  0.99421451123E+03  0.91663667405E+02 0.  0.
        254    2    1    2    0    0 -0.79013612715E+03  0.65527335472E+02  0.67309826813E+03  0.13830386400E+04  0.91166094027E+03 0.  0.
        -24    2    4    4    0    0 -0.49806650568E+03  0.10650131785E+03 -0.12334876048E+03  0.52998118157E+03  0.79071874416E+02 0.  0.
         24    2    4    4    0    0 -0.29206962146E+03 -0.40973982381E+02  0.79644702861E+03  0.85305745841E+03  0.79972663806E+02 0.  0.
         11    1    3    3    0    0  0.61339869319E+02 -0.27975762154E+02 -0.37203430699E+02  0.77002065505E+02  0.00000000000E+00 0. -1.
        -11    1    3    3    0    0  0.72879625783E+03 -0.37551573318E+02 -0.55562988087E+03  0.91721244573E+03  0.00000000000E+00 0.  1.
          2    1    6    6  502    0 -0.25544040627E+03 -0.55397828358E+02  0.63103701466E+03  0.68302740385E+03  0.00000000000E+00 0. -1.
          3    1    5    5  503    0 -0.44517294863E+03  0.11641303284E+03 -0.97848633589E+02  0.47043097634E+03  0.00000000000E+00 0. -1.
         -4    1    5    5    0  503 -0.52893557053E+02 -0.99117149890E+01 -0.25500126891E+02  0.59550205233E+02  0.00000000000E+00 0.  1.
         -1    1    6    6    0  502 -0.36629215192E+02  0.14423845977E+02  0.16541001395E+03  0.17003005456E+03  0.00000000000E+00 0.  1.
<mgrwt>
<rscale>  0 0.23758977E+04</rscale>
<asrwt>0</asrwt>
<pdfrwt beam="1">  1        2 0.18903985E+00 0.23758977E+04</pdfrwt>
<pdfrwt beam="2">  1       -2 0.17669140E+00 0.23758977E+04</pdfrwt>
<totfact> 0.31365893E+00</totfact>
</mgrwt>
</event>
<event>
12    1  0.1518126E-007  0.1469985E+04  0.7818608E-02  0.8904662E-01
         -1   -1    0    0    0  501 -0.00000000000E+00  0.00000000000E+00  0.36886824683E+03  0.36886824683E+03  0.00000000000E+00 0.  1.
          1   -1    0    0  501    0  0.00000000000E+00 -0.00000000000E+00 -0.14645170125E+04  0.14645170125E+04  0.00000000000E+00 0. -1.
         23    2    1    2    0    0  0.21894506124E+03 -0.29775762237E+03 -0.71389577195E+03  0.80881603940E+03  0.89104830774E+02 0.  0.
        254    2    1    2    0    0 -0.21894506124E+03  0.29775762237E+03 -0.38175299373E+03  0.10245692199E+04  0.87601951844E+03 0.  0.
        -24    2    4    4    0    0 -0.12528940671E+03  0.33821276736E+03  0.20685633967E+03  0.42222656767E+03  0.73487534614E+02 0.  0.
         24    2    4    4    0    0 -0.93655654530E+02 -0.40455144996E+02 -0.58860933340E+03  0.60234265226E+03  0.77121481988E+02 0.  0.
         13    1    3    3    0    0  0.15213773325E+02 -0.93214358932E+01 -0.80729668616E+01  0.19583688617E+02  0.00000000000E+00 0.  1.
        -13    1    3    3    0    0  0.20373128791E+03 -0.28843618647E+03 -0.70582280509E+03  0.78923235078E+03  0.00000000000E+00 0. -1.
          2    1    6    6  502    0 -0.67608118449E+02 -0.38843626216E+02 -0.55144691960E+03  0.55693212344E+03  0.00000000000E+00 0. -1.
          1    1    5    5  503    0 -0.12591349157E+03  0.31193505490E+03  0.20871082056E+03  0.39587610745E+03  0.00000000000E+00 0. -1.
         -2    1    5    5    0  503  0.62408486521E+00  0.26277712464E+02 -0.18544808857E+01  0.26350460217E+02  0.00000000000E+00 0.  1.
         -1    1    6    6    0  502 -0.26047536080E+02 -0.16115187804E+01 -0.37162413796E+02  0.45410528820E+02  0.00000000000E+00 0.  1.
<mgrwt>
<rscale>  0 0.14699848E+04</rscale>
<asrwt>0</asrwt>
<pdfrwt beam="1">  1        1 0.22531030E+00 0.14699848E+04</pdfrwt>
<pdfrwt beam="2">  1       -1 0.56748962E-01 0.14699848E+04</pdfrwt>
<totfact> 0.21102894E+01</totfact>
</mgrwt>
</event>
<event>
12    1  0.1518126E-007  0.3504276E+04  0.7818608E-02  0.8112777E-01
          1   -1    0    0  501    0  0.00000000000E+00  0.00000000000E+00  0.18342056499E+04  0.18342056499E+04  0.00000000000E+00 0. -1.
         -1   -1    0    0    0  501 -0.00000000000E+00 -0.00000000000E+00 -0.16737422843E+04  0.16737422843E+04  0.00000000000E+00 0.  1.
         23    2    1    2    0    0 -0.46382174642E+03  0.12952437178E+04 -0.79075260640E+03  0.15894278822E+04  0.90578182208E+02 0.  0.
        254    2    1    2    0    0  0.46382174642E+03 -0.12952437178E+04  0.95121597193E+03  0.19185200520E+04  0.93974489296E+03 0.  0.
        -24    2    4    4    0    0  0.18923933684E+03 -0.45036110514E+01  0.46777784594E+03  0.51088260522E+03  0.79706424099E+02 0.  0.
         24    2    4    4    0    0  0.27458240957E+03 -0.12907401067E+04  0.48343812600E+03  0.14076374468E+04  0.79531359848E+02 0.  0.
         13    1    3    3    0    0 -0.63700691462E+02  0.24048574895E+03 -0.11157413234E+03  0.27265355407E+03  0.00000000000E+00 0. -1.
        -13    1    3    3    0    0 -0.40012105495E+03  0.10547579688E+04 -0.67917847406E+03  0.13167743281E+04  0.00000000000E+00 0.  1.
          4    1    6    6  502    0  0.83503517665E+02 -0.52226087391E+03  0.16375406844E+03  0.55366474766E+03  0.00000000000E+00 0. -1.
          1    1    5    5  503    0  0.47015672353E+01 -0.19298715343E+02  0.36632723492E+02  0.41671352015E+02  0.00000000000E+00 0. -1.
         -2    1    5    5    0  503  0.18453776961E+03  0.14795104292E+02  0.43114512245E+03  0.46921125320E+03  0.00000000000E+00 0.  1.
         -3    1    6    6    0  502  0.19107889191E+03 -0.76847923284E+03  0.31968405755E+03  0.85397269915E+03  0.00000000000E+00 0.  1.
<mgrwt>
<rscale>  0 0.35042760E+04</rscale>
<asrwt>0</asrwt>
<pdfrwt beam="1">  1        1 0.28218548E+00 0.35042760E+04</pdfrwt>
<pdfrwt beam="2">  1       -1 0.25749881E+00 0.35042760E+04</pdfrwt>
<totfact> 0.19618931E-01</totfact>
</mgrwt>
</event>
<event>
12    1  0.1518126E-007  0.1722760E+04  0.7818608E-02  0.8748489E-01
         -1   -1    0    0    0  501 -0.00000000000E+00  0.00000000000E+00  0.34079400720E+03  0.34079400720E+03  0.00000000000E+00 0.  1.
          1   -1    0    0  501    0  0.00000000000E+00 -0.00000000000E+00 -0.21771973066E+04  0.21771973066E+04  0.00000000000E+00 0. -1.
         23    2    1    2    0    0 -0.23169190051E+03 -0.39372943625E+03 -0.56359464681E+02  0.46963562850E+03  0.93151642891E+02 0.  0.
        254    2    1    2    0    0  0.23169190051E+03  0.39372943625E+03 -0.17800438347E+04  0.20483556853E+04  0.90471042563E+03 0.  0.
        -24    2    4    4    0    0  0.39616006084E+03  0.47938885065E+03 -0.17304027465E+04  0.18404112187E+04  0.77867354768E+02 0.  0.
         24    2    4    4    0    0 -0.16446816034E+03 -0.85659414401E+02 -0.49641088205E+02  0.20794446657E+03  0.79933425424E+02 0.  0.
         13    1    3    3    0    0 -0.18945547954E+03 -0.36374819894E+03 -0.29241606903E+02  0.41117052732E+03  0.00000000000E+00 0.  1.
        -13    1    3    3    0    0 -0.42236420963E+02 -0.29981237309E+02 -0.27117857778E+02  0.58465101187E+02  0.00000000000E+00 0. -1.
          2    1    6    6  502    0 -0.15054562610E+03 -0.55380669443E+02 -0.17018814474E+02  0.16130915700E+03  0.00000000000E+00 0. -1.
          3    1    5    5  503    0  0.26171799003E+03  0.29562040290E+03 -0.99147987131E+03  0.10672019791E+04  0.00000000000E+00 0. -1.
         -4    1    5    5    0  503  0.13444207082E+03  0.18376844775E+03 -0.73892287521E+03  0.77320923967E+03  0.00000000000E+00 0.  1.
         -1    1    6    6    0  502 -0.13922534241E+02 -0.30278744959E+02 -0.32622273731E+02  0.46635309577E+02  0.00000000000E+00 0.  1.
<mgrwt>
<rscale>  0 0.17227603E+04</rscale>
<asrwt>0</asrwt>
<pdfrwt beam="1">  1        1 0.33495344E+00 0.17227603E+04</pdfrwt>
<pdfrwt beam="2">  1       -1 0.52429846E-01 0.17227603E+04</pdfrwt>
<totfact> 0.78644110E+00</totfact>
</mgrwt>
</event>
<event>
12    1  0.1518126E-007  0.2852821E+04  0.7818608E-02  0.8287055E-01
         -2   -1    0    0    0  501 -0.00000000000E+00  0.00000000000E+00  0.10572052734E+04  0.10572052734E+04  0.00000000000E+00 0.  1.
          2   -1    0    0  501    0  0.00000000000E+00 -0.00000000000E+00 -0.19245518908E+04  0.19245518908E+04  0.00000000000E+00 0. -1.
         23    2    1    2    0    0  0.78140358915E+03 -0.57453044463E+02  0.67016812162E+03  0.10355554943E+04  0.96733909027E+02 0.  0.
        254    2    1    2    0    0 -0.78140358915E+03  0.57453044463E+02 -0.15375147390E+04  0.19462016698E+04  0.89992052190E+03 0.  0.
        -24    2    4    4    0    0 -0.66147483557E+03  0.34357729018E+03 -0.61491772671E+03  0.96954567974E+03  0.79376961735E+02 0.  0.
         24    2    4    4    0    0 -0.11992875358E+03 -0.28612424572E+03 -0.92259701226E+03  0.97665599011E+03  0.80135423311E+02 0.  0.
         11    1    3    3    0    0  0.25694232220E+02  0.73700221164E+01  0.46293942725E+02  0.53456897856E+02  0.00000000000E+00 0. -1.
        -11    1    3    3    0    0  0.75570935693E+03 -0.64823066580E+02  0.62387417890E+03  0.98209859648E+03  0.00000000000E+00 0.  1.
          4    1    6    6  502    0 -0.10408975213E+03 -0.27963140550E+03 -0.90086228230E+03  0.94898959483E+03  0.00000000000E+00 0. -1.
          1    1    5    5  503    0 -0.66227270072E+03  0.33975479298E+03 -0.60607018753E+03  0.95987474271E+03  0.00000000000E+00 0. -1.
         -2    1    5    5    0  503  0.79786514374E+00  0.38224972036E+01 -0.88475391736E+01  0.96709370325E+01  0.00000000000E+00 0.  1.
         -3    1    6    6    0  502 -0.15839001452E+02 -0.64928402245E+01 -0.21734729961E+02  0.27666395278E+02  0.00000000000E+00 0.  1.
<mgrwt>
<rscale>  0 0.28528206E+04</rscale>
<asrwt>0</asrwt>
<pdfrwt beam="1">  1        2 0.29608490E+00 0.28528206E+04</pdfrwt>
<pdfrwt beam="2">  1       -2 0.16264697E+00 0.28528206E+04</pdfrwt>
<totfact> 0.15356933E+00</totfact>
</mgrwt>
</event>
<event>
12    1  0.1925056E-007  0.1591108E+04  0.7818608E-02  0.8826029E-01
         -1   -1    0    0    0  501 -0.00000000000E+00  0.00000000000E+00  0.66846993755E+03  0.66846993755E+03  0.00000000000E+00 0.  1.
          1   -1    0    0  501    0  0.00000000000E+00 -0.00000000000E+00 -0.94679840441E+03  0.94679840441E+03  0.00000000000E+00 0. -1.
         23    2    1    2    0    0  0.43822185911E+03  0.10282591311E+03 -0.18473886318E+02  0.45981562734E+03  0.92073668683E+02 0.  0.
        254    2    1    2    0    0 -0.43822185911E+03 -0.10282591311E+03 -0.25985458055E+03  0.11554527146E+04  0.10319568821E+04 0.  0.
        -24    2    4    4    0    0  0.37974562136E+02  0.51288093879E+02  0.34880329339E+03  0.36336449171E+03  0.79356665843E+02 0.  0.
         24    2    4    4    0    0 -0.47619642124E+03 -0.15411400699E+03 -0.60865787394E+03  0.79208822291E+03  0.80157261780E+02 0.  0.
         11    1    3    3    0    0  0.98346520659E+02  0.64734009079E+01  0.30493883805E+02  0.10316889063E+03  0.00000000000E+00 0.  1.
        -11    1    3    3    0    0  0.33987533845E+03  0.96352512204E+02 -0.48967770124E+02  0.35664673671E+03  0.00000000000E+00 0. -1.
          4    1    6    6  502    0 -0.80008379925E+02 -0.41635169728E+02 -0.70807583000E+02  0.11466709217E+03  0.00000000000E+00 0. -1.
          1    1    5    5  503    0  0.24755453349E+02  0.97824532546E+01  0.24590098074E+02  0.36238126131E+02  0.00000000000E+00 0. -1.
         -4    1    5    5    0  503  0.13219108786E+02  0.41505640625E+02  0.32421319531E+03  0.32712636558E+03  0.00000000000E+00 0.  1.
         -3    1    6    6    0  502 -0.39618804132E+03 -0.11247883726E+03 -0.53785029094E+03  0.67742113074E+03  0.00000000000E+00 0.  1.
<mgrwt>
<rscale>  0 0.15911081E+04</rscale>
<asrwt>0</asrwt>
<pdfrwt beam="1">  1        1 0.14566129E+00 0.15911081E+04</pdfrwt>
<pdfrwt beam="2">  1       -1 0.10284153E+00 0.15911081E+04</pdfrwt>
<totfact> 0.14308372E+01</totfact>
</mgrwt>
</event>
<event>
12    1  0.1518126E-007  0.2464351E+04  0.7818608E-02  0.8415797E-01
          2   -1    0    0  501    0  0.00000000000E+00  0.00000000000E+00  0.23185335602E+04  0.23185335602E+04  0.00000000000E+00 0. -1.
         -2   -1    0    0    0  501 -0.00000000000E+00 -0.00000000000E+00 -0.65483491100E+03  0.65483491100E+03  0.00000000000E+00 0.  1.
         23    2    1    2    0    0 -0.80407719264E+03  0.56737887086E+03  0.12136027738E+04  0.15650752516E+04  0.90387696249E+02 0.  0.
        254    2    1    2    0    0  0.80407719264E+03 -0.56737887086E+03  0.45009587533E+03  0.14082932196E+04  0.90124612650E+03 0.  0.
        -24    2    4    4    0    0  0.44478136954E+03 -0.77989466226E+03  0.22662763109E+03  0.92887358723E+03  0.73347849135E+02 0.  0.
         24    2    4    4    0    0  0.35929582310E+03  0.21251579140E+03  0.22346824424E+03  0.47941963236E+03  0.75157685016E+02 0.  0.
         13    1    3    3    0    0 -0.67189151795E+03  0.50321301969E+03  0.10655156156E+04  0.13564604978E+04  0.00000000000E+00 0. -1.
        -13    1    3    3    0    0 -0.13218567468E+03  0.64165851164E+02  0.14808715821E+03  0.20861475373E+03  0.00000000000E+00 0.  1.
          4    1    6    6  502    0  0.36808468137E+02  0.35421526761E+02  0.45147559196E+01  0.51282851965E+02  0.00000000000E+00 0. -1.
          3    1    5    5  503    0  0.18115242160E+03 -0.29171324481E+03  0.12108486282E+03  0.36410762290E+03  0.00000000000E+00 0. -1.
         -4    1    5    5    0  503  0.26362894794E+03 -0.48818141745E+03  0.10554276827E+03  0.56476596433E+03  0.00000000000E+00 0.  1.
         -3    1    6    6    0  502  0.32248735496E+03  0.17709426464E+03  0.21895348832E+03  0.42813678039E+03  0.00000000000E+00 0.  1.
<mgrwt>
<rscale>  0 0.24643512E+04</rscale>
<asrwt>0</asrwt>
<pdfrwt beam="1">  1        2 0.35669747E+00 0.24643512E+04</pdfrwt>
<pdfrwt beam="2">  1       -2 0.10074383E+00 0.24643512E+04</pdfrwt>
<totfact> 0.32118399E+00</totfact>
</mgrwt>
</event>
<event>
12    1  0.1518126E-007  0.1608906E+04  0.7818608E-02  0.8815096E-01
          2   -1    0    0  501    0  0.00000000000E+00  0.00000000000E+00  0.81663618673E+03  0.81663618673E+03  0.00000000000E+00 0. -1.
         -2   -1    0    0    0  501 -0.00000000000E+00 -0.00000000000E+00 -0.79245112997E+03  0.79245112997E+03  0.00000000000E+00 0.  1.
         23    2    1    2    0    0 -0.31839448235E+03  0.43357151128E+03  0.72532167320E+02  0.55044109237E+03  0.91461352970E+02 0.  0.
        254    2    1    2    0    0  0.31839448235E+03 -0.43357151128E+03 -0.48347110553E+02  0.10586462243E+04  0.91051363714E+03 0.  0.
        -24    2    4    4    0    0 -0.27289475915E+03  0.45894773982E+02  0.30209140218E+02  0.28967195284E+03  0.80120960157E+02 0.  0.
         24    2    4    4    0    0  0.59128924150E+03 -0.47946628526E+03 -0.78556250770E+02  0.76897427150E+03  0.75096337262E+02 0.  0.
         13    1    3    3    0    0 -0.12260598036E+03  0.24145763545E+03  0.23814202964E+02  0.27184762717E+03  0.00000000000E+00 0.  1.
        -13    1    3    3    0    0 -0.19578850199E+03  0.19211387583E+03  0.48717964356E+02  0.27859346520E+03  0.00000000000E+00 0. -1.
          4    1    6    6  502    0  0.33483090672E+03 -0.24708629087E+03 -0.75252157496E+02  0.42287853864E+03  0.00000000000E+00 0. -1.
          1    1    5    5  503    0 -0.51594228958E+02 -0.37111322223E+01  0.35636679667E+02  0.62814885989E+02  0.00000000000E+00 0. -1.
         -2    1    5    5    0  503 -0.22130053019E+03  0.49605906204E+02 -0.54275394496E+01  0.22685706685E+03  0.00000000000E+00 0.  1.
         -3    1    6    6    0  502  0.25645833479E+03 -0.23237999439E+03 -0.33040932743E+01  0.34609573286E+03  0.00000000000E+00 0.  1.
<mgrwt>
<rscale>  0 0.16089056E+04</rscale>
<asrwt>0</asrwt>
<pdfrwt beam="1">  1        2 0.12563634E+00 0.16089056E+04</pdfrwt>
<pdfrwt beam="2">  1       -2 0.12191556E+00 0.16089056E+04</pdfrwt>
<totfact> 0.16390227E+01</totfact>
</mgrwt>
</event>
<event>
12    1  0.1518126E-007  0.2765197E+04  0.7818608E-02  0.8314156E-01
          2   -1    0    0  501    0  0.00000000000E+00  0.00000000000E+00  0.25622275749E+04  0.25622275749E+04  0.00000000000E+00 0. -1.
         -2   -1    0    0    0  501 -0.00000000000E+00 -0.00000000000E+00 -0.74606099540E+03  0.74606099540E+03  0.00000000000E+00 0.  1.
         23    2    1    2    0    0 -0.87640225536E+03 -0.11297353428E+03  0.18518901396E+04  0.20540206354E+04  0.93057772050E+02 0.  0.
        254    2    1    2    0    0  0.87640225536E+03  0.11297353428E+03 -0.35723560119E+02  0.12542679349E+04  0.88942000598E+03 0.  0.
        -24    2    4    4    0    0 -0.34749476214E+02 -0.11545373666E+03 -0.24882826364E+03  0.28765076417E+03  0.79311827240E+02 0.  0.
         24    2    4    4    0    0  0.91115173157E+03  0.22842727093E+03  0.21310470352E+03  0.96661717069E+03  0.80985455221E+02 0.  0.
         11    1    3    3    0    0 -0.59462568775E+03 -0.56490060880E+02  0.13370759532E+04  0.14644258056E+04  0.00000000000E+00 0. -1.
        -11    1    3    3    0    0 -0.28177656761E+03 -0.56483473400E+02  0.51481418640E+03  0.58959482981E+03  0.00000000000E+00 0.  1.
          2    1    6    6  502    0  0.32428550946E+03  0.12153562139E+03  0.77997717788E+02  0.35498682073E+03  0.00000000000E+00 0. -1.
          3    1    5    5  503    0 -0.24143314741E+01 -0.35105309926E+02 -0.14916799058E+02  0.38219401821E+02  0.00000000000E+00 0. -1.
         -4    1    5    5    0  503 -0.32335144740E+02 -0.80348426730E+02 -0.23391146458E+03  0.24943136235E+03  0.00000000000E+00 0.  1.
         -3    1    6    6    0  502  0.58686622212E+03  0.10689164955E+03  0.13510698573E+03  0.61163034997E+03  0.00000000000E+00 0.  1.
<mgrwt>
<rscale>  0 0.27651966E+04</rscale>
<asrwt>0</asrwt>
<pdfrwt beam="1">  1        2 0.39418885E+00 0.27651966E+04</pdfrwt>
<pdfrwt beam="2">  1       -2 0.11477862E+00 0.27651966E+04</pdfrwt>
<totfact> 0.16551331E+00</totfact>
</mgrwt>
</event>
<event>
12    1  0.1518126E-007  0.2026841E+04  0.7818608E-02  0.8594173E-01
          2   -1    0    0  501    0  0.00000000000E+00  0.00000000000E+00  0.14437961162E+04  0.14437961162E+04  0.00000000000E+00 0. -1.
         -2   -1    0    0    0  501 -0.00000000000E+00 -0.00000000000E+00 -0.71133392925E+03  0.71133392925E+03  0.00000000000E+00 0.  1.
         23    2    1    2    0    0  0.44358934200E+03  0.32119560894E+03  0.92163210675E+03  0.10760498301E+04  0.92408728973E+02 0.  0.
        254    2    1    2    0    0 -0.44358934200E+03 -0.32119560894E+03 -0.18916991977E+03  0.10790802153E+04  0.91032451854E+03 0.  0.
        -24    2    4    4    0    0 -0.24609229981E+03 -0.33797396659E+03 -0.52781741631E+03  0.67800578752E+03  0.79453136034E+02 0.  0.
         24    2    4    4    0    0 -0.19749704219E+03  0.16778357654E+02  0.33864749654E+03  0.40107442782E+03  0.83017918436E+02 0.  0.
         13    1    3    3    0    0  0.26017842492E+03  0.23689836259E+03  0.54463913421E+03  0.64841763818E+03  0.00000000000E+00 0.  1.
        -13    1    3    3    0    0  0.18341091708E+03  0.84297246355E+02  0.37699297254E+03  0.42763219195E+03  0.00000000000E+00 0. -1.
          2    1    6    6  502    0 -0.85810136104E+02 -0.22587333147E+02  0.19958983259E+03  0.21842542972E+03  0.00000000000E+00 0. -1.
          1    1    5    5  503    0 -0.15915260235E+03 -0.17638881510E+03 -0.34583244376E+03  0.41957436061E+03  0.00000000000E+00 0. -1.
         -2    1    5    5    0  503 -0.86939697463E+02 -0.16158515149E+03 -0.18198497255E+03  0.25843142691E+03  0.00000000000E+00 0.  1.
         -1    1    6    6    0  502 -0.11168690609E+03  0.39365690800E+02  0.13905766395E+03  0.18264899810E+03  0.00000000000E+00 0.  1.
<mgrwt>
<rscale>  0 0.20268411E+04</rscale>
<asrwt>0</asrwt>
<pdfrwt beam="1">  1        2 0.22212248E+00 0.20268411E+04</pdfrwt>
<pdfrwt beam="2">  1       -2 0.10943599E+00 0.20268411E+04</pdfrwt>
<totfact> 0.84261213E+00</totfact>
</mgrwt>
</event>
<event>
12    1  0.1518126E-007  0.1728413E+04  0.7818608E-02  0.8745323E-01
         -1   -1    0    0    0  501 -0.00000000000E+00  0.00000000000E+00  0.54978466587E+03  0.54978466587E+03  0.00000000000E+00 0.  1.
          1   -1    0    0  501    0  0.00000000000E+00 -0.00000000000E+00 -0.13584456307E+04  0.13584456307E+04  0.00000000000E+00 0. -1.
         23    2    1    2    0    0  0.21719959537E+03  0.41689693467E+03  0.17210490909E+03  0.50739465549E+03  0.82767858020E+02 0.  0.
        254    2    1    2    0    0 -0.21719959537E+03 -0.41689693467E+03 -0.98076587388E+03  0.14008356410E+04  0.88287036164E+03 0.  0.
        -24    2    4    4    0    0  0.47104911145E+02 -0.39224502112E+03 -0.23009573861E+02  0.40383856825E+03  0.80505400281E+02 0.  0.
         24    2    4    4    0    0 -0.26430450652E+03 -0.24651913552E+02 -0.95775630002E+03  0.99699707279E+03  0.79002809490E+02 0.  0.
         11    1    3    3    0    0  0.10107692831E+03  0.11111240674E+03  0.56043599214E+02  0.16032279121E+03  0.00000000000E+00 0. -1.
        -11    1    3    3    0    0  0.11612266707E+03  0.30578452793E+03  0.11606130988E+03  0.34707186428E+03  0.00000000000E+00 0.  1.
          2    1    6    6  502    0 -0.24639321889E+03 -0.47957087145E+01 -0.90353066147E+03  0.93653631716E+03  0.00000000000E+00 0. -1.
          1    1    5    5  503    0  0.41692966860E+02 -0.38921683469E+03 -0.32184421995E+02  0.39276441400E+03  0.00000000000E+00 0. -1.
         -2    1    5    5    0  503  0.54119442854E+01 -0.30281864284E+01  0.91748481344E+01  0.11074154247E+02  0.00000000000E+00 0.  1.
         -1    1    6    6    0  502 -0.17911287627E+02 -0.19856204838E+02 -0.54225638551E+02  0.60460755629E+02  0.00000000000E+00 0.  1.
<mgrwt>
<rscale>  0 0.17284127E+04</rscale>
<asrwt>0</asrwt>
<pdfrwt beam="1">  1        1 0.20899163E+00 0.17284127E+04</pdfrwt>
<pdfrwt beam="2">  1       -1 0.84582257E-01 0.17284127E+04</pdfrwt>
<totfact> 0.10798112E+01</totfact>
</mgrwt>
</event>
<event>
12    1  0.1518126E-007  0.2913440E+04  0.7818608E-02  0.8268890E-01
          2   -1    0    0  501    0  0.00000000000E+00  0.00000000000E+00  0.34671917823E+04  0.34671917823E+04  0.00000000000E+00 0. -1.
         -2   -1    0    0    0  501 -0.00000000000E+00 -0.00000000000E+00 -0.61203222114E+03  0.61203222114E+03  0.00000000000E+00 0.  1.
         23    2    1    2    0    0  0.63878270988E+03 -0.62628061125E+03  0.26564544122E+04  0.28045624790E+04  0.92465669382E+02 0.  0.
        254    2    1    2    0    0 -0.63878270988E+03  0.62628061125E+03  0.19870514899E+03  0.12746615245E+04  0.88600649618E+03 0.  0.
        -24    2    4    4    0    0 -0.48639644614E+03 -0.70490911488E+02 -0.81777553341E+02  0.50435607031E+03  0.78339045235E+02 0.  0.
         24    2    4    4    0    0 -0.15238626374E+03  0.69677152273E+03  0.28048270234E+03  0.77030545417E+03  0.77380993406E+02 0.  0.
         13    1    3    3    0    0  0.36209979020E+03 -0.38762919947E+03  0.14493538210E+04  0.15433726552E+04  0.00000000000E+00 0. -1.
        -13    1    3    3    0    0  0.27668291968E+03 -0.23865141178E+03  0.12071005912E+04  0.12611898238E+04  0.00000000000E+00 0.  1.
          4    1    6    6  502    0 -0.16182938314E+02  0.11609626793E+03  0.17704462206E+02  0.11854821341E+03  0.00000000000E+00 0. -1.
          3    1    5    5  503    0 -0.18050000620E+03 -0.54994809403E+02 -0.57835399371E+01  0.18878064157E+03  0.00000000000E+00 0. -1.
         -2    1    5    5    0  503 -0.30589643994E+03 -0.15496102084E+02 -0.75994013404E+02  0.31557542874E+03  0.00000000000E+00 0.  1.
         -3    1    6    6    0  502 -0.13620332543E+03  0.58067525480E+03  0.26277824013E+03  0.65175724076E+03  0.00000000000E+00 0.  1.
<mgrwt>
<rscale>  0 0.29134400E+04</rscale>
<asrwt>0</asrwt>
<pdfrwt beam="1">  1        2 0.53341411E+00 0.29134400E+04</pdfrwt>
<pdfrwt beam="2">  1       -2 0.94158806E-01 0.29134400E+04</pdfrwt>
<totfact> 0.70265057E-01</totfact>
</mgrwt>
</event>
<event>
12    1  0.1518126E-007  0.1717654E+04  0.7818608E-02  0.8751359E-01
          1   -1    0    0  501    0  0.00000000000E+00  0.00000000000E+00  0.15673801400E+04  0.15673801400E+04  0.00000000000E+00 0. -1.
         -1   -1    0    0    0  501 -0.00000000000E+00 -0.00000000000E+00 -0.47058368237E+03  0.47058368237E+03  0.00000000000E+00 0.  1.
         23    2    1    2    0    0 -0.50478257724E+03 -0.23629151369E+03  0.78927674317E+02  0.57029102524E+03  0.91450237715E+02 0.  0.
        254    2    1    2    0    0  0.50478257724E+03  0.23629151369E+03  0.10178687833E+04  0.14676727971E+04  0.89853628176E+03 0.  0.
        -24    2    4    4    0    0  0.40070045634E+02 -0.12439467840E+03  0.83155544747E+03  0.84542333864E+03  0.78590805609E+02 0.  0.
         24    2    4    4    0    0  0.46471253160E+03  0.36068619209E+03  0.18631333585E+03  0.62224945848E+03  0.80183934041E+02 0.  0.
         11    1    3    3    0    0 -0.18648670884E+02 -0.15949990852E+02  0.22995863094E+02  0.33630118247E+02  0.00000000000E+00 0. -1.
        -11    1    3    3    0    0 -0.48613390635E+03 -0.22034152283E+03  0.55931811223E+02  0.53666090700E+03  0.00000000000E+00 0.  1.
          2    1    6    6  502    0  0.12989574790E+02  0.56323873816E+01  0.19249930412E+02  0.23895871227E+02  0.00000000000E+00 0. -1.
          3    1    5    5  503    0  0.22501552009E+02 -0.63209737987E+02  0.64131092071E+03  0.64481120325E+03  0.00000000000E+00 0. -1.
         -4    1    5    5    0  503  0.17568493626E+02 -0.61184940413E+02  0.19024452676E+03  0.20061213538E+03  0.00000000000E+00 0.  1.
         -1    1    6    6    0  502  0.45172295681E+03  0.35505380470E+03  0.16706340544E+03  0.59835358726E+03  0.00000000000E+00 0.  1.
<mgrwt>
<rscale>  0 0.17176537E+04</rscale>
<asrwt>0</asrwt>
<pdfrwt beam="1">  1        1 0.24113540E+00 0.17176537E+04</pdfrwt>
<pdfrwt beam="2">  1       -1 0.72397490E-01 0.17176537E+04</pdfrwt>
<totfact> 0.10745234E+01</totfact>
</mgrwt>
</event>
<event>
12    1  0.1518126E-007  0.1321467E+04  0.7818608E-02  0.9012712E-01
          2   -1    0    0  501    0  0.00000000000E+00  0.00000000000E+00  0.40734646232E+04  0.40734646232E+04  0.00000000000E+00 0. -1.
         -2   -1    0    0    0  501 -0.00000000000E+00 -0.00000000000E+00 -0.10717388166E+03  0.10717388166E+03  0.00000000000E+00 0.  1.
         23    2    1    2    0    0  0.33380260821E+03 -0.36020388307E+02  0.95756164774E+03  0.10188067774E+04  0.91221109256E+02 0.  0.
        254    2    1    2    0    0 -0.33380260821E+03  0.36020388307E+02  0.30087290938E+04  0.31618317274E+04  0.91214443123E+03 0.  0.
        -24    2    4    4    0    0 -0.12334417944E+03 -0.34518343233E+03  0.56551841550E+03  0.67880756648E+03  0.81260356233E+02 0.  0.
         24    2    4    4    0    0 -0.21045842877E+03  0.38120382063E+03  0.24432106783E+04  0.24830241610E+04  0.80755572204E+02 0.  0.
         11    1    3    3    0    0  0.14662610015E+03  0.14854447366E+02  0.31824561296E+03  0.35071375511E+03  0.00000000000E+00 0. -1.
        -11    1    3    3    0    0  0.18717650806E+03 -0.50874835673E+02  0.63931603477E+03  0.66809302226E+03  0.00000000000E+00 0.  1.
          2    1    6    6  502    0 -0.19050075911E+03  0.29050083464E+03  0.18095865353E+04  0.18426298334E+04  0.00000000000E+00 0. -1.
          1    1    5    5  503    0 -0.12137164446E+02 -0.93620465736E+02  0.20190224304E+03  0.22288252088E+03  0.00000000000E+00 0. -1.
         -2    1    5    5    0  503 -0.11120701500E+03 -0.25156296659E+03  0.36361617245E+03  0.45592504561E+03  0.00000000000E+00 0.  1.
         -3    1    6    6    0  502 -0.19957669662E+02  0.90702985989E+02  0.63362414295E+03  0.64039432756E+03  0.00000000000E+00 0.  1.
<mgrwt>
<rscale>  0 0.13214674E+04</rscale>
<asrwt>0</asrwt>
<pdfrwt beam="1">  1        2 0.62668675E+00 0.13214674E+04</pdfrwt>
<pdfrwt beam="2">  1       -2 0.16488293E-01 0.13214674E+04</pdfrwt>
<totfact> 0.90152636E+00</totfact>
</mgrwt>
</event>
<event>
12    1  0.1518126E-007  0.1190280E+04  0.7818608E-02  0.9121407E-01
         -2   -1    0    0    0  501 -0.00000000000E+00  0.00000000000E+00  0.22914421875E+03  0.22914421875E+03  0.00000000000E+00 0.  1.
          2   -1    0    0  501    0  0.00000000000E+00 -0.00000000000E+00 -0.15457149646E+04  0.15457149646E+04  0.00000000000E+00 0. -1.
         23    2    1    2    0    0  0.16124045768E+03  0.16096118443E+03 -0.34638055211E+03  0.42440136755E+03  0.90719599940E+02 0.  0.
        254    2    1    2    0    0 -0.16124045768E+03 -0.16096118443E+03 -0.97019019374E+03  0.13504578158E+04  0.91135081728E+03 0.  0.
        -24    2    4    4    0    0 -0.84700802533E+02  0.66225760348E+02 -0.10702107583E+04  0.10786287363E+04  0.80801029786E+02 0.  0.
         24    2    4    4    0    0 -0.76539655152E+02 -0.22718694478E+03  0.10002056451E+03  0.27182907950E+03  0.80091875057E+02 0.  0.
         11    1    3    3    0    0  0.16388701370E+03  0.16222302726E+03 -0.30223973829E+03  0.38016328497E+03  0.00000000000E+00 0.  1.
        -11    1    3    3    0    0 -0.26465560193E+01 -0.12618428357E+01 -0.44140813819E+02  0.44238082584E+02  0.00000000000E+00 0. -1.
          4    1    6    6  502    0 -0.16595629276E+02 -0.15149752734E+03  0.83803835942E+02  0.17392526734E+03  0.00000000000E+00 0. -1.
          1    1    5    5  503    0 -0.22543005158E+02  0.21115822708E+01 -0.54720541830E+02  0.59219790268E+02  0.00000000000E+00 0. -1.
         -2    1    5    5    0  503 -0.62157797376E+02  0.64114178078E+02 -0.10154902164E+04  0.10194089460E+04  0.00000000000E+00 0.  1.
         -3    1    6    6    0  502 -0.59944025876E+02 -0.75689417435E+02  0.16216728570E+02  0.97903812159E+02  0.00000000000E+00 0.  1.
<mgrwt>
<rscale>  0 0.11902800E+04</rscale>
<asrwt>0</asrwt>
<pdfrwt beam="1">  1        2 0.23780230E+00 0.11902800E+04</pdfrwt>
<pdfrwt beam="2">  1       -2 0.35252957E-01 0.11902800E+04</pdfrwt>
<totfact> 0.89195184E+01</totfact>
</mgrwt>
</event>
<event>
12    1  0.1518126E-007  0.2594084E+04  0.7818608E-02  0.8370213E-01
          1   -1    0    0  501    0  0.00000000000E+00  0.00000000000E+00  0.15201029062E+04  0.15201029062E+04  0.00000000000E+00 0. -1.
         -1   -1    0    0    0  501 -0.00000000000E+00 -0.00000000000E+00 -0.11067133236E+04  0.11067133236E+04  0.00000000000E+00 0.  1.
         23    2    1    2    0    0 -0.50980823948E+03  0.98066790007E+03  0.47906205149E+03  0.12083492350E+04  0.94833819132E+02 0.  0.
        254    2    1    2    0    0  0.50980823948E+03 -0.98066790007E+03 -0.65672468918E+02  0.14184669947E+04  0.88663508319E+03 0.  0.
        -24    2    4    4    0    0  0.69494686013E+03 -0.97172419663E+03 -0.13459167218E+03  0.12051686384E+04  0.84365135191E+02 0.  0.
         24    2    4    4    0    0 -0.18513862065E+03 -0.89437034363E+01  0.68919203260E+02  0.21329835635E+03  0.79937685453E+02 0.  0.
         13    1    3    3    0    0 -0.20024779394E+03  0.41116240514E+03  0.24763689800E+03  0.52007474042E+03  0.00000000000E+00 0.  1.
        -13    1    3    3    0    0 -0.30956044554E+03  0.56950549493E+03  0.23142515350E+03  0.68827449457E+03  0.00000000000E+00 0. -1.
          2    1    6    6  502    0 -0.17346783929E+03 -0.14918219503E+02  0.35899263802E+02  0.17777064348E+03  0.00000000000E+00 0. -1.
          1    1    5    5  503    0  0.64841043328E+03 -0.93669956510E+03 -0.13222649471E+03  0.11468766329E+04  0.00000000000E+00 0. -1.
         -4    1    5    5    0  503  0.46536426847E+02 -0.35024631535E+02 -0.23651774683E+01  0.58292005475E+02  0.00000000000E+00 0.  1.
         -1    1    6    6    0  502 -0.11670781356E+02  0.59745160667E+01  0.33019939458E+02  0.35527712867E+02  0.00000000000E+00 0.  1.
<mgrwt>
<rscale>  0 0.25940841E+04</rscale>
<asrwt>0</asrwt>
<pdfrwt beam="1">  1        1 0.23386199E+00 0.25940841E+04</pdfrwt>
<pdfrwt beam="2">  1       -1 0.17026359E+00 0.25940841E+04</pdfrwt>
<totfact> 0.13675863E+00</totfact>
</mgrwt>
</event>
<event>
12    1  0.1518126E-007  0.1732320E+04  0.7818608E-02  0.8743143E-01
         -4   -1    0    0    0  501 -0.00000000000E+00  0.00000000000E+00  0.91308704301E+03  0.91308704301E+03  0.00000000000E+00 0.  1.
          4   -1    0    0  501    0  0.00000000000E+00 -0.00000000000E+00 -0.82164463880E+03  0.82164463880E+03  0.00000000000E+00 0. -1.
         23    2    1    2    0    0 -0.35547806798E+02 -0.12967051870E+03  0.64851489058E+03  0.66873702836E+03  0.92517889133E+02 0.  0.
        254    2    1    2    0    0  0.35547806798E+02  0.12967051870E+03 -0.55707248638E+03  0.10659946535E+04  0.89885302254E+03 0.  0.
        -24    2    4    4    0    0 -0.37635060795E+03 -0.14088458285E+03 -0.26376527633E+03  0.48688309712E+03  0.77425987076E+02 0.  0.
         24    2    4    4    0    0  0.41189841474E+03  0.27055510155E+03 -0.29330721004E+03  0.57911155633E+03  0.80502845743E+02 0.  0.
         13    1    3    3    0    0 -0.63591494086E+02 -0.10762546727E+03  0.54808321139E+03  0.56215863058E+03  0.00000000000E+00 0.  1.
        -13    1    3    3    0    0  0.28043687288E+02 -0.22045051429E+02  0.10043167919E+03  0.10657839778E+03  0.00000000000E+00 0. -1.
          4    1    6    6  502    0  0.32802508156E+03  0.19870742338E+03 -0.19048506796E+03  0.42821683218E+03  0.00000000000E+00 0. -1.
          1    1    5    5  503    0 -0.34252536021E+03 -0.12053239210E+03 -0.26124611847E+03  0.44732674227E+03  0.00000000000E+00 0. -1.
         -2    1    5    5    0  503 -0.33825247738E+02 -0.20352190749E+02 -0.25191578624E+01  0.39556354852E+02  0.00000000000E+00 0.  1.
         -3    1    6    6    0  502  0.83873333180E+02  0.71847678168E+02 -0.10282214208E+03  0.15089472416E+03  0.00000000000E+00 0.  1.
<mgrwt>
<rscale>  0 0.17323199E+04</rscale>
<asrwt>0</asrwt>
<pdfrwt beam="1">  1        4 0.12640687E+00 0.17323199E+04</pdfrwt>
<pdfrwt beam="2">  1       -4 0.14047493E+00 0.17323199E+04</pdfrwt>
<totfact> 0.31246870E-01</totfact>
</mgrwt>
</event>
<event>
12    1  0.1518126E-007  0.2109931E+04  0.7818608E-02  0.8556881E-01
         -1   -1    0    0    0  501 -0.00000000000E+00  0.00000000000E+00  0.20772657927E+04  0.20772657927E+04  0.00000000000E+00 0.  1.
          1   -1    0    0  501    0  0.00000000000E+00 -0.00000000000E+00 -0.53577754284E+03  0.53577754284E+03  0.00000000000E+00 0. -1.
         23    2    1    2    0    0  0.49539008968E+03  0.67414403320E+03  0.90871544937E+03  0.12386471157E+04  0.92743683663E+02 0.  0.
        254    2    1    2    0    0 -0.49539008968E+03 -0.67414403320E+03  0.63277280050E+03  0.13743962199E+04  0.88807771825E+03 0.  0.
        -24    2    4    4    0    0 -0.69312925726E+02 -0.79076911424E+02 -0.21435300287E+03  0.25204280429E+03  0.80752249269E+02 0.  0.
         24    2    4    4    0    0 -0.42607716396E+03 -0.59506712178E+03  0.84712580337E+03  0.11223534156E+04  0.80052692944E+02 0.  0.
         13    1    3    3    0    0  0.80350399341E+02  0.16975477146E+03  0.22449086217E+03  0.29269269944E+03  0.00000000000E+00 0. -1.
        -13    1    3    3    0    0  0.41503969034E+03  0.50438926174E+03  0.68422458720E+03  0.94595441626E+03  0.00000000000E+00 0.  1.
          2    1    6    6  502    0 -0.14200017403E+03 -0.22606997809E+03  0.25646405304E+03  0.37019656254E+03  0.00000000000E+00 0. -1.
          3    1    5    5  503    0 -0.38906962816E+02  0.75298309648E+01 -0.50054701408E+02  0.63842957662E+02  0.00000000000E+00 0. -1.
         -4    1    5    5    0  503 -0.30405962910E+02 -0.86606742388E+02 -0.16429830146E+03  0.18819984663E+03  0.00000000000E+00 0.  1.
         -1    1    6    6    0  502 -0.28407698993E+03 -0.36899714369E+03  0.59066175033E+03  0.75215685303E+03  0.00000000000E+00 0.  1.
<mgrwt>
<rscale>  0 0.21099311E+04</rscale>
<asrwt>0</asrwt>
<pdfrwt beam="1">  1        1 0.82427315E-01 0.21099311E+04</pdfrwt>
<pdfrwt beam="2">  1       -1 0.31957935E+00 0.21099311E+04</pdfrwt>
<totfact> 0.91170841E-01</totfact>
</mgrwt>
</event>
<event>
12    1  0.1635324E-007  0.1407929E+04  0.7818608E-02  0.8948099E-01
          2   -1    0    0  501    0  0.00000000000E+00  0.00000000000E+00  0.21676186016E+04  0.21676186016E+04  0.00000000000E+00 0. -1.
         -2   -1    0    0    0  501 -0.00000000000E+00 -0.00000000000E+00 -0.22862219605E+03  0.22862219605E+03  0.00000000000E+00 0.  1.
         23    2    1    2    0    0  0.16258433349E+03  0.59090132619E+02  0.12120541195E+04  0.12276130877E+04  0.89629209432E+02 0.  0.
        254    2    1    2    0    0 -0.16258433349E+03 -0.59090132619E+02  0.72694228599E+03  0.11686277099E+04  0.89851006002E+03 0.  0.
        -24    2    4    4    0    0 -0.23276654314E+03 -0.44608281318E+03  0.36291385326E+03  0.62639749261E+03  0.86586454190E+02 0.  0.
         24    2    4    4    0    0  0.70182209649E+02  0.38699268056E+03  0.36402843274E+03  0.54223021730E+03  0.82510795404E+02 0.  0.
         13    1    3    3    0    0  0.23834765497E+02 -0.15831528076E+02  0.87556485209E+02  0.92113361841E+02  0.00000000000E+00 0.  1.
        -13    1    3    3    0    0  0.13874956800E+03  0.74921660695E+02  0.11244976343E+04  0.11354997259E+04  0.00000000000E+00 0. -1.
          2    1    6    6  502    0  0.87525138615E+02  0.34694746058E+03  0.31653151803E+03  0.47772941316E+03  0.00000000000E+00 0. -1.
          3    1    5    5  503    0 -0.19304662304E+03 -0.28843331397E+03  0.22953220770E+03  0.41610793028E+03  0.00000000000E+00 0. -1.
         -4    1    5    5    0  503 -0.39719920103E+02 -0.15764949921E+03  0.13338164555E+03  0.21028956233E+03  0.00000000000E+00 0.  1.
         -1    1    6    6    0  502 -0.17342928967E+02  0.40045219977E+02  0.47496914704E+02  0.64500804139E+02  0.00000000000E+00 0.  1.
<mgrwt>
<rscale>  0 0.14079286E+04</rscale>
<asrwt>0</asrwt>
<pdfrwt beam="1">  1        2 0.33347977E+00 0.14079286E+04</pdfrwt>
<pdfrwt beam="2">  1       -2 0.35172647E-01 0.14079286E+04</pdfrwt>
<totfact> 0.39805021E+01</totfact>
</mgrwt>
</event>
<event>
12    1  0.1518126E-007  0.2927170E+04  0.7818608E-02  0.8264839E-01
         -2   -1    0    0    0  501 -0.00000000000E+00  0.00000000000E+00  0.68139245425E+03  0.68139245425E+03  0.00000000000E+00 0.  1.
          2   -1    0    0  501    0  0.00000000000E+00 -0.00000000000E+00 -0.31436807533E+04  0.31436807533E+04  0.00000000000E+00 0. -1.
         23    2    1    2    0    0 -0.26689117033E+03 -0.47728850740E+03 -0.26734947264E+04  0.27305308280E+04  0.95861017221E+02 0.  0.
        254    2    1    2    0    0  0.26689117033E+03  0.47728850740E+03  0.21120642740E+03  0.10945423795E+04  0.92432659238E+03 0.  0.
        -24    2    4    4    0    0  0.55008534906E+03  0.53633591511E+03  0.17361304454E+03  0.79190645277E+03  0.82001436671E+02 0.  0.
         24    2    4    4    0    0 -0.28319417873E+03 -0.59047407704E+02  0.37593382860E+02  0.30263592670E+03  0.80558689626E+02 0.  0.
         11    1    3    3    0    0 -0.28024508182E+02 -0.12157789574E+03 -0.51252513569E+03  0.52749272270E+03  0.00000000000E+00 0.  1.
        -11    1    3    3    0    0 -0.23886666215E+03 -0.35571061166E+03 -0.21609695907E+04  0.22030381053E+04  0.00000000000E+00 0. -1.
          4    1    6    6  502    0 -0.35094872795E+02 -0.63730308544E+01 -0.22253434447E+02  0.42041419618E+02  0.00000000000E+00 0. -1.
          3    1    5    5  503    0  0.12136920784E+03  0.15297420280E+03  0.70534142969E+02  0.20762142630E+03  0.00000000000E+00 0. -1.
         -4    1    5    5    0  503  0.42871614122E+03  0.38336171231E+03  0.10307890157E+03  0.58428502647E+03  0.00000000000E+00 0.  1.
         -3    1    6    6    0  502 -0.24809930594E+03 -0.52674376850E+02  0.59846817308E+02  0.26059450709E+03  0.00000000000E+00 0.  1.
<mgrwt>
<rscale>  0 0.29271695E+04</rscale>
<asrwt>0</asrwt>
<pdfrwt beam="1">  1        2 0.48364319E+00 0.29271695E+04</pdfrwt>
<pdfrwt beam="2">  1       -2 0.10482961E+00 0.29271695E+04</pdfrwt>
<totfact> 0.89592878E-01</totfact>
</mgrwt>
</event>
<event>
12    1  0.1518126E-007  0.1524429E+04  0.7818608E-02  0.8868369E-01
          2   -1    0    0  501    0  0.00000000000E+00  0.00000000000E+00  0.63921918151E+03  0.63921918151E+03  0.00000000000E+00 0. -1.
         -2   -1    0    0    0  501 -0.00000000000E+00 -0.00000000000E+00 -0.90887557173E+03  0.90887557173E+03  0.00000000000E+00 0.  1.
         23    2    1    2    0    0  0.38039120012E+03 -0.12723628568E+03  0.20248201918E+03  0.45839484518E+03  0.90776255024E+02 0.  0.
        254    2    1    2    0    0 -0.38039120012E+03  0.12723628568E+03 -0.47213840940E+03  0.10896999081E+04  0.89646231068E+03 0.  0.
        -24    2    4    4    0    0 -0.86056233069E+02  0.96289802356E+02 -0.69420652212E+03  0.71063485691E+03  0.80011269298E+02 0.  0.
         24    2    4    4    0    0 -0.29433496705E+03  0.30946483319E+02  0.22206811272E+03  0.37906505115E+03  0.82372984968E+02 0.  0.
         11    1    3    3    0    0  0.25027627263E+03 -0.12801252065E+03  0.14043521693E+03  0.31424109890E+03  0.00000000000E+00 0. -1.
        -11    1    3    3    0    0  0.13011492749E+03  0.77623497796E+00  0.62046802251E+02  0.14415374628E+03  0.00000000000E+00 0.  1.
          4    1    6    6  502    0 -0.48138428676E+02 -0.25703805042E+02  0.38565497506E+02  0.66822836717E+02  0.00000000000E+00 0. -1.
          3    1    5    5  503    0  0.30632411069E-01  0.57054698457E+02 -0.28148675424E+03  0.28721078039E+03  0.00000000000E+00 0. -1.
         -4    1    5    5    0  503 -0.86086865481E+02  0.39235103899E+02 -0.41271976787E+03  0.42342407652E+03  0.00000000000E+00 0.  1.
         -1    1    6    6    0  502 -0.24619653838E+03  0.56650288362E+02  0.18350261521E+03  0.31224221443E+03  0.00000000000E+00 0.  1.
<mgrwt>
<rscale>  0 0.15244287E+04</rscale>
<asrwt>0</asrwt>
<pdfrwt beam="1">  1        2 0.98341413E-01 0.15244287E+04</pdfrwt>
<pdfrwt beam="2">  1       -2 0.13982701E+00 0.15244287E+04</pdfrwt>
<totfact> 0.15942463E+01</totfact>
</mgrwt>
</event>
<event>
12    1  0.1518126E-007  0.1439840E+04  0.7818608E-02  0.8925475E-01
          1   -1    0    0  501    0  0.00000000000E+00  0.00000000000E+00  0.24198462341E+04  0.24198462341E+04  0.00000000000E+00 0. -1.
         -1   -1    0    0    0  501 -0.00000000000E+00 -0.00000000000E+00 -0.21418094614E+03  0.21418094614E+03  0.00000000000E+00 0.  1.
         23    2    1    2    0    0 -0.47985025505E+02  0.83703853721E+02 -0.95035509697E+02  0.16261251540E+03  0.90012133972E+02 0.  0.
        254    2    1    2    0    0  0.47985025505E+02 -0.83703853721E+02  0.23007007977E+04  0.24714146649E+04  0.89741706440E+03 0.  0.
        -24    2    4    4    0    0  0.77024468998E+02 -0.45819360750E+03  0.16452578942E+04  0.17114999380E+04  0.80525452228E+02 0.  0.
         24    2    4    4    0    0 -0.29039443492E+02  0.37448975378E+03  0.65544290348E+03  0.75991472689E+03  0.82335456928E+02 0.  0.
         11    1    3    3    0    0  0.19385456037E+02  0.10519253829E+02 -0.47488978737E+02  0.52360803168E+02  0.00000000000E+00 0. -1.
        -11    1    3    3    0    0 -0.67370481542E+02  0.73184599893E+02 -0.47546530960E+02  0.11025171224E+03  0.00000000000E+00 0.  1.
          4    1    6    6  502    0 -0.28698191777E+01  0.28822225323E+03  0.55183808353E+03  0.62257977285E+03  0.00000000000E+00 0. -1.
          1    1    5    5  503    0  0.69490029939E+02 -0.41599899493E+03  0.13869504501E+04  0.14496605047E+04  0.00000000000E+00 0. -1.
         -2    1    5    5    0  503  0.75344390587E+01 -0.42194612573E+02  0.25830744413E+03  0.26183943323E+03  0.00000000000E+00 0.  1.
         -3    1    6    6    0  502 -0.26169624315E+02  0.86267500550E+02  0.10360481994E+03  0.13733495405E+03  0.00000000000E+00 0.  1.
<mgrwt>
<rscale>  0 0.14398402E+04</rscale>
<asrwt>0</asrwt>
<pdfrwt beam="1">  1        1 0.37228402E+00 0.14398402E+04</pdfrwt>
<pdfrwt beam="2">  1       -1 0.32950917E-01 0.14398402E+04</pdfrwt>
<totfact> 0.12967778E+01</totfact>
</mgrwt>
</event>
<event>
12    1  0.1518126E-007  0.1602020E+04  0.7818608E-02  0.8819308E-01
         -2   -1    0    0    0  501 -0.00000000000E+00  0.00000000000E+00  0.22325868160E+03  0.22325868160E+03  0.00000000000E+00 0.  1.
          2   -1    0    0  501    0  0.00000000000E+00 -0.00000000000E+00 -0.28738718376E+04  0.28738718376E+04  0.00000000000E+00 0. -1.
         23    2    1    2    0    0 -0.45251638406E+03  0.16714701028E+03 -0.43336509958E+03  0.65467180802E+03  0.89892523527E+02 0.  0.
        254    2    1    2    0    0  0.45251638406E+03 -0.16714701028E+03 -0.22172480564E+04  0.24424587112E+04  0.90371810387E+03 0.  0.
        -24    2    4    4    0    0  0.42684824297E+03 -0.12072232732E+03 -0.22824855133E+04  0.23264211499E+04  0.75643541974E+02 0.  0.
         24    2    4    4    0    0  0.25668141095E+02 -0.46424682962E+02  0.65237456941E+02  0.11603756123E+03  0.79966775428E+02 0.  0.
         13    1    3    3    0    0 -0.32267423205E+03  0.14637851905E+03 -0.27304205678E+03  0.44732236210E+03  0.00000000000E+00 0.  1.
        -13    1    3    3    0    0 -0.12984215201E+03  0.20768491237E+02 -0.16032304280E+03  0.20734944592E+03  0.00000000000E+00 0. -1.
          4    1    6    6  502    0 -0.19808666599E+02  0.11000158520E+02  0.17070909258E+02  0.28369044799E+02  0.00000000000E+00 0. -1.
          1    1    5    5  503    0  0.97674254225E+02  0.45722965532E+01 -0.49522345224E+03  0.50478454164E+03  0.00000000000E+00 0. -1.
         -2    1    5    5    0  503  0.32917398874E+03 -0.12529462387E+03 -0.17872620611E+04  0.18216366083E+04  0.00000000000E+00 0.  1.
         -3    1    6    6    0  502  0.45476807694E+02 -0.57424841483E+02  0.48166547683E+02  0.87668516430E+02  0.00000000000E+00 0.  1.
<mgrwt>
<rscale>  0 0.16020198E+04</rscale>
<asrwt>0</asrwt>
<pdfrwt beam="1">  1        2 0.44213408E+00 0.16020198E+04</pdfrwt>
<pdfrwt beam="2">  1       -2 0.34347493E-01 0.16020198E+04</pdfrwt>
<totfact> 0.15950190E+01</totfact>
</mgrwt>
</event>
<event>
12    1  0.1518126E-007  0.3544087E+04  0.7818608E-02  0.8103421E-01
         -2   -1    0    0    0  501 -0.00000000000E+00  0.00000000000E+00  0.67934316322E+03  0.67934316322E+03  0.00000000000E+00 0.  1.
          2   -1    0    0  501    0  0.00000000000E+00 -0.00000000000E+00 -0.46223138479E+04  0.46223138479E+04  0.00000000000E+00 0. -1.
         23    2    1    2    0    0 -0.15020257671E+04 -0.22989855429E+03 -0.85565909599E+03  0.17462027537E+04  0.90204313062E+02 0.  0.
        254    2    1    2    0    0  0.15020257671E+04  0.22989855429E+03 -0.30873115887E+04  0.35554542574E+04  0.89488959116E+03 0.  0.
        -24    2    4    4    0    0  0.36043907762E+03 -0.23531303305E+03 -0.13802754191E+04  0.14480087482E+04  0.79249922822E+02 0.  0.
         24    2    4    4    0    0  0.11415866895E+04  0.46521158734E+03 -0.17070361696E+04  0.21074455092E+04  0.87818557453E+02 0.  0.
         11    1    3    3    0    0 -0.20348963603E+03 -0.44378373037E+02 -0.85826340790E+02  0.22526347404E+03  0.00000000000E+00 0.  1.
        -11    1    3    3    0    0 -0.12985361311E+04 -0.18552018125E+03 -0.76983275520E+03  0.15209392797E+04  0.00000000000E+00 0. -1.
          2    1    6    6  502    0  0.68944962642E+03  0.28861593110E+03 -0.11061997672E+04  0.13350347816E+04  0.00000000000E+00 0. -1.
          1    1    5    5  503    0  0.34102378985E+03 -0.19568493119E+03 -0.12218830561E+04  0.12835840527E+04  0.00000000000E+00 0. -1.
         -2    1    5    5    0  503  0.19415287771E+02 -0.39628101861E+02 -0.15839236300E+03  0.16442469557E+03  0.00000000000E+00 0.  1.
         -3    1    6    6    0  502  0.45213706310E+03  0.17659565624E+03 -0.60083640243E+03  0.77241072760E+03  0.00000000000E+00 0.  1.
<mgrwt>
<rscale>  0 0.35440865E+04</rscale>
<asrwt>0</asrwt>
<pdfrwt beam="1">  1        2 0.71112523E+00 0.35440865E+04</pdfrwt>
<pdfrwt beam="2">  1       -2 0.10451433E+00 0.35440865E+04</pdfrwt>
<totfact> 0.56086819E-02</totfact>
</mgrwt>
</event>
<event>
12    1  0.1518126E-007  0.2013829E+04  0.7818608E-02  0.8600182E-01
         -2   -1    0    0    0  501 -0.00000000000E+00  0.00000000000E+00  0.56035279517E+03  0.56035279517E+03  0.00000000000E+00 0.  1.
          2   -1    0    0  501    0  0.00000000000E+00 -0.00000000000E+00 -0.18093550520E+04  0.18093550520E+04  0.00000000000E+00 0. -1.
         23    2    1    2    0    0 -0.24642117666E+03  0.55526651553E+03 -0.11334780814E+04  0.12892187247E+04  0.90928871579E+02 0.  0.
        254    2    1    2    0    0  0.24642117666E+03 -0.55526651553E+03 -0.11552417550E+03  0.10804891225E+04  0.88603984621E+03 0.  0.
        -24    2    4    4    0    0 -0.11607753955E+03 -0.67061889060E+03 -0.78921443836E+02  0.69040474220E+03  0.85008365108E+02 0.  0.
         24    2    4    4    0    0  0.36249871622E+03  0.11535237507E+03 -0.36602731664E+02  0.39008438027E+03  0.78195742022E+02 0.  0.
         11    1    3    3    0    0 -0.21146544404E+03  0.52389532400E+03 -0.10127363633E+04  0.11596632641E+04  0.00000000000E+00 0. -1.
        -11    1    3    3    0    0 -0.34955732621E+02  0.31371191527E+02 -0.12074171801E+03  0.12955546059E+03  0.00000000000E+00 0.  1.
          4    1    6    6  502    0  0.30819630087E+02 -0.92668696307E+01  0.74642595272E+01  0.33036943590E+02  0.00000000000E+00 0. -1.
          1    1    5    5  503    0 -0.40050495663E+02 -0.26294401586E+03 -0.72382361893E+02  0.27564978504E+03  0.00000000000E+00 0. -1.
         -2    1    5    5    0  503 -0.76027043889E+02 -0.40767487474E+03 -0.65390819422E+01  0.41475495716E+03  0.00000000000E+00 0.  1.
         -3    1    6    6    0  502  0.33167908613E+03  0.12461924470E+03 -0.44066991191E+02  0.35704743668E+03  0.00000000000E+00 0.  1.
<mgrwt>
<rscale>  0 0.20138293E+04</rscale>
<asrwt>0</asrwt>
<pdfrwt beam="1">  1        2 0.27836231E+00 0.20138293E+04</pdfrwt>
<pdfrwt beam="2">  1       -2 0.86208123E-01 0.20138293E+04</pdfrwt>
<totfact> 0.92310563E+00</totfact>
</mgrwt>
</event>
<event>
12    1  0.1518126E-007  0.1083327E+04  0.7818608E-02  0.9221597E-01
          2   -1    0    0  501    0  0.00000000000E+00  0.00000000000E+00  0.26697469685E+04  0.26697469685E+04  0.00000000000E+00 0.  1.
         -2   -1    0    0    0  501 -0.00000000000E+00 -0.00000000000E+00 -0.10989774407E+03  0.10989774407E+03  0.00000000000E+00 0. -1.
         23    2    1    2    0    0  0.13701632271E+03 -0.40110908453E+02  0.59771397734E+03  0.62129327288E+03  0.91438364734E+02 0.  0.
        254    2    1    2    0    0 -0.13701632271E+03  0.40110908453E+02  0.19621352471E+04  0.21583514397E+04  0.88776339850E+03 0.  0.
        -24    2    4    4    0    0 -0.31959276737E+03  0.27750910000E+03  0.48384149944E+03  0.64789447831E+03  0.80708245562E+02 0.  0.
         24    2    4    4    0    0  0.18257644466E+03 -0.23739819155E+03  0.14782937476E+04  0.15104569614E+04  0.80223240924E+02 0.  0.
         11    1    3    3    0    0  0.34952701599E+01 -0.28481900348E+02  0.52319094360E+02  0.59671795645E+02  0.00000000000E+00 0. -1.
        -11    1    3    3    0    0  0.13352105255E+03 -0.11629008106E+02  0.54539488298E+03  0.56162147723E+03  0.00000000000E+00 0.  1.
          4    1    6    6  502    0  0.83089428534E+02 -0.89399773397E+02  0.42515980210E+03  0.44233135762E+03  0.00000000000E+00 0. -1.
          3    1    5    5  503    0 -0.72748965611E+02  0.47331729628E+02  0.14919544881E+03  0.17260355319E+03  0.00000000000E+00 0. -1.
         -4    1    5    5    0  503 -0.24684380176E+03  0.23017737038E+03  0.33464605063E+03  0.47529092512E+03  0.00000000000E+00 0.  1.
         -3    1    6    6    0  502  0.99487016123E+02 -0.14799841815E+03  0.10531339455E+04  0.10681256037E+04  0.00000000000E+00 0.  1.
<mgrwt>
<rscale>  0 0.10833267E+04</rscale>
<asrwt>0</asrwt>
<pdfrwt beam="1">  1        2 0.41073025E+00 0.10833267E+04</pdfrwt>
<pdfrwt beam="2">  1       -2 0.16907347E-01 0.10833267E+04</pdfrwt>
<totfact> 0.79729325E+01</totfact>
</mgrwt>
</event>
<event>
12    1  0.1518126E-007  0.1267181E+04  0.7818608E-02  0.9056003E-01
         -2   -1    0    0    0  501 -0.00000000000E+00  0.00000000000E+00  0.29159192938E+03  0.29159192938E+03  0.00000000000E+00 0.  1.
          2   -1    0    0  501    0  0.00000000000E+00 -0.00000000000E+00 -0.13767088891E+04  0.13767088891E+04  0.00000000000E+00 0. -1.
         23    2    1    2    0    0 -0.29930734203E+03  0.33569720881E+02 -0.24661573050E+03  0.40001653109E+03  0.92098292393E+02 0.  0.
        254    2    1    2    0    0  0.29930734203E+03 -0.33569720881E+02 -0.83850122919E+03  0.12682842874E+04  0.90263442826E+03 0.  0.
        -24    2    4    4    0    0 -0.30698987620E+03 -0.57662503001E+02 -0.40748750132E+03  0.51964766511E+03  0.80124177265E+02 0.  0.
         24    2    4    4    0    0  0.60629721823E+03  0.24092782120E+02 -0.43101372787E+03  0.74863662226E+03  0.80667091125E+02 0.  0.
         13    1    3    3    0    0 -0.23389814927E+03  0.25348952947E+01 -0.14486443105E+03  0.27513718998E+03  0.00000000000E+00 0.  1.
        -13    1    3    3    0    0 -0.65409192761E+02  0.31034825586E+02 -0.10175129945E+03  0.12487934111E+03  0.00000000000E+00 0. -1.
          2    1    6    6  502    0  0.44594870018E+03 -0.15216925813E+02 -0.33144129125E+03  0.55583732114E+03  0.00000000000E+00 0. -1.
          3    1    5    5  503    0 -0.13892394892E+03  0.11338511280E+02 -0.20116681291E+03  0.24473763920E+03  0.00000000000E+00 0. -1.
         -4    1    5    5    0  503 -0.16806592727E+03 -0.69001014281E+02 -0.20632068840E+03  0.27491002591E+03  0.00000000000E+00 0.  1.
         -1    1    6    6    0  502  0.16034851804E+03  0.39309707933E+02 -0.99572436621E+02  0.19279930112E+03  0.00000000000E+00 0.  1.
<mgrwt>
<rscale>  0 0.12671814E+04</rscale>
<asrwt>0</asrwt>
<pdfrwt beam="1">  1        2 0.21180137E+00 0.12671814E+04</pdfrwt>
<pdfrwt beam="2">  1       -2 0.44860297E-01 0.12671814E+04</pdfrwt>
<totfact> 0.69054834E+01</totfact>
</mgrwt>
</event>
<event>
12    1  0.1518126E-007  0.1467452E+04  0.7818608E-02  0.8906390E-01
         -1   -1    0    0    0  501 -0.00000000000E+00  0.00000000000E+00  0.44442956470E+03  0.44442956470E+03  0.00000000000E+00 0.  1.
          1   -1    0    0  501    0  0.00000000000E+00 -0.00000000000E+00 -0.12113359413E+04  0.12113359413E+04  0.00000000000E+00 0. -1.
         23    2    1    2    0    0  0.15584406990E+03 -0.25044414935E+02 -0.71589211832E+03  0.73813282679E+03  0.86162335552E+02 0.  0.
        254    2    1    2    0    0 -0.15584406990E+03  0.25044414935E+02 -0.51014258264E+02  0.91763267920E+03  0.90251464395E+03 0.  0.
        -24    2    4    4    0    0  0.18606596528E+03 -0.27427083365E+03  0.19690243456E+03  0.39377468767E+03  0.80267691420E+02 0.  0.
         24    2    4    4    0    0 -0.34191003518E+03  0.29931524859E+03 -0.24791669282E+03  0.52385799153E+03  0.80451342539E+02 0.  0.
         13    1    3    3    0    0  0.15721669439E+03 -0.26901977998E+02 -0.56127455311E+03  0.58349801146E+03  0.00000000000E+00 0. -1.
        -13    1    3    3    0    0 -0.13726244906E+01  0.18575630630E+01 -0.15461756521E+03  0.15463481533E+03  0.00000000000E+00 0.  1.
          4    1    6    6  502    0 -0.46122276213E+02  0.52259474145E+02 -0.86578421268E+01  0.70237278074E+02  0.00000000000E+00 0. -1.
          3    1    5    5  503    0  0.50590647593E+02 -0.26288725573E+02  0.47072121388E+02  0.73934398814E+02  0.00000000000E+00 0. -1.
         -4    1    5    5    0  503  0.13547531769E+03 -0.24798210808E+03  0.14983031317E+03  0.31984028885E+03  0.00000000000E+00 0.  1.
         -1    1    6    6    0  502 -0.29578775897E+03  0.24705577444E+03 -0.23925885070E+03  0.45362071346E+03  0.00000000000E+00 0.  1.
<mgrwt>
<rscale>  0 0.14674515E+04</rscale>
<asrwt>0</asrwt>
<pdfrwt beam="1">  1        1 0.18635937E+00 0.14674515E+04</pdfrwt>
<pdfrwt beam="2">  1       -1 0.68373781E-01 0.14674515E+04</pdfrwt>
<totfact> 0.22015854E+01</totfact>
</mgrwt>
</event>
<event>
12    1  0.1518126E-007  0.1478224E+04  0.7818608E-02  0.8899064E-01
         -1   -1    0    0    0  501 -0.00000000000E+00  0.00000000000E+00  0.33524373112E+03  0.33524373112E+03  0.00000000000E+00 0.  1.
          1   -1    0    0  501    0  0.00000000000E+00 -0.00000000000E+00 -0.16295209547E+04  0.16295209547E+04  0.00000000000E+00 0. -1.
         23    2    1    2    0    0  0.17079602285E+03  0.21557749760E+03 -0.89421580191E+03  0.94157570652E+03  0.10629191801E+03 0.  0.
        254    2    1    2    0    0 -0.17079602285E+03 -0.21557749760E+03 -0.40006142162E+03  0.10231889793E+04  0.90067841503E+03 0.  0.
        -24    2    4    4    0    0 -0.32884003272E+03  0.25832140345E+03 -0.25808061273E+03  0.49788717067E+03  0.80126883426E+02 0.  0.
         24    2    4    4    0    0  0.15804400987E+03 -0.47389890106E+03 -0.14198080889E+03  0.52530180859E+03  0.78900966623E+02 0.  0.
         11    1    3    3    0    0  0.50246328753E+02  0.30374915466E+01 -0.14086276118E+03  0.14958688911E+03  0.00000000000E+00 0.  1.
        -11    1    3    3    0    0  0.12054969410E+03  0.21254000606E+03 -0.75335304073E+03  0.79198881740E+03  0.00000000000E+00 0. -1.
          4    1    6    6  502    0  0.68527908636E+02 -0.31709850338E+03 -0.77189228397E+02  0.33347520461E+03  0.00000000000E+00 0. -1.
          1    1    5    5  503    0 -0.18392793518E+03  0.19017381871E+03 -0.17774116823E+03  0.31872792401E+03  0.00000000000E+00 0. -1.
         -2    1    5    5    0  503 -0.14491209754E+03  0.68147584745E+02 -0.80339444502E+02  0.17915924665E+03  0.00000000000E+00 0.  1.
         -3    1    6    6    0  502  0.89516101230E+02 -0.15680039767E+03 -0.64791580498E+02  0.19182660398E+03  0.00000000000E+00 0.  1.
<mgrwt>
<rscale>  0 0.14782242E+04</rscale>
<asrwt>0</asrwt>
<pdfrwt beam="1">  1        1 0.25069554E+00 0.14782242E+04</pdfrwt>
<pdfrwt beam="2">  1       -1 0.51575958E-01 0.14782242E+04</pdfrwt>
<totfact> 0.19521490E+01</totfact>
</mgrwt>
</event>
<event>
12    1  0.1518126E-007  0.1330311E+04  0.7818608E-02  0.9005868E-01
         -1   -1    0    0    0  501 -0.00000000000E+00  0.00000000000E+00  0.28895491156E+03  0.28895491156E+03  0.00000000000E+00 0.  1.
          1   -1    0    0  501    0  0.00000000000E+00 -0.00000000000E+00 -0.15311449983E+04  0.15311449983E+04  0.00000000000E+00 0. -1.
         23    2    1    2    0    0 -0.30055067135E+03  0.97663187861E+02 -0.49489450231E+03  0.59427938664E+03  0.91534783874E+02 0.  0.
        254    2    1    2    0    0  0.30055067135E+03 -0.97663187861E+02 -0.74729558440E+03  0.12258205232E+04  0.91886694374E+03 0.  0.
        -24    2    4    4    0    0  0.31738896501E+03  0.60000890293E+01 -0.93871266822E+03  0.99418008281E+03  0.80254640991E+02 0.  0.
         24    2    4    4    0    0 -0.16838293660E+02 -0.10366327689E+03  0.19141708383E+03  0.23164044037E+03  0.77376937951E+02 0.  0.
         11    1    3    3    0    0 -0.20635313730E+03  0.55458867425E+02 -0.40271306094E+03  0.45588936453E+03  0.00000000000E+00 0. -1.
        -11    1    3    3    0    0 -0.94197534051E+02  0.42204320436E+02 -0.92181441378E+02  0.13839002211E+03  0.00000000000E+00 0.  1.
          4    1    6    6  502    0 -0.77728335132E+01 -0.91137192647E+02  0.87504490437E+02  0.12658372988E+03  0.00000000000E+00 0. -1.
          1    1    5    5  503    0  0.19331939342E+03  0.32820691534E+02 -0.48764818806E+03  0.52559522542E+03  0.00000000000E+00 0. -1.
         -2    1    5    5    0  503  0.12406957158E+03 -0.26820602505E+02 -0.45106448017E+03  0.46858485739E+03  0.00000000000E+00 0.  1.
         -3    1    6    6    0  502 -0.90654601473E+01 -0.12526084243E+02  0.10391259339E+03  0.10505671049E+03  0.00000000000E+00 0.  1.
<mgrwt>
<rscale>  0 0.13303110E+04</rscale>
<asrwt>0</asrwt>
<pdfrwt beam="1">  1        1 0.23556077E+00 0.13303110E+04</pdfrwt>
<pdfrwt beam="2">  1       -1 0.44454602E-01 0.13303110E+04</pdfrwt>
<totfact> 0.30569598E+01</totfact>
</mgrwt>
</event>
<event>
12    1  0.1518126E-007  0.1699275E+04  0.7818608E-02  0.8761778E-01
          2   -1    0    0  501    0  0.00000000000E+00  0.00000000000E+00  0.90438604707E+03  0.90438604707E+03  0.00000000000E+00 0. -1.
         -2   -1    0    0    0  501 -0.00000000000E+00 -0.00000000000E+00 -0.79820311751E+03  0.79820311751E+03  0.00000000000E+00 0.  1.
         23    2    1    2    0    0  0.21782011794E+03  0.33940314282E+03 -0.43072477395E+03  0.59733063545E+03  0.92951385289E+02 0.  0.
        254    2    1    2    0    0 -0.21782011794E+03 -0.33940314282E+03  0.53690770351E+03  0.11052585291E+04  0.87788748539E+03 0.  0.
        -24    2    4    4    0    0 -0.30185237539E+03 -0.57071985440E+03  0.54141771810E+03  0.84650703961E+03  0.81271236625E+02 0.  0.
         24    2    4    4    0    0  0.84032257455E+02  0.23131671158E+03 -0.45100145974E+01  0.25875148952E+03  0.79769365970E+02 0.  0.
         11    1    3    3    0    0  0.16424023546E+02  0.67079948089E+02 -0.11585457942E+03  0.13487680141E+03  0.00000000000E+00 0. -1.
        -11    1    3    3    0    0  0.20139609439E+03  0.27232319473E+03 -0.31487019453E+03  0.46245383405E+03  0.00000000000E+00 0.  1.
          2    1    6    6  502    0  0.54662200752E+02  0.47086775714E+02 -0.27309346553E+00  0.72147038874E+02  0.00000000000E+00 0. -1.
          3    1    5    5  503    0 -0.12192215296E+03 -0.23560039840E+03  0.27514011946E+03  0.38219712773E+03  0.00000000000E+00 0. -1.
         -2    1    5    5    0  503 -0.17993022243E+03 -0.33511945600E+03  0.26627759864E+03  0.46430991188E+03  0.00000000000E+00 0.  1.
         -1    1    6    6    0  502  0.29370056703E+02  0.18422993587E+03 -0.42369211319E+01  0.18660445064E+03  0.00000000000E+00 0.  1.
<mgrwt>
<rscale>  0 0.16992749E+04</rscale>
<asrwt>0</asrwt>
<pdfrwt beam="1">  1        2 0.13913632E+00 0.16992749E+04</pdfrwt>
<pdfrwt beam="2">  1       -2 0.12280048E+00 0.16992749E+04</pdfrwt>
<totfact> 0.13892041E+01</totfact>
</mgrwt>
</event>
<event>
12    1  0.1518126E-007  0.1548866E+04  0.7818608E-02  0.8852593E-01
          2   -1    0    0  501    0  0.00000000000E+00  0.00000000000E+00  0.13319126173E+04  0.13319126173E+04  0.00000000000E+00 0. -1.
         -2   -1    0    0    0  501 -0.00000000000E+00 -0.00000000000E+00 -0.45028953130E+03  0.45028953130E+03  0.00000000000E+00 0.  1.
         23    2    1    2    0    0  0.13494539927E+03  0.64405011546E+02 -0.26519015048E+03  0.31679284440E+03  0.87599224090E+02 0.  0.
        254    2    1    2    0    0 -0.13494539927E+03 -0.64405011546E+02  0.11468132365E+04  0.14654093042E+04  0.89993642173E+03 0.  0.
        -24    2    4    4    0    0 -0.50404778162E+03 -0.13254924644E+03  0.69020039095E+03  0.86869048276E+03  0.81321007699E+02 0.  0.
         24    2    4    4    0    0  0.36910238235E+03  0.68144234892E+02  0.45661284555E+03  0.59671882144E+03  0.81840428520E+02 0.  0.
         11    1    3    3    0    0  0.13094341825E+03  0.24546068940E+02 -0.20554407598E+03  0.24494296368E+03  0.00000000000E+00 0.  1.
        -11    1    3    3    0    0  0.40019810109E+01  0.39858942606E+02 -0.59646074494E+02  0.71849880725E+02  0.00000000000E+00 0. -1.
          2    1    6    6  502    0  0.14834376179E+03  0.62996563055E+02  0.16174026146E+03  0.22832947860E+03  0.00000000000E+00 0. -1.
          3    1    5    5  503    0 -0.48584855181E+03 -0.12106101907E+03  0.68105770828E+03  0.84530715580E+03  0.00000000000E+00 0. -1.
         -4    1    5    5    0  503 -0.18199229809E+02 -0.11488227365E+02  0.91426826675E+01  0.23383326966E+02  0.00000000000E+00 0.  1.
         -1    1    6    6    0  502  0.22075862056E+03  0.51476718372E+01  0.29487258409E+03  0.36838934285E+03  0.00000000000E+00 0.  1.
<mgrwt>
<rscale>  0 0.15488658E+04</rscale>
<asrwt>0</asrwt>
<pdfrwt beam="1">  1        2 0.20490963E+00 0.15488658E+04</pdfrwt>
<pdfrwt beam="2">  1       -2 0.69275313E-01 0.15488658E+04</pdfrwt>
<totfact> 0.28996185E+01</totfact>
</mgrwt>
</event>
<event>
12    1  0.1518126E-007  0.2696203E+04  0.7818608E-02  0.8336238E-01
         -2   -1    0    0    0  501 -0.00000000000E+00  0.00000000000E+00  0.19819040383E+04  0.19819040383E+04  0.00000000000E+00 0.  1.
          2   -1    0    0  501    0  0.00000000000E+00 -0.00000000000E+00 -0.91698581377E+03  0.91698581377E+03  0.00000000000E+00 0. -1.
         23    2    1    2    0    0  0.27827409931E+03  0.10619877974E+04  0.79084328747E+03  0.13560076358E+04  0.89827872748E+02 0.  0.
        254    2    1    2    0    0 -0.27827409931E+03 -0.10619877974E+04  0.27407493705E+03  0.15428822163E+04  0.10488631493E+04 0.  0.
        -24    2    4    4    0    0 -0.21679299622E+02 -0.20910181889E+03 -0.37540395951E+03  0.43765086861E+03  0.80103603460E+02 0.  0.
         24    2    4    4    0    0 -0.25659479968E+03 -0.85288597851E+03  0.64947889655E+03  0.11052313477E+04  0.80362374647E+02 0.  0.
         13    1    3    3    0    0  0.11319918253E+03  0.40833992993E+03  0.25248152804E+03  0.49325700735E+03  0.00000000000E+00 0. -1.
        -13    1    3    3    0    0  0.16507491678E+03  0.65364786748E+03  0.53836175942E+03  0.86275062841E+03  0.00000000000E+00 0.  1.
          4    1    6    6  502    0 -0.13303027268E+03 -0.39045647401E+03  0.25482620224E+03  0.48486050045E+03  0.00000000000E+00 0. -1.
          3    1    5    5  503    0  0.10682124844E+02 -0.30181518543E+02 -0.18184636961E+02  0.36820006439E+02  0.00000000000E+00 0. -1.
         -4    1    5    5    0  503 -0.32361424466E+02 -0.17892030035E+03 -0.35721932254E+03  0.40083086217E+03  0.00000000000E+00 0.  1.
         -3    1    6    6    0  502 -0.12356452700E+03 -0.46242950450E+03  0.39465269431E+03  0.62037084723E+03  0.00000000000E+00 0.  1.
<mgrwt>
<rscale>  0 0.26962032E+04</rscale>
<asrwt>0</asrwt>
<pdfrwt beam="1">  1        2 0.14107474E+00 0.26962032E+04</pdfrwt>
<pdfrwt beam="2">  1       -2 0.30490831E+00 0.26962032E+04</pdfrwt>
<totfact> 0.74326785E-01</totfact>
</mgrwt>
</event>
<event>
12    1  0.1518126E-007  0.1984468E+04  0.7818608E-02  0.8613917E-01
          2   -1    0    0  501    0  0.00000000000E+00  0.00000000000E+00  0.13459348994E+04  0.13459348994E+04  0.00000000000E+00 0. -1.
         -2   -1    0    0    0  501 -0.00000000000E+00 -0.00000000000E+00 -0.73148251952E+03  0.73148251952E+03  0.00000000000E+00 0.  1.
         23    2    1    2    0    0 -0.20108939119E+03  0.68624282396E+03  0.59437197177E+03  0.93439968014E+03  0.91970455728E+02 0.  0.
        254    2    1    2    0    0  0.20108939119E+03 -0.68624282396E+03  0.20080408104E+02  0.11430177388E+04  0.89147079126E+03 0.  0.
        -24    2    4    4    0    0  0.34908670309E+03 -0.83974478596E+03 -0.15927143945E+02  0.91284200203E+03  0.77421023888E+02 0.  0.
         24    2    4    4    0    0 -0.14799731190E+03  0.15350196200E+03  0.36007552049E+02  0.23017573674E+03  0.78856003665E+02 0.  0.
         13    1    3    3    0    0 -0.74086854868E+02  0.20339129238E+03  0.23322806417E+03  0.31820152387E+03  0.00000000000E+00 0.  1.
        -13    1    3    3    0    0 -0.12700253632E+03  0.48285153159E+03  0.36114390760E+03  0.61619815627E+03  0.00000000000E+00 0. -1.
          4    1    6    6  502    0 -0.13312516735E+03  0.15833231322E+03  0.20044130902E+02  0.20782973506E+03  0.00000000000E+00 0. -1.
          1    1    5    5  503    0  0.30601589598E+03 -0.77544359585E+03 -0.29991651113E+02  0.83418103436E+03  0.00000000000E+00 0. -1.
         -2    1    5    5    0  503  0.43070807101E+02 -0.64301190106E+02  0.14064507168E+02  0.78660967673E+02  0.00000000000E+00 0.  1.
         -3    1    6    6    0  502 -0.14872144552E+02 -0.48303512239E+01  0.15963421147E+02  0.22346001683E+02  0.00000000000E+00 0.  1.
<mgrwt>
<rscale>  0 0.19844675E+04</rscale>
<asrwt>0</asrwt>
<pdfrwt beam="1">  1        2 0.20706691E+00 0.19844675E+04</pdfrwt>
<pdfrwt beam="2">  1       -2 0.11253577E+00 0.19844675E+04</pdfrwt>
<totfact> 0.89911644E+00</totfact>
</mgrwt>
</event>
<event>
12    1  0.1518126E-007  0.1469172E+04  0.7818608E-02  0.8905216E-01
          2   -1    0    0  501    0  0.00000000000E+00  0.00000000000E+00  0.43675011418E+03  0.43675011418E+03  0.00000000000E+00 0. -1.
         -2   -1    0    0    0  501 -0.00000000000E+00 -0.00000000000E+00 -0.12355272913E+04  0.12355272913E+04  0.00000000000E+00 0.  1.
         23    2    1    2    0    0  0.20610647489E+03  0.39357468108E+03 -0.33294587708E+03  0.56270384926E+03  0.91661094970E+02 0.  0.
        254    2    1    2    0    0 -0.20610647489E+03 -0.39357468108E+03 -0.46583130001E+03  0.11095735562E+04  0.90375536953E+03 0.  0.
        -24    2    4    4    0    0 -0.20200255653E+03 -0.87342810570E+02  0.24040309949E+03  0.33558569154E+03  0.79939394033E+02 0.  0.
         24    2    4    4    0    0 -0.41039183593E+01 -0.30623187051E+03 -0.70623439950E+03  0.77398786465E+03  0.80593963302E+02 0.  0.
         13    1    3    3    0    0  0.62269561043E+02  0.12280652075E+03 -0.15847705095E+03  0.20993788474E+03  0.00000000000E+00 0. -1.
        -13    1    3    3    0    0  0.14383691384E+03  0.27076816033E+03 -0.17446882613E+03  0.35276596452E+03  0.00000000000E+00 0.  1.
          2    1    6    6  502    0  0.87591138551E+01 -0.30145287879E+03 -0.68775302549E+03  0.75096922991E+03  0.00000000000E+00 0. -1.
          1    1    5    5  503    0 -0.18051365528E+03 -0.10098858223E+03  0.19928186561E+03  0.28722314574E+03  0.00000000000E+00 0. -1.
         -2    1    5    5    0  503 -0.21488901245E+02  0.13645771658E+02  0.41121233880E+02  0.48362545805E+02  0.00000000000E+00 0.  1.
         -1    1    6    6    0  502 -0.12863032214E+02 -0.47789917113E+01 -0.18481374015E+02  0.23018634733E+02  0.00000000000E+00 0.  1.
<mgrwt>
<rscale>  0 0.14691721E+04</rscale>
<asrwt>0</asrwt>
<pdfrwt beam="1">  1        2 0.67192327E-01 0.14691721E+04</pdfrwt>
<pdfrwt beam="2">  1       -2 0.19008112E+00 0.14691721E+04</pdfrwt>
<totfact> 0.10776859E+01</totfact>
</mgrwt>
</event>
<event>
12    1  0.1518126E-007  0.1970274E+04  0.7818608E-02  0.8620646E-01
          4   -1    0    0  501    0  0.00000000000E+00  0.00000000000E+00  0.92562304620E+03  0.92562304620E+03  0.00000000000E+00 0.  1.
         -4   -1    0    0    0  501 -0.00000000000E+00 -0.00000000000E+00 -0.10484777936E+04  0.10484777936E+04  0.00000000000E+00 0. -1.
         23    2    1    2    0    0  0.57944963495E+03  0.45854551611E+03  0.17807478132E+03  0.76397860397E+03  0.76985776550E+02 0.  0.
        254    2    1    2    0    0 -0.57944963495E+03 -0.45854551611E+03 -0.30092952871E+03  0.12101222358E+04  0.90984140078E+03 0.  0.
        -24    2    4    4    0    0 -0.20727610557E+03  0.23082533867E+03 -0.27536163294E+03  0.42235039398E+03  0.79448760143E+02 0.  0.
         24    2    4    4    0    0 -0.37217352938E+03 -0.68937085478E+03 -0.25567895766E+02  0.78777184183E+03  0.78647607014E+02 0.  0.
         13    1    3    3    0    0  0.22920155576E+02  0.21126777659E+01  0.82773506402E+01  0.24460406223E+02  0.00000000000E+00 0. -1.
        -13    1    3    3    0    0  0.55652947938E+03  0.45643283834E+03  0.16979743068E+03  0.73951819775E+03  0.00000000000E+00 0.  1.
          2    1    6    6  502    0 -0.32758545889E+03 -0.57390395769E+03 -0.45586391972E+02  0.66238667307E+03  0.00000000000E+00 0. -1.
          1    1    5    5  503    0 -0.20898359282E+03  0.23529591978E+03 -0.26695999200E+03  0.41268141375E+03  0.00000000000E+00 0. -1.
         -2    1    5    5    0  503  0.17074872470E+01 -0.44705811054E+01 -0.84016409450E+01  0.96689802299E+01  0.00000000000E+00 0.  1.
         -1    1    6    6    0  502 -0.44588070495E+02 -0.11546689709E+03  0.20018496207E+02  0.12538516876E+03  0.00000000000E+00 0.  1.
<mgrwt>
<rscale>  0 0.19702743E+04</rscale>
<asrwt>0</asrwt>
<pdfrwt beam="1">  1        4 0.14240355E+00 0.19702743E+04</pdfrwt>
<pdfrwt beam="2">  1       -4 0.16130428E+00 0.19702743E+04</pdfrwt>
<totfact> 0.15581392E-01</totfact>
</mgrwt>
</event>
<event>
12    1  0.1518126E-007  0.4404347E+04  0.7818608E-02  0.7927600E-01
         -2   -1    0    0    0  501 -0.00000000000E+00  0.00000000000E+00  0.40894104669E+04  0.40894104669E+04  0.00000000000E+00 0.  1.
          2   -1    0    0  501    0  0.00000000000E+00 -0.00000000000E+00 -0.11858843327E+04  0.11858843327E+04  0.00000000000E+00 0. -1.
         23    2    1    2    0    0  0.29553226389E+02 -0.26136587042E+03 -0.11187294692E+04  0.11528958111E+04  0.91802040502E+02 0.  0.
        254    2    1    2    0    0 -0.29553226389E+02  0.26136587042E+03  0.40222556034E+04  0.41223989884E+04  0.86397208820E+03 0.  0.
        -24    2    4    4    0    0  0.27404109998E+03  0.29884684039E+03  0.33942034684E+04  0.34192643079E+04  0.79644611764E+02 0.  0.
         24    2    4    4    0    0 -0.30359432637E+03 -0.37480969972E+02  0.62805213504E+03  0.70313468051E+03  0.79840819753E+02 0.  0.
         13    1    3    3    0    0  0.32889244476E+02 -0.64004947745E+02 -0.18440474506E+03  0.19794808849E+03  0.00000000000E+00 0.  1.
        -13    1    3    3    0    0 -0.33360180863E+01 -0.19736092268E+03 -0.93432472415E+03  0.95494772264E+03  0.00000000000E+00 0. -1.
          4    1    6    6  502    0 -0.17432051426E+03 -0.54342415730E+02  0.31629508609E+03  0.36521681413E+03  0.00000000000E+00 0. -1.
          3    1    5    5  503    0  0.54757528107E+02  0.10582140015E+03  0.11400082416E+04  0.11462178443E+04  0.00000000000E+00 0. -1.
         -4    1    5    5    0  503  0.21928357187E+03  0.19302544024E+03  0.22541952268E+04  0.22730464637E+04  0.00000000000E+00 0.  1.
         -1    1    6    6    0  502 -0.12927381211E+03  0.16861445757E+02  0.31175704896E+03  0.33791786639E+03  0.00000000000E+00 0.  1.
<mgrwt>
<rscale>  0 0.44043469E+04</rscale>
<asrwt>0</asrwt>
<pdfrwt beam="1">  1        2 0.18244375E+00 0.44043469E+04</pdfrwt>
<pdfrwt beam="2">  1       -2 0.62914006E+00 0.44043469E+04</pdfrwt>
<totfact> 0.58585410E-03</totfact>
</mgrwt>
</event>
<event>
12    1  0.1518126E-007  0.1507916E+04  0.7818608E-02  0.8879206E-01
          2   -1    0    0  501    0  0.00000000000E+00  0.00000000000E+00  0.13728322677E+04  0.13728322677E+04  0.00000000000E+00 0. -1.
         -2   -1    0    0    0  501 -0.00000000000E+00 -0.00000000000E+00 -0.41407297385E+03  0.41407297385E+03  0.00000000000E+00 0.  1.
         23    2    1    2    0    0  0.20855748075E+03  0.17974800566E+03 -0.15761184892E+03  0.32733094856E+03  0.80613191496E+02 0.  0.
        254    2    1    2    0    0 -0.20855748075E+03 -0.17974800566E+03  0.11163711428E+04  0.14595742930E+04  0.89903671784E+03 0.  0.
        -24    2    4    4    0    0  0.15197819583E+03 -0.11655245913E+03 -0.67255881939E+02  0.21803743106E+03  0.79593466760E+02 0.  0.
         24    2    4    4    0    0 -0.36053567659E+03 -0.63195546535E+02  0.11836270247E+04  0.12415368619E+04  0.80381556989E+02 0.  0.
         11    1    3    3    0    0  0.69099948513E+02  0.10298031677E+03 -0.95204024980E+02  0.15634434719E+03  0.00000000000E+00 0.  1.
        -11    1    3    3    0    0  0.13945753224E+03  0.76767688895E+02 -0.62407823944E+02  0.17098660136E+03  0.00000000000E+00 0. -1.
          2    1    6    6  502    0 -0.19237470739E+03 -0.45597789691E+02  0.50908290205E+03  0.54612506592E+03  0.00000000000E+00 0. -1.
          3    1    5    5  503    0  0.23504824120E+01 -0.22899503760E+01  0.12978311288E+02  0.13386754804E+02  0.00000000000E+00 0. -1.
         -4    1    5    5    0  503  0.14962771342E+03 -0.11426250875E+03 -0.80234193227E+02  0.20465067626E+03  0.00000000000E+00 0.  1.
         -1    1    6    6    0  502 -0.16816096920E+03 -0.17597756844E+02  0.67454412267E+03  0.69541179602E+03  0.00000000000E+00 0.  1.
<mgrwt>
<rscale>  0 0.15079161E+04</rscale>
<asrwt>0</asrwt>
<pdfrwt beam="1">  1        2 0.21120496E+00 0.15079161E+04</pdfrwt>
<pdfrwt beam="2">  1       -2 0.63703535E-01 0.15079161E+04</pdfrwt>
<totfact> 0.33017826E+01</totfact>
</mgrwt>
</event>
<event>
12    1  0.1518126E-007  0.1722688E+04  0.7818608E-02  0.8748529E-01
          1   -1    0    0  501    0  0.00000000000E+00  0.00000000000E+00  0.34131189007E+03  0.34131189007E+03  0.00000000000E+00 0. -1.
         -1   -1    0    0    0  501 -0.00000000000E+00 -0.00000000000E+00 -0.21737123432E+04  0.21737123432E+04  0.00000000000E+00 0.  1.
         23    2    1    2    0    0  0.59306927939E+03 -0.84830391175E+02 -0.10191812337E+04  0.11857963503E+04  0.91952335358E+02 0.  0.
        254    2    1    2    0    0 -0.59306927939E+03  0.84830391175E+02 -0.81321921943E+03  0.13292278829E+04  0.86405665347E+03 0.  0.
        -24    2    4    4    0    0 -0.19484116370E+03 -0.14254444617E+03 -0.82504633541E+03  0.86344623711E+03  0.80968824857E+02 0.  0.
         24    2    4    4    0    0 -0.39822811569E+03  0.22737483735E+03  0.11827115986E+02  0.46578164579E+03  0.80794257807E+02 0.  0.
         11    1    3    3    0    0  0.24138735874E+03 -0.77576773698E+02 -0.39675916117E+03  0.47085437744E+03  0.00000000000E+00 0. -1.
        -11    1    3    3    0    0  0.35168192065E+03 -0.72536174769E+01 -0.62242207250E+03  0.71494197290E+03  0.00000000000E+00 0.  1.
          2    1    6    6  502    0 -0.13170141715E+03  0.10758436684E+03 -0.22593531909E+02  0.17155211148E+03  0.00000000000E+00 0. -1.
          1    1    5    5  503    0 -0.16211098385E+03 -0.14235472688E+03 -0.63621801616E+03  0.67180220559E+03  0.00000000000E+00 0. -1.
         -2    1    5    5    0  503 -0.32730179848E+02 -0.18971929842E+00 -0.18882831925E+03  0.19164403152E+03  0.00000000000E+00 0.  1.
         -1    1    6    6    0  502 -0.26652669854E+03  0.11979047051E+03  0.34420647895E+02  0.29422953431E+03  0.00000000000E+00 0.  1.
<mgrwt>
<rscale>  0 0.17226884E+04</rscale>
<asrwt>0</asrwt>
<pdfrwt beam="1">  1        1 0.52509521E-01 0.17226884E+04</pdfrwt>
<pdfrwt beam="2">  1       -1 0.33441729E+00 0.17226884E+04</pdfrwt>
<totfact> 0.13881127E+00</totfact>
</mgrwt>
</event>
<event>
12    1  0.1518126E-007  0.2011991E+04  0.7818608E-02  0.8601035E-01
          2   -1    0    0  501    0  0.00000000000E+00  0.00000000000E+00  0.79504075838E+03  0.79504075838E+03  0.00000000000E+00 0. -1.
         -2   -1    0    0    0  501 -0.00000000000E+00 -0.00000000000E+00 -0.12729247031E+04  0.12729247031E+04  0.00000000000E+00 0.  1.
         23    2    1    2    0    0  0.31013543859E+03  0.19830374742E+03  0.53751330811E+03  0.65841299993E+03  0.95282503991E+02 0.  0.
        254    2    1    2    0    0 -0.31013543859E+03 -0.19830374742E+03 -0.10153972528E+04  0.14095524616E+04  0.90570314911E+03 0.  0.
        -24    2    4    4    0    0 -0.40767140933E+03 -0.29936719437E+01 -0.10891331472E+04  0.11657526335E+04  0.81013888131E+02 0.  0.
         24    2    4    4    0    0  0.97535970740E+02 -0.19531007548E+03  0.73735894358E+02  0.24379982809E+03  0.79637195372E+02 0.  0.
         11    1    3    3    0    0  0.20176939369E+03  0.81529548475E+02  0.26672751699E+03  0.34424050288E+03  0.00000000000E+00 0. -1.
        -11    1    3    3    0    0  0.10836604490E+03  0.11677419895E+03  0.27078579112E+03  0.31417249705E+03  0.00000000000E+00 0.  1.
          2    1    6    6  502    0  0.56782268031E+02 -0.17765333267E+03  0.48472361618E+02  0.19270314583E+03  0.00000000000E+00 0. -1.
          3    1    5    5  503    0 -0.33167072875E+03  0.20382151661E+02 -0.93546012117E+03  0.99272682180E+03  0.00000000000E+00 0. -1.
         -4    1    5    5    0  503 -0.76000680578E+02 -0.23375823605E+02 -0.15367302602E+03  0.17302581167E+03  0.00000000000E+00 0.  1.
         -1    1    6    6    0  502  0.40753702709E+02 -0.17656742806E+02  0.25263532739E+02  0.51096682255E+02  0.00000000000E+00 0.  1.
<mgrwt>
<rscale>  0 0.20119911E+04</rscale>
<asrwt>0</asrwt>
<pdfrwt beam="1">  1        2 0.12231396E+00 0.20119911E+04</pdfrwt>
<pdfrwt beam="2">  1       -2 0.19583457E+00 0.20119911E+04</pdfrwt>
<totfact> 0.45655527E+00</totfact>
</mgrwt>
</event>
<event>
12    1  0.1518126E-007  0.1564778E+04  0.7818608E-02  0.8842483E-01
         -2   -1    0    0    0  501 -0.00000000000E+00  0.00000000000E+00  0.48015744478E+03  0.48015744478E+03  0.00000000000E+00 0.  1.
          2   -1    0    0  501    0  0.00000000000E+00 -0.00000000000E+00 -0.12748578047E+04  0.12748578047E+04  0.00000000000E+00 0. -1.
         23    2    1    2    0    0  0.33988997817E+03  0.36663810269E+03 -0.12623583638E+03  0.52354073798E+03  0.90613036206E+02 0.  0.
        254    2    1    2    0    0 -0.33988997817E+03 -0.36663810269E+03 -0.66846452351E+03  0.12314745115E+04  0.90539270904E+03 0.  0.
        -24    2    4    4    0    0 -0.26050010362E+03 -0.48547394476E+03 -0.83119320273E+03  0.10004805852E+04  0.80833199345E+02 0.  0.
         24    2    4    4    0    0 -0.79389874556E+02  0.11883584206E+03  0.16272867922E+03  0.23099392624E+03  0.80329704213E+02 0.  0.
         13    1    3    3    0    0  0.19429964494E+03  0.22626954123E+03 -0.11919290992E+03  0.32118095692E+03  0.00000000000E+00 0. -1.
        -13    1    3    3    0    0  0.14559033324E+03  0.14036856146E+03 -0.70429264586E+01  0.20235978106E+03  0.00000000000E+00 0.  1.
          2    1    6    6  502    0 -0.37957991534E+02  0.76453131471E+02  0.39089002109E+02  0.93882056427E+02  0.00000000000E+00 0. -1.
          1    1    5    5  503    0 -0.99142446953E+02 -0.14914419133E+03 -0.33302844736E+03  0.37812849846E+03  0.00000000000E+00 0. -1.
         -4    1    5    5    0  503 -0.16135765667E+03 -0.33632975343E+03 -0.49816475537E+03  0.62235208676E+03  0.00000000000E+00 0.  1.
         -1    1    6    6    0  502 -0.41431883022E+02  0.42382710592E+02  0.12363967711E+03  0.13711186981E+03  0.00000000000E+00 0.  1.
<mgrwt>
<rscale>  0 0.15647779E+04</rscale>
<asrwt>0</asrwt>
<pdfrwt beam="1">  1        2 0.19613197E+00 0.15647779E+04</pdfrwt>
<pdfrwt beam="2">  1       -2 0.73870375E-01 0.15647779E+04</pdfrwt>
<totfact> 0.27155997E+01</totfact>
</mgrwt>
</event>
<event>
12    1  0.1518126E-007  0.1587756E+04  0.7818608E-02  0.8828106E-01
          2   -1    0    0  501    0  0.00000000000E+00  0.00000000000E+00  0.11532360848E+04  0.11532360848E+04  0.00000000000E+00 0. -1.
         -2   -1    0    0    0  501 -0.00000000000E+00 -0.00000000000E+00 -0.54649866120E+03  0.54649866120E+03  0.00000000000E+00 0.  1.
         23    2    1    2    0    0 -0.40932299159E+03 -0.21480604499E+03 -0.81592375823E+02  0.47827154429E+03  0.91648272632E+02 0.  0.
        254    2    1    2    0    0  0.40932299159E+03  0.21480604499E+03  0.68832979944E+03  0.12214632017E+04  0.89693226721E+03 0.  0.
        -24    2    4    4    0    0  0.15923911877E+01 -0.31669494506E+02 -0.19586237880E+03  0.21389713567E+03  0.79902569579E+02 0.  0.
         24    2    4    4    0    0  0.40773060040E+03  0.24647553950E+03  0.88419217824E+03  0.10075660661E+04  0.79994595564E+02 0.  0.
         13    1    3    3    0    0 -0.32129631929E+03 -0.20493910293E+03 -0.81422459727E+02  0.38969344060E+03  0.00000000000E+00 0.  1.
        -13    1    3    3    0    0 -0.88026672302E+02 -0.98669420628E+01 -0.16991609578E+00  0.88578103692E+02  0.00000000000E+00 0. -1.
          4    1    6    6  502    0  0.28711567820E+03  0.19456700532E+03  0.57280711252E+03  0.66962655292E+03  0.00000000000E+00 0. -1.
          1    1    5    5  503    0 -0.46682246993E+01 -0.31833747052E+02 -0.20234292118E+03  0.20488493728E+03  0.00000000000E+00 0. -1.
         -2    1    5    5    0  503  0.62606158870E+01  0.16425254608E+00  0.64805423803E+01  0.90121983847E+01  0.00000000000E+00 0.  1.
         -3    1    6    6    0  502  0.12061492220E+03  0.51908534181E+02  0.31138506573E+03  0.33793951313E+03  0.00000000000E+00 0.  1.
<mgrwt>
<rscale>  0 0.15877556E+04</rscale>
<asrwt>0</asrwt>
<pdfrwt beam="1">  1        2 0.17742093E+00 0.15877556E+04</pdfrwt>
<pdfrwt beam="2">  1       -2 0.84076718E-01 0.15877556E+04</pdfrwt>
<totfact> 0.23966310E+01</totfact>
</mgrwt>
</event>
<event>
12    1  0.1518126E-007  0.2174487E+04  0.7818608E-02  0.8529123E-01
         -2   -1    0    0    0  501 -0.00000000000E+00  0.00000000000E+00  0.30428669882E+03  0.30428669882E+03  0.00000000000E+00 0. -1.
          2   -1    0    0  501    0  0.00000000000E+00 -0.00000000000E+00 -0.38848190475E+04  0.38848190475E+04  0.00000000000E+00 0.  1.
         23    2    1    2    0    0 -0.68161882544E+03 -0.48049034302E+03 -0.84072163628E+03  0.11877047171E+04  0.91402583813E+02 0.  0.
        254    2    1    2    0    0  0.68161882544E+03  0.48049034302E+03 -0.27398107124E+04  0.30014010293E+04  0.89798118335E+03 0.  0.
        -24    2    4    4    0    0  0.87129716499E+03  0.49172647559E+03 -0.24287386590E+04  0.26280943585E+04  0.84586092193E+02 0.  0.
         24    2    4    4    0    0 -0.18967833955E+03 -0.11236132564E+02 -0.31107205344E+03  0.37330667077E+03  0.80547655716E+02 0.  0.
         13    1    3    3    0    0 -0.53548238010E+03 -0.38561995071E+03 -0.61039564491E+03  0.89890320342E+03  0.00000000000E+00 0. -1.
        -13    1    3    3    0    0 -0.14613644533E+03 -0.94870392317E+02 -0.23032599136E+03  0.28880151366E+03  0.00000000000E+00 0.  1.
          4    1    6    6  502    0 -0.93051370140E+01  0.20626044045E+02 -0.43714324909E+02  0.49223586521E+02  0.00000000000E+00 0. -1.
          3    1    5    5  503    0  0.10426443182E+03  0.30064055960E+02 -0.28253039745E+03  0.30265218434E+03  0.00000000000E+00 0. -1.
         -4    1    5    5    0  503  0.76703273317E+03  0.46166241963E+03 -0.21462082615E+04  0.23254421741E+04  0.00000000000E+00 0.  1.
         -3    1    6    6    0  502 -0.18037320254E+03 -0.31862176609E+02 -0.26735772853E+03  0.32408308425E+03  0.00000000000E+00 0.  1.
<mgrwt>
<rscale>  0 0.21744873E+04</rscale>
<asrwt>0</asrwt>
<pdfrwt beam="1">  1        2 0.59766443E+00 0.21744873E+04</pdfrwt>
<pdfrwt beam="2">  1       -2 0.46813341E-01 0.21744873E+04</pdfrwt>
<totfact> 0.16849330E+00</totfact>
</mgrwt>
</event>
<event>
12    1  0.1518126E-007  0.1569939E+04  0.7818608E-02  0.8839232E-01
          1   -1    0    0  501    0  0.00000000000E+00  0.00000000000E+00  0.67559557951E+03  0.67559557951E+03  0.00000000000E+00 0. -1.
         -1   -1    0    0    0  501 -0.00000000000E+00 -0.00000000000E+00 -0.91205006829E+03  0.91205006829E+03  0.00000000000E+00 0.  1.
         23    2    1    2    0    0  0.23173005663E+03  0.28593128247E+03  0.28856562503E+03  0.47596801134E+03  0.88430257422E+02 0.  0.
        254    2    1    2    0    0 -0.23173005663E+03 -0.28593128247E+03 -0.52502011382E+03  0.11116776365E+04  0.90814400292E+03 0.  0.
        -24    2    4    4    0    0 -0.23603978863E+03  0.38240574786E+02  0.19473842668E+03  0.31827436462E+03  0.78729873466E+02 0.  0.
         24    2    4    4    0    0  0.43097319994E+01 -0.32417185725E+03 -0.71975854050E+03  0.79340327183E+03  0.79563988770E+02 0.  0.
         11    1    3    3    0    0  0.18051818208E+03  0.24365120816E+03  0.27239647327E+03  0.40761815950E+03  0.00000000000E+00 0. -1.
        -11    1    3    3    0    0  0.51211874552E+02  0.42280074305E+02  0.16169151763E+02  0.68349851844E+02  0.00000000000E+00 0.  1.
          4    1    6    6  502    0  0.39442752623E+02 -0.11435245743E+03 -0.25088697452E+03  0.27852556299E+03  0.00000000000E+00 0. -1.
          1    1    5    5  503    0 -0.72624010062E+01  0.14641182620E+02  0.33867365555E+02  0.37604589435E+02  0.00000000000E+00 0. -1.
         -2    1    5    5    0  503 -0.22877738762E+03  0.23599392166E+02  0.16087106112E+03  0.28066977519E+03  0.00000000000E+00 0.  1.
         -3    1    6    6    0  502 -0.35133020624E+02 -0.20981939982E+03 -0.46887156597E+03  0.51487770884E+03  0.00000000000E+00 0.  1.
<mgrwt>
<rscale>  0 0.15699388E+04</rscale>
<asrwt>0</asrwt>
<pdfrwt beam="1">  1        1 0.10393778E+00 0.15699388E+04</pdfrwt>
<pdfrwt beam="2">  1       -1 0.14031539E+00 0.15699388E+04</pdfrwt>
<totfact> 0.11524320E+01</totfact>
</mgrwt>
</event>
<event>
12    1  0.1518126E-007  0.1909562E+04  0.7818608E-02  0.8650111E-01
         -1   -1    0    0    0  501 -0.00000000000E+00  0.00000000000E+00  0.52069450221E+03  0.52069450221E+03  0.00000000000E+00 0.  1.
          1   -1    0    0  501    0  0.00000000000E+00 -0.00000000000E+00 -0.17507511551E+04  0.17507511551E+04  0.00000000000E+00 0. -1.
         23    2    1    2    0    0  0.69007964201E+03 -0.16133651619E+03 -0.75844471909E+03  0.10419930347E+04  0.90948934044E+02 0.  0.
        254    2    1    2    0    0 -0.69007964201E+03  0.16133651619E+03 -0.47161193375E+03  0.12294526226E+04  0.88707189752E+03 0.  0.
        -24    2    4    4    0    0 -0.21631512249E+02 -0.25835807927E+03  0.56425621807E+02  0.27642612052E+03  0.77528896936E+02 0.  0.
         24    2    4    4    0    0 -0.66844812976E+03  0.41969459546E+03 -0.52803755556E+03  0.95302650207E+03  0.80432567614E+02 0.  0.
         11    1    3    3    0    0  0.66962095562E+03 -0.16265170751E+03 -0.71014206402E+03  0.98951985996E+03  0.00000000000E+00 0. -1.
        -11    1    3    3    0    0  0.20458686386E+02  0.13151913207E+01 -0.48302655068E+02  0.52473174704E+02  0.00000000000E+00 0.  1.
          4    1    6    6  502    0 -0.51775330703E+02  0.58877380840E+02 -0.42461492161E+02  0.89163945407E+02  0.00000000000E+00 0. -1.
          3    1    5    5  503    0 -0.32162365657E+02 -0.11410289468E+03 -0.64221434020E+01  0.11872292224E+03  0.00000000000E+00 0. -1.
         -4    1    5    5    0  503  0.10530853409E+02 -0.14425518459E+03  0.62847765209E+02  0.15770319828E+03  0.00000000000E+00 0.  1.
         -3    1    6    6    0  502 -0.61667279906E+03  0.36081721462E+03 -0.48557606340E+03  0.86386255667E+03  0.00000000000E+00 0.  1.
<mgrwt>
<rscale>  0 0.19095617E+04</rscale>
<asrwt>0</asrwt>
<pdfrwt beam="1">  1        1 0.26934633E+00 0.19095617E+04</pdfrwt>
<pdfrwt beam="2">  1       -1 0.80106846E-01 0.19095617E+04</pdfrwt>
<totfact> 0.63989123E+00</totfact>
</mgrwt>
</event>
<event>
12    1  0.1518126E-007  0.1172726E+04  0.7818608E-02  0.9137070E-01
         -1   -1    0    0    0  501 -0.00000000000E+00  0.00000000000E+00  0.81192140064E+03  0.81192140064E+03  0.00000000000E+00 0.  1.
          1   -1    0    0  501    0  0.00000000000E+00 -0.00000000000E+00 -0.42346657915E+03  0.42346657915E+03  0.00000000000E+00 0. -1.
         23    2    1    2    0    0  0.20483549102E+03 -0.11983695702E+03 -0.32622999110E+02  0.25612332980E+03  0.90644499835E+02 0.  0.
        254    2    1    2    0    0 -0.20483549102E+03  0.11983695702E+03  0.42107782060E+03  0.97926464998E+03  0.85166557348E+03 0.  0.
        -24    2    4    4    0    0  0.13286198496E+02  0.43397096275E+03  0.56022678595E+02  0.44475977605E+03  0.78520050231E+02 0.  0.
         24    2    4    4    0    0 -0.21812168952E+03 -0.31413400573E+03  0.36505514201E+03  0.53450487394E+03  0.78568177785E+02 0.  0.
         13    1    3    3    0    0  0.12300048928E+03 -0.12049744574E+03 -0.20978826669E+02  0.17346142499E+03  0.00000000000E+00 0. -1.
        -13    1    3    3    0    0  0.81835001742E+02  0.66048871738E+00 -0.11644172440E+02  0.82661904813E+02  0.00000000000E+00 0.  1.
          2    1    6    6  502    0 -0.10916154386E+02  0.17454044996E+01  0.35048846407E+01  0.11597115150E+02  0.00000000000E+00 0. -1.
          3    1    5    5  503    0  0.15057560632E+02  0.29954837566E+02  0.20230807194E+02  0.39157476752E+02  0.00000000000E+00 0. -1.
         -4    1    5    5    0  503 -0.17713621360E+01  0.40401612519E+03  0.35791871400E+02  0.40560229929E+03  0.00000000000E+00 0.  1.
         -1    1    6    6    0  502 -0.20720553513E+03 -0.31587941023E+03  0.36155025737E+03  0.52290775879E+03  0.00000000000E+00 0.  1.
<mgrwt>
<rscale>  0 0.11727260E+04</rscale>
<asrwt>0</asrwt>
<pdfrwt beam="1">  1        1 0.65148704E-01 0.11727260E+04</pdfrwt>
<pdfrwt beam="2">  1       -1 0.12491098E+00 0.11727260E+04</pdfrwt>
<totfact> 0.30911220E+01</totfact>
</mgrwt>
</event>
<event>
12    1  0.1518126E-007  0.4052510E+04  0.7818608E-02  0.7994037E-01
          2   -1    0    0  501    0  0.00000000000E+00  0.00000000000E+00  0.27518753643E+04  0.27518753643E+04  0.00000000000E+00 0. -1.
         -2   -1    0    0    0  501 -0.00000000000E+00 -0.00000000000E+00 -0.14919675982E+04  0.14919675982E+04  0.00000000000E+00 0.  1.
         23    2    1    2    0    0  0.93957539514E+03  0.18228343602E+03  0.23503624071E+04  0.25394228120E+04  0.91845519699E+02 0.  0.
        254    2    1    2    0    0 -0.93957539514E+03 -0.18228343602E+03 -0.10904546410E+04  0.17044201504E+04  0.89438668976E+03 0.  0.
        -24    2    4    4    0    0 -0.10967478084E+03 -0.39580027237E+03 -0.19251888494E+03  0.46078416028E+03  0.81068539830E+02 0.  0.
         24    2    4    4    0    0 -0.82990061430E+03  0.21351683635E+03 -0.89793575605E+03  0.12436359901E+04  0.77571804761E+02 0.  0.
         11    1    3    3    0    0  0.22243532852E+03  0.67193620650E+02  0.48996390774E+03  0.54227030983E+03  0.00000000000E+00 0.  1.
        -11    1    3    3    0    0  0.71714006662E+03  0.11508981537E+03  0.18603984993E+04  0.19971525022E+04  0.00000000000E+00 0. -1.
          2    1    6    6  502    0 -0.43333291667E+03  0.76935741077E+02 -0.48806154703E+03  0.65719144746E+03  0.00000000000E+00 0. -1.
          3    1    5    5  503    0 -0.76505575979E+02 -0.29592408568E+03 -0.10275959397E+03  0.32246503964E+03  0.00000000000E+00 0. -1.
         -4    1    5    5    0  503 -0.33169204861E+02 -0.99876186693E+02 -0.89759290969E+02  0.13831912064E+03  0.00000000000E+00 0.  1.
         -1    1    6    6    0  502 -0.39656769763E+03  0.13658109527E+03 -0.40987420901E+03  0.58644454265E+03  0.00000000000E+00 0.  1.
<mgrwt>
<rscale>  0 0.40525098E+04</rscale>
<asrwt>0</asrwt>
<pdfrwt beam="1">  1        2 0.42336544E+00 0.40525098E+04</pdfrwt>
<pdfrwt beam="2">  1       -2 0.22953348E+00 0.40525098E+04</pdfrwt>
<totfact> 0.16713335E-01</totfact>
</mgrwt>
</event>
<event>
12    1  0.1518126E-007  0.1839417E+04  0.7818608E-02  0.8685614E-01
          2   -1    0    0  501    0  0.00000000000E+00  0.00000000000E+00  0.32277188932E+04  0.32277188932E+04  0.00000000000E+00 0.  1.
         -2   -1    0    0    0  501 -0.00000000000E+00 -0.00000000000E+00 -0.26206235966E+03  0.26206235966E+03  0.00000000000E+00 0. -1.
         23    2    1    2    0    0 -0.43316614794E+02  0.66501746307E+03  0.14364473585E+04  0.15861696323E+04  0.91807045495E+02 0.  0.
        254    2    1    2    0    0  0.43316614794E+02 -0.66501746307E+03  0.15292091751E+04  0.19036116206E+04  0.91713245793E+03 0.  0.
        -24    2    4    4    0    0 -0.30413210971E+03  0.14517067534E+02  0.73340698641E+03  0.79811870085E+03  0.80003546911E+02 0.  0.
         24    2    4    4    0    0  0.34744872450E+03 -0.67953453060E+03  0.79580218871E+03  0.11054929197E+04  0.79534128267E+02 0.  0.
         13    1    3    3    0    0 -0.70048550588E+02  0.54777955247E+03  0.11952949303E+04  0.13167001207E+04  0.00000000000E+00 0.  1.
        -13    1    3    3    0    0  0.26731935795E+02  0.11723791060E+03  0.24115242818E+03  0.26946951161E+03  0.00000000000E+00 0. -1.
          4    1    6    6  502    0  0.92158404573E+02 -0.26267398887E+03  0.27831160326E+03  0.39363453160E+03  0.00000000000E+00 0. -1.
          3    1    5    5  503    0 -0.26548005545E+02  0.18607794230E+02  0.12887908776E+03  0.13289419049E+03  0.00000000000E+00 0. -1.
         -4    1    5    5    0  503 -0.27758410417E+03 -0.40907266961E+01  0.60452789865E+03  0.66522451036E+03  0.00000000000E+00 0.  1.
         -3    1    6    6    0  502  0.25529031993E+03 -0.41686054173E+03  0.51749058545E+03  0.71185838812E+03  0.00000000000E+00 0.  1.
<mgrwt>
<rscale>  0 0.18394169E+04</rscale>
<asrwt>0</asrwt>
<pdfrwt beam="1">  1        2 0.49657211E+00 0.18394169E+04</pdfrwt>
<pdfrwt beam="2">  1       -2 0.40317288E-01 0.18394169E+04</pdfrwt>
<totfact> 0.68509462E+00</totfact>
</mgrwt>
</event>
<event>
12    1  0.1518126E-007  0.3605634E+04  0.7818608E-02  0.8089202E-01
         -1   -1    0    0    0  501 -0.00000000000E+00  0.00000000000E+00  0.25414756356E+04  0.25414756356E+04  0.00000000000E+00 0. -1.
          1   -1    0    0  501    0  0.00000000000E+00 -0.00000000000E+00 -0.12788429671E+04  0.12788429671E+04  0.00000000000E+00 0.  1.
         23    2    1    2    0    0  0.16761462958E+04 -0.17436805390E+03  0.66968426267E+03  0.18156737337E+04  0.91233065843E+02 0.  0.
        254    2    1    2    0    0 -0.16761462958E+04  0.17436805390E+03  0.59294840579E+03  0.20046448689E+04  0.90947381233E+03 0.  0.
        -24    2    4    4    0    0 -0.10376558524E+04 -0.19721978878E+03  0.67731116860E+03  0.12568755697E+04  0.73215199806E+02 0.  0.
         24    2    4    4    0    0 -0.63849044347E+03  0.37158784268E+03 -0.84362762813E+02  0.74776929925E+03  0.79336485494E+02 0.  0.
         13    1    3    3    0    0  0.47730705512E+01  0.17486578337E+01 -0.24299150484E+01  0.56342252217E+01  0.00000000000E+00 0. -1.
        -13    1    3    3    0    0  0.16713732253E+04 -0.17611671173E+03  0.67211417772E+03  0.18100395085E+04  0.00000000000E+00 0.  1.
          4    1    6    6  502    0 -0.87516782254E+02  0.73235821258E+02 -0.34517349993E+02  0.11922298496E+03  0.00000000000E+00 0. -1.
          3    1    5    5  503    0 -0.40120404319E+02  0.20730513972E+01  0.14335119983E+02  0.42654894792E+02  0.00000000000E+00 0. -1.
         -4    1    5    5    0  503 -0.99753544806E+03 -0.19929284017E+03  0.66297604862E+03  0.12142206749E+04  0.00000000000E+00 0.  1.
         -3    1    6    6    0  502 -0.55097366121E+03  0.29835202142E+03 -0.49845412820E+02  0.62854631430E+03  0.00000000000E+00 0.  1.
<mgrwt>
<rscale>  0 0.36056335E+04</rscale>
<asrwt>0</asrwt>
<pdfrwt beam="1">  1        1 0.19674507E+00 0.36056335E+04</pdfrwt>
<pdfrwt beam="2">  1       -1 0.39099625E+00 0.36056335E+04</pdfrwt>
<totfact> 0.62372212E-02</totfact>
</mgrwt>
</event>
<event>
12    1  0.1518126E-007  0.1253431E+04  0.7818608E-02  0.9067333E-01
         -1   -1    0    0    0  501 -0.00000000000E+00  0.00000000000E+00  0.52610265793E+03  0.52610265793E+03  0.00000000000E+00 0.  1.
          1   -1    0    0  501    0  0.00000000000E+00 -0.00000000000E+00 -0.74656965817E+03  0.74656965817E+03  0.00000000000E+00 0. -1.
         23    2    1    2    0    0  0.24280545020E+02  0.83667440062E+02  0.23512443648E+03  0.26681082279E+03  0.91185136568E+02 0.  0.
        254    2    1    2    0    0 -0.24280545020E+02 -0.83667440062E+02 -0.45559143672E+03  0.10058614933E+04  0.89252675093E+03 0.  0.
        -24    2    4    4    0    0  0.34534339738E+03 -0.29613047354E+03 -0.26101564640E+03  0.53052059946E+03  0.79797364068E+02 0.  0.
         24    2    4    4    0    0 -0.36962394240E+03  0.21246303348E+03 -0.19457579032E+03  0.47534089386E+03  0.79541359097E+02 0.  0.
         13    1    3    3    0    0  0.17397790468E+02  0.95662492599E+02  0.23343912726E+03  0.25287906544E+03  0.00000000000E+00 0.  1.
        -13    1    3    3    0    0  0.68827545513E+01 -0.11995052537E+02  0.16853092278E+01  0.13931757347E+02  0.00000000000E+00 0. -1.
          2    1    6    6  502    0 -0.17488949348E+03  0.13699557247E+03 -0.73846432290E+02  0.23410984040E+03  0.00000000000E+00 0. -1.
          1    1    5    5  503    0  0.13831929301E+03 -0.11768371458E+03 -0.14989322931E+03  0.23547752269E+03  0.00000000000E+00 0. -1.
         -2    1    5    5    0  503  0.20702410437E+03 -0.17844675896E+03 -0.11112241709E+03  0.29504307677E+03  0.00000000000E+00 0.  1.
         -1    1    6    6    0  502 -0.19473444891E+03  0.75467461006E+02 -0.12072935803E+03  0.24123105346E+03  0.00000000000E+00 0.  1.
<mgrwt>
<rscale>  0 0.12534309E+04</rscale>
<asrwt>0</asrwt>
<pdfrwt beam="1">  1        1 0.11485687E+00 0.12534309E+04</pdfrwt>
<pdfrwt beam="2">  1       -1 0.80938871E-01 0.12534309E+04</pdfrwt>
<totfact> 0.37021124E+01</totfact>
</mgrwt>
</event>
<event>
12    1  0.1518126E-007  0.1816554E+04  0.7818608E-02  0.8697546E-01
         -1   -1    0    0    0  501 -0.00000000000E+00  0.00000000000E+00  0.50090388137E+03  0.50090388137E+03  0.00000000000E+00 0.  1.
          1   -1    0    0  501    0  0.00000000000E+00 -0.00000000000E+00 -0.16469563314E+04  0.16469563314E+04  0.00000000000E+00 0. -1.
         23    2    1    2    0    0  0.50419761562E+03  0.33333157113E+03 -0.81710308486E+03  0.10209292056E+04  0.96508132877E+02 0.  0.
        254    2    1    2    0    0 -0.50419761562E+03 -0.33333157113E+03 -0.32894936517E+03  0.11269310071E+04  0.89243522909E+03 0.  0.
        -24    2    4    4    0    0 -0.20517017779E+03 -0.25214160929E+03  0.28178959925E+03  0.43749366644E+03  0.79530729526E+02 0.  0.
         24    2    4    4    0    0 -0.29902743783E+03 -0.81189961842E+02 -0.61073896442E+03  0.68943734071E+03  0.79451529997E+02 0.  0.
         11    1    3    3    0    0  0.10219858491E+03  0.30797820224E+02 -0.17802459004E+03  0.20757121946E+03  0.00000000000E+00 0.  1.
        -11    1    3    3    0    0  0.40199903071E+03  0.30253375090E+03 -0.63907849482E+03  0.81335798617E+03  0.00000000000E+00 0. -1.
          4    1    6    6  502    0 -0.12046675812E+03 -0.71980512699E+02 -0.24537015752E+03  0.28266578891E+03  0.00000000000E+00 0. -1.
          3    1    5    5  503    0 -0.34474265725E+02 -0.90188110759E+02  0.10868783273E+03  0.14538024385E+03  0.00000000000E+00 0. -1.
         -4    1    5    5    0  503 -0.17069591206E+03 -0.16195349853E+03  0.17310176652E+03  0.29211342258E+03  0.00000000000E+00 0.  1.
         -3    1    6    6    0  502 -0.17856067971E+03 -0.92094491429E+01 -0.36536880690E+03  0.40677155180E+03  0.00000000000E+00 0.  1.
<mgrwt>
<rscale>  0 0.18165537E+04</rscale>
<asrwt>0</asrwt>
<pdfrwt beam="1">  1        1 0.25337790E+00 0.18165537E+04</pdfrwt>
<pdfrwt beam="2">  1       -1 0.77062134E-01 0.18165537E+04</pdfrwt>
<totfact> 0.82441553E+00</totfact>
</mgrwt>
</event>
<event>
12    1  0.1518126E-007  0.1924085E+04  0.7818608E-02  0.8642960E-01
          2   -1    0    0  501    0  0.00000000000E+00  0.00000000000E+00  0.17088935002E+04  0.17088935002E+04  0.00000000000E+00 0. -1.
         -2   -1    0    0    0  501 -0.00000000000E+00 -0.00000000000E+00 -0.54159358190E+03  0.54159358190E+03  0.00000000000E+00 0.  1.
         23    2    1    2    0    0 -0.27651538728E+03 -0.46115241090E+03  0.10712522433E+04  0.12019113097E+04  0.88809470878E+02 0.  0.
        254    2    1    2    0    0  0.27651538728E+03  0.46115241090E+03  0.96047675005E+02  0.10485757724E+04  0.89507747660E+03 0.  0.
        -24    2    4    4    0    0  0.45099208607E+03  0.98088406868E+02  0.33254246256E+03  0.57437537987E+03  0.79419080362E+02 0.  0.
         24    2    4    4    0    0 -0.17447669879E+03  0.36306400404E+03 -0.23649478756E+03  0.47420039254E+03  0.81722936174E+02 0.  0.
         13    1    3    3    0    0 -0.17135294047E+03 -0.24414698850E+03  0.50602415667E+03  0.58739256834E+03  0.00000000000E+00 0. -1.
        -13    1    3    3    0    0 -0.10516244681E+03 -0.21700542240E+03  0.56522808658E+03  0.61451874132E+03  0.00000000000E+00 0.  1.
          4    1    6    6  502    0  0.83664538760E+01  0.11891801010E+02 -0.40730118156E+01  0.15099732016E+02  0.00000000000E+00 0. -1.
          1    1    5    5  503    0  0.18116644344E+02  0.20273524183E+02  0.30361678916E+02  0.40756105453E+02  0.00000000000E+00 0. -1.
         -2    1    5    5    0  503  0.43287544173E+03  0.77814882685E+02  0.30218078365E+03  0.53361927441E+03  0.00000000000E+00 0.  1.
         -3    1    6    6    0  502 -0.18284315267E+03  0.35117220303E+03 -0.23242177574E+03  0.45910066053E+03  0.00000000000E+00 0.  1.
<mgrwt>
<rscale>  0 0.19240850E+04</rscale>
<asrwt>0</asrwt>
<pdfrwt beam="1">  1        2 0.26290669E+00 0.19240850E+04</pdfrwt>
<pdfrwt beam="2">  1       -2 0.83322090E-01 0.19240850E+04</pdfrwt>
<totfact> 0.11426369E+01</totfact>
</mgrwt>
</event>
<event>
12    1  0.1518126E-007  0.1586673E+04  0.7818608E-02  0.8828778E-01
         -1   -1    0    0    0  501 -0.00000000000E+00  0.00000000000E+00  0.30385026492E+03  0.30385026492E+03  0.00000000000E+00 0.  1.
          1   -1    0    0  501    0  0.00000000000E+00 -0.00000000000E+00 -0.20713577032E+04  0.20713577032E+04  0.00000000000E+00 0. -1.
         23    2    1    2    0    0  0.50417386366E+03 -0.34671102137E+01 -0.94314556853E+03  0.10735816266E+04  0.94077839784E+02 0.  0.
        254    2    1    2    0    0 -0.50417386366E+03  0.34671102137E+01 -0.82436186975E+03  0.13016263415E+04  0.87204090210E+03 0.  0.
        -24    2    4    4    0    0 -0.39463989139E+03  0.26613639175E+03 -0.64387294666E+02  0.48676640553E+03  0.78908725433E+02 0.  0.
         24    2    4    4    0    0 -0.10953397227E+03 -0.26266928153E+03 -0.75997457509E+03  0.81485993598E+03  0.73773422975E+02 0.  0.
         13    1    3    3    0    0  0.56905486054E+01  0.58194775584E+01 -0.50392669266E+02  0.51045761609E+02  0.00000000000E+00 0.  1.
        -13    1    3    3    0    0  0.49848331505E+03 -0.92865877720E+01 -0.89275289926E+03  0.10225358650E+04  0.00000000000E+00 0. -1.
          4    1    6    6  502    0 -0.81680004476E+02 -0.16956524145E+03 -0.40115667348E+03  0.44311473787E+03  0.00000000000E+00 0. -1.
          3    1    5    5  503    0 -0.44396692344E+02  0.63518921510E+02 -0.17332377398E+02  0.79411151529E+02  0.00000000000E+00 0. -1.
         -4    1    5    5    0  503 -0.35024319904E+03  0.20261747024E+03 -0.47054917268E+02  0.40735525400E+03  0.00000000000E+00 0.  1.
         -3    1    6    6    0  502 -0.27853967797E+02 -0.93104040080E+02 -0.35881790160E+03  0.37174519810E+03  0.00000000000E+00 0.  1.
<mgrwt>
<rscale>  0 0.15866727E+04</rscale>
<asrwt>0</asrwt>
<pdfrwt beam="1">  1        1 0.31867042E+00 0.15866727E+04</pdfrwt>
<pdfrwt beam="2">  1       -1 0.46746194E-01 0.15866727E+04</pdfrwt>
<totfact> 0.11681202E+01</totfact>
</mgrwt>
</event>
<event>
12    1  0.1518126E-007  0.1542651E+04  0.7818608E-02  0.8856575E-01
          2   -1    0    0  501    0  0.00000000000E+00  0.00000000000E+00  0.26971363643E+04  0.26971363643E+04  0.00000000000E+00 0. -1.
         -2   -1    0    0    0  501 -0.00000000000E+00 -0.00000000000E+00 -0.22058333957E+03  0.22058333957E+03  0.00000000000E+00 0.  1.
         23    2    1    2    0    0 -0.92257160825E+00  0.34213525653E+03  0.15153522654E+04  0.15561924593E+04  0.91570177325E+02 0.  0.
        254    2    1    2    0    0  0.92257160825E+00 -0.34213525653E+03  0.96120075934E+03  0.13615272445E+04  0.90154986159E+03 0.  0.
        -24    2    4    4    0    0 -0.20599576079E+03 -0.85675959752E+01  0.93421568264E+03  0.96017231233E+03  0.81634983355E+02 0.  0.
         24    2    4    4    0    0  0.20691833240E+03 -0.33356766056E+03  0.26985076699E+02  0.40135493220E+03  0.79214940408E+02 0.  0.
         13    1    3    3    0    0 -0.77870539289E+01  0.28631913427E+03  0.10845182447E+04  0.11217036632E+04  0.00000000000E+00 0. -1.
        -13    1    3    3    0    0  0.68644823207E+01  0.55816122267E+02  0.43083402063E+03  0.43448879612E+03  0.00000000000E+00 0.  1.
          2    1    6    6  502    0  0.18691660098E+03 -0.24829420732E+03  0.40422976352E+01  0.31081211250E+03  0.00000000000E+00 0. -1.
          1    1    5    5  503    0 -0.77622576015E+02 -0.43072291870E+02  0.36454351783E+03  0.37519656585E+03  0.00000000000E+00 0. -1.
         -2    1    5    5    0  503 -0.12837318478E+03  0.34504695895E+02  0.56967216482E+03  0.58497574648E+03  0.00000000000E+00 0.  1.
         -1    1    6    6    0  502  0.20001731420E+02 -0.85273453240E+02  0.22942779063E+02  0.90542819695E+02  0.00000000000E+00 0.  1.
<mgrwt>
<rscale>  0 0.15426514E+04</rscale>
<asrwt>0</asrwt>
<pdfrwt beam="1">  1        2 0.41494403E+00 0.15426514E+04</pdfrwt>
<pdfrwt beam="2">  1       -2 0.33935900E-01 0.15426514E+04</pdfrwt>
<totfact> 0.20946898E+01</totfact>
</mgrwt>
</event>
<event>
12    1  0.1518126E-007  0.1741128E+04  0.7818608E-02  0.8738249E-01
         -2   -1    0    0    0  501 -0.00000000000E+00  0.00000000000E+00  0.32934659194E+03  0.32934659194E+03  0.00000000000E+00 0. -1.
          2   -1    0    0  501    0  0.00000000000E+00 -0.00000000000E+00 -0.23011687847E+04  0.23011687847E+04  0.00000000000E+00 0.  1.
         23    2    1    2    0    0 -0.98779236680E+02  0.60450350358E+03 -0.46100017498E+03  0.77206733319E+03  0.91569548515E+02 0.  0.
        254    2    1    2    0    0  0.98779236680E+02 -0.60450350358E+03 -0.15108220178E+04  0.18584480434E+04  0.89222426405E+03 0.  0.
        -24    2    4    4    0    0  0.93488629053E+02 -0.81537272160E+03 -0.13501645817E+04  0.15820270749E+04  0.79325085897E+02 0.  0.
         24    2    4    4    0    0  0.52906076271E+01  0.21086921802E+03 -0.16065743607E+03  0.27642096851E+03  0.78127603492E+02 0.  0.
         11    1    3    3    0    0 -0.18186212329E+02  0.23837867961E+03 -0.22986210705E+03  0.33164999845E+03  0.00000000000E+00 0.  1.
        -11    1    3    3    0    0 -0.80593024351E+02  0.36612482397E+03 -0.23113806793E+03  0.44041733475E+03  0.00000000000E+00 0. -1.
          2    1    6    6  502    0  0.37730710859E+02  0.10287230424E+03 -0.58242623499E+02  0.12409077610E+03  0.00000000000E+00 0. -1.
          1    1    5    5  503    0  0.25807372277E+02 -0.14744799793E+03 -0.19337592001E+03  0.24454279584E+03  0.00000000000E+00 0. -1.
         -2    1    5    5    0  503  0.67681256776E+02 -0.66792472367E+03 -0.11567886617E+04  0.13374842791E+04  0.00000000000E+00 0.  1.
         -1    1    6    6    0  502 -0.32440103232E+02  0.10799691378E+03 -0.10241481257E+03  0.15233019240E+03  0.00000000000E+00 0.  1.
<mgrwt>
<rscale>  0 0.17411285E+04</rscale>
<asrwt>0</asrwt>
<pdfrwt beam="1">  1        2 0.35402596E+00 0.17411285E+04</pdfrwt>
<pdfrwt beam="2">  1       -2 0.50668707E-01 0.17411285E+04</pdfrwt>
<totfact> 0.15823044E+01</totfact>
</mgrwt>
</event>
<event>
12    1  0.1518126E-007  0.2029231E+04  0.7818608E-02  0.8593075E-01
         -2   -1    0    0    0  501 -0.00000000000E+00  0.00000000000E+00  0.76753772028E+03  0.76753772028E+03  0.00000000000E+00 0.  1.
          2   -1    0    0  501    0  0.00000000000E+00 -0.00000000000E+00 -0.13412299328E+04  0.13412299328E+04  0.00000000000E+00 0. -1.
         23    2    1    2    0    0 -0.35768496276E+03 -0.29065714203E+03  0.46407095442E+03  0.65921570628E+03  0.82361337236E+02 0.  0.
        254    2    1    2    0    0  0.35768496276E+03  0.29065714203E+03 -0.10377631669E+04  0.14495519468E+04  0.90101517689E+03 0.  0.
        -24    2    4    4    0    0  0.58709951452E+03 -0.44105357033E+02 -0.54369895547E+03  0.80531034001E+03  0.79278414977E+02 0.  0.
         24    2    4    4    0    0 -0.22941455176E+03  0.33476249907E+03 -0.49406421144E+03  0.64424160676E+03  0.79062225577E+02 0.  0.
         11    1    3    3    0    0 -0.19882223751E+03 -0.20799830767E+03  0.31025897085E+03  0.42314797307E+03  0.00000000000E+00 0.  1.
        -11    1    3    3    0    0 -0.15886272526E+03 -0.82658834364E+02  0.15381198357E+03  0.23606773321E+03  0.00000000000E+00 0. -1.
          2    1    6    6  502    0 -0.21248010490E+03  0.32917705670E+03 -0.44974460213E+03  0.59646922534E+03  0.00000000000E+00 0. -1.
          1    1    5    5  503    0  0.48611611275E+03 -0.28987112313E+02 -0.48612191444E+03  0.68808694469E+03  0.00000000000E+00 0. -1.
         -2    1    5    5    0  503  0.10098340178E+03 -0.15118244720E+02 -0.57577041030E+02  0.11722339532E+03  0.00000000000E+00 0.  1.
         -1    1    6    6    0  502 -0.16934446855E+02  0.55854423682E+01 -0.44319609309E+02  0.47772381415E+02  0.00000000000E+00 0.  1.
<mgrwt>
<rscale>  0 0.20292310E+04</rscale>
<asrwt>0</asrwt>
<pdfrwt beam="1">  1        2 0.20634307E+00 0.20292310E+04</pdfrwt>
<pdfrwt beam="2">  1       -2 0.11808273E+00 0.20292310E+04</pdfrwt>
<totfact> 0.80144587E+00</totfact>
</mgrwt>
</event>
<event>
12    1  0.1518126E-007  0.1928537E+04  0.7818608E-02  0.8640781E-01
          1   -1    0    0  501    0  0.00000000000E+00  0.00000000000E+00  0.39132621408E+04  0.39132621408E+04  0.00000000000E+00 0. -1.
         -1   -1    0    0    0  501 -0.00000000000E+00 -0.00000000000E+00 -0.23760575097E+03  0.23760575097E+03  0.00000000000E+00 0.  1.
         23    2    1    2    0    0 -0.49464735247E+03 -0.53461126052E+03  0.10271435881E+04  0.12624647405E+04  0.91148600150E+02 0.  0.
        254    2    1    2    0    0  0.49464735247E+03  0.53461126052E+03  0.26485128017E+04  0.28884031512E+04  0.89317831369E+03 0.  0.
        -24    2    4    4    0    0  0.59916765304E+03  0.55332495508E+03  0.26299753242E+04  0.27546716608E+04  0.79217237463E+02 0.  0.
         24    2    4    4    0    0 -0.10452030057E+03 -0.18713694560E+02  0.18537477530E+02  0.13373149042E+03  0.79156666564E+02 0.  0.
         13    1    3    3    0    0 -0.43708477565E+02 -0.21205824015E+02  0.46666662294E+02  0.67363902447E+02  0.00000000000E+00 0. -1.
        -13    1    3    3    0    0 -0.45093887491E+03 -0.51340543650E+03  0.98047692578E+03  0.11951008381E+04  0.00000000000E+00 0.  1.
          2    1    6    6  502    0 -0.14193050959E+01 -0.12793339229E+01 -0.21632197544E+02  0.21716424495E+02  0.00000000000E+00 0. -1.
          1    1    5    5  503    0  0.23563805932E+03  0.23280348525E+03  0.94455994451E+03  0.10009576647E+04  0.00000000000E+00 0. -1.
         -2    1    5    5    0  503  0.36352959373E+03  0.32052146982E+03  0.16854153797E+04  0.17537139961E+04  0.00000000000E+00 0.  1.
         -1    1    6    6    0  502 -0.10310099548E+03 -0.17434360637E+02  0.40169675075E+02  0.11201506593E+03  0.00000000000E+00 0.  1.
<mgrwt>
<rscale>  0 0.19285368E+04</rscale>
<asrwt>0</asrwt>
<pdfrwt beam="1">  1        1 0.60204028E+00 0.19285368E+04</pdfrwt>
<pdfrwt beam="2">  1       -1 0.36554734E-01 0.19285368E+04</pdfrwt>
<totfact> 0.77125401E-01</totfact>
</mgrwt>
</event>
<event>
12    1  0.1518126E-007  0.3358779E+04  0.7818608E-02  0.8148098E-01
          2   -1    0    0  501    0  0.00000000000E+00  0.00000000000E+00  0.33934229634E+04  0.33934229634E+04  0.00000000000E+00 0. -1.
         -2   -1    0    0    0  501 -0.00000000000E+00 -0.00000000000E+00 -0.83112231383E+03  0.83112231383E+03  0.00000000000E+00 0.  1.
         23    2    1    2    0    0 -0.29495380424E+03  0.77025731441E+03  0.28546821067E+04  0.29728042228E+04  0.89782738009E+02 0.  0.
        254    2    1    2    0    0  0.29495380424E+03 -0.77025731441E+03 -0.29238145709E+03  0.12517410544E+04  0.89502775032E+03 0.  0.
        -24    2    4    4    0    0 -0.12533403620E+03 -0.26285598479E+03  0.25230270909E+03  0.39322284567E+03  0.78521716564E+02 0.  0.
         24    2    4    4    0    0  0.42028784044E+03 -0.50740132963E+03 -0.54468416619E+03  0.85851820876E+03  0.79212977154E+02 0.  0.
         11    1    3    3    0    0 -0.23919963669E+02  0.11657601935E+03  0.50770909063E+03  0.52146970540E+03  0.00000000000E+00 0.  1.
        -11    1    3    3    0    0 -0.27103384057E+03  0.65368129506E+03  0.23469730161E+04  0.24513345174E+04  0.00000000000E+00 0. -1.
          2    1    6    6  502    0  0.39352365025E+03 -0.49045829060E+03 -0.49814129535E+03  0.80221876584E+03  0.00000000000E+00 0. -1.
          1    1    5    5  503    0 -0.11749088843E+03 -0.16843722709E+03  0.19039957158E+03  0.28004857648E+03  0.00000000000E+00 0. -1.
         -2    1    5    5    0  503 -0.78431477773E+01 -0.94418757693E+02  0.61903137512E+02  0.11317426918E+03  0.00000000000E+00 0.  1.
         -1    1    6    6    0  502  0.26764190185E+02 -0.16943039025E+02 -0.46542870834E+02  0.56299442920E+02  0.00000000000E+00 0.  1.
<mgrwt>
<rscale>  0 0.33587793E+04</rscale>
<asrwt>0</asrwt>
<pdfrwt beam="1">  1        2 0.52206506E+00 0.33587793E+04</pdfrwt>
<pdfrwt beam="2">  1       -2 0.12786497E+00 0.33587793E+04</pdfrwt>
<totfact> 0.36215739E-01</totfact>
</mgrwt>
</event>
<event>
12    1  0.1518126E-007  0.1883271E+04  0.7818608E-02  0.8663229E-01
         -2   -1    0    0    0  501 -0.00000000000E+00  0.00000000000E+00  0.44275771623E+03  0.44275771623E+03  0.00000000000E+00 0.  1.
          2   -1    0    0  501    0  0.00000000000E+00 -0.00000000000E+00 -0.20026245732E+04  0.20026245732E+04  0.00000000000E+00 0. -1.
         23    2    1    2    0    0  0.68305148938E+03 -0.14937151219E+03 -0.91670394284E+03  0.11567631416E+04  0.94253176289E+02 0.  0.
        254    2    1    2    0    0 -0.68305148938E+03  0.14937151219E+03 -0.64316291418E+03  0.12886191478E+04  0.87063746083E+03 0.  0.
        -24    2    4    4    0    0 -0.63522767113E+03  0.35831827571E+02 -0.12836189462E+02  0.64156955850E+03  0.81539049480E+02 0.  0.
         24    2    4    4    0    0 -0.47823818245E+02  0.11353968462E+03 -0.63032672472E+03  0.64704958934E+03  0.78632140992E+02 0.  0.
         13    1    3    3    0    0  0.35848870708E+03 -0.11600845902E+03 -0.44299784799E+03  0.58156616906E+03  0.00000000000E+00 0. -1.
        -13    1    3    3    0    0  0.32456278230E+03 -0.33363053175E+02 -0.47370609485E+03  0.57519697258E+03  0.00000000000E+00 0.  1.
          2    1    6    6  502    0  0.14992704292E+02  0.64242202995E+01 -0.31380377144E+02  0.35366366199E+02  0.00000000000E+00 0. -1.
          1    1    5    5  503    0 -0.41981237529E+03  0.16090964299E+02  0.29471767977E+02  0.42115310124E+03  0.00000000000E+00 0. -1.
         -2    1    5    5    0  503 -0.21541529584E+03  0.19740863272E+02 -0.42307957440E+02  0.22041645725E+03  0.00000000000E+00 0.  1.
         -3    1    6    6    0  502 -0.62816522537E+02  0.10711546432E+03 -0.59894634757E+03  0.61168322314E+03  0.00000000000E+00 0.  1.
<mgrwt>
<rscale>  0 0.18832711E+04</rscale>
<asrwt>0</asrwt>
<pdfrwt beam="1">  1        2 0.30809609E+00 0.18832711E+04</pdfrwt>
<pdfrwt beam="2">  1       -2 0.68116572E-01 0.18832711E+04</pdfrwt>
<totfact> 0.12318997E+01</totfact>
</mgrwt>
</event>
<event>
12    1  0.1518126E-007  0.1920289E+04  0.7818608E-02  0.8644823E-01
          1   -1    0    0  501    0  0.00000000000E+00  0.00000000000E+00  0.28077869337E+04  0.28077869337E+04  0.00000000000E+00 0. -1.
         -1   -1    0    0    0  501 -0.00000000000E+00 -0.00000000000E+00 -0.32832870847E+03  0.32832870847E+03  0.00000000000E+00 0.  1.
         23    2    1    2    0    0  0.35672760215E+03  0.63251429475E+03  0.68419310929E+03  0.10018633706E+04  0.91000479774E+02 0.  0.
        254    2    1    2    0    0 -0.35672760215E+03 -0.63251429475E+03  0.17952651159E+04  0.21342522716E+04  0.89706577630E+03 0.  0.
        -24    2    4    4    0    0 -0.61162571393E+03 -0.63888622031E+03  0.14003660687E+04  0.16577491140E+04  0.69608779635E+02 0.  0.
         24    2    4    4    0    0  0.25489811177E+03  0.63719255615E+01  0.39489904722E+03  0.47650315755E+03  0.78079144690E+02 0.  0.
         13    1    3    3    0    0  0.23572302877E+03  0.49422236681E+03  0.49537509099E+03  0.73838849864E+03  0.00000000000E+00 0.  1.
        -13    1    3    3    0    0  0.12100457338E+03  0.13829192794E+03  0.18881801829E+03  0.26347487194E+03  0.00000000000E+00 0. -1.
          2    1    6    6  502    0  0.56281432468E+02  0.26541939162E+01  0.15564235714E+03  0.16552699998E+03  0.00000000000E+00 0. -1.
          3    1    5    5  503    0 -0.21308344893E+03 -0.25904924037E+03  0.48868761823E+03  0.59272814456E+03  0.00000000000E+00 0. -1.
         -4    1    5    5    0  503 -0.39854226500E+03 -0.37983697995E+03  0.91167845046E+03  0.10650209694E+04  0.00000000000E+00 0.  1.
         -1    1    6    6    0  502  0.19861667931E+03  0.37177316453E+01  0.23925669008E+03  0.31097615756E+03  0.00000000000E+00 0.  1.
<mgrwt>
<rscale>  0 0.19202886E+04</rscale>
<asrwt>0</asrwt>
<pdfrwt beam="1">  1        1 0.43196720E+00 0.19202886E+04</pdfrwt>
<pdfrwt beam="2">  1       -1 0.50512111E-01 0.19202886E+04</pdfrwt>
<totfact> 0.30300171E+00</totfact>
</mgrwt>
</event>
<event>
12    1  0.1518126E-007  0.1381131E+04  0.7818608E-02  0.8967592E-01
          2   -1    0    0  501    0  0.00000000000E+00  0.00000000000E+00  0.29369831362E+04  0.29369831362E+04  0.00000000000E+00 0.  1.
         -2   -1    0    0    0  501 -0.00000000000E+00 -0.00000000000E+00 -0.16237084279E+03  0.16237084279E+03  0.00000000000E+00 0. -1.
         23    2    1    2    0    0  0.14487018241E+03  0.30698521223E+03  0.11771533643E+04  0.12278962725E+04  0.82534373296E+02 0.  0.
        254    2    1    2    0    0 -0.14487018241E+03 -0.30698521223E+03  0.15974589291E+04  0.18714577064E+04  0.91392101766E+03 0.  0.
        -24    2    4    4    0    0 -0.19875607203E+03 -0.38014797633E+03  0.21970066616E+03  0.48847312553E+03  0.79505670114E+02 0.  0.
         24    2    4    4    0    0  0.53885889623E+02  0.73162764099E+02  0.13777582630E+04  0.13829845809E+04  0.78562336722E+02 0.  0.
         13    1    3    3    0    0  0.85332956227E+02  0.15949370666E+03  0.48318450990E+03  0.51593335470E+03  0.00000000000E+00 0. -1.
        -13    1    3    3    0    0  0.59537226181E+02  0.14749150557E+03  0.69396885437E+03  0.71196291782E+03  0.00000000000E+00 0.  1.
          4    1    6    6  502    0  0.70659862430E+02  0.51212556273E+02  0.84091885633E+03  0.84543483783E+03  0.00000000000E+00 0. -1.
          1    1    5    5  503    0 -0.10257095053E+03 -0.11437589323E+03  0.76408361775E+02  0.17158345664E+03  0.00000000000E+00 0. -1.
         -2    1    5    5    0  503 -0.96185121502E+02 -0.26577208309E+03  0.14329230438E+03  0.31688966888E+03  0.00000000000E+00 0.  1.
         -3    1    6    6    0  502 -0.16773972807E+02  0.21950207825E+02  0.53683940663E+03  0.53754974309E+03  0.00000000000E+00 0.  1.
<mgrwt>
<rscale>  0 0.13811306E+04</rscale>
<asrwt>0</asrwt>
<pdfrwt beam="1">  1        2 0.45184352E+00 0.13811306E+04</pdfrwt>
<pdfrwt beam="2">  1       -2 0.24980132E-01 0.13811306E+04</pdfrwt>
<totfact> 0.26922098E+01</totfact>
</mgrwt>
</event>
<event>
12    1  0.1518126E-007  0.1324538E+04  0.7818608E-02  0.9010330E-01
         -2   -1    0    0    0  501 -0.00000000000E+00  0.00000000000E+00  0.24912685727E+03  0.24912685727E+03  0.00000000000E+00 0. -1.
          2   -1    0    0  501    0  0.00000000000E+00 -0.00000000000E+00 -0.17605487491E+04  0.17605487491E+04  0.00000000000E+00 0.  1.
         23    2    1    2    0    0  0.23632393226E+02  0.10655726241E+03 -0.92133166528E+03  0.93237190953E+03  0.92479187083E+02 0.  0.
        254    2    1    2    0    0 -0.23632393226E+02 -0.10655726241E+03 -0.59009022651E+03  0.10773036968E+04  0.89468644761E+03 0.  0.
        -24    2    4    4    0    0 -0.12554628006E+03  0.87818944231E+02  0.19374459035E+03  0.25928754874E+03  0.78860834623E+02 0.  0.
         24    2    4    4    0    0  0.10191388683E+03 -0.19437620665E+03 -0.78383481687E+03  0.81801614806E+03  0.81147078328E+02 0.  0.
         11    1    3    3    0    0  0.30759641572E+02  0.31446661836E+01 -0.10417288365E+03  0.10866477885E+03  0.00000000000E+00 0. -1.
        -11    1    3    3    0    0 -0.71272483465E+01  0.10341259623E+03 -0.81715878164E+03  0.82370713068E+03  0.00000000000E+00 0.  1.
          2    1    6    6  502    0  0.31955246060E+02 -0.14513005765E+02 -0.20154423212E+03  0.20457722890E+03  0.00000000000E+00 0. -1.
          1    1    5    5  503    0 -0.75903923147E+02  0.66885968465E+02  0.66393125915E+02  0.12100903064E+03  0.00000000000E+00 0. -1.
         -2    1    5    5    0  503 -0.49642356912E+02  0.20932975766E+02  0.12735146444E+03  0.13827851810E+03  0.00000000000E+00 0.  1.
         -1    1    6    6    0  502  0.69958640772E+02 -0.17986320088E+03 -0.58229058475E+03  0.61343891916E+03  0.00000000000E+00 0.  1.
<mgrwt>
<rscale>  0 0.13245376E+04</rscale>
<asrwt>0</asrwt>
<pdfrwt beam="1">  1        2 0.27085365E+00 0.13245376E+04</pdfrwt>
<pdfrwt beam="2">  1       -2 0.38327209E-01 0.13245376E+04</pdfrwt>
<totfact> 0.57089236E+01</totfact>
</mgrwt>
</event>
<event>
12    1  0.1518126E-007  0.2401769E+04  0.7818608E-02  0.8438842E-01
         -1   -1    0    0    0  501 -0.00000000000E+00  0.00000000000E+00  0.90731450297E+03  0.90731450297E+03  0.00000000000E+00 0.  1.
          1   -1    0    0  501    0  0.00000000000E+00 -0.00000000000E+00 -0.15894419417E+04  0.15894419417E+04  0.00000000000E+00 0. -1.
         23    2    1    2    0    0  0.70963594702E+03 -0.14168155223E+03 -0.10421646822E+04  0.12720353027E+04  0.91157813338E+02 0.  0.
        254    2    1    2    0    0 -0.70963594702E+03  0.14168155223E+03  0.36003724340E+03  0.12247211420E+04  0.92014032602E+03 0.  0.
        -24    2    4    4    0    0 -0.30935329349E+03  0.49966485080E+03  0.39335821634E+02  0.59415541494E+03  0.78159624574E+02 0.  0.
         24    2    4    4    0    0 -0.40028265354E+03 -0.35798329857E+03  0.32070142176E+03  0.63056572710E+03  0.79909257872E+02 0.  0.
         11    1    3    3    0    0  0.39413359374E+03 -0.57524709485E+02 -0.50170836025E+03  0.64059477102E+03  0.00000000000E+00 0.  1.
        -11    1    3    3    0    0  0.31550235328E+03 -0.84156842746E+02 -0.54045632191E+03  0.63144053164E+03  0.00000000000E+00 0. -1.
          2    1    6    6  502    0 -0.13209138339E+03 -0.16907397139E+03  0.11624868464E+03  0.24402438002E+03  0.00000000000E+00 0. -1.
          1    1    5    5  503    0 -0.76476321456E+02  0.13963311351E+03 -0.23028409561E+02  0.16086125008E+03  0.00000000000E+00 0. -1.
         -2    1    5    5    0  503 -0.23287697203E+03  0.36003173729E+03  0.62364231195E+02  0.43329416485E+03  0.00000000000E+00 0.  1.
         -1    1    6    6    0  502 -0.26819127015E+03 -0.18890932719E+03  0.20445273713E+03  0.38654134708E+03  0.00000000000E+00 0.  1.
<mgrwt>
<rscale>  0 0.24017691E+04</rscale>
<asrwt>0</asrwt>
<pdfrwt beam="1">  1        1 0.24452953E+00 0.24017691E+04</pdfrwt>
<pdfrwt beam="2">  1       -1 0.13958685E+00 0.24017691E+04</pdfrwt>
<totfact> 0.21475596E+00</totfact>
</mgrwt>
</event>
<event>
12    1  0.1518126E-007  0.2153761E+04  0.7818608E-02  0.8537924E-01
         -2   -1    0    0    0  501 -0.00000000000E+00  0.00000000000E+00  0.31552986228E+03  0.31552986228E+03  0.00000000000E+00 0. -1.
          2   -1    0    0  501    0  0.00000000000E+00 -0.00000000000E+00 -0.36753146443E+04  0.36753146443E+04  0.00000000000E+00 0.  1.
         23    2    1    2    0    0  0.61540819575E+03  0.18685594161E+03 -0.25133269560E+04  0.25959644554E+04  0.92610341569E+02 0.  0.
        254    2    1    2    0    0 -0.61540819575E+03 -0.18685594161E+03 -0.84645782603E+03  0.13948800512E+04  0.90308200944E+03 0.  0.
        -24    2    4    4    0    0 -0.26366206050E+03 -0.33926841358E+03 -0.89910401867E+03  0.99962675899E+03  0.79024567659E+02 0.  0.
         24    2    4    4    0    0 -0.35174613525E+03  0.15241247197E+03  0.52646192642E+02  0.39525329225E+03  0.80614131257E+02 0.  0.
         11    1    3    3    0    0  0.14132594258E+03  0.30639611084E+02 -0.42963303444E+03  0.45331705471E+03  0.00000000000E+00 0. -1.
        -11    1    3    3    0    0  0.47408225317E+03  0.15621633053E+03 -0.20836939216E+04  0.21426474007E+04  0.00000000000E+00 0.  1.
          4    1    6    6  502    0 -0.54156289773E+02 -0.58715639582E+01  0.11624453210E+02  0.55700151685E+02  0.00000000000E+00 0. -1.
          3    1    5    5  503    0 -0.69970926257E+02 -0.72000433919E+02 -0.14412348309E+03  0.17564615391E+03  0.00000000000E+00 0. -1.
         -2    1    5    5    0  503 -0.19369113424E+03 -0.26726797966E+03 -0.75498053558E+03  0.82398060507E+03  0.00000000000E+00 0.  1.
         -3    1    6    6    0  502 -0.29758984548E+03  0.15828403593E+03  0.41021739432E+02  0.33955314056E+03  0.00000000000E+00 0.  1.
<mgrwt>
<rscale>  0 0.21537609E+04</rscale>
<asrwt>0</asrwt>
<pdfrwt beam="1">  1        2 0.56543304E+00 0.21537609E+04</pdfrwt>
<pdfrwt beam="2">  1       -2 0.48543054E-01 0.21537609E+04</pdfrwt>
<totfact> 0.22562433E+00</totfact>
</mgrwt>
</event>
<event>
12    1  0.1518126E-007  0.1413549E+04  0.7818608E-02  0.8944069E-01
         -2   -1    0    0    0  501 -0.00000000000E+00  0.00000000000E+00  0.32588883681E+03  0.32588883681E+03  0.00000000000E+00 0. -1.
          2   -1    0    0  501    0  0.00000000000E+00 -0.00000000000E+00 -0.15328231641E+04  0.15328231641E+04  0.00000000000E+00 0.  1.
         23    2    1    2    0    0 -0.35490280478E+03 -0.49728073288E+02 -0.63304744990E+03  0.73329073985E+03  0.92397798727E+02 0.  0.
        254    2    1    2    0    0  0.35490280478E+03  0.49728073288E+02 -0.57388687742E+03  0.11254212611E+04  0.89933196581E+03 0.  0.
        -24    2    4    4    0    0  0.24494907810E+03  0.36620706769E+03 -0.63411859229E+03  0.77630161797E+03  0.80188189208E+02 0.  0.
         24    2    4    4    0    0  0.10995372668E+03 -0.31647899441E+03  0.60231714870E+02  0.34911964312E+03  0.77510578790E+02 0.  0.
         13    1    3    3    0    0 -0.35367056359E+03 -0.37529967143E+02 -0.62328732915E+03  0.71761999740E+03  0.00000000000E+00 0.  1.
        -13    1    3    3    0    0 -0.12322411875E+01 -0.12198106145E+02 -0.97601207434E+01  0.15670742446E+02  0.00000000000E+00 0. -1.
          2    1    6    6  502    0  0.28899048303E+02 -0.15124317779E+03 -0.44369843299E+01  0.15404330771E+03  0.00000000000E+00 0. -1.
          1    1    5    5  503    0  0.15371252296E+03  0.15833517384E+03 -0.32179362537E+03  0.39019059999E+03  0.00000000000E+00 0. -1.
         -2    1    5    5    0  503  0.91236555142E+02  0.20787189386E+03 -0.31232496692E+03  0.38611101799E+03  0.00000000000E+00 0.  1.
         -1    1    6    6    0  502  0.81054678378E+02 -0.16523581661E+03  0.64668699200E+02  0.19507633541E+03  0.00000000000E+00 0.  1.
<mgrwt>
<rscale>  0 0.14135487E+04</rscale>
<asrwt>0</asrwt>
<pdfrwt beam="1">  1        2 0.23581895E+00 0.14135487E+04</pdfrwt>
<pdfrwt beam="2">  1       -2 0.50136744E-01 0.14135487E+04</pdfrwt>
<totfact> 0.44499957E+01</totfact>
</mgrwt>
</event>
<event>
12    1  0.1518126E-007  0.1456247E+04  0.7818608E-02  0.8914081E-01
         -1   -1    0    0    0  501 -0.00000000000E+00  0.00000000000E+00  0.24825441467E+03  0.24825441467E+03  0.00000000000E+00 0.  1.
          1   -1    0    0  501    0  0.00000000000E+00 -0.00000000000E+00 -0.21355672309E+04  0.21355672309E+04  0.00000000000E+00 0. -1.
         23    2    1    2    0    0  0.37481597404E+03  0.22626447829E+03 -0.41456245870E+03  0.60851342713E+03  0.82121436344E+02 0.  0.
        254    2    1    2    0    0 -0.37481597404E+03 -0.22626447829E+03 -0.14727503576E+04  0.17753082185E+04  0.88940599637E+03 0.  0.
        -24    2    4    4    0    0  0.19135125190E+03 -0.14480203911E+03 -0.99088796929E+03  0.10232163900E+04  0.86774886429E+02 0.  0.
         24    2    4    4    0    0 -0.56616722593E+03 -0.81462439173E+02 -0.48186238828E+03  0.75209182850E+03  0.79178914788E+02 0.  0.
         13    1    3    3    0    0  0.33258616090E+03  0.16950734625E+03 -0.32982813798E+03  0.49812939630E+03  0.00000000000E+00 0.  1.
        -13    1    3    3    0    0  0.42229813138E+02  0.56757132036E+02 -0.84734320720E+02  0.11038403083E+03  0.00000000000E+00 0. -1.
          4    1    6    6  502    0 -0.41023951587E+03 -0.92169060304E+02 -0.33466406986E+03  0.53739337149E+03  0.00000000000E+00 0. -1.
          1    1    5    5  503    0  0.14435369335E+03 -0.98051624547E+02 -0.84704067794E+03  0.86482947449E+03  0.00000000000E+00 0. -1.
         -2    1    5    5    0  503  0.46997558544E+02 -0.46750414566E+02 -0.14384729135E+03  0.15838691550E+03  0.00000000000E+00 0.  1.
         -3    1    6    6    0  502 -0.15592771006E+03  0.10706621131E+02 -0.14719831842E+03  0.21469845702E+03  0.00000000000E+00 0.  1.
<mgrwt>
<rscale>  0 0.14562472E+04</rscale>
<asrwt>0</asrwt>
<pdfrwt beam="1">  1        1 0.32854880E+00 0.14562472E+04</pdfrwt>
<pdfrwt beam="2">  1       -1 0.38192987E-01 0.14562472E+04</pdfrwt>
<totfact> 0.15525666E+01</totfact>
</mgrwt>
</event>
<event>
12    1  0.1518126E-007  0.4821994E+04  0.7818608E-02  0.7856569E-01
          2   -1    0    0  501    0  0.00000000000E+00  0.00000000000E+00  0.37790970964E+04  0.37790970964E+04  0.00000000000E+00 0. -1.
         -2   -1    0    0    0  501 -0.00000000000E+00 -0.00000000000E+00 -0.15381736074E+04  0.15381736074E+04  0.00000000000E+00 0.  1.
         23    2    1    2    0    0 -0.61421146416E+02  0.52342559899E+03 -0.14155597182E+04  0.15135608458E+04  0.96489394519E+02 0.  0.
        254    2    1    2    0    0  0.61421146416E+02 -0.52342559899E+03  0.36564832072E+04  0.38037098579E+04  0.90586551116E+03 0.  0.
        -24    2    4    4    0    0 -0.10615971676E+03 -0.59975694746E+02  0.28582939454E+04  0.28619882248E+04  0.79153969308E+02 0.  0.
         24    2    4    4    0    0  0.16758086318E+03 -0.46344990424E+03  0.79818926173E+03  0.94172163317E+03  0.82851538286E+02 0.  0.
         13    1    3    3    0    0 -0.30357776257E+02  0.57826175200E+02 -0.24126802675E+03  0.24995143899E+03  0.00000000000E+00 0. -1.
        -13    1    3    3    0    0 -0.31063370158E+02  0.46559942379E+03 -0.11742916915E+04  0.12636094069E+04  0.00000000000E+00 0.  1.
          4    1    6    6  502    0  0.14064490437E+03 -0.27496030922E+03  0.51375314487E+03  0.59943844941E+03  0.00000000000E+00 0. -1.
          1    1    5    5  503    0 -0.10586930240E+03 -0.60447458928E+02  0.20097674854E+04  0.20134615839E+04  0.00000000000E+00 0. -1.
         -2    1    5    5    0  503 -0.29041436081E+00  0.47176418179E+00  0.84852646005E+03  0.84852664089E+03  0.00000000000E+00 0.  1.
         -1    1    6    6    0  502  0.26935958807E+02 -0.18848959503E+03  0.28443611686E+03  0.34228318376E+03  0.00000000000E+00 0.  1.
<mgrwt>
<rscale>  0 0.48219944E+04</rscale>
<asrwt>0</asrwt>
<pdfrwt beam="1">  1        2 0.58139955E+00 0.48219944E+04</pdfrwt>
<pdfrwt beam="2">  1       -2 0.23664209E+00 0.48219944E+04</pdfrwt>
<totfact> 0.29136654E-02</totfact>
</mgrwt>
</event>
<event>
12    1  0.1518126E-007  0.1780965E+04  0.7818608E-02  0.8716488E-01
          3   -1    0    0  501    0  0.00000000000E+00  0.00000000000E+00  0.62906121057E+03  0.62906121057E+03  0.00000000000E+00 0. -1.
         -3   -1    0    0    0  501 -0.00000000000E+00 -0.00000000000E+00 -0.12605433373E+04  0.12605433373E+04  0.00000000000E+00 0.  1.
         23    2    1    2    0    0  0.17480716401E+02 -0.27183680432E+03  0.40240092360E+03  0.49459447379E+03  0.92175737332E+02 0.  0.
        254    2    1    2    0    0 -0.17480716401E+02  0.27183680432E+03 -0.10338830503E+04  0.13950100741E+04  0.89606814551E+03 0.  0.
        -24    2    4    4    0    0  0.35973761035E+03 -0.10599195721E+03 -0.31462541837E+03  0.49562187157E+03  0.77501241251E+02 0.  0.
         24    2    4    4    0    0 -0.37721832675E+03  0.37782876153E+03 -0.71925763195E+03  0.89938820251E+03  0.80742545294E+02 0.  0.
         11    1    3    3    0    0  0.54105467127E+02 -0.12614018059E+03  0.19821748764E+03  0.24109939680E+03  0.00000000000E+00 0. -1.
        -11    1    3    3    0    0 -0.36624750726E+02 -0.14569662374E+03  0.20418343596E+03  0.25349507699E+03  0.00000000000E+00 0.  1.
          4    1    6    6  502    0 -0.21115846953E+03  0.26108896717E+03 -0.41894146240E+03  0.53690529607E+03  0.00000000000E+00 0. -1.
          1    1    5    5  503    0  0.28600773906E+03 -0.78479250706E+02 -0.28562179580E+03  0.41175141752E+03  0.00000000000E+00 0. -1.
         -2    1    5    5    0  503  0.73729871288E+02 -0.27512706500E+02 -0.29003622569E+02  0.83870454042E+02  0.00000000000E+00 0.  1.
         -3    1    6    6    0  502 -0.16605985722E+03  0.11673979436E+03 -0.30031616955E+03  0.36248290644E+03  0.00000000000E+00 0.  1.
<mgrwt>
<rscale>  0 0.17809648E+04</rscale>
<asrwt>0</asrwt>
<pdfrwt beam="1">  1        3 0.96778647E-01 0.17809648E+04</pdfrwt>
<pdfrwt beam="2">  1       -3 0.19392974E+00 0.17809648E+04</pdfrwt>
<totfact> 0.37389351E-01</totfact>
</mgrwt>
</event>
<event>
12    1  0.1518126E-007  0.1874454E+04  0.7818608E-02  0.8667678E-01
          4   -1    0    0  501    0  0.00000000000E+00  0.00000000000E+00  0.14812608736E+04  0.14812608736E+04  0.00000000000E+00 0. -1.
         -4   -1    0    0    0  501 -0.00000000000E+00 -0.00000000000E+00 -0.59300486042E+03  0.59300486042E+03  0.00000000000E+00 0.  1.
         23    2    1    2    0    0 -0.30752900195E+03 -0.53822301887E+03  0.75476310180E+03  0.98149015381E+03  0.96940585429E+02 0.  0.
        254    2    1    2    0    0  0.30752900195E+03  0.53822301887E+03  0.13349291139E+03  0.10927755802E+04  0.88998876749E+03 0.  0.
        -24    2    4    4    0    0 -0.72458653084E+02  0.24069123582E+03  0.44181842723E+03  0.51450823286E+03  0.79578085100E+02 0.  0.
         24    2    4    4    0    0  0.37998765503E+03  0.29753178305E+03 -0.30832551584E+03  0.57826734737E+03  0.80079469325E+02 0.  0.
         13    1    3    3    0    0 -0.11804865165E+03 -0.20835000140E+03  0.21974699242E+03  0.32501376573E+03  0.00000000000E+00 0.  1.
        -13    1    3    3    0    0 -0.18948035030E+03 -0.32987301748E+03  0.53501610937E+03  0.65647638808E+03  0.00000000000E+00 0. -1.
          4    1    6    6  502    0  0.37971383870E+03  0.30114755508E+03 -0.30216335178E+03  0.57111744886E+03  0.00000000000E+00 0. -1.
          1    1    5    5  503    0 -0.82859972206E+02  0.21057399511E+03  0.34509199728E+03  0.41266895813E+03  0.00000000000E+00 0. -1.
         -2    1    5    5    0  503  0.10401319121E+02  0.30117240710E+02  0.96726429944E+02  0.10183927473E+03  0.00000000000E+00 0.  1.
         -3    1    6    6    0  502  0.27381633208E+00 -0.36157720279E+01 -0.61621640637E+01  0.71498985090E+01  0.00000000000E+00 0.  1.
<mgrwt>
<rscale>  0 0.18744545E+04</rscale>
<asrwt>0</asrwt>
<pdfrwt beam="1">  1        4 0.22788629E+00 0.18744545E+04</pdfrwt>
<pdfrwt beam="2">  1       -4 0.91231517E-01 0.18744545E+04</pdfrwt>
<totfact> 0.16735720E-01</totfact>
</mgrwt>
</event>
<event>
12    1  0.1518126E-007  0.3137667E+04  0.7818608E-02  0.8205476E-01
         -2   -1    0    0    0  501 -0.00000000000E+00  0.00000000000E+00  0.14892305070E+04  0.14892305070E+04  0.00000000000E+00 0. -1.
          2   -1    0    0  501    0  0.00000000000E+00 -0.00000000000E+00 -0.16526916319E+04  0.16526916319E+04  0.00000000000E+00 0.  1.
         23    2    1    2    0    0 -0.71850979005E+02  0.12238487318E+04 -0.82559416278E+03  0.14808265478E+04  0.90957470229E+02 0.  0.
        254    2    1    2    0    0  0.71850979005E+02 -0.12238487318E+04  0.66213303791E+03  0.16610955911E+04  0.90435066289E+03 0.  0.
        -24    2    4    4    0    0  0.40568414683E+03 -0.37959546680E+03  0.50018957365E+02  0.56327200601E+03  0.78109610530E+02 0.  0.
         24    2    4    4    0    0 -0.33383316782E+03 -0.84425326502E+03  0.61211408055E+03  0.10978235851E+04  0.79528718316E+02 0.  0.
         11    1    3    3    0    0 -0.22900491479E+02  0.47135323116E+03 -0.37131168538E+03  0.60047536897E+03  0.00000000000E+00 0. -1.
        -11    1    3    3    0    0 -0.48950487526E+02  0.75249550065E+03 -0.45428247740E+03  0.88035117879E+03  0.00000000000E+00 0.  1.
          2    1    6    6  502    0  0.25723613394E+01 -0.11972688104E+01  0.51836502052E+01  0.59093760173E+01  0.00000000000E+00 0. -1.
          1    1    5    5  503    0  0.22101008023E+03 -0.25810017729E+03  0.23038352115E+02  0.34057586930E+03  0.00000000000E+00 0. -1.
         -2    1    5    5    0  503  0.18467406660E+03 -0.12149528951E+03  0.26980605250E+02  0.22269613671E+03  0.00000000000E+00 0.  1.
         -1    1    6    6    0  502 -0.33640552916E+03 -0.84305599621E+03  0.60693043034E+03  0.10919142091E+04  0.00000000000E+00 0.  1.
<mgrwt>
<rscale>  0 0.31376672E+04</rscale>
<asrwt>0</asrwt>
<pdfrwt beam="1">  1        2 0.25426025E+00 0.31376672E+04</pdfrwt>
<pdfrwt beam="2">  1       -2 0.22911239E+00 0.31376672E+04</pdfrwt>
<totfact> 0.76387685E-01</totfact>
</mgrwt>
</event>
<event>
12    1  0.1518126E-007  0.4677857E+04  0.7818608E-02  0.7880218E-01
         -1   -1    0    0    0  501 -0.00000000000E+00  0.00000000000E+00  0.15702705494E+04  0.15702705494E+04  0.00000000000E+00 0.  1.
          1   -1    0    0  501    0  0.00000000000E+00 -0.00000000000E+00 -0.34838498137E+04  0.34838498137E+04  0.00000000000E+00 0. -1.
         23    2    1    2    0    0 -0.50620560945E+03  0.40408230794E+03 -0.32449508206E+04  0.33102482310E+04  0.92254496267E+02 0.  0.
        254    2    1    2    0    0  0.50620560945E+03 -0.40408230794E+03  0.13313715563E+04  0.17438721321E+04  0.92141910205E+03 0.  0.
        -24    2    4    4    0    0  0.13699799037E+02 -0.14035854781E+03 -0.10930834505E+03  0.19663836740E+03  0.82644581204E+02 0.  0.
         24    2    4    4    0    0  0.49250581042E+03 -0.26372376013E+03  0.14406799013E+04  0.15472337647E+04  0.79129953785E+02 0.  0.
         13    1    3    3    0    0 -0.62109756134E+02  0.21213723987E+02 -0.41881851054E+03  0.42392993367E+03  0.00000000000E+00 0.  1.
        -13    1    3    3    0    0 -0.44409585332E+03  0.38286858395E+03 -0.28261323101E+04  0.28863182974E+04  0.00000000000E+00 0. -1.
          4    1    6    6  502    0  0.14090841741E+03 -0.65680539930E+02  0.31206135924E+03  0.34864223403E+03  0.00000000000E+00 0. -1.
          3    1    5    5  503    0 -0.18860999238E+02 -0.86016623371E+02 -0.25687402847E+02  0.91730253752E+02  0.00000000000E+00 0. -1.
         -4    1    5    5    0  503  0.32560798275E+02 -0.54341924435E+02 -0.83620942198E+02  0.10490811365E+03  0.00000000000E+00 0.  1.
         -1    1    6    6    0  502  0.35159739301E+03 -0.19804322020E+03  0.11286185421E+04  0.11985915307E+04  0.00000000000E+00 0.  1.
<mgrwt>
<rscale>  0 0.46778571E+04</rscale>
<asrwt>0</asrwt>
<pdfrwt beam="1">  1        1 0.53597689E+00 0.46778571E+04</pdfrwt>
<pdfrwt beam="2">  1       -1 0.24158009E+00 0.46778571E+04</pdfrwt>
<totfact> 0.15068577E-02</totfact>
</mgrwt>
</event>
<event>
12    1  0.1518126E-007  0.2700195E+04  0.7818608E-02  0.8334942E-01
         -1   -1    0    0    0  501 -0.00000000000E+00  0.00000000000E+00  0.22301318120E+04  0.22301318120E+04  0.00000000000E+00 0.  1.
          1   -1    0    0  501    0  0.00000000000E+00 -0.00000000000E+00 -0.81733415006E+03  0.81733415006E+03  0.00000000000E+00 0. -1.
         23    2    1    2    0    0 -0.65316540683E+03  0.97322830607E+03  0.91033700091E+03  0.14869026547E+04  0.91474941821E+02 0.  0.
        254    2    1    2    0    0  0.65316540683E+03 -0.97322830607E+03  0.50246066107E+03  0.15605633074E+04  0.89949582324E+03 0.  0.
        -24    2    4    4    0    0  0.60919978031E+03 -0.23260776659E+03 -0.66975231015E+01  0.65704360105E+03  0.80191592196E+02 0.  0.
         24    2    4    4    0    0  0.43965626518E+02 -0.74062053948E+03  0.50915818417E+03  0.90351970634E+03  0.81572320176E+02 0.  0.
         13    1    3    3    0    0 -0.62610774843E+03  0.90906351583E+03  0.87645353813E+03  0.14094602488E+04  0.00000000000E+00 0.  1.
        -13    1    3    3    0    0 -0.27057658394E+02  0.64164790233E+02  0.33883462777E+02  0.77442405910E+02  0.00000000000E+00 0. -1.
          2    1    6    6  502    0  0.65101562483E+02 -0.56240830092E+03  0.36878825943E+03  0.67568194491E+03  0.00000000000E+00 0. -1.
          1    1    5    5  503    0  0.60393832760E+03 -0.22440602780E+03  0.15398721305E+01  0.64428405232E+03  0.00000000000E+00 0. -1.
         -2    1    5    5    0  503  0.52614527049E+01 -0.82017387842E+01 -0.82373952321E+01  0.12759548733E+02  0.00000000000E+00 0.  1.
         -1    1    6    6    0  502 -0.21135935965E+02 -0.17821223856E+03  0.14036992474E+03  0.22783776143E+03  0.00000000000E+00 0.  1.
<mgrwt>
<rscale>  0 0.27001947E+04</rscale>
<asrwt>0</asrwt>
<pdfrwt beam="1">  1        1 0.12574372E+00 0.27001947E+04</pdfrwt>
<pdfrwt beam="2">  1       -1 0.34309720E+00 0.27001947E+04</pdfrwt>
<totfact> 0.32187678E-01</totfact>
</mgrwt>
</event>
<event>
12    1  0.1518126E-007  0.2374081E+04  0.7818608E-02  0.8449272E-01
         -1   -1    0    0    0  501 -0.00000000000E+00  0.00000000000E+00  0.57429756128E+03  0.57429756128E+03  0.00000000000E+00 0.  1.
          1   -1    0    0  501    0  0.00000000000E+00 -0.00000000000E+00 -0.24535447632E+04  0.24535447632E+04  0.00000000000E+00 0. -1.
         23    2    1    2    0    0  0.93991779755E+03 -0.29811025403E+03 -0.63356606063E+03  0.11755453153E+04  0.90474556279E+02 0.  0.
        254    2    1    2    0    0 -0.93991779755E+03  0.29811025403E+03 -0.12456811412E+04  0.18522970092E+04  0.95234842092E+03 0.  0.
        -24    2    4    4    0    0 -0.81034648741E+03  0.55700933815E+03 -0.63970983739E+03  0.11757884200E+04  0.79554384728E+02 0.  0.
         24    2    4    4    0    0 -0.12957131014E+03 -0.25889908412E+03 -0.60597130386E+03  0.67650858917E+03  0.81518034474E+02 0.  0.
         13    1    3    3    0    0  0.23780530202E+03 -0.37493613697E+02 -0.13766416293E+03  0.27732391620E+03  0.00000000000E+00 0. -1.
        -13    1    3    3    0    0  0.70211249553E+03 -0.26061664033E+03 -0.49590189769E+03  0.89822139906E+03  0.00000000000E+00 0.  1.
          4    1    6    6  502    0 -0.12043781004E+03 -0.25077760640E+03 -0.52063208275E+03  0.59029860202E+03  0.00000000000E+00 0. -1.
          1    1    5    5  503    0 -0.50848572556E+03  0.32848533264E+03 -0.35192818875E+03  0.70022410476E+03  0.00000000000E+00 0. -1.
         -2    1    5    5    0  503 -0.30186076185E+03  0.22852400551E+03 -0.28778164864E+03  0.47556431525E+03  0.00000000000E+00 0.  1.
         -3    1    6    6    0  502 -0.91335001040E+01 -0.81214777268E+01 -0.85339221109E+02  0.86209987149E+02  0.00000000000E+00 0.  1.
<mgrwt>
<rscale>  0 0.23740807E+04</rscale>
<asrwt>0</asrwt>
<pdfrwt beam="1">  1        1 0.37746843E+00 0.23740807E+04</pdfrwt>
<pdfrwt beam="2">  1       -1 0.88353471E-01 0.23740807E+04</pdfrwt>
<totfact> 0.16482452E+00</totfact>
</mgrwt>
</event>
<event>
12    1  0.1518126E-007  0.1615377E+04  0.7818608E-02  0.8811157E-01
         -2   -1    0    0    0  501 -0.00000000000E+00  0.00000000000E+00  0.33706058559E+03  0.33706058559E+03  0.00000000000E+00 0.  1.
          2   -1    0    0  501    0  0.00000000000E+00 -0.00000000000E+00 -0.19354396381E+04  0.19354396381E+04  0.00000000000E+00 0. -1.
         23    2    1    2    0    0  0.17707620368E+03 -0.11812333925E+03  0.16217519278E+03  0.28218582029E+03  0.89548527818E+02 0.  0.
        254    2    1    2    0    0 -0.17707620368E+03  0.11812333925E+03 -0.17605542453E+04  0.19903144034E+04  0.90359895339E+03 0.  0.
        -24    2    4    4    0    0  0.13207638421E+03  0.38935301257E+03 -0.13090410326E+04  0.13743930462E+04  0.79547978534E+02 0.  0.
         24    2    4    4    0    0 -0.30915258789E+03 -0.27122967331E+03 -0.45151321276E+03  0.61592135721E+03  0.79712475088E+02 0.  0.
         13    1    3    3    0    0  0.41277164366E+02 -0.31554708387E+02 -0.22839695523E+01  0.52006926812E+02  0.00000000000E+00 0. -1.
        -13    1    3    3    0    0  0.13579903931E+03 -0.86568630865E+02  0.16445916233E+03  0.23017889348E+03  0.00000000000E+00 0.  1.
          2    1    6    6  502    0 -0.12038510478E+03 -0.97024001232E+02 -0.22765719316E+03  0.27519816108E+03  0.00000000000E+00 0. -1.
          1    1    5    5  503    0  0.10919831612E+03  0.31175385321E+03 -0.93304110753E+03  0.98978808115E+03  0.00000000000E+00 0. -1.
         -2    1    5    5    0  503  0.22878068089E+02  0.77599159361E+02 -0.37599992502E+03  0.38460496506E+03  0.00000000000E+00 0.  1.
         -1    1    6    6    0  502 -0.18876748311E+03 -0.17420567208E+03 -0.22385601960E+03  0.34072319613E+03  0.00000000000E+00 0.  1.
<mgrwt>
<rscale>  0 0.16153766E+04</rscale>
<asrwt>0</asrwt>
<pdfrwt beam="1">  1        2 0.29775994E+00 0.16153766E+04</pdfrwt>
<pdfrwt beam="2">  1       -2 0.51855476E-01 0.16153766E+04</pdfrwt>
<totfact> 0.24412162E+01</totfact>
</mgrwt>
</event>
<event>
12    1  0.1518126E-007  0.1483914E+04  0.7818608E-02  0.8895221E-01
          1   -1    0    0  501    0  0.00000000000E+00  0.00000000000E+00  0.75722504989E+03  0.75722504989E+03  0.00000000000E+00 0. -1.
         -1   -1    0    0    0  501 -0.00000000000E+00 -0.00000000000E+00 -0.72699712214E+03  0.72699712214E+03  0.00000000000E+00 0.  1.
         23    2    1    2    0    0  0.15707541476E+03 -0.97658458292E+02  0.44222436662E+03  0.48800872569E+03  0.91543790193E+02 0.  0.
        254    2    1    2    0    0 -0.15707541476E+03  0.97658458292E+02 -0.41199643887E+03  0.99621344633E+03  0.88796976560E+03 0.  0.
        -24    2    4    4    0    0 -0.36265624686E+02  0.48045678897E+03 -0.15131649071E+03  0.51105088782E+03  0.78245817677E+02 0.  0.
         24    2    4    4    0    0 -0.12080979007E+03 -0.38279833068E+03 -0.26067994816E+03  0.48516255851E+03  0.79366904083E+02 0.  0.
         13    1    3    3    0    0  0.30114333963E+02  0.12113328339E+02  0.35970622764E+02  0.48450918831E+02  0.00000000000E+00 0.  1.
        -13    1    3    3    0    0  0.12696108080E+03 -0.10977178663E+03  0.40625374385E+03  0.43955780686E+03  0.00000000000E+00 0. -1.
          4    1    6    6  502    0  0.10699427807E+02 -0.53260469012E+02 -0.37111955897E+02  0.65790976473E+02  0.00000000000E+00 0. -1.
          1    1    5    5  503    0 -0.19371222354E+02  0.27407721966E+03 -0.45473984647E+02  0.27849856350E+03  0.00000000000E+00 0. -1.
         -2    1    5    5    0  503 -0.16894402332E+02  0.20637956930E+03 -0.10584250606E+03  0.23255232432E+03  0.00000000000E+00 0.  1.
         -3    1    6    6    0  502 -0.13150921788E+03 -0.32953786166E+03 -0.22356799227E+03  0.41937158204E+03  0.00000000000E+00 0.  1.
<mgrwt>
<rscale>  0 0.14839143E+04</rscale>
<asrwt>0</asrwt>
<pdfrwt beam="1">  1        1 0.11649616E+00 0.14839143E+04</pdfrwt>
<pdfrwt beam="2">  1       -1 0.11184571E+00 0.14839143E+04</pdfrwt>
<totfact> 0.17150680E+01</totfact>
</mgrwt>
</event>
<event>
12    1  0.1518126E-007  0.1071080E+04  0.7818608E-02  0.9233847E-01
          2   -1    0    0  501    0  0.00000000000E+00  0.00000000000E+00  0.19930710408E+04  0.19930710408E+04  0.00000000000E+00 0. -1.
         -2   -1    0    0    0  501 -0.00000000000E+00 -0.00000000000E+00 -0.14390007859E+03  0.14390007859E+03  0.00000000000E+00 0.  1.
         23    2    1    2    0    0 -0.23839960011E+02  0.11893374137E+03  0.44770102049E+03  0.47254396726E+03  0.90266376471E+02 0.  0.
        254    2    1    2    0    0  0.23839960011E+02 -0.11893374137E+03  0.14014699417E+04  0.16644271521E+04  0.88965508409E+03 0.  0.
        -24    2    4    4    0    0  0.49214621020E+02 -0.46189789300E+03  0.45806540624E+03  0.65712127897E+03  0.78820786640E+02 0.  0.
         24    2    4    4    0    0 -0.25374661009E+02  0.34296415163E+03  0.94340453549E+03  0.10073058732E+04  0.79904454088E+02 0.  0.
         13    1    3    3    0    0 -0.16417201179E+02  0.42799172032E+02  0.51161168322E+02  0.68693222120E+02  0.00000000000E+00 0.  1.
        -13    1    3    3    0    0 -0.74227588321E+01  0.76134569342E+02  0.39653985216E+03  0.40385074514E+03  0.00000000000E+00 0. -1.
          4    1    6    6  502    0 -0.49909506860E+01  0.30658380470E+03  0.76654912630E+03  0.82560044932E+03  0.00000000000E+00 0. -1.
          3    1    5    5  503    0  0.70335297235E+02 -0.38510044961E+03  0.38350199136E+03  0.54801750675E+03  0.00000000000E+00 0. -1.
         -4    1    5    5    0  503 -0.21120676215E+02 -0.76797443394E+02  0.74563414881E+02  0.10910377223E+03  0.00000000000E+00 0.  1.
         -3    1    6    6    0  502 -0.20383710323E+02  0.36380346929E+02  0.17685540920E+03  0.18170542384E+03  0.00000000000E+00 0.  1.
<mgrwt>
<rscale>  0 0.10710800E+04</rscale>
<asrwt>0</asrwt>
<pdfrwt beam="1">  1        2 0.30662629E+00 0.10710800E+04</pdfrwt>
<pdfrwt beam="2">  1       -2 0.22138475E-01 0.10710800E+04</pdfrwt>
<totfact> 0.11998935E+02</totfact>
</mgrwt>
</event>
<event>
12    1  0.1518126E-007  0.1197460E+04  0.7818608E-02  0.9115083E-01
         -2   -1    0    0    0  501 -0.00000000000E+00  0.00000000000E+00  0.32845511935E+03  0.32845511935E+03  0.00000000000E+00 0.  1.
          2   -1    0    0  501    0  0.00000000000E+00 -0.00000000000E+00 -0.10914054183E+04  0.10914054183E+04  0.00000000000E+00 0. -1.
         23    2    1    2    0    0 -0.58236888171E+02 -0.44329903343E+02  0.10664666868E+03  0.15733459837E+03  0.89576718120E+02 0.  0.
        254    2    1    2    0    0  0.58236888171E+02  0.44329903343E+02 -0.86959696768E+03  0.12625259393E+04  0.91236844850E+03 0.  0.
        -24    2    4    4    0    0  0.34433147339E+03  0.27944876364E+03 -0.73127355208E+03  0.85875195290E+03  0.77705428131E+02 0.  0.
         24    2    4    4    0    0 -0.28609458522E+03 -0.23511886029E+03 -0.13832341559E+03  0.40377398644E+03  0.82274386448E+02 0.  0.
         13    1    3    3    0    0 -0.33949208165E+02  0.11938563978E+02  0.85056656840E+02  0.92356444918E+02  0.00000000000E+00 0.  1.
        -13    1    3    3    0    0 -0.24287680006E+02 -0.56268467321E+02  0.21590011839E+02  0.64978153451E+02  0.00000000000E+00 0. -1.
          2    1    6    6  502    0 -0.24756511435E+03 -0.16166330592E+03 -0.97580583280E+02  0.31136069205E+03  0.00000000000E+00 0. -1.
          3    1    5    5  503    0  0.33292665177E+03  0.28379985622E+03 -0.70372511892E+03  0.82862027301E+03  0.00000000000E+00 0. -1.
         -4    1    5    5    0  503  0.11404821616E+02 -0.43510925812E+01 -0.27548433167E+02  0.30131679885E+02  0.00000000000E+00 0.  1.
         -1    1    6    6    0  502 -0.38529470870E+02 -0.73455554374E+02 -0.40742832311E+02  0.92413294382E+02  0.00000000000E+00 0.  1.
<mgrwt>
<rscale>  0 0.11974601E+04</rscale>
<asrwt>0</asrwt>
<pdfrwt beam="1">  1        2 0.16790853E+00 0.11974601E+04</pdfrwt>
<pdfrwt beam="2">  1       -2 0.50531556E-01 0.11974601E+04</pdfrwt>
<totfact> 0.80587796E+01</totfact>
</mgrwt>
</event>
<event>
12    1  0.1518126E-007  0.2082646E+04  0.7818608E-02  0.8568927E-01
          2   -1    0    0  501    0  0.00000000000E+00  0.00000000000E+00  0.69610417415E+03  0.69610417415E+03  0.00000000000E+00 0.  1.
         -2   -1    0    0    0  501 -0.00000000000E+00 -0.00000000000E+00 -0.15577465668E+04  0.15577465668E+04  0.00000000000E+00 0. -1.
         23    2    1    2    0    0 -0.62676720699E+03  0.23467896554E+03 -0.89445867048E+03  0.11207453672E+04  0.90013978898E+02 0.  0.
        254    2    1    2    0    0  0.62676720699E+03 -0.23467896554E+03  0.32816277857E+02  0.11331053737E+04  0.91375025644E+03 0.  0.
        -24    2    4    4    0    0  0.15731515624E+03 -0.20104893248E+02 -0.41082727908E+03  0.44790405500E+03  0.81772392243E+02 0.  0.
         24    2    4    4    0    0  0.46945205075E+03 -0.21457407230E+03  0.44364355694E+03  0.68520131868E+03  0.79082115858E+02 0.  0.
         11    1    3    3    0    0 -0.24543463411E+03  0.10833027170E+03 -0.29092589494E+03  0.39574168814E+03  0.00000000000E+00 0.  1.
        -11    1    3    3    0    0 -0.38133257288E+03  0.12634869385E+03 -0.60353277553E+03  0.72500367911E+03  0.00000000000E+00 0. -1.
          2    1    6    6  502    0  0.27189927217E+03 -0.98826090365E+02  0.20562909282E+03  0.35493539434E+03  0.00000000000E+00 0. -1.
          3    1    5    5  503    0  0.10348872084E+02  0.23592558699E+01 -0.12747528176E+03  0.12791642858E+03  0.00000000000E+00 0. -1.
         -4    1    5    5    0  503  0.14696628415E+03 -0.22464149118E+02 -0.28335199732E+03  0.31998762642E+03  0.00000000000E+00 0.  1.
         -1    1    6    6    0  502  0.19755277858E+03 -0.11574798193E+03  0.23801446412E+03  0.33026592433E+03  0.00000000000E+00 0.  1.
<mgrwt>
<rscale>  0 0.20826463E+04</rscale>
<asrwt>0</asrwt>
<pdfrwt beam="1">  1        2 0.10709295E+00 0.20826463E+04</pdfrwt>
<pdfrwt beam="2">  1       -2 0.23965331E+00 0.20826463E+04</pdfrwt>
<totfact> 0.28338881E+00</totfact>
</mgrwt>
</event>
<event>
12    1  0.1518126E-007  0.1801371E+04  0.7818608E-02  0.8705571E-01
         -1   -1    0    0    0  501 -0.00000000000E+00  0.00000000000E+00  0.30248912751E+03  0.30248912751E+03  0.00000000000E+00 0.  1.
          1   -1    0    0  501    0  0.00000000000E+00 -0.00000000000E+00 -0.26818640890E+04  0.26818640890E+04  0.00000000000E+00 0. -1.
         23    2    1    2    0    0  0.89051479825E+02 -0.66272238603E+03 -0.90279355686E+03  0.11292953012E+04  0.11463221228E+03 0.  0.
        254    2    1    2    0    0 -0.89051479825E+02  0.66272238603E+03 -0.14765814046E+04  0.18550579153E+04  0.90211756301E+03 0.  0.
        -24    2    4    4    0    0 -0.43964975290E+03  0.11920073513E+03 -0.72934395544E+03  0.86364471418E+03  0.80242548049E+02 0.  0.
         24    2    4    4    0    0  0.35059827308E+03  0.54352165090E+03 -0.74723744917E+03  0.99141320107E+03  0.78748941152E+02 0.  0.
         13    1    3    3    0    0  0.96806232092E+02 -0.66280544233E+03 -0.89750000080E+03  0.11199056891E+04  0.00000000000E+00 0.  1.
        -13    1    3    3    0    0 -0.77547522675E+01  0.83056304429E-01 -0.52935560582E+01  0.93896121763E+01  0.00000000000E+00 0. -1.
          4    1    6    6  502    0  0.10917734885E+03  0.15480475664E+03 -0.27420931798E+03  0.33327909662E+03  0.00000000000E+00 0. -1.
          3    1    5    5  503    0 -0.26398917265E+03  0.88338512634E+02 -0.37594420141E+03  0.46779057137E+03  0.00000000000E+00 0. -1.
         -4    1    5    5    0  503 -0.17566058025E+03  0.30862222494E+02 -0.35339975403E+03  0.39585414281E+03  0.00000000000E+00 0.  1.
         -3    1    6    6    0  502  0.24142092423E+03  0.38871689426E+03 -0.47302813120E+03  0.65813410445E+03  0.00000000000E+00 0.  1.
<mgrwt>
<rscale>  0 0.18013714E+04</rscale>
<asrwt>0</asrwt>
<pdfrwt beam="1">  1        1 0.41259446E+00 0.18013714E+04</pdfrwt>
<pdfrwt beam="2">  1       -1 0.46536790E-01 0.18013714E+04</pdfrwt>
<totfact> 0.43926574E+00</totfact>
</mgrwt>
</event>
<event>
12    1  0.1518126E-007  0.1247763E+04  0.7818608E-02  0.9072047E-01
          1   -1    0    0  501    0  0.00000000000E+00  0.00000000000E+00  0.16983721314E+04  0.16983721314E+04  0.00000000000E+00 0. -1.
         -1   -1    0    0    0  501 -0.00000000000E+00 -0.00000000000E+00 -0.22917710475E+03  0.22917710475E+03  0.00000000000E+00 0.  1.
         23    2    1    2    0    0 -0.95971479899E+02 -0.41178034198E+02 -0.42260306587E+02  0.15264603023E+03  0.10299864843E+03 0.  0.
        254    2    1    2    0    0  0.95971479899E+02  0.41178034198E+02  0.15114553333E+04  0.17749032060E+04  0.92459613378E+03 0.  0.
        -24    2    4    4    0    0  0.47556471490E+03 -0.12824754435E+03  0.69877121516E+03  0.85858374957E+03  0.79218767995E+02 0.  0.
         24    2    4    4    0    0 -0.37959323500E+03  0.16942557855E+03  0.81268411812E+03  0.91631945640E+03  0.79936347240E+02 0.  0.
         13    1    3    3    0    0 -0.35523783243E+02 -0.41551006641E+01 -0.68325948694E+02  0.77120939455E+02  0.00000000000E+00 0.  1.
        -13    1    3    3    0    0 -0.60447696656E+02 -0.37022933534E+02  0.26065642107E+02  0.75525090777E+02  0.00000000000E+00 0. -1.
          4    1    6    6  502    0 -0.31828895341E+02  0.42312591596E+02  0.95585814448E+02  0.10927068184E+03  0.00000000000E+00 0. -1.
          3    1    5    5  503    0  0.25952821417E+01  0.51858686647E+01  0.24121759169E+01  0.62807098211E+01  0.00000000000E+00 0. -1.
         -4    1    5    5    0  503  0.47296943275E+03 -0.13343341302E+03  0.69635903924E+03  0.85230303975E+03  0.00000000000E+00 0.  1.
         -3    1    6    6    0  502 -0.34776433966E+03  0.12711298695E+03  0.71709830367E+03  0.80704877456E+03  0.00000000000E+00 0.  1.
<mgrwt>
<rscale>  0 0.12477628E+04</rscale>
<asrwt>0</asrwt>
<pdfrwt beam="1">  1        1 0.26128801E+00 0.12477628E+04</pdfrwt>
<pdfrwt beam="2">  1       -1 0.35258017E-01 0.12477628E+04</pdfrwt>
<totfact> 0.36100191E+01</totfact>
</mgrwt>
</event>
<event>
12    1  0.1518126E-007  0.4204351E+04  0.7818608E-02  0.7964545E-01
         -2   -1    0    0    0  501 -0.00000000000E+00  0.00000000000E+00  0.20503500015E+04  0.20503500015E+04  0.00000000000E+00 0.  1.
          2   -1    0    0  501    0  0.00000000000E+00 -0.00000000000E+00 -0.21553110787E+04  0.21553110787E+04  0.00000000000E+00 0. -1.
         23    2    1    2    0    0 -0.11126432027E+04  0.15294230381E+04  0.64157085767E+03  0.19992154936E+04  0.90220278783E+02 0.  0.
        254    2    1    2    0    0  0.11126432027E+04 -0.15294230381E+04 -0.74653193486E+03  0.22064455866E+04  0.85672776934E+03 0.  0.
        -24    2    4    4    0    0  0.32021053751E+03 -0.79319987948E+03  0.48949429282E+02  0.86139019237E+03  0.88860450901E+02 0.  0.
         24    2    4    4    0    0  0.79243266518E+03 -0.73622315860E+03 -0.79548136414E+03  0.13450553942E+04  0.80058382651E+02 0.  0.
         13    1    3    3    0    0 -0.91527532885E+03  0.12769148053E+04  0.56623875373E+03  0.16699900220E+04  0.00000000000E+00 0. -1.
        -13    1    3    3    0    0 -0.19736787384E+03  0.25250823282E+03  0.75332103939E+02  0.32922547160E+03  0.00000000000E+00 0.  1.
          4    1    6    6  502    0  0.53171031754E+03 -0.49837805087E+03 -0.48880252306E+03  0.87751037026E+03  0.00000000000E+00 0. -1.
          3    1    5    5  503    0  0.29188787368E+03 -0.69426279990E+03  0.15871474097E+02  0.75329361461E+03  0.00000000000E+00 0. -1.
         -4    1    5    5    0  503  0.28322663829E+02 -0.98937079581E+02  0.33077955186E+02  0.10809657775E+03  0.00000000000E+00 0.  1.
         -3    1    6    6    0  502  0.26072234764E+03 -0.23784510773E+03 -0.30667884108E+03  0.46754502393E+03  0.00000000000E+00 0.  1.
<mgrwt>
<rscale>  0 0.42043511E+04</rscale>
<asrwt>0</asrwt>
<pdfrwt beam="1">  1        2 0.33158632E+00 0.42043511E+04</pdfrwt>
<pdfrwt beam="2">  1       -2 0.31543846E+00 0.42043511E+04</pdfrwt>
<totfact> 0.10846657E-01</totfact>
</mgrwt>
</event>
<event>
12    1  0.1518126E-007  0.1784507E+04  0.7818608E-02  0.8714582E-01
          1   -1    0    0  501    0  0.00000000000E+00  0.00000000000E+00  0.42732133392E+03  0.42732133392E+03  0.00000000000E+00 0. -1.
         -1   -1    0    0    0  501 -0.00000000000E+00 -0.00000000000E+00 -0.18630394026E+04  0.18630394026E+04  0.00000000000E+00 0.  1.
         23    2    1    2    0    0 -0.37030341060E+03  0.22155156769E+03  0.10714446488E+03  0.45408610881E+03  0.92220088961E+02 0.  0.
        254    2    1    2    0    0  0.37030341060E+03 -0.22155156769E+03 -0.15428625336E+04  0.18362746277E+04  0.89736837356E+03 0.  0.
        -24    2    4    4    0    0 -0.92519574125E+02  0.25482988815E+03 -0.23826719597E+03  0.37010287793E+03  0.81894688982E+02 0.  0.
         24    2    4    4    0    0  0.46282298473E+03 -0.47638145584E+03 -0.13045953376E+04  0.14661717498E+04  0.80908580113E+02 0.  0.
         13    1    3    3    0    0 -0.26252936117E+03  0.16280333275E+03  0.11840021862E+03  0.33082503291E+03  0.00000000000E+00 0. -1.
        -13    1    3    3    0    0 -0.10777404944E+03  0.58748234935E+02 -0.11255753734E+02  0.12326107590E+03  0.00000000000E+00 0.  1.
          2    1    6    6  502    0  0.11002766479E+03 -0.72429408104E+02 -0.22582739703E+03  0.26143855765E+03  0.00000000000E+00 0. -1.
          3    1    5    5  503    0  0.10876661349E+02  0.24051490055E+02 -0.43614738162E+02  0.50980597495E+02  0.00000000000E+00 0. -1.
         -4    1    5    5    0  503 -0.10339623547E+03  0.23077839810E+03 -0.19465245781E+03  0.31912228043E+03  0.00000000000E+00 0.  1.
         -1    1    6    6    0  502  0.35279531994E+03 -0.40395204774E+03 -0.10787679406E+04  0.12047331921E+04  0.00000000000E+00 0.  1.
<mgrwt>
<rscale>  0 0.17845072E+04</rscale>
<asrwt>0</asrwt>
<pdfrwt beam="1">  1        1 0.65741743E-01 0.17845072E+04</pdfrwt>
<pdfrwt beam="2">  1       -1 0.28662145E+00 0.17845072E+04</pdfrwt>
<totfact> 0.20938484E+00</totfact>
</mgrwt>
</event>
<event>
12    1  0.1518126E-007  0.1795293E+04  0.7818608E-02  0.8708807E-01
         -1   -1    0    0    0  501 -0.00000000000E+00  0.00000000000E+00  0.71122146629E+03  0.71122146629E+03  0.00000000000E+00 0.  1.
          1   -1    0    0  501    0  0.00000000000E+00 -0.00000000000E+00 -0.11329366644E+04  0.11329366644E+04  0.00000000000E+00 0. -1.
         23    2    1    2    0    0  0.54888299294E+03  0.13481466238E+03 -0.52691029595E+03  0.77823497438E+03  0.92561775246E+02 0.  0.
        254    2    1    2    0    0 -0.54888299294E+03 -0.13481466238E+03  0.10519509785E+03  0.10659231563E+04  0.89759603017E+03 0.  0.
        -24    2    4    4    0    0 -0.22230747843E+03 -0.90398780664E+01 -0.38901888900E+03  0.45532744112E+03  0.80529797437E+02 0.  0.
         24    2    4    4    0    0 -0.32657551451E+03 -0.12577478432E+03  0.49421398685E+03  0.61059571518E+03  0.78158809820E+02 0.  0.
         11    1    3    3    0    0  0.24381687291E+03  0.41512539277E+02 -0.17335791638E+03  0.30203133215E+03  0.00000000000E+00 0.  1.
        -11    1    3    3    0    0  0.30506612003E+03  0.93302123107E+02 -0.35355237957E+03  0.47620364223E+03  0.00000000000E+00 0. -1.
          2    1    6    6  502    0 -0.25519167536E+03 -0.65996543625E+02  0.39147279668E+03  0.47194203614E+03  0.00000000000E+00 0. -1.
          1    1    5    5  503    0 -0.14665938332E+03  0.22234580832E+02 -0.29823754885E+03  0.33309005817E+03  0.00000000000E+00 0. -1.
         -2    1    5    5    0  503 -0.75648095106E+02 -0.31274458898E+02 -0.90781340141E+02  0.12223738295E+03  0.00000000000E+00 0.  1.
         -1    1    6    6    0  502 -0.71383839151E+02 -0.59778240692E+02  0.10274119017E+03  0.13865367904E+03  0.00000000000E+00 0.  1.
<mgrwt>
<rscale>  0 0.17952926E+04</rscale>
<asrwt>0</asrwt>
<pdfrwt beam="1">  1        1 0.17429795E+00 0.17952926E+04</pdfrwt>
<pdfrwt beam="2">  1       -1 0.10941869E+00 0.17952926E+04</pdfrwt>
<totfact> 0.87391010E+00</totfact>
</mgrwt>
</event>
<event>
12    1  0.1518126E-007  0.1304395E+04  0.7818608E-02  0.9026087E-01
         -1   -1    0    0    0  501 -0.00000000000E+00  0.00000000000E+00  0.66692515972E+03  0.66692515972E+03  0.00000000000E+00 0.  1.
          1   -1    0    0  501    0  0.00000000000E+00 -0.00000000000E+00 -0.63779534573E+03  0.63779534573E+03  0.00000000000E+00 0. -1.
         23    2    1    2    0    0  0.22338881240E+03 -0.85754090797E+02  0.22873520562E+03  0.34299992954E+03  0.89848938666E+02 0.  0.
        254    2    1    2    0    0 -0.22338881240E+03  0.85754090797E+02 -0.19960539163E+03  0.96172057592E+03  0.90983945187E+03 0.  0.
        -24    2    4    4    0    0 -0.40753721236E+03  0.88047331879E+02 -0.46474326579E+03  0.62913216248E+03  0.77343795217E+02 0.  0.
         24    2    4    4    0    0  0.18414839996E+03 -0.22932410817E+01  0.26513787416E+03  0.33258841344E+03  0.80006676477E+02 0.  0.
         11    1    3    3    0    0  0.55430706769E+02 -0.66413904254E+02  0.79522419856E+02  0.11750397947E+03  0.00000000000E+00 0.  1.
        -11    1    3    3    0    0  0.16795810563E+03 -0.19340186544E+02  0.14921278576E+03  0.22549595007E+03  0.00000000000E+00 0. -1.
          4    1    6    6  502    0  0.36447763855E+02 -0.60006070330E+01  0.10858559892E+02  0.38501364882E+02  0.00000000000E+00 0. -1.
          1    1    5    5  503    0 -0.16126110140E+03  0.21400918065E+02 -0.12996516043E+03  0.20821643798E+03  0.00000000000E+00 0. -1.
         -2    1    5    5    0  503 -0.24627611096E+03  0.66646413814E+02 -0.33477810535E+03  0.42091572450E+03  0.00000000000E+00 0.  1.
         -3    1    6    6    0  502  0.14770063611E+03  0.37073659513E+01  0.25427931427E+03  0.29408704856E+03  0.00000000000E+00 0.  1.
<mgrwt>
<rscale>  0 0.13043953E+04</rscale>
<asrwt>0</asrwt>
<pdfrwt beam="1">  1        1 0.98122362E-01 0.13043953E+04</pdfrwt>
<pdfrwt beam="2">  1       -1 0.10260387E+00 0.13043953E+04</pdfrwt>
<totfact> 0.27650193E+01</totfact>
</mgrwt>
</event>
<event>
12    1  0.1518126E-007  0.1609336E+04  0.7818608E-02  0.8814833E-01
         -2   -1    0    0    0  501 -0.00000000000E+00  0.00000000000E+00  0.50914040509E+03  0.50914040509E+03  0.00000000000E+00 0. -1.
          2   -1    0    0  501    0  0.00000000000E+00 -0.00000000000E+00 -0.12717328855E+04  0.12717328855E+04  0.00000000000E+00 0.  1.
         23    2    1    2    0    0 -0.29077539490E+03  0.43956927600E+03 -0.31195188068E+03  0.61952107580E+03  0.93385806358E+02 0.  0.
        254    2    1    2    0    0  0.29077539490E+03 -0.43956927600E+03 -0.45064059970E+03  0.11613522148E+04  0.93160642866E+03 0.  0.
        -24    2    4    4    0    0  0.11038899155E+03 -0.40379956672E+03 -0.71347614711E+03  0.83104167701E+03  0.79638162288E+02 0.  0.
         24    2    4    4    0    0  0.18038640335E+03 -0.35769709283E+02  0.26283554741E+03  0.33031053774E+03  0.78764203456E+02 0.  0.
         11    1    3    3    0    0 -0.10766192669E+03  0.19910608712E+03 -0.18232990628E+03  0.29065188647E+03  0.00000000000E+00 0. -1.
        -11    1    3    3    0    0 -0.18311346821E+03  0.24046318888E+03 -0.12962197440E+03  0.32886918933E+03  0.00000000000E+00 0.  1.
          4    1    6    6  502    0  0.11533798404E+03 -0.57576549755E+02  0.19554007906E+03  0.23420894979E+03  0.00000000000E+00 0. -1.
          1    1    5    5  503    0  0.63456210310E+02 -0.32715246957E+03 -0.51864818714E+03  0.61648306627E+03  0.00000000000E+00 0. -1.
         -2    1    5    5    0  503  0.46932781236E+02 -0.76647097143E+02 -0.19482795997E+03  0.21455861074E+03  0.00000000000E+00 0.  1.
         -3    1    6    6    0  502  0.65048419311E+02  0.21806840472E+02  0.67295468347E+02  0.96101587949E+02  0.00000000000E+00 0.  1.
<mgrwt>
<rscale>  0 0.16093360E+04</rscale>
<asrwt>0</asrwt>
<pdfrwt beam="1">  1        2 0.19565121E+00 0.16093360E+04</pdfrwt>
<pdfrwt beam="2">  1       -2 0.78329294E-01 0.16093360E+04</pdfrwt>
<totfact> 0.23854464E+01</totfact>
</mgrwt>
</event>
<event>
12    1  0.1518126E-007  0.1459567E+04  0.7818608E-02  0.8911795E-01
         -2   -1    0    0    0  501 -0.00000000000E+00  0.00000000000E+00  0.42364924492E+03  0.42364924492E+03  0.00000000000E+00 0.  1.
          2   -1    0    0  501    0  0.00000000000E+00 -0.00000000000E+00 -0.12571338757E+04  0.12571338757E+04  0.00000000000E+00 0. -1.
         23    2    1    2    0    0 -0.16260350177E+03 -0.41760229145E+03 -0.18875189374E+03  0.49392248700E+03  0.86605849438E+02 0.  0.
        254    2    1    2    0    0  0.16260350177E+03  0.41760229145E+03 -0.64473273703E+03  0.11868606336E+04  0.89001476888E+03 0.  0.
        -24    2    4    4    0    0  0.24694502031E+03  0.66363931900E+03 -0.54522347676E+03  0.89730427333E+03  0.80543966499E+02 0.  0.
         24    2    4    4    0    0 -0.84341518543E+02 -0.24603702755E+03 -0.99509260262E+02  0.28955636029E+03  0.79328949504E+02 0.  0.
         11    1    3    3    0    0  0.98482327958E+01 -0.10988385186E+02 -0.56544832795E+01  0.15802071996E+02  0.00000000000E+00 0.  1.
        -11    1    3    3    0    0 -0.17245173456E+03 -0.40661390627E+03 -0.18309741046E+03  0.47812041500E+03  0.00000000000E+00 0. -1.
          4    1    6    6  502    0 -0.20227013639E+02 -0.10755263673E+02  0.62556141569E+01  0.23747431143E+02  0.00000000000E+00 0. -1.
          3    1    5    5  503    0  0.17411971305E+03  0.49709152336E+03 -0.36130687579E+03  0.63871771195E+03  0.00000000000E+00 0. -1.
         -4    1    5    5    0  503  0.72825307256E+02  0.16654779564E+03 -0.18391660097E+03  0.25858656138E+03  0.00000000000E+00 0.  1.
         -3    1    6    6    0  502 -0.64114504905E+02 -0.23528176388E+03 -0.10576487442E+03  0.26580892914E+03  0.00000000000E+00 0.  1.
<mgrwt>
<rscale>  0 0.14595668E+04</rscale>
<asrwt>0</asrwt>
<pdfrwt beam="1">  1        2 0.19340521E+00 0.14595668E+04</pdfrwt>
<pdfrwt beam="2">  1       -2 0.65176808E-01 0.14595668E+04</pdfrwt>
<totfact> 0.36844854E+01</totfact>
</mgrwt>
</event>
<event>
12    1  0.1518126E-007  0.1954826E+04  0.7818608E-02  0.8628037E-01
          2   -1    0    0  501    0  0.00000000000E+00  0.00000000000E+00  0.11703892818E+04  0.11703892818E+04  0.00000000000E+00 0. -1.
         -2   -1    0    0    0  501 -0.00000000000E+00 -0.00000000000E+00 -0.81625495430E+03  0.81625495430E+03  0.00000000000E+00 0.  1.
         23    2    1    2    0    0  0.70339693778E+03 -0.30032763758E+03 -0.74374735426E+01  0.77046856896E+03  0.92749974533E+02 0.  0.
        254    2    1    2    0    0 -0.70339693778E+03  0.30032763758E+03  0.36157180100E+03  0.12161756671E+04  0.87371914479E+03 0.  0.
        -24    2    4    4    0    0 -0.15997230872E+03 -0.29889307432E+03  0.10536173013E+03  0.36382850613E+03  0.79635910643E+02 0.  0.
         24    2    4    4    0    0 -0.54342462906E+03  0.59922071190E+03  0.25621007087E+03  0.85234716096E+03  0.80475420722E+02 0.  0.
         11    1    3    3    0    0  0.60898868732E+03 -0.25954213258E+03 -0.38300135633E+02  0.66309595102E+03  0.00000000000E+00 0. -1.
        -11    1    3    3    0    0  0.94408250456E+02 -0.40785504998E+02  0.30862662091E+02  0.10737261794E+03  0.00000000000E+00 0.  1.
          2    1    6    6  502    0 -0.26595558411E+03  0.23418660640E+03  0.11604981943E+03  0.37288510284E+03  0.00000000000E+00 0. -1.
          3    1    5    5  503    0 -0.56689200207E+02 -0.13256262667E+03  0.84043354892E+02  0.16688259619E+03  0.00000000000E+00 0. -1.
         -4    1    5    5    0  503 -0.10328310851E+03 -0.16633044765E+03  0.21318375237E+02  0.19694590994E+03  0.00000000000E+00 0.  1.
         -1    1    6    6    0  502 -0.27746904495E+03  0.36503410550E+03  0.14016025145E+03  0.47946205811E+03  0.00000000000E+00 0.  1.
<mgrwt>
<rscale>  0 0.19548259E+04</rscale>
<asrwt>0</asrwt>
<pdfrwt beam="1">  1        2 0.18005989E+00 0.19548259E+04</pdfrwt>
<pdfrwt beam="2">  1       -2 0.12557769E+00 0.19548259E+04</pdfrwt>
<totfact> 0.87221499E+00</totfact>
</mgrwt>
</event>
<event>
12    1  0.1518126E-007  0.1836144E+04  0.7818608E-02  0.8687311E-01
         -1   -1    0    0    0  501 -0.00000000000E+00  0.00000000000E+00  0.52489711534E+03  0.52489711534E+03  0.00000000000E+00 0.  1.
          1   -1    0    0  501    0  0.00000000000E+00 -0.00000000000E+00 -0.16057547322E+04  0.16057547322E+04  0.00000000000E+00 0. -1.
         23    2    1    2    0    0 -0.51138768513E+03  0.20694271231E+03 -0.89625516340E+03  0.10564720731E+04  0.92289071603E+02 0.  0.
        254    2    1    2    0    0  0.51138768513E+03 -0.20694271231E+03 -0.18460245344E+03  0.10741797744E+04  0.90301797942E+03 0.  0.
        -24    2    4    4    0    0 -0.17826063493E+03 -0.26549139980E+03 -0.18424339757E+03  0.37744483257E+03  0.79097628008E+02 0.  0.
         24    2    4    4    0    0  0.68964832006E+03  0.58548687489E+02 -0.35905586401E+00  0.69673494179E+03  0.79979347465E+02 0.  0.
         13    1    3    3    0    0 -0.24360817007E+03  0.55717410813E+02 -0.35873139996E+03  0.43719284956E+03  0.00000000000E+00 0.  1.
        -13    1    3    3    0    0 -0.26777951506E+03  0.15122530149E+03 -0.53752376345E+03  0.61927922359E+03  0.00000000000E+00 0. -1.
          4    1    6    6  502    0  0.44475324623E+02  0.17536265534E+02 -0.14963663146E+02  0.50094773420E+02  0.00000000000E+00 0. -1.
          1    1    5    5  503    0 -0.16010842900E+02 -0.84546016361E+02 -0.55780539019E+02  0.10254679179E+03  0.00000000000E+00 0. -1.
         -2    1    5    5    0  503 -0.16224979203E+03 -0.18094538344E+03 -0.12846285855E+03  0.27489804079E+03  0.00000000000E+00 0.  1.
         -3    1    6    6    0  502  0.64517299544E+03  0.41012421955E+02  0.14604607282E+02  0.64664016837E+03  0.00000000000E+00 0.  1.
<mgrwt>
<rscale>  0 0.18361438E+04</rscale>
<asrwt>0</asrwt>
<pdfrwt beam="1">  1        1 0.24703919E+00 0.18361438E+04</pdfrwt>
<pdfrwt beam="2">  1       -1 0.80753403E-01 0.18361438E+04</pdfrwt>
<totfact> 0.79525960E+00</totfact>
</mgrwt>
</event>
<event>
12    1  0.1518126E-007  0.5012684E+04  0.7818608E-02  0.7826554E-01
          2   -1    0    0  501    0  0.00000000000E+00  0.00000000000E+00  0.43998294673E+04  0.43998294673E+04  0.00000000000E+00 0. -1.
         -2   -1    0    0    0  501 -0.00000000000E+00 -0.00000000000E+00 -0.14277260245E+04  0.14277260245E+04  0.00000000000E+00 0.  1.
         23    2    1    2    0    0 -0.13712112965E+04 -0.21383908160E+03  0.37618741813E+04  0.40107566644E+04  0.92326012539E+02 0.  0.
        254    2    1    2    0    0  0.13712112965E+04  0.21383908160E+03 -0.78977073842E+03  0.18167988274E+04  0.86664444121E+03 0.  0.
        -24    2    4    4    0    0  0.35223766735E+03  0.43266521687E+03 -0.43771908535E+03  0.71381324983E+03  0.81613686119E+02 0.  0.
         24    2    4    4    0    0  0.10189736292E+04 -0.21882613526E+03 -0.35205165307E+03  0.11029855776E+04  0.80278786205E+02 0.  0.
         11    1    3    3    0    0 -0.11493862462E+04 -0.16963176184E+03  0.32382942413E+04  0.34404088813E+04  0.00000000000E+00 0. -1.
        -11    1    3    3    0    0 -0.22182505035E+03 -0.44207319762E+02  0.52357994001E+03  0.57034778308E+03  0.00000000000E+00 0.  1.
          4    1    6    6  502    0  0.10081678229E+04 -0.22420798126E+03 -0.35122588155E+03  0.10908855109E+04  0.00000000000E+00 0. -1.
          3    1    5    5  503    0  0.30576578751E+03  0.32432083124E+03 -0.33772994291E+03  0.55923003560E+03  0.00000000000E+00 0. -1.
         -4    1    5    5    0  503  0.46471879848E+02  0.10834438563E+03 -0.99989142442E+02  0.15458321423E+03  0.00000000000E+00 0.  1.
         -1    1    6    6    0  502  0.10805806218E+02  0.53818459994E+01 -0.82577152625E+00  0.12100066652E+02  0.00000000000E+00 0.  1.
<mgrwt>
<rscale>  0 0.50126843E+04</rscale>
<asrwt>0</asrwt>
<pdfrwt beam="1">  1        2 0.67689684E+00 0.50126843E+04</pdfrwt>
<pdfrwt beam="2">  1       -2 0.21965016E+00 0.50126843E+04</pdfrwt>
<totfact> 0.10998547E-02</totfact>
</mgrwt>
</event>
<event>
12    1  0.1518126E-007  0.1652684E+04  0.7818608E-02  0.8788820E-01
         -2   -1    0    0    0  501 -0.00000000000E+00  0.00000000000E+00  0.68400457898E+03  0.68400457898E+03  0.00000000000E+00 0.  1.
          2   -1    0    0  501    0  0.00000000000E+00 -0.00000000000E+00 -0.99829891870E+03  0.99829891870E+03  0.00000000000E+00 0. -1.
         23    2    1    2    0    0  0.32345865325E+03 -0.27216271968E+03  0.29215176789E+03  0.52178149307E+03  0.90582695277E+02 0.  0.
        254    2    1    2    0    0 -0.32345865325E+03  0.27216271968E+03 -0.60644610761E+03  0.11605220046E+04  0.89461522197E+03 0.  0.
        -24    2    4    4    0    0  0.27958695498E+03 -0.54070994918E+02 -0.22042767993E+03  0.36913526172E+03  0.81116838430E+02 0.  0.
         24    2    4    4    0    0 -0.60304560823E+03  0.32623371460E+03 -0.38601842769E+03  0.79138674289E+03  0.84795684785E+02 0.  0.
         13    1    3    3    0    0  0.12608025728E+03 -0.16519547179E+03  0.14232178041E+03  0.25187549376E+03  0.00000000000E+00 0.  1.
        -13    1    3    3    0    0  0.19737839598E+03 -0.10696724789E+03  0.14982998748E+03  0.26990599932E+03  0.00000000000E+00 0. -1.
          2    1    6    6  502    0 -0.58934627336E+03  0.31665463260E+03 -0.38972575498E+03  0.77426439306E+03  0.00000000000E+00 0. -1.
          1    1    5    5  503    0  0.26057632822E+03 -0.25799457641E+02 -0.19088196260E+03  0.32403943971E+03  0.00000000000E+00 0. -1.
         -2    1    5    5    0  503  0.19010626763E+02 -0.28271537277E+02 -0.29545717325E+02  0.45095822004E+02  0.00000000000E+00 0.  1.
         -3    1    6    6    0  502 -0.13699334874E+02  0.95790819971E+01  0.37073272951E+01  0.17122349826E+02  0.00000000000E+00 0.  1.
<mgrwt>
<rscale>  0 0.16526839E+04</rscale>
<asrwt>0</asrwt>
<pdfrwt beam="1">  1        2 0.15358445E+00 0.16526839E+04</pdfrwt>
<pdfrwt beam="2">  1       -2 0.10523147E+00 0.16526839E+04</pdfrwt>
<totfact> 0.17637434E+01</totfact>
</mgrwt>
</event>
<event>
12    1  0.1518126E-007  0.2406180E+04  0.7818608E-02  0.8437193E-01
         -2   -1    0    0    0  501 -0.00000000000E+00  0.00000000000E+00  0.42362807480E+03  0.42362807480E+03  0.00000000000E+00 0.  1.
          2   -1    0    0  501    0  0.00000000000E+00 -0.00000000000E+00 -0.34167367127E+04  0.34167367127E+04  0.00000000000E+00 0. -1.
         23    2    1    2    0    0 -0.77722690089E+03  0.69346305201E+03 -0.12813660491E+04  0.16547102303E+04  0.10580328181E+03 0.  0.
        254    2    1    2    0    0  0.77722690089E+03 -0.69346305201E+03 -0.17117425887E+04  0.21856545572E+04  0.87295503503E+03 0.  0.
        -24    2    4    4    0    0  0.39219834879E+03 -0.80939777373E+03 -0.89319579310E+03  0.12701635696E+04  0.81070758405E+02 0.  0.
         24    2    4    4    0    0  0.38502855210E+03  0.11593472172E+03 -0.81854679564E+03  0.91549098755E+03  0.80106466596E+02 0.  0.
         13    1    3    3    0    0 -0.75900088536E+03  0.65806247510E+03 -0.12068895145E+04  0.15702582161E+04  0.00000000000E+00 0. -1.
        -13    1    3    3    0    0 -0.18226015522E+02  0.35400576910E+02 -0.74476534616E+02  0.84452014160E+02  0.00000000000E+00 0.  1.
          4    1    6    6  502    0  0.23057016238E+03  0.31426451646E+02 -0.50084935740E+03  0.55226832287E+03  0.00000000000E+00 0. -1.
          3    1    5    5  503    0  0.97999000270E+02 -0.28972288464E+03 -0.29696729660E+03  0.42630121885E+03  0.00000000000E+00 0. -1.
         -4    1    5    5    0  503  0.29419934852E+03 -0.51967488909E+03 -0.59622849650E+03  0.84386235078E+03  0.00000000000E+00 0.  1.
         -3    1    6    6    0  502  0.15445838972E+03  0.84508270073E+02 -0.31769743825E+03  0.36322266468E+03  0.00000000000E+00 0.  1.
<mgrwt>
<rscale>  0 0.24061800E+04</rscale>
<asrwt>0</asrwt>
<pdfrwt beam="1">  1        2 0.52565181E+00 0.24061800E+04</pdfrwt>
<pdfrwt beam="2">  1       -2 0.65173550E-01 0.24061800E+04</pdfrwt>
<totfact> 0.18144700E+00</totfact>
</mgrwt>
</event>
<event>
12    1  0.1518126E-007  0.1886294E+04  0.7818608E-02  0.8661709E-01
         -2   -1    0    0    0  501 -0.00000000000E+00  0.00000000000E+00  0.63575252433E+03  0.63575252433E+03  0.00000000000E+00 0.  1.
          2   -1    0    0  501    0  0.00000000000E+00 -0.00000000000E+00 -0.13991699214E+04  0.13991699214E+04  0.00000000000E+00 0. -1.
         23    2    1    2    0    0 -0.34106343122E+03  0.62367862843E+03 -0.12976532077E+03  0.72836475663E+03  0.91525321899E+02 0.  0.
        254    2    1    2    0    0  0.34106343122E+03 -0.62367862843E+03 -0.63365207634E+03  0.13065576891E+04  0.89458300093E+03 0.  0.
        -24    2    4    4    0    0  0.23121640449E+03 -0.89861089646E+02  0.18537224257E+03  0.31980496206E+03  0.79851764561E+02 0.  0.
         24    2    4    4    0    0  0.10984702672E+03 -0.53381753878E+03 -0.81902431891E+03  0.98675272709E+03  0.76502127074E+02 0.  0.
         11    1    3    3    0    0 -0.21353882323E+03  0.30681636520E+03 -0.45568151449E+02  0.37657876654E+03  0.00000000000E+00 0.  1.
        -11    1    3    3    0    0 -0.12752460798E+03  0.31686226323E+03 -0.84197169317E+02  0.35178599008E+03  0.00000000000E+00 0. -1.
          4    1    6    6  502    0  0.63325931353E+02 -0.19233195629E+03 -0.35581387970E+03  0.40939622858E+03  0.00000000000E+00 0. -1.
          1    1    5    5  503    0  0.15950020675E+03 -0.92785571413E+02  0.15820327462E+03  0.24305915805E+03  0.00000000000E+00 0. -1.
         -2    1    5    5    0  503  0.71716197747E+02  0.29244817665E+01  0.27168967954E+02  0.76745804007E+02  0.00000000000E+00 0.  1.
         -3    1    6    6    0  502  0.46521095368E+02 -0.34148558249E+03 -0.46321043921E+03  0.57735649850E+03  0.00000000000E+00 0.  1.
<mgrwt>
<rscale>  0 0.18862935E+04</rscale>
<asrwt>0</asrwt>
<pdfrwt beam="1">  1        2 0.21525691E+00 0.18862935E+04</pdfrwt>
<pdfrwt beam="2">  1       -2 0.97808082E-01 0.18862935E+04</pdfrwt>
<totfact> 0.11823730E+01</totfact>
</mgrwt>
</event>
<event>
12    1  0.1518126E-007  0.1114915E+04  0.7818608E-02  0.9190776E-01
          2   -1    0    0  501    0  0.00000000000E+00  0.00000000000E+00  0.25864190549E+04  0.25864190549E+04  0.00000000000E+00 0.  1.
         -2   -1    0    0    0  501 -0.00000000000E+00 -0.00000000000E+00 -0.12015016476E+03  0.12015016476E+03  0.00000000000E+00 0. -1.
         23    2    1    2    0    0 -0.13105011230E+03 -0.59920688357E+02  0.68369457730E+03  0.70467061093E+03  0.91420862176E+02 0.  0.
        254    2    1    2    0    0  0.13105011230E+03  0.59920688357E+02  0.17825743128E+04  0.20018986087E+04  0.89959003890E+03 0.  0.
        -24    2    4    4    0    0 -0.12329313085E+03  0.38657272867E+03  0.12822108824E+04  0.13477480194E+04  0.87865272204E+02 0.  0.
         24    2    4    4    0    0  0.25434324314E+03 -0.32665204031E+03  0.50036343042E+03  0.65415058937E+03  0.78469040443E+02 0.  0.
         11    1    3    3    0    0 -0.10964261730E+03 -0.28672538527E+01  0.44633239635E+03  0.45961106678E+03  0.00000000000E+00 0.  1.
        -11    1    3    3    0    0 -0.21407494998E+02 -0.57053434505E+02  0.23736218095E+03  0.24505954415E+03  0.00000000000E+00 0. -1.
          2    1    6    6  502    0  0.53649702652E+02 -0.68543696251E+02  0.60157914675E+02  0.10580880676E+03  0.00000000000E+00 0. -1.
          3    1    5    5  503    0 -0.36636244816E+02  0.49638458017E+02  0.12538257212E+03  0.13973897215E+03  0.00000000000E+00 0. -1.
         -4    1    5    5    0  503 -0.86656886032E+02  0.33693427065E+03  0.11568283103E+04  0.12080090472E+04  0.00000000000E+00 0.  1.
         -1    1    6    6    0  502  0.20069354049E+03 -0.25810834406E+03  0.44020551574E+03  0.54834178261E+03  0.00000000000E+00 0.  1.
<mgrwt>
<rscale>  0 0.11149147E+04</rscale>
<asrwt>0</asrwt>
<pdfrwt beam="1">  1        2 0.39791058E+00 0.11149147E+04</pdfrwt>
<pdfrwt beam="2">  1       -2 0.18484643E-01 0.11149147E+04</pdfrwt>
<totfact> 0.76182953E+01</totfact>
</mgrwt>
</event>
<event>
12    1  0.1518126E-007  0.2567191E+04  0.7818608E-02  0.8379432E-01
          2   -1    0    0  501    0  0.00000000000E+00  0.00000000000E+00  0.35334212275E+04  0.35334212275E+04  0.00000000000E+00 0. -1.
         -2   -1    0    0    0  501 -0.00000000000E+00 -0.00000000000E+00 -0.46629533896E+03  0.46629533896E+03  0.00000000000E+00 0.  1.
         23    2    1    2    0    0  0.34449373270E+03 -0.92866863740E+03  0.21731760119E+04  0.23900836410E+04  0.93297708080E+02 0.  0.
        254    2    1    2    0    0 -0.34449373270E+03  0.92866863740E+03  0.89394987655E+03  0.16096329254E+04  0.90037236893E+03 0.  0.
        -24    2    4    4    0    0 -0.23274724612E+03 -0.11612542376E+03  0.27865581447E+03  0.38936017112E+03  0.79346614892E+02 0.  0.
         24    2    4    4    0    0 -0.11174648657E+03  0.10447940612E+04  0.61529406208E+03  0.12202727543E+04  0.79980650472E+02 0.  0.
         11    1    3    3    0    0  0.19842188159E+03 -0.53118484757E+03  0.13535413528E+04  0.14675158531E+04  0.00000000000E+00 0.  1.
        -11    1    3    3    0    0  0.14607185111E+03 -0.39748378982E+03  0.81963465910E+03  0.92256778789E+03  0.00000000000E+00 0. -1.
          4    1    6    6  502    0 -0.10498998200E+03  0.10226212310E+04  0.61321499725E+03  0.11970002971E+04  0.00000000000E+00 0. -1.
          1    1    5    5  503    0 -0.20215783979E+03 -0.92518740193E+02  0.27001774653E+03  0.34976719817E+03  0.00000000000E+00 0. -1.
         -2    1    5    5    0  503 -0.30589406339E+02 -0.23606683570E+02  0.86380679377E+01  0.39592972951E+02  0.00000000000E+00 0.  1.
         -3    1    6    6    0  502 -0.67565045741E+01  0.22172830155E+02  0.20790648301E+01  0.23272457148E+02  0.00000000000E+00 0.  1.
<mgrwt>
<rscale>  0 0.25671913E+04</rscale>
<asrwt>0</asrwt>
<pdfrwt beam="1">  1        2 0.54360325E+00 0.25671913E+04</pdfrwt>
<pdfrwt beam="2">  1       -2 0.71737747E-01 0.25671913E+04</pdfrwt>
<totfact> 0.12045056E+00</totfact>
</mgrwt>
</event>
<event>
12    1  0.1518126E-007  0.1016113E+04  0.7818608E-02  0.9291047E-01
          4   -1    0    0  501    0  0.00000000000E+00  0.00000000000E+00  0.67714077744E+03  0.67714077744E+03  0.00000000000E+00 0. -1.
         -4   -1    0    0    0  501 -0.00000000000E+00 -0.00000000000E+00 -0.38119285468E+03  0.38119285468E+03  0.00000000000E+00 0.  1.
         23    2    1    2    0    0 -0.44855816801E+02  0.53838929433E+01  0.35908415242E+02  0.10699750615E+03  0.90100063452E+02 0.  0.
        254    2    1    2    0    0  0.44855816801E+02 -0.53838929433E+01  0.26003950752E+03  0.95133612597E+03  0.91399061729E+03 0.  0.
        -24    2    4    4    0    0  0.24163621804E+03  0.30516995677E+03 -0.12237390883E+03  0.41458367799E+03  0.73399510308E+02 0.  0.
         24    2    4    4    0    0 -0.19678040124E+03 -0.31055384971E+03  0.38241341636E+03  0.53675244797E+03  0.81834891792E+02 0.  0.
         11    1    3    3    0    0 -0.64782669551E+02 -0.79112299051E+00 -0.78051326214E+00  0.64792201310E+02  0.00000000000E+00 0.  1.
        -11    1    3    3    0    0  0.19926852749E+02  0.61750159338E+01  0.36688928504E+02  0.42205304845E+02  0.00000000000E+00 0. -1.
          2    1    6    6  502    0 -0.33996039382E+01 -0.27515152107E+01  0.30480840002E+02  0.30793014632E+02  0.00000000000E+00 0. -1.
          3    1    5    5  503    0  0.20206072082E+02  0.60163663908E+02 -0.33728939442E+01  0.63555709558E+02  0.00000000000E+00 0. -1.
         -4    1    5    5    0  503  0.22143014596E+03  0.24500629286E+03 -0.11900101489E+03  0.35102796844E+03  0.00000000000E+00 0.  1.
         -1    1    6    6    0  502 -0.19338079730E+03 -0.30780233450E+03  0.35193257635E+03  0.50595943334E+03  0.00000000000E+00 0.  1.
<mgrwt>
<rscale>  0 0.10161126E+04</rscale>
<asrwt>0</asrwt>
<pdfrwt beam="1">  1        4 0.10417550E+00 0.10161126E+04</pdfrwt>
<pdfrwt beam="2">  1       -4 0.58645054E-01 0.10161126E+04</pdfrwt>
<totfact> 0.40864707E+00</totfact>
</mgrwt>
</event>
<event>
12    1  0.1518126E-007  0.2227746E+04  0.7818608E-02  0.8506967E-01
         -2   -1    0    0    0  501 -0.00000000000E+00  0.00000000000E+00  0.38990876994E+03  0.38990876994E+03  0.00000000000E+00 0.  1.
          2   -1    0    0  501    0  0.00000000000E+00 -0.00000000000E+00 -0.31820612996E+04  0.31820612996E+04  0.00000000000E+00 0. -1.
         23    2    1    2    0    0 -0.69927065622E+01 -0.85553394159E+02 -0.26607799344E+04  0.26638135308E+04  0.93725057231E+02 0.  0.
        254    2    1    2    0    0  0.69927065622E+01  0.85553394159E+02 -0.13137259527E+03  0.90815653875E+03  0.89449497421E+03 0.  0.
        -24    2    4    4    0    0 -0.17146849076E+03  0.38828408014E+03  0.14163028162E+03  0.45563015659E+03  0.85870441385E+02 0.  0.
         24    2    4    4    0    0  0.17846119732E+03 -0.30273068599E+03 -0.27300287689E+03  0.45252638216E+03  0.82190562533E+02 0.  0.
         13    1    3    3    0    0 -0.19684067278E+02 -0.10038756159E+03 -0.24490029202E+04  0.24511385984E+04  0.00000000000E+00 0. -1.
        -13    1    3    3    0    0  0.12691360716E+02  0.14834167436E+02 -0.21177701418E+03  0.21267493246E+03  0.00000000000E+00 0.  1.
          2    1    6    6  502    0 -0.51985608848E+01 -0.42633681607E+01 -0.17730860571E+02  0.18962720267E+02  0.00000000000E+00 0. -1.
          1    1    5    5  503    0 -0.76230443191E+02  0.12498426644E+03  0.87182506363E+02  0.17039054182E+03  0.00000000000E+00 0. -1.
         -2    1    5    5    0  503 -0.95238047572E+02  0.26329981370E+03  0.54447775256E+02  0.28523961477E+03  0.00000000000E+00 0.  1.
         -1    1    6    6    0  502  0.18365975821E+03 -0.29846731782E+03 -0.25527201632E+03  0.43356366189E+03  0.00000000000E+00 0.  1.
<mgrwt>
<rscale>  0 0.22277465E+04</rscale>
<asrwt>0</asrwt>
<pdfrwt beam="1">  1        2 0.48954790E+00 0.22277465E+04</pdfrwt>
<pdfrwt beam="2">  1       -2 0.59985964E-01 0.22277465E+04</pdfrwt>
<totfact> 0.31535136E+00</totfact>
</mgrwt>
</event>
<event>
12    1  0.1518126E-007  0.1574393E+04  0.7818608E-02  0.8836436E-01
          1   -1    0    0  501    0  0.00000000000E+00  0.00000000000E+00  0.55069697195E+03  0.55069697195E+03  0.00000000000E+00 0. -1.
         -1   -1    0    0    0  501 -0.00000000000E+00 -0.00000000000E+00 -0.11252615180E+04  0.11252615180E+04  0.00000000000E+00 0.  1.
         23    2    1    2    0    0 -0.10679246981E+03  0.48463246403E+02  0.34810951268E+03  0.38270226040E+03  0.10736605346E+03 0.  0.
        254    2    1    2    0    0  0.10679246981E+03 -0.48463246403E+02 -0.92267405872E+03  0.12932562295E+04  0.89857161026E+03 0.  0.
        -24    2    4    4    0    0 -0.16674166096E+03 -0.36652277374E+03 -0.20637822253E+03  0.45938806124E+03  0.79395811605E+02 0.  0.
         24    2    4    4    0    0  0.27353413077E+03  0.31805952734E+03 -0.71629583619E+03  0.83386816831E+03  0.79206145908E+02 0.  0.
         13    1    3    3    0    0 -0.59572923554E+02  0.67022028614E+02  0.29875067097E+03  0.31191801638E+03  0.00000000000E+00 0. -1.
        -13    1    3    3    0    0 -0.47219546257E+02 -0.18558782211E+02  0.49358841712E+02  0.70784244017E+02  0.00000000000E+00 0.  1.
          4    1    6    6  502    0  0.20402834259E+03  0.22570852426E+03 -0.58161032676E+03  0.65638591903E+03  0.00000000000E+00 0. -1.
          1    1    5    5  503    0 -0.75537955246E+02 -0.23921965505E+03 -0.99933189045E+02  0.27003456875E+03  0.00000000000E+00 0. -1.
         -4    1    5    5    0  503 -0.91203705713E+02 -0.12730311869E+03 -0.10644503349E+03  0.18935349249E+03  0.00000000000E+00 0.  1.
         -3    1    6    6    0  502  0.69505788177E+02  0.92351003075E+02 -0.13468550943E+03  0.17748224928E+03  0.00000000000E+00 0.  1.
<mgrwt>
<rscale>  0 0.15743927E+04</rscale>
<asrwt>0</asrwt>
<pdfrwt beam="1">  1        1 0.84722611E-01 0.15743927E+04</pdfrwt>
<pdfrwt beam="2">  1       -1 0.17311716E+00 0.15743927E+04</pdfrwt>
<totfact> 0.86911434E+00</totfact>
</mgrwt>
</event>
<event>
12    1  0.1518126E-007  0.1760637E+04  0.7818608E-02  0.8727517E-01
         -1   -1    0    0    0  501 -0.00000000000E+00  0.00000000000E+00  0.25539928830E+03  0.25539928830E+03  0.00000000000E+00 0.  1.
          1   -1    0    0  501    0  0.00000000000E+00 -0.00000000000E+00 -0.30343089273E+04  0.30343089273E+04  0.00000000000E+00 0. -1.
         23    2    1    2    0    0  0.31260013199E+03  0.23925337434E+03 -0.70754216500E+02  0.41055712688E+03  0.92682121380E+02 0.  0.
        254    2    1    2    0    0 -0.31260013199E+03 -0.23925337434E+03 -0.27081554225E+04  0.28791510887E+04  0.89467546051E+03 0.  0.
        -24    2    4    4    0    0  0.26089155058E+03 -0.28609661072E+03 -0.11628240522E+04  0.12281659145E+04  0.79473676013E+02 0.  0.
         24    2    4    4    0    0 -0.57349168257E+03  0.46843236389E+02 -0.15453313703E+04  0.16509851743E+04  0.81338815513E+02 0.  0.
         13    1    3    3    0    0  0.29679685502E+03  0.19418386123E+03 -0.48890758755E+02  0.35803079672E+03  0.00000000000E+00 0.  1.
        -13    1    3    3    0    0  0.15803276975E+02  0.45069513107E+02 -0.21863457745E+02  0.52526330154E+02  0.00000000000E+00 0. -1.
          2    1    6    6  502    0 -0.39751968091E+03  0.66919742976E+02 -0.11148990183E+04  0.11855378399E+04  0.00000000000E+00 0. -1.
          3    1    5    5  503    0  0.19344276405E+03 -0.25714348022E+03 -0.95632825972E+03  0.10090126921E+04  0.00000000000E+00 0. -1.
         -4    1    5    5    0  503  0.67448786526E+02 -0.28953130507E+02 -0.20649579252E+03  0.21915322242E+03  0.00000000000E+00 0.  1.
         -1    1    6    6    0  502 -0.17597200166E+03 -0.20076506588E+02 -0.43043235195E+03  0.46544733439E+03  0.00000000000E+00 0.  1.
<mgrwt>
<rscale>  0 0.17606366E+04</rscale>
<asrwt>0</asrwt>
<pdfrwt beam="1">  1        1 0.46681678E+00 0.17606366E+04</pdfrwt>
<pdfrwt beam="2">  1       -1 0.39292197E-01 0.17606366E+04</pdfrwt>
<totfact> 0.33738039E+00</totfact>
</mgrwt>
</event>
<event>
12    1  0.1518126E-007  0.1176840E+04  0.7818608E-02  0.9133374E-01
          2   -1    0    0  501    0  0.00000000000E+00  0.00000000000E+00  0.85398026343E+03  0.85398026343E+03  0.00000000000E+00 0. -1.
         -2   -1    0    0    0  501 -0.00000000000E+00 -0.00000000000E+00 -0.40544021950E+03  0.40544021950E+03  0.00000000000E+00 0.  1.
         23    2    1    2    0    0 -0.24891218298E+02 -0.30416588094E+02 -0.14686641705E+03  0.17722393655E+03  0.91070509219E+02 0.  0.
        254    2    1    2    0    0  0.24891218298E+02  0.30416588094E+02  0.59540646099E+03  0.10821965464E+04  0.90282654460E+03 0.  0.
        -24    2    4    4    0    0  0.93182070734E+02  0.43374304063E+03  0.15833749184E+03  0.47820011686E+03  0.82393366497E+02 0.  0.
         24    2    4    4    0    0 -0.68290852436E+02 -0.40332645254E+03  0.43706896914E+03  0.60399642951E+03  0.80290318450E+02 0.  0.
         13    1    3    3    0    0  0.90275391556E+01  0.43173363467E+01  0.93148031671E+01  0.13671189209E+02  0.00000000000E+00 0. -1.
        -13    1    3    3    0    0 -0.33918757454E+02 -0.34733924441E+02 -0.15618122022E+03  0.16355274734E+03  0.00000000000E+00 0.  1.
          4    1    6    6  502    0 -0.82841152075E+02 -0.32202787290E+03  0.37123880317E+03  0.49838023273E+03  0.00000000000E+00 0. -1.
          3    1    5    5  503    0  0.10681613936E+03  0.33844074134E+03  0.12762949200E+03  0.37714865803E+03  0.00000000000E+00 0. -1.
         -4    1    5    5    0  503 -0.13634068629E+02  0.95302299292E+02  0.30707999846E+02  0.10105145883E+03  0.00000000000E+00 0.  1.
         -3    1    6    6    0  502  0.14550299639E+02 -0.81298579632E+02  0.65830165977E+02  0.10561619678E+03  0.00000000000E+00 0.  1.
<mgrwt>
<rscale>  0 0.11768397E+04</rscale>
<asrwt>0</asrwt>
<pdfrwt beam="1">  1        2 0.13138158E+00 0.11768397E+04</pdfrwt>
<pdfrwt beam="2">  1       -2 0.62375419E-01 0.11768397E+04</pdfrwt>
<totfact> 0.74343242E+01</totfact>
</mgrwt>
</event>
<event>
12    1  0.1518126E-007  0.1761500E+04  0.7818608E-02  0.8727046E-01
         -2   -1    0    0    0  501 -0.00000000000E+00  0.00000000000E+00  0.25840389401E+03  0.25840389401E+03  0.00000000000E+00 0.  1.
          2   -1    0    0  501    0  0.00000000000E+00 -0.00000000000E+00 -0.30019694424E+04  0.30019694424E+04  0.00000000000E+00 0. -1.
         23    2    1    2    0    0  0.12616369137E+03  0.20990036026E+03 -0.21197035096E+04  0.21357437650E+04  0.91011115760E+02 0.  0.
        254    2    1    2    0    0 -0.12616369137E+03 -0.20990036026E+03 -0.62386203878E+03  0.11246295713E+04  0.90311261259E+03 0.  0.
        -24    2    4    4    0    0 -0.54492438370E+02 -0.11931401534E+03  0.22053464286E+03  0.26869166510E+03  0.79714629128E+02 0.  0.
         24    2    4    4    0    0 -0.71671252998E+02 -0.90586344919E+02 -0.84439668163E+03  0.85593790623E+03  0.79254583291E+02 0.  0.
         13    1    3    3    0    0  0.48232021054E+02  0.16287739429E+03 -0.14338025836E+04  0.14438300531E+04  0.00000000000E+00 0. -1.
        -13    1    3    3    0    0  0.77931670314E+02  0.47022965976E+02 -0.68590092596E+03  0.69191371197E+03  0.00000000000E+00 0.  1.
          4    1    6    6  502    0 -0.31741653439E+02 -0.64679451103E+02 -0.70431571002E+03  0.70799123112E+03  0.00000000000E+00 0. -1.
          3    1    5    5  503    0 -0.43028621888E+02 -0.12960795988E+03  0.18486197898E+03  0.22983393317E+03  0.00000000000E+00 0. -1.
         -4    1    5    5    0  503 -0.11463816482E+02  0.10293944534E+02  0.35672663877E+02  0.38857731927E+02  0.00000000000E+00 0.  1.
         -3    1    6    6    0  502 -0.39929599560E+02 -0.25906893815E+02 -0.14008097161E+03  0.14794667511E+03  0.00000000000E+00 0.  1.
<mgrwt>
<rscale>  0 0.17615000E+04</rscale>
<asrwt>0</asrwt>
<pdfrwt beam="1">  1        2 0.46184142E+00 0.17615000E+04</pdfrwt>
<pdfrwt beam="2">  1       -2 0.39754448E-01 0.17615000E+04</pdfrwt>
<totfact> 0.98836105E+00</totfact>
</mgrwt>
</event>
<event>
12    1  0.1518126E-007  0.1034288E+04  0.7818608E-02  0.9271717E-01
         -2   -1    0    0    0  501 -0.00000000000E+00  0.00000000000E+00  0.20482789500E+03  0.20482789500E+03  0.00000000000E+00 0.  1.
          2   -1    0    0  501    0  0.00000000000E+00 -0.00000000000E+00 -0.13056722281E+04  0.13056722281E+04  0.00000000000E+00 0. -1.
         23    2    1    2    0    0 -0.97359037915E+02  0.24240109928E+02 -0.83272346972E+02  0.15884110013E+03  0.90718499363E+02 0.  0.
        254    2    1    2    0    0  0.97359037915E+02 -0.24240109928E+02 -0.10175719861E+04  0.13516590229E+04  0.88400396052E+03 0.  0.
        -24    2    4    4    0    0 -0.21226163346E+03 -0.14253180304E+03 -0.96990143667E+03  0.10060698756E+04  0.78086374592E+02 0.  0.
         24    2    4    4    0    0  0.30962067138E+03  0.11829169311E+03 -0.47670549440E+02  0.34558914731E+03  0.85448772069E+02 0.  0.
         13    1    3    3    0    0 -0.40972150376E+02  0.31928908058E+01  0.14877988676E+02  0.43706592239E+02  0.00000000000E+00 0.  1.
        -13    1    3    3    0    0 -0.56386887539E+02  0.21047219122E+02 -0.98150335647E+02  0.11513450789E+03  0.00000000000E+00 0. -1.
          2    1    6    6  502    0  0.10206059470E+01  0.10612374793E+02 -0.13143371776E+02  0.16923721721E+02  0.00000000000E+00 0. -1.
          3    1    5    5  503    0 -0.64521032822E+02 -0.83148327052E+01 -0.30467780420E+03  0.31154560580E+03  0.00000000000E+00 0. -1.
         -4    1    5    5    0  503 -0.14774060064E+03 -0.13421697034E+03 -0.66522363247E+03  0.69452426984E+03  0.00000000000E+00 0.  1.
         -1    1    6    6    0  502  0.30860006543E+03  0.10767931832E+03 -0.34527177664E+02  0.32866542559E+03  0.00000000000E+00 0.  1.
<mgrwt>
<rscale>  0 0.10342883E+04</rscale>
<asrwt>0</asrwt>
<pdfrwt beam="1">  1        2 0.20087265E+00 0.10342883E+04</pdfrwt>
<pdfrwt beam="2">  1       -2 0.31511984E-01 0.10342883E+04</pdfrwt>
<totfact> 0.15269688E+02</totfact>
</mgrwt>
</event>
<event>
12    1  0.1518126E-007  0.1718346E+04  0.7818608E-02  0.8750969E-01
          2   -1    0    0  501    0  0.00000000000E+00  0.00000000000E+00  0.21856386618E+04  0.21856386618E+04  0.00000000000E+00 0. -1.
         -2   -1    0    0    0  501 -0.00000000000E+00 -0.00000000000E+00 -0.33774045137E+03  0.33774045137E+03  0.00000000000E+00 0.  1.
         23    2    1    2    0    0  0.97099601351E+02 -0.18419827521E+03 -0.18263217243E+03  0.28919361436E+03  0.83193142799E+02 0.  0.
        254    2    1    2    0    0 -0.97099601351E+02  0.18419827521E+03  0.20305303828E+04  0.22341854988E+04  0.90839081357E+03 0.  0.
        -24    2    4    4    0    0 -0.49612784695E+03  0.58834353674E+02  0.10742140160E+04  0.11873316033E+04  0.78843276191E+02 0.  0.
         24    2    4    4    0    0  0.39902824560E+03  0.12536392154E+03  0.95631636682E+03  0.10468538955E+04  0.80140074311E+02 0.  0.
         13    1    3    3    0    0  0.43843699011E+02 -0.15309057900E+03 -0.10818478047E+03  0.19251738116E+03  0.00000000000E+00 0.  1.
        -13    1    3    3    0    0  0.53255902340E+02 -0.31107696209E+02 -0.74447391957E+02  0.96676233205E+02  0.00000000000E+00 0. -1.
          4    1    6    6  502    0  0.37287133718E+03  0.13301678125E+03  0.85980037677E+03  0.94656388378E+03  0.00000000000E+00 0. -1.
          1    1    5    5  503    0 -0.46043782632E+03  0.32901281230E+02  0.98549355169E+03  0.10882476863E+04  0.00000000000E+00 0. -1.
         -2    1    5    5    0  503 -0.35690020631E+02  0.25933072444E+02  0.88720464320E+02  0.99083917000E+02  0.00000000000E+00 0.  1.
         -3    1    6    6    0  502  0.26156908427E+02 -0.76528597103E+01  0.96515990049E+02  0.10029001174E+03  0.00000000000E+00 0.  1.
<mgrwt>
<rscale>  0 0.17183464E+04</rscale>
<asrwt>0</asrwt>
<pdfrwt beam="1">  1        2 0.33625209E+00 0.17183464E+04</pdfrwt>
<pdfrwt beam="2">  1       -2 0.51960071E-01 0.17183464E+04</pdfrwt>
<totfact> 0.17489651E+01</totfact>
</mgrwt>
</event>
<event>
12    1  0.1518126E-007  0.1757696E+04  0.7818608E-02  0.8729125E-01
         -4   -1    0    0    0  501 -0.00000000000E+00  0.00000000000E+00  0.10390321038E+04  0.10390321038E+04  0.00000000000E+00 0.  1.
          4   -1    0    0  501    0  0.00000000000E+00 -0.00000000000E+00 -0.74335899629E+03  0.74335899629E+03  0.00000000000E+00 0. -1.
         23    2    1    2    0    0  0.17854804295E+03 -0.26398878752E+03  0.68078188080E+03  0.75710794280E+03  0.90437736880E+02 0.  0.
        254    2    1    2    0    0 -0.17854804295E+03  0.26398878752E+03 -0.38510877331E+03  0.10252831573E+04  0.89516886772E+03 0.  0.
        -24    2    4    4    0    0  0.23163985395E+03 -0.12319970896E+03 -0.36281332548E+03  0.45491162081E+03  0.80472873549E+02 0.  0.
         24    2    4    4    0    0 -0.41018789689E+03  0.38718849649E+03 -0.22295447822E+02  0.57037153646E+03  0.81593872599E+02 0.  0.
         13    1    3    3    0    0  0.49603612901E+02 -0.33237616972E+02  0.72840199821E+02  0.94185733021E+02  0.00000000000E+00 0. -1.
        -13    1    3    3    0    0  0.12894443004E+03 -0.23075117055E+03  0.60794168097E+03  0.66292220978E+03  0.00000000000E+00 0.  1.
          4    1    6    6  502    0 -0.28213976671E+03  0.21412743100E+03 -0.24964608752E+02  0.35507271981E+03  0.00000000000E+00 0. -1.
          1    1    5    5  503    0  0.19142091719E+03 -0.73456395980E+02 -0.31142561681E+03  0.37285885326E+03  0.00000000000E+00 0. -1.
         -2    1    5    5    0  503  0.40218936757E+02 -0.49743312983E+02 -0.51387708669E+02  0.82052767550E+02  0.00000000000E+00 0.  1.
         -3    1    6    6    0  502 -0.12804813018E+03  0.17306106549E+03  0.26691609297E+01  0.21529881665E+03  0.00000000000E+00 0.  1.
<mgrwt>
<rscale>  0 0.17576961E+04</rscale>
<asrwt>0</asrwt>
<pdfrwt beam="1">  1        4 0.11436292E+00 0.17576961E+04</pdfrwt>
<pdfrwt beam="2">  1       -4 0.15985109E+00 0.17576961E+04</pdfrwt>
<totfact> 0.28347370E-01</totfact>
</mgrwt>
</event>
<event>
12    1  0.1518126E-007  0.3423540E+04  0.7818608E-02  0.8132153E-01
         -2   -1    0    0    0  501 -0.00000000000E+00  0.00000000000E+00  0.92932270339E+03  0.92932270339E+03  0.00000000000E+00 0.  1.
          2   -1    0    0  501    0  0.00000000000E+00 -0.00000000000E+00 -0.31530013667E+04  0.31530013667E+04  0.00000000000E+00 0. -1.
         23    2    1    2    0    0  0.21967191155E+03  0.75176719918E+03  0.61525057358E+03  0.10000636577E+04  0.90467566736E+02 0.  0.
        254    2    1    2    0    0 -0.21967191155E+03 -0.75176719918E+03 -0.28389292369E+04  0.30822604124E+04  0.90961550522E+03 0.  0.
        -24    2    4    4    0    0  0.15044117130E+03 -0.62568716171E+03 -0.94249118747E+03  0.11442417399E+04  0.82961138288E+02 0.  0.
         24    2    4    4    0    0 -0.37011308285E+03 -0.12608003747E+03 -0.18964380494E+04  0.19380186725E+04  0.80989072457E+02 0.  0.
         13    1    3    3    0    0  0.76028473153E+02  0.34170120143E+03  0.22571546256E+03  0.41651831872E+03  0.00000000000E+00 0. -1.
        -13    1    3    3    0    0  0.14364343840E+03  0.41006599775E+03  0.38953511102E+03  0.58354533896E+03  0.00000000000E+00 0.  1.
          4    1    6    6  502    0 -0.86866629943E+02 -0.64182143678E+02 -0.58885774641E+03  0.59868071998E+03  0.00000000000E+00 0. -1.
          1    1    5    5  503    0  0.52285737710E+02 -0.13980311846E+03 -0.27399587061E+03  0.31201353723E+03  0.00000000000E+00 0. -1.
         -2    1    5    5    0  503  0.98155433590E+02 -0.48588404325E+03 -0.66849531686E+03  0.83222820265E+03  0.00000000000E+00 0.  1.
         -3    1    6    6    0  502 -0.28324645291E+03 -0.61897893791E+02 -0.13075803030E+04  0.13393379525E+04  0.00000000000E+00 0.  1.
<mgrwt>
<rscale>  0 0.34235395E+04</rscale>
<asrwt>0</asrwt>
<pdfrwt beam="1">  1        2 0.48507713E+00 0.34235395E+04</pdfrwt>
<pdfrwt beam="2">  1       -2 0.14297273E+00 0.34235395E+04</pdfrwt>
<totfact> 0.39074790E-01</totfact>
</mgrwt>
</event>
<event>
12    1  0.1518126E-007  0.1238732E+04  0.7818608E-02  0.9079614E-01
          1   -1    0    0  501    0  0.00000000000E+00  0.00000000000E+00  0.11418642039E+04  0.11418642039E+04  0.00000000000E+00 0. -1.
         -1   -1    0    0    0  501 -0.00000000000E+00 -0.00000000000E+00 -0.33595435403E+03  0.33595435403E+03  0.00000000000E+00 0.  1.
         23    2    1    2    0    0  0.17030948725E+03 -0.22471538391E+03  0.20048930514E+03  0.35738406007E+03  0.89582809156E+02 0.  0.
        254    2    1    2    0    0 -0.17030948725E+03  0.22471538391E+03  0.60542054472E+03  0.11204344979E+04  0.89963164840E+03 0.  0.
        -24    2    4    4    0    0  0.70851999000E+02 -0.24410532370E+03  0.51396233170E+03  0.57890858558E+03  0.79815144131E+02 0.  0.
         24    2    4    4    0    0 -0.24116148625E+03  0.46882070761E+03  0.91458213012E+02  0.54152591227E+03  0.83270586647E+02 0.  0.
         13    1    3    3    0    0  0.81399209297E+02 -0.17644582813E+03  0.14019617296E+03  0.23961203737E+03  0.00000000000E+00 0. -1.
        -13    1    3    3    0    0  0.88910277957E+02 -0.48269555782E+02  0.60293132182E+02  0.11777202270E+03  0.00000000000E+00 0.  1.
          4    1    6    6  502    0 -0.22262015465E+03  0.37061124551E+03  0.58422716048E+02  0.43626327178E+03  0.00000000000E+00 0. -1.
          3    1    5    5  503    0  0.87459735205E+02 -0.22212466585E+03  0.46637844723E+03  0.52392502183E+03  0.00000000000E+00 0. -1.
         -4    1    5    5    0  503 -0.16607736205E+02 -0.21980657849E+02  0.47583884477E+02  0.54983563755E+02  0.00000000000E+00 0.  1.
         -3    1    6    6    0  502 -0.18541331602E+02  0.98209462105E+02  0.33035496964E+02  0.10526264050E+03  0.00000000000E+00 0.  1.
<mgrwt>
<rscale>  0 0.12387320E+04</rscale>
<asrwt>0</asrwt>
<pdfrwt beam="1">  1        1 0.17567141E+00 0.12387320E+04</pdfrwt>
<pdfrwt beam="2">  1       -1 0.51685286E-01 0.12387320E+04</pdfrwt>
<totfact> 0.43847354E+01</totfact>
</mgrwt>
</event>
<event>
12    1  0.1518126E-007  0.1155389E+04  0.7818608E-02  0.9152826E-01
         -1   -1    0    0    0  501 -0.00000000000E+00  0.00000000000E+00  0.15150783051E+03  0.15150783051E+03  0.00000000000E+00 0. -1.
          1   -1    0    0  501    0  0.00000000000E+00 -0.00000000000E+00 -0.22027322987E+04  0.22027322987E+04  0.00000000000E+00 0.  1.
         23    2    1    2    0    0  0.18883814833E+03 -0.92915716470E+02 -0.32415828096E+03  0.39880494492E+03  0.98354544105E+02 0.  0.
        254    2    1    2    0    0 -0.18883814833E+03  0.92915716470E+02 -0.17270661872E+04  0.19554351843E+04  0.89256706653E+03 0.  0.
        -24    2    4    4    0    0 -0.15190826496E+03  0.39121064845E+03 -0.15271905252E+04  0.15856392518E+04  0.76282659050E+02 0.  0.
         24    2    4    4    0    0 -0.36929883370E+02 -0.29829493198E+03 -0.19987566196E+03  0.36979593245E+03  0.80343442071E+02 0.  0.
         11    1    3    3    0    0  0.10138962666E+03 -0.46843465132E+02 -0.25436431665E+03  0.27780455757E+03  0.00000000000E+00 0.  1.
        -11    1    3    3    0    0  0.87448521667E+02 -0.46072251338E+02 -0.69793964304E+02  0.12100038735E+03  0.00000000000E+00 0. -1.
          4    1    6    6  502    0  0.99905791417E+01 -0.46225025216E+02 -0.46264906115E+01  0.47518091746E+02  0.00000000000E+00 0. -1.
          1    1    5    5  503    0 -0.65124269750E+02  0.21976569805E+03 -0.70646517711E+03  0.74271877519E+03  0.00000000000E+00 0. -1.
         -2    1    5    5    0  503 -0.86783995210E+02  0.17144495040E+03 -0.82072534813E+03  0.84292047662E+03  0.00000000000E+00 0.  1.
         -3    1    6    6    0  502 -0.46920462512E+02 -0.25206990676E+03 -0.19524917135E+03  0.32227784071E+03  0.00000000000E+00 0.  1.
<mgrwt>
<rscale>  0 0.11553894E+04</rscale>
<asrwt>0</asrwt>
<pdfrwt beam="1">  1        1 0.33888190E+00 0.11553894E+04</pdfrwt>
<pdfrwt beam="2">  1       -1 0.23308896E-01 0.11553894E+04</pdfrwt>
<totfact> 0.34145110E+01</totfact>
</mgrwt>
</event>
<event>
12    1  0.1518126E-007  0.2562938E+04  0.7818608E-02  0.8380901E-01
         -2   -1    0    0    0  501 -0.00000000000E+00  0.00000000000E+00  0.14652733220E+04  0.14652733220E+04  0.00000000000E+00 0.  1.
          2   -1    0    0  501    0  0.00000000000E+00 -0.00000000000E+00 -0.11207207586E+04  0.11207207586E+04  0.00000000000E+00 0. -1.
         23    2    1    2    0    0  0.13509657065E+02 -0.11143123706E+04  0.48870585160E+02  0.11192245756E+04  0.91655585069E+02 0.  0.
        254    2    1    2    0    0 -0.13509657065E+02  0.11143123706E+04  0.29568197814E+03  0.14667695050E+04  0.90670302668E+03 0.  0.
        -24    2    4    4    0    0  0.11533973559E+03 -0.52201400244E+02  0.24510939747E+03  0.28901758327E+03  0.86164412134E+02 0.  0.
         24    2    4    4    0    0 -0.12884939265E+03  0.11665137709E+04  0.50572580671E+02  0.11777519218E+04  0.84767091047E+02 0.  0.
         11    1    3    3    0    0 -0.31107492683E+02 -0.17265004625E+03  0.92344858147E+01  0.17567296406E+03  0.00000000000E+00 0.  1.
        -11    1    3    3    0    0  0.44617149748E+02 -0.94166232437E+03  0.39636099345E+02  0.94355161149E+03  0.00000000000E+00 0. -1.
          2    1    6    6  502    0 -0.21419408014E+02  0.16473265437E+03  0.36731635515E+02  0.17013186504E+03  0.00000000000E+00 0. -1.
          1    1    5    5  503    0  0.27250369887E+02 -0.68277756054E+01  0.40446831328E+01  0.28382400187E+02  0.00000000000E+00 0. -1.
         -2    1    5    5    0  503  0.88089365701E+02 -0.45373624639E+02  0.24106471434E+03  0.26063518309E+03  0.00000000000E+00 0.  1.
         -1    1    6    6    0  502 -0.10742998464E+03  0.10017811165E+04  0.13840945156E+02  0.10076200567E+04  0.00000000000E+00 0.  1.
<mgrwt>
<rscale>  0 0.25629376E+04</rscale>
<asrwt>0</asrwt>
<pdfrwt beam="1">  1        2 0.17241858E+00 0.25629376E+04</pdfrwt>
<pdfrwt beam="2">  1       -2 0.22542667E+00 0.25629376E+04</pdfrwt>
<totfact> 0.17143157E+00</totfact>
</mgrwt>
</event>
<event>
12    1  0.1518126E-007  0.1504135E+04  0.7818608E-02  0.8881708E-01
          4   -1    0    0  501    0  0.00000000000E+00  0.00000000000E+00  0.62031616348E+03  0.62031616348E+03  0.00000000000E+00 0. -1.
         -4   -1    0    0    0  501 -0.00000000000E+00 -0.00000000000E+00 -0.91180226104E+03  0.91180226104E+03  0.00000000000E+00 0.  1.
         23    2    1    2    0    0  0.12485477412E+03 -0.18642363585E+02 -0.54690533360E+03  0.56871143191E+03  0.91602382734E+02 0.  0.
        254    2    1    2    0    0 -0.12485477412E+03  0.18642363585E+02  0.25541923604E+03  0.96340699261E+03  0.92031396541E+03 0.  0.
        -24    2    4    4    0    0  0.29683407589E+03  0.25731697226E+03  0.24913615723E+03  0.47217245984E+03  0.80966129775E+02 0.  0.
         24    2    4    4    0    0 -0.42168885001E+03 -0.23867460868E+03  0.62830788102E+01  0.49123453277E+03  0.80528467373E+02 0.  0.
         11    1    3    3    0    0  0.64949578158E+02  0.13474779126E+02 -0.12639990146E+03  0.14274786326E+03  0.00000000000E+00 0. -1.
        -11    1    3    3    0    0  0.59905195962E+02 -0.32117142710E+02 -0.42050543214E+03  0.42596356865E+03  0.00000000000E+00 0.  1.
          4    1    6    6  502    0 -0.35795486347E+03 -0.23167367838E+03 -0.33447311619E+01  0.42639836393E+03  0.00000000000E+00 0. -1.
          1    1    5    5  503    0  0.18498074281E+03  0.19791135600E+03  0.19819990701E+03  0.33566349695E+03  0.00000000000E+00 0. -1.
         -2    1    5    5    0  503  0.11185333308E+03  0.59405616260E+02  0.50936250225E+02  0.13650896289E+03  0.00000000000E+00 0.  1.
         -3    1    6    6    0  502 -0.63733986540E+02 -0.70009303021E+01  0.96278099721E+01  0.64836168843E+02  0.00000000000E+00 0.  1.
<mgrwt>
<rscale>  0 0.15041352E+04</rscale>
<asrwt>0</asrwt>
<pdfrwt beam="1">  1        4 0.95433256E-01 0.15041352E+04</pdfrwt>
<pdfrwt beam="2">  1       -4 0.14027727E+00 0.15041352E+04</pdfrwt>
<totfact> 0.63344512E-01</totfact>
</mgrwt>
</event>
<event>
12    1  0.1518126E-007  0.1606659E+04  0.7818608E-02  0.8816467E-01
         -2   -1    0    0    0  501 -0.00000000000E+00  0.00000000000E+00  0.38510254669E+03  0.38510254669E+03  0.00000000000E+00 0.  1.
          2   -1    0    0  501    0  0.00000000000E+00 -0.00000000000E+00 -0.16757573131E+04  0.16757573131E+04  0.00000000000E+00 0. -1.
         23    2    1    2    0    0 -0.91353632685E+01  0.29393927441E+03  0.14420369880E+03  0.33986385024E+03  0.90713714779E+02 0.  0.
        254    2    1    2    0    0  0.91353632685E+01 -0.29393927441E+03 -0.14348584652E+04  0.17209960096E+04  0.90361756170E+03 0.  0.
        -24    2    4    4    0    0 -0.87430739249E+02 -0.15257080237E+03  0.69154541836E+02  0.20524331365E+03  0.80127917984E+02 0.  0.
         24    2    4    4    0    0  0.96566102518E+02 -0.14136847204E+03 -0.15040130071E+04  0.15157526959E+04  0.78364869123E+02 0.  0.
         13    1    3    3    0    0  0.24042376627E+02  0.13696676642E+03  0.10622261069E+03  0.17498906823E+03  0.00000000000E+00 0.  1.
        -13    1    3    3    0    0 -0.33177739896E+02  0.15697250799E+03  0.37981088108E+02  0.16487478201E+03  0.00000000000E+00 0. -1.
          2    1    6    6  502    0 -0.97124205735E+00 -0.20475200088E+02 -0.43826397081E+03  0.43874307430E+03  0.00000000000E+00 0. -1.
          3    1    5    5  503    0 -0.89499020866E+01 -0.33964607921E+02 -0.16937953256E+02  0.38994738094E+02  0.00000000000E+00 0. -1.
         -4    1    5    5    0  503 -0.78480837163E+02 -0.11860619445E+03  0.86092495091E+02  0.16624857556E+03  0.00000000000E+00 0.  1.
         -1    1    6    6    0  502  0.97537344575E+02 -0.12089327195E+03 -0.10657490363E+04  0.10770096216E+04  0.00000000000E+00 0.  1.
<mgrwt>
<rscale>  0 0.16066592E+04</rscale>
<asrwt>0</asrwt>
<pdfrwt beam="1">  1        2 0.25780881E+00 0.16066592E+04</pdfrwt>
<pdfrwt beam="2">  1       -2 0.59246547E-01 0.16066592E+04</pdfrwt>
<totfact> 0.25789573E+01</totfact>
</mgrwt>
</event>
<event>
12    1  0.1518126E-007  0.1179494E+04  0.7818608E-02  0.9130997E-01
          2   -1    0    0  501    0  0.00000000000E+00  0.00000000000E+00  0.39957291295E+03  0.39957291295E+03  0.00000000000E+00 0. -1.
         -2   -1    0    0    0  501 -0.00000000000E+00 -0.00000000000E+00 -0.87043288673E+03  0.87043288673E+03  0.00000000000E+00 0.  1.
         23    2    1    2    0    0 -0.10235257252E+03 -0.23323161172E+02 -0.32035835003E+03  0.34903632964E+03  0.90426036210E+02 0.  0.
        254    2    1    2    0    0  0.10235257252E+03  0.23323161172E+02 -0.15050162374E+03  0.92096947005E+03  0.90250429753E+03 0.  0.
        -24    2    4    4    0    0  0.17448426930E+03  0.37661143640E+03 -0.30374546867E+03  0.52052438932E+03  0.80021221406E+02 0.  0.
         24    2    4    4    0    0 -0.72131696779E+02 -0.35328827523E+03  0.15324384493E+03  0.40044508073E+03  0.82807001966E+02 0.  0.
         11    1    3    3    0    0 -0.51131046639E+02 -0.45910847331E+02 -0.97687456795E+02  0.11943629703E+03  0.00000000000E+00 0. -1.
        -11    1    3    3    0    0 -0.51221525877E+02  0.22587686159E+02 -0.22267089324E+03  0.22960003261E+03  0.00000000000E+00 0.  1.
          2    1    6    6  502    0 -0.85209539376E+02 -0.25174929103E+03  0.92568187916E+02  0.28143780938E+03  0.00000000000E+00 0. -1.
          1    1    5    5  503    0  0.17080946156E+03  0.30510487968E+03 -0.23523503778E+03  0.42142660425E+03  0.00000000000E+00 0. -1.
         -2    1    5    5    0  503  0.36748077368E+01  0.71506556719E+02 -0.68510430892E+02  0.99097785075E+02  0.00000000000E+00 0.  1.
         -1    1    6    6    0  502  0.13077842597E+02 -0.10153898420E+03  0.60675657014E+02  0.11900727134E+03  0.00000000000E+00 0.  1.
<mgrwt>
<rscale>  0 0.11794938E+04</rscale>
<asrwt>0</asrwt>
<pdfrwt beam="1">  1        2 0.61472756E-01 0.11794938E+04</pdfrwt>
<pdfrwt beam="2">  1       -2 0.13391275E+00 0.11794938E+04</pdfrwt>
<totfact> 0.31657684E+01</totfact>
</mgrwt>
</event>
<event>
12    1  0.1518126E-007  0.1595164E+04  0.7818608E-02  0.8823525E-01
          2   -1    0    0  501    0  0.00000000000E+00  0.00000000000E+00  0.17096427416E+04  0.17096427416E+04  0.00000000000E+00 0. -1.
         -2   -1    0    0    0  501 -0.00000000000E+00 -0.00000000000E+00 -0.37208767429E+03  0.37208767429E+03  0.00000000000E+00 0.  1.
         23    2    1    2    0    0  0.45629691542E+03  0.19838991039E+03  0.19050832219E+03  0.54098185735E+03  0.93821733051E+02 0.  0.
        254    2    1    2    0    0 -0.45629691542E+03 -0.19838991039E+03  0.11470467451E+04  0.15407485585E+04  0.90034685182E+03 0.  0.
        -24    2    4    4    0    0  0.58261996591E+02 -0.23617524715E+03  0.94817734972E+03  0.98212714006E+03  0.79751019453E+02 0.  0.
         24    2    4    4    0    0 -0.51455891201E+03  0.37785336758E+02  0.19886939538E+03  0.55862141846E+03  0.79437064059E+02 0.  0.
         13    1    3    3    0    0  0.42906877230E+03  0.17961826838E+03  0.20037290788E+03  0.50647017277E+03  0.00000000000E+00 0.  1.
        -13    1    3    3    0    0  0.27228143120E+02  0.18771642005E+02 -0.98645856886E+01  0.34511684574E+02  0.00000000000E+00 0. -1.
          4    1    6    6  502    0 -0.27140308681E+03  0.47787927912E+02  0.13579412732E+03  0.30721876017E+03  0.00000000000E+00 0. -1.
          1    1    5    5  503    0  0.47181060769E+02 -0.20157726215E+03  0.66102223196E+03  0.69268307057E+03  0.00000000000E+00 0. -1.
         -2    1    5    5    0  503  0.11080935822E+02 -0.34597984995E+02  0.28715511776E+03  0.28944406949E+03  0.00000000000E+00 0.  1.
         -3    1    6    6    0  502 -0.24315582520E+03 -0.10002591155E+02  0.63075268060E+02  0.25140265829E+03  0.00000000000E+00 0.  1.
<mgrwt>
<rscale>  0 0.15951639E+04</rscale>
<asrwt>0</asrwt>
<pdfrwt beam="1">  1        2 0.26302195E+00 0.15951639E+04</pdfrwt>
<pdfrwt beam="2">  1       -2 0.57244259E-01 0.15951639E+04</pdfrwt>
<totfact> 0.26569265E+01</totfact>
</mgrwt>
</event>
<event>
12    1  0.1518126E-007  0.2602691E+04  0.7818608E-02  0.8367288E-01
          2   -1    0    0  501    0  0.00000000000E+00  0.00000000000E+00  0.16646298306E+04  0.16646298306E+04  0.00000000000E+00 0. -1.
         -2   -1    0    0    0  501 -0.00000000000E+00 -0.00000000000E+00 -0.10173437298E+04  0.10173437298E+04  0.00000000000E+00 0.  1.
         23    2    1    2    0    0 -0.11408912471E+04  0.13440699829E+03  0.25011735194E+03  0.11793140688E+04  0.92330407424E+02 0.  0.
        254    2    1    2    0    0  0.11408912471E+04 -0.13440699829E+03  0.39716874884E+03  0.15026594916E+04  0.88348426899E+03 0.  0.
        -24    2    4    4    0    0 -0.10468743200E+03 -0.15012636859E+03  0.37288556337E+02  0.20363634398E+03  0.81116824332E+02 0.  0.
         24    2    4    4    0    0  0.12455786791E+04  0.15719370299E+02  0.35988019250E+03  0.12990231476E+04  0.78955940132E+02 0.  0.
         13    1    3    3    0    0 -0.15687861377E+03  0.21220212429E+02  0.24825546613E+01  0.15832675059E+03  0.00000000000E+00 0. -1.
        -13    1    3    3    0    0 -0.98401263336E+03  0.11318678586E+03  0.24763479727E+03  0.10209873182E+04  0.00000000000E+00 0.  1.
          2    1    6    6  502    0  0.11722357776E+04  0.16504757765E+02  0.31866552730E+03  0.12148896426E+04  0.00000000000E+00 0. -1.
          1    1    5    5  503    0 -0.11033898042E+03 -0.10739388180E+03  0.13913866111E+02  0.15460185031E+03  0.00000000000E+00 0. -1.
         -2    1    5    5    0  503  0.56515484134E+01 -0.42732486786E+02  0.23374690226E+02  0.49034493671E+02  0.00000000000E+00 0.  1.
         -1    1    6    6    0  502  0.73342901507E+02 -0.78538746579E+00  0.41214665200E+02  0.84133504993E+02  0.00000000000E+00 0.  1.
<mgrwt>
<rscale>  0 0.26026915E+04</rscale>
<asrwt>0</asrwt>
<pdfrwt beam="1">  1        2 0.25609690E+00 0.26026915E+04</pdfrwt>
<pdfrwt beam="2">  1       -2 0.15651442E+00 0.26026915E+04</pdfrwt>
<totfact> 0.24273244E+00</totfact>
</mgrwt>
</event>
<event>
12    1  0.1518126E-007  0.2926606E+04  0.7818608E-02  0.8265005E-01
         -2   -1    0    0    0  501 -0.00000000000E+00  0.00000000000E+00  0.23972625633E+04  0.23972625633E+04  0.00000000000E+00 0.  1.
          2   -1    0    0  501    0  0.00000000000E+00 -0.00000000000E+00 -0.89320875604E+03  0.89320875604E+03  0.00000000000E+00 0. -1.
         23    2    1    2    0    0  0.73776234281E+03 -0.79337059967E+03 -0.17450690448E+03  0.11012636067E+04  0.92729115873E+02 0.  0.
        254    2    1    2    0    0 -0.73776234281E+03  0.79337059967E+03  0.16785607118E+04  0.21892077126E+04  0.89517270012E+03 0.  0.
        -24    2    4    4    0    0 -0.68954538632E+03  0.16841542257E+03  0.57270131048E+03  0.91558488831E+03  0.80450620449E+02 0.  0.
         24    2    4    4    0    0 -0.48216956495E+02  0.62495517710E+03  0.11058594013E+04  0.12736228243E+04  0.79348818019E+02 0.  0.
         13    1    3    3    0    0  0.40421277537E+03 -0.45272690781E+03 -0.14259085861E+03  0.62344348083E+03  0.00000000000E+00 0. -1.
        -13    1    3    3    0    0  0.33354956744E+03 -0.34064369186E+03 -0.31916045873E+02  0.47782012592E+03  0.00000000000E+00 0.  1.
          2    1    6    6  502    0  0.18250666494E+02  0.69115075710E+02  0.10938275710E+03  0.13066969071E+03  0.00000000000E+00 0. -1.
          3    1    5    5  503    0 -0.34059122335E+03  0.42624077047E+02  0.26508746371E+03  0.43369408202E+03  0.00000000000E+00 0. -1.
         -4    1    5    5    0  503 -0.34895416297E+03  0.12579134552E+03  0.30761384678E+03  0.48189080629E+03  0.00000000000E+00 0.  1.
         -1    1    6    6    0  502 -0.66467622989E+02  0.55584010139E+03  0.99647664420E+03  0.11429531336E+04  0.00000000000E+00 0.  1.
<mgrwt>
<rscale>  0 0.29266062E+04</rscale>
<asrwt>0</asrwt>
<pdfrwt beam="1">  1        2 0.13741673E+00 0.29266062E+04</pdfrwt>
<pdfrwt beam="2">  1       -2 0.36880962E+00 0.29266062E+04</pdfrwt>
<totfact> 0.30144706E-01</totfact>
</mgrwt>
</event>
<event>
12    1  0.1518126E-007  0.1953334E+04  0.7818608E-02  0.8628755E-01
          1   -1    0    0  501    0  0.00000000000E+00  0.00000000000E+00  0.16234166823E+04  0.16234166823E+04  0.00000000000E+00 0. -1.
         -1   -1    0    0    0  501 -0.00000000000E+00 -0.00000000000E+00 -0.58757441485E+03  0.58757441485E+03  0.00000000000E+00 0.  1.
         23    2    1    2    0    0  0.24749571448E+03 -0.59116837871E+03  0.87371635291E+03  0.10874589965E+04  0.91938147858E+02 0.  0.
        254    2    1    2    0    0 -0.24749571448E+03  0.59116837871E+03  0.16212591449E+03  0.11235321006E+04  0.90846320140E+03 0.  0.
        -24    2    4    4    0    0 -0.25388509456E+03  0.26674969915E+03  0.51477056425E+03  0.63769023531E+03  0.77762839083E+02 0.  0.
         24    2    4    4    0    0  0.63893800814E+01  0.32441867956E+03 -0.35264464976E+03  0.48584186531E+03  0.79973528500E+02 0.  0.
         13    1    3    3    0    0  0.11591963365E+03 -0.30680918233E+03  0.52136152735E+03  0.61594405430E+03  0.00000000000E+00 0. -1.
        -13    1    3    3    0    0  0.13157608083E+03 -0.28435919638E+03  0.35235482556E+03  0.47151494219E+03  0.00000000000E+00 0.  1.
          2    1    6    6  502    0 -0.36779658213E+02  0.13545863055E+03 -0.14836064016E+03  0.20423678267E+03  0.00000000000E+00 0. -1.
          1    1    5    5  503    0 -0.31612718379E+02  0.61581339525E+02  0.13913129049E+03  0.15539993994E+03  0.00000000000E+00 0. -1.
         -2    1    5    5    0  503 -0.22227237619E+03  0.20516835963E+03  0.37563927377E+03  0.48229029537E+03  0.00000000000E+00 0.  1.
         -1    1    6    6    0  502  0.43169038294E+02  0.18896004900E+03 -0.20428400960E+03  0.28160508264E+03  0.00000000000E+00 0.  1.
<mgrwt>
<rscale>  0 0.19533337E+04</rscale>
<asrwt>0</asrwt>
<pdfrwt beam="1">  1        1 0.24975641E+00 0.19533337E+04</pdfrwt>
<pdfrwt beam="2">  1       -1 0.90396064E-01 0.19533337E+04</pdfrwt>
<totfact> 0.59907037E+00</totfact>
</mgrwt>
</event>
<event>
12    1  0.1518126E-007  0.1252421E+04  0.7818608E-02  0.9068171E-01
          2   -1    0    0  501    0  0.00000000000E+00  0.00000000000E+00  0.76207153521E+03  0.76207153521E+03  0.00000000000E+00 0. -1.
         -2   -1    0    0    0  501 -0.00000000000E+00 -0.00000000000E+00 -0.51457046586E+03  0.51457046586E+03  0.00000000000E+00 0.  1.
         23    2    1    2    0    0  0.55883556884E+02 -0.20169498660E+03  0.27322140676E+03  0.35503601383E+03  0.87159591854E+02 0.  0.
        254    2    1    2    0    0 -0.55883556884E+02  0.20169498660E+03 -0.25720337414E+02  0.92160598723E+03  0.89715785701E+03 0.  0.
        -24    2    4    4    0    0  0.71500232121E+02 -0.21421085399E+03  0.29034863649E+03  0.37651240708E+03  0.80378410129E+02 0.  0.
         24    2    4    4    0    0 -0.12738378900E+03  0.41590584059E+03 -0.31606897391E+03  0.54509358015E+03  0.89571853360E+02 0.  0.
         13    1    3    3    0    0  0.22619072978E+02 -0.87205398994E+02  0.18804312875E+03  0.20851048497E+03  0.00000000000E+00 0. -1.
        -13    1    3    3    0    0  0.33264483906E+02 -0.11448958761E+03  0.85178278017E+02  0.14652552885E+03  0.00000000000E+00 0.  1.
          4    1    6    6  502    0 -0.53861159224E+02  0.77984783344E+02 -0.41235181065E+02  0.10335855583E+03  0.00000000000E+00 0. -1.
          3    1    5    5  503    0  0.49626546427E+01 -0.37007536230E+02  0.10727080250E+02  0.38849143229E+02  0.00000000000E+00 0. -1.
         -4    1    5    5    0  503  0.66537577478E+02 -0.17720331776E+03  0.27962155624E+03  0.33766326386E+03  0.00000000000E+00 0.  1.
         -3    1    6    6    0  502 -0.73522629781E+02  0.33792105725E+03 -0.27483379284E+03  0.44173502432E+03  0.00000000000E+00 0.  1.
<mgrwt>
<rscale>  0 0.12524209E+04</rscale>
<asrwt>0</asrwt>
<pdfrwt beam="1">  1        2 0.11724177E+00 0.12524209E+04</pdfrwt>
<pdfrwt beam="2">  1       -2 0.79164687E-01 0.12524209E+04</pdfrwt>
<totfact> 0.51138440E+01</totfact>
</mgrwt>
</event>
<event>
12    1  0.1518126E-007  0.1923688E+04  0.7818608E-02  0.8643155E-01
         -2   -1    0    0    0  501 -0.00000000000E+00  0.00000000000E+00  0.34295689213E+03  0.34295689213E+03  0.00000000000E+00 0.  1.
          2   -1    0    0  501    0  0.00000000000E+00 -0.00000000000E+00 -0.26975501357E+04  0.26975501357E+04  0.00000000000E+00 0. -1.
         23    2    1    2    0    0 -0.33549919543E+03 -0.52546659995E+03 -0.27817704529E+03  0.68879237862E+03  0.91529309633E+02 0.  0.
        254    2    1    2    0    0  0.33549919543E+03  0.52546659995E+03 -0.20764161983E+04  0.23517146492E+04  0.91125337041E+03 0.  0.
        -24    2    4    4    0    0 -0.11360556849E+03  0.33987983453E+03 -0.16787715710E+04  0.17183932983E+04  0.78593974711E+02 0.  0.
         24    2    4    4    0    0  0.44910476391E+03  0.18558676542E+03 -0.39764462733E+03  0.63332135099E+03  0.82687045579E+02 0.  0.
         13    1    3    3    0    0 -0.75210429775E+01 -0.56820864643E+01  0.65045473067E+01  0.11452568695E+02  0.00000000000E+00 0. -1.
        -13    1    3    3    0    0 -0.32797815245E+03 -0.51978451348E+03 -0.28468159259E+03  0.67733980992E+03  0.00000000000E+00 0.  1.
          4    1    6    6  502    0  0.34281389233E+03  0.12294448752E+03 -0.33551626050E+03  0.49518468559E+03  0.00000000000E+00 0. -1.
          1    1    5    5  503    0 -0.11056305002E+01  0.15786392731E+02 -0.26363671827E+02  0.30748590316E+02  0.00000000000E+00 0. -1.
         -2    1    5    5    0  503 -0.11249993799E+03  0.32409344180E+03 -0.16524078991E+04  0.16876447079E+04  0.00000000000E+00 0.  1.
         -3    1    6    6    0  502  0.10629087158E+03  0.62642277899E+02 -0.62128366837E+02  0.13813666540E+03  0.00000000000E+00 0.  1.
<mgrwt>
<rscale>  0 0.19236875E+04</rscale>
<asrwt>0</asrwt>
<pdfrwt beam="1">  1        2 0.41500773E+00 0.19236875E+04</pdfrwt>
<pdfrwt beam="2">  1       -2 0.52762596E-01 0.19236875E+04</pdfrwt>
<totfact> 0.84519654E+00</totfact>
</mgrwt>
</event>
<event>
12    1  0.1518126E-007  0.9951248E+03  0.7818608E-02  0.9313908E-01
         -1   -1    0    0    0  501 -0.00000000000E+00  0.00000000000E+00  0.10576184019E+04  0.10576184019E+04  0.00000000000E+00 0.  1.
          1   -1    0    0  501    0  0.00000000000E+00 -0.00000000000E+00 -0.23408095417E+03  0.23408095417E+03  0.00000000000E+00 0. -1.
         23    2    1    2    0    0  0.59413883141E+02 -0.26000281845E+02  0.28852528110E+02  0.11318585764E+03  0.88162043002E+02 0.  0.
        254    2    1    2    0    0 -0.59413883141E+02  0.26000281845E+02  0.79468491964E+03  0.11785134984E+04  0.86785017160E+03 0.  0.
        -24    2    4    4    0    0 -0.30110485556E+03 -0.17062055787E+03  0.38970518122E+02  0.35714687750E+03  0.79118152275E+02 0.  0.
         24    2    4    4    0    0  0.24169097242E+03  0.19662083972E+03  0.75571440152E+03  0.82136662094E+03  0.80402665203E+02 0.  0.
         11    1    3    3    0    0 -0.17943366151E+02 -0.22990454081E+02 -0.33178221462E+01  0.29351887699E+02  0.00000000000E+00 0. -1.
        -11    1    3    3    0    0  0.77357249292E+02 -0.30098277638E+01  0.32170350257E+02  0.83833969945E+02  0.00000000000E+00 0.  1.
          2    1    6    6  502    0  0.35272465351E+02  0.20805778137E+02  0.45824317386E+02  0.61456450269E+02  0.00000000000E+00 0. -1.
          1    1    5    5  503    0 -0.10795622441E+03 -0.79429547806E+02  0.50538945387E+02  0.14324030318E+03  0.00000000000E+00 0. -1.
         -2    1    5    5    0  503 -0.19314863114E+03 -0.91191010067E+02 -0.11568427265E+02  0.21390657432E+03  0.00000000000E+00 0.  1.
         -1    1    6    6    0  502  0.20641850706E+03  0.17581506158E+03  0.70989008413E+03  0.75991017067E+03  0.00000000000E+00 0.  1.
<mgrwt>
<rscale>  0 0.99512477E+03</rscale>
<asrwt>0</asrwt>
<pdfrwt beam="1">  1        1 0.36012455E-01 0.99512477E+03</pdfrwt>
<pdfrwt beam="2">  1       -1 0.16271052E+00 0.99512477E+03</pdfrwt>
<totfact> 0.33895659E+01</totfact>
</mgrwt>
</event>
<event>
12    1  0.1518126E-007  0.1837412E+04  0.7818608E-02  0.8686653E-01
         -2   -1    0    0    0  501 -0.00000000000E+00  0.00000000000E+00  0.42038695472E+03  0.42038695472E+03  0.00000000000E+00 0.  1.
          2   -1    0    0  501    0  0.00000000000E+00 -0.00000000000E+00 -0.20077236254E+04  0.20077236254E+04  0.00000000000E+00 0. -1.
         23    2    1    2    0    0  0.10640772016E+03  0.14350322495E+03  0.28476426809E+03  0.34826857868E+03  0.91019426701E+02 0.  0.
        254    2    1    2    0    0 -0.10640772016E+03 -0.14350322495E+03 -0.18721009388E+04  0.20798420015E+04  0.88829333418E+03 0.  0.
        -24    2    4    4    0    0  0.35080001146E+03 -0.22641132096E+03 -0.73757849574E+03  0.85131479490E+03  0.79950661951E+02 0.  0.
         24    2    4    4    0    0 -0.45720773162E+03  0.82908096001E+02 -0.11345224431E+04  0.12285272066E+04  0.78900324732E+02 0.  0.
         11    1    3    3    0    0  0.87422906584E+02  0.62644861166E+02  0.10530071324E+03  0.15051705364E+03  0.00000000000E+00 0.  1.
        -11    1    3    3    0    0  0.18984813577E+02  0.80858363789E+02  0.17946355484E+03  0.19775152505E+03  0.00000000000E+00 0. -1.
          2    1    6    6  502    0 -0.31339123944E+03  0.65433395391E+02 -0.86825847852E+03  0.92540174179E+03  0.00000000000E+00 0. -1.
          1    1    5    5  503    0  0.31430963176E+03 -0.16842620374E+03 -0.61969015151E+03  0.71496420512E+03  0.00000000000E+00 0. -1.
         -2    1    5    5    0  503  0.36490379703E+02 -0.57985117220E+02 -0.11788834423E+03  0.13635058979E+03  0.00000000000E+00 0.  1.
         -1    1    6    6    0  502 -0.14381649218E+03  0.17474700610E+02 -0.26626396454E+03  0.30312546478E+03  0.00000000000E+00 0.  1.
<mgrwt>
<rscale>  0 0.18374121E+04</rscale>
<asrwt>0</asrwt>
<pdfrwt beam="1">  1        2 0.30888055E+00 0.18374121E+04</pdfrwt>
<pdfrwt beam="2">  1       -2 0.64674917E-01 0.18374121E+04</pdfrwt>
<totfact> 0.13740921E+01</totfact>
</mgrwt>
</event>
<event>
12    1  0.1518126E-007  0.1466689E+04  0.7818608E-02  0.8906912E-01
         -1   -1    0    0    0  501 -0.00000000000E+00  0.00000000000E+00  0.16941178957E+04  0.16941178957E+04  0.00000000000E+00 0.  1.
          1   -1    0    0  501    0  0.00000000000E+00 -0.00000000000E+00 -0.31744790918E+03  0.31744790918E+03  0.00000000000E+00 0. -1.
         23    2    1    2    0    0 -0.10794127416E+03 -0.55157507675E+02  0.10250281494E+04  0.10362007318E+04  0.91299399236E+02 0.  0.
        254    2    1    2    0    0  0.10794127416E+03  0.55157507675E+02  0.35164183708E+03  0.97536507300E+03  0.90166034332E+03 0.  0.
        -24    2    4    4    0    0  0.38051290801E+03  0.31986506443E+03  0.10022377282E+03  0.51301070446E+03  0.77662382443E+02 0.  0.
         24    2    4    4    0    0 -0.27257163385E+03 -0.26470755676E+03  0.25141806426E+03  0.46235436854E+03  0.78709166470E+02 0.  0.
         11    1    3    3    0    0 -0.54745181633E+02 -0.61883041522E+02  0.82443622829E+03  0.82856601442E+03  0.00000000000E+00 0.  1.
        -11    1    3    3    0    0 -0.53196092526E+02  0.67255338470E+01  0.20059192110E+03  0.20763471742E+03  0.00000000000E+00 0. -1.
          4    1    6    6  502    0 -0.11347764573E+03 -0.13675428511E+03  0.76363136179E+02  0.19341726692E+03  0.00000000000E+00 0. -1.
          3    1    5    5  503    0  0.69682287517E+02  0.26725658528E+02  0.27910730379E+02  0.79679927759E+02  0.00000000000E+00 0. -1.
         -4    1    5    5    0  503  0.31083062049E+03  0.29313940590E+03  0.72313042438E+02  0.43333077670E+03  0.00000000000E+00 0.  1.
         -3    1    6    6    0  502 -0.15909398812E+03 -0.12795327165E+03  0.17505492808E+03  0.26893710162E+03  0.00000000000E+00 0.  1.
<mgrwt>
<rscale>  0 0.14666890E+04</rscale>
<asrwt>0</asrwt>
<pdfrwt beam="1">  1        1 0.48838141E-01 0.14666890E+04</pdfrwt>
<pdfrwt beam="2">  1       -1 0.26063352E+00 0.14666890E+04</pdfrwt>
<totfact> 0.46991112E+00</totfact>
</mgrwt>
</event>
<event>
12    1  0.1518126E-007  0.1976631E+04  0.7818608E-02  0.8617625E-01
         -2   -1    0    0    0  501 -0.00000000000E+00  0.00000000000E+00  0.11379289461E+04  0.11379289461E+04  0.00000000000E+00 0.  1.
          2   -1    0    0  501    0  0.00000000000E+00 -0.00000000000E+00 -0.85837331706E+03  0.85837331706E+03  0.00000000000E+00 0. -1.
         23    2    1    2    0    0  0.52845543761E+03  0.39082851667E+03  0.53318443677E+03  0.85089358312E+03  0.87875862403E+02 0.  0.
        254    2    1    2    0    0 -0.52845543761E+03 -0.39082851667E+03 -0.25362880772E+03  0.11454086800E+04  0.90311759656E+03 0.  0.
        -24    2    4    4    0    0 -0.10959884867E+03 -0.41136897154E+03 -0.49317988392E+03  0.65604580379E+03  0.77028309093E+02 0.  0.
         24    2    4    4    0    0 -0.41885658894E+03  0.20540454864E+02  0.23955107620E+03  0.48936287625E+03  0.78921189518E+02 0.  0.
         11    1    3    3    0    0  0.51786818452E+03  0.37518628294E+03  0.49641154700E+03  0.80955335058E+03  0.00000000000E+00 0.  1.
        -11    1    3    3    0    0  0.10587253091E+02  0.15642233735E+02  0.36772889768E+02  0.41340232536E+02  0.00000000000E+00 0. -1.
          4    1    6    6  502    0 -0.17532780660E+03  0.44454720874E+02  0.11962464977E+03  0.21685506405E+03  0.00000000000E+00 0. -1.
          1    1    5    5  503    0 -0.25774902421E+02 -0.28184871830E+02 -0.26857098309E+02  0.46690859110E+02  0.00000000000E+00 0. -1.
         -2    1    5    5    0  503 -0.83823946247E+02 -0.38318409971E+03 -0.46632278561E+03  0.60935494468E+03  0.00000000000E+00 0.  1.
         -3    1    6    6    0  502 -0.24352878235E+03 -0.23914266011E+02  0.11992642643E+03  0.27250781219E+03  0.00000000000E+00 0.  1.
<mgrwt>
<rscale>  0 0.19766313E+04</rscale>
<asrwt>0</asrwt>
<pdfrwt beam="1">  1        2 0.13205743E+00 0.19766313E+04</pdfrwt>
<pdfrwt beam="2">  1       -2 0.17506599E+00 0.19766313E+04</pdfrwt>
<totfact> 0.57186020E+00</totfact>
</mgrwt>
</event>
<event>
12    1  0.1518126E-007  0.1841809E+04  0.7818608E-02  0.8684377E-01
          1   -1    0    0  501    0  0.00000000000E+00  0.00000000000E+00  0.68063570474E+03  0.68063570474E+03  0.00000000000E+00 0.  1.
         -1   -1    0    0    0  501 -0.00000000000E+00 -0.00000000000E+00 -0.12459897457E+04  0.12459897457E+04  0.00000000000E+00 0. -1.
         23    2    1    2    0    0 -0.29193881260E+03  0.38215513464E+03  0.30671708886E+03  0.57786501364E+03  0.92637919651E+02 0.  0.
        254    2    1    2    0    0  0.29193881260E+03 -0.38215513464E+03 -0.87207112982E+03  0.13487604368E+04  0.90960202459E+03 0.  0.
        -24    2    4    4    0    0  0.60371789190E+03 -0.30511498641E+03 -0.69593096595E+03  0.97356229400E+03  0.77027157530E+02 0.  0.
         24    2    4    4    0    0 -0.31177907929E+03 -0.77040148226E+02 -0.17614016387E+03  0.37519814279E+03  0.81282902880E+02 0.  0.
         11    1    3    3    0    0 -0.44064316248E+02  0.40202998452E+02  0.71657769695E+01  0.60077395171E+02  0.00000000000E+00 0. -1.
        -11    1    3    3    0    0 -0.24787449636E+03  0.34195213619E+03  0.29955131189E+03  0.51778761847E+03  0.00000000000E+00 0.  1.
          4    1    6    6  502    0 -0.23527651676E+03 -0.72069177042E+02 -0.16833702609E+03  0.29813815585E+03  0.00000000000E+00 0. -1.
          1    1    5    5  503    0  0.50653779201E+03 -0.26598487314E+03 -0.54751998085E+03  0.79190063575E+03  0.00000000000E+00 0. -1.
         -2    1    5    5    0  503  0.97180099889E+02 -0.39130113273E+02 -0.14841098510E+03  0.18166165825E+03  0.00000000000E+00 0.  1.
         -3    1    6    6    0  502 -0.76502562527E+02 -0.49709711846E+01 -0.78031377797E+01  0.77059986938E+02  0.00000000000E+00 0.  1.
<mgrwt>
<rscale>  0 0.18418090E+04</rscale>
<asrwt>0</asrwt>
<pdfrwt beam="1">  1        1 0.10471319E+00 0.18418090E+04</pdfrwt>
<pdfrwt beam="2">  1       -1 0.19169073E+00 0.18418090E+04</pdfrwt>
<totfact> 0.45951161E+00</totfact>
</mgrwt>
</event>
<event>
12    1  0.1518126E-007  0.1599271E+04  0.7818608E-02  0.8820996E-01
          2   -1    0    0  501    0  0.00000000000E+00  0.00000000000E+00  0.26029299161E+04  0.26029299161E+04  0.00000000000E+00 0.  1.
         -2   -1    0    0    0  501 -0.00000000000E+00 -0.00000000000E+00 -0.24565291811E+03  0.24565291811E+03  0.00000000000E+00 0. -1.
         23    2    1    2    0    0 -0.39038841585E+03  0.10237081683E+03  0.15810186913E+03  0.44357485504E+03  0.94231372886E+02 0.  0.
        254    2    1    2    0    0  0.39038841585E+03 -0.10237081683E+03  0.21991751288E+04  0.24050079791E+04  0.88589459480E+03 0.  0.
        -24    2    4    4    0    0  0.23126821367E+03 -0.48133362218E+03  0.14422546510E+04  0.15400370623E+04  0.80303379043E+02 0.  0.
         24    2    4    4    0    0  0.15912020218E+03  0.37896280535E+03  0.75692047787E+03  0.86497091679E+03  0.79460874053E+02 0.  0.
         11    1    3    3    0    0 -0.39033583389E+03  0.88663215555E+02  0.15645326423E+03  0.42976837121E+03  0.00000000000E+00 0. -1.
        -11    1    3    3    0    0 -0.52581966122E-01  0.13707601278E+02  0.16486048977E+01  0.13806483831E+02  0.00000000000E+00 0.  1.
          2    1    6    6  502    0  0.26269984873E+02  0.68570713714E+02  0.20741983444E+03  0.22003418508E+03  0.00000000000E+00 0. -1.
          3    1    5    5  503    0  0.69537117898E+02 -0.20291923737E+03  0.49239194740E+03  0.53708608018E+03  0.00000000000E+00 0. -1.
         -2    1    5    5    0  503  0.16173109578E+03 -0.27841438481E+03  0.94986270356E+03  0.10029509822E+04  0.00000000000E+00 0.  1.
         -1    1    6    6    0  502  0.13285021730E+03  0.31039209163E+03  0.54950064343E+03  0.64493673171E+03  0.00000000000E+00 0.  1.
<mgrwt>
<rscale>  0 0.15992715E+04</rscale>
<asrwt>0</asrwt>
<pdfrwt beam="1">  1        2 0.40045074E+00 0.15992715E+04</pdfrwt>
<pdfrwt beam="2">  1       -2 0.37792758E-01 0.15992715E+04</pdfrwt>
<totfact> 0.19258465E+01</totfact>
</mgrwt>
</event>
<event>
12    1  0.1518126E-007  0.1790103E+04  0.7818608E-02  0.8711581E-01
          1   -1    0    0  501    0  0.00000000000E+00  0.00000000000E+00  0.11556854871E+04  0.11556854871E+04  0.00000000000E+00 0. -1.
         -1   -1    0    0    0  501 -0.00000000000E+00 -0.00000000000E+00 -0.69319626288E+03  0.69319626288E+03  0.00000000000E+00 0.  1.
         23    2    1    2    0    0 -0.16092638065E+03  0.63518108724E+03  0.24146600921E+03  0.70465122312E+03  0.94208274953E+02 0.  0.
        254    2    1    2    0    0  0.16092638065E+03 -0.63518108724E+03  0.22102321503E+03  0.11442305269E+04  0.91162488090E+03 0.  0.
        -24    2    4    4    0    0  0.29970789448E+03 -0.28679345330E+03 -0.28479860658E+03  0.50943387502E+03  0.79607285133E+02 0.  0.
         24    2    4    4    0    0 -0.13878151383E+03 -0.34838763394E+03  0.50582182161E+03  0.63479665185E+03  0.80478704812E+02 0.  0.
         11    1    3    3    0    0 -0.25020408799E+02  0.26189490028E+03  0.72028883728E+02  0.27276935264E+03  0.00000000000E+00 0.  1.
        -11    1    3    3    0    0 -0.13590597185E+03  0.37328618696E+03  0.16943712548E+03  0.43188187048E+03  0.00000000000E+00 0. -1.
          2    1    6    6  502    0 -0.11262595523E+02 -0.64506467404E+02  0.47888642327E+02  0.81124918852E+02  0.00000000000E+00 0. -1.
          3    1    5    5  503    0  0.28552854807E+01 -0.22830659304E+02 -0.49932021991E+01  0.23544080522E+02  0.00000000000E+00 0. -1.
         -4    1    5    5    0  503  0.29685260900E+03 -0.26396279400E+03 -0.27980540438E+03  0.48588979450E+03  0.00000000000E+00 0.  1.
         -3    1    6    6    0  502 -0.12751891830E+03 -0.28388116654E+03  0.45793317928E+03  0.55367173300E+03  0.00000000000E+00 0.  1.
<mgrwt>
<rscale>  0 0.17901026E+04</rscale>
<asrwt>0</asrwt>
<pdfrwt beam="1">  1        1 0.17779777E+00 0.17901026E+04</pdfrwt>
<pdfrwt beam="2">  1       -1 0.10664558E+00 0.17901026E+04</pdfrwt>
<totfact> 0.89326719E+00</totfact>
</mgrwt>
</event>
<event>
12    1  0.1518126E-007  0.1360250E+04  0.7818608E-02  0.8983105E-01
          2   -1    0    0  501    0  0.00000000000E+00  0.00000000000E+00  0.39724900339E+03  0.39724900339E+03  0.00000000000E+00 0. -1.
         -2   -1    0    0    0  501 -0.00000000000E+00 -0.00000000000E+00 -0.11644334943E+04  0.11644334943E+04  0.00000000000E+00 0.  1.
         23    2    1    2    0    0  0.25817503837E+03 -0.77920648181E+02  0.85182403839E+02  0.29739765312E+03  0.91996436368E+02 0.  0.
        254    2    1    2    0    0 -0.25817503837E+03  0.77920648181E+02 -0.85236689479E+03  0.12642848446E+04  0.89395797841E+03 0.  0.
        -24    2    4    4    0    0 -0.76914484240E+02 -0.36552850351E+03 -0.14902002420E+03  0.40998013189E+03  0.79685733780E+02 0.  0.
         24    2    4    4    0    0 -0.18126055413E+03  0.44344915170E+03 -0.70334687060E+03  0.85430471274E+03  0.75081177387E+02 0.  0.
         11    1    3    3    0    0  0.18617603093E+03 -0.45159448867E+02  0.15880986987E+02  0.19223188097E+03  0.00000000000E+00 0. -1.
        -11    1    3    3    0    0  0.71999007445E+02 -0.32761199314E+02  0.69301416852E+02  0.10516577215E+03  0.00000000000E+00 0.  1.
          2    1    6    6  502    0 -0.12110912154E+03  0.36598147535E+03 -0.53404685775E+03  0.65864702678E+03  0.00000000000E+00 0. -1.
          1    1    5    5  503    0 -0.86725608050E+02 -0.35403967288E+03 -0.15137534884E+03  0.39468964682E+03  0.00000000000E+00 0. -1.
         -2    1    5    5    0  503  0.98111238101E+01 -0.11488830630E+02  0.23553246457E+01  0.15290485076E+02  0.00000000000E+00 0.  1.
         -1    1    6    6    0  502 -0.60151432596E+02  0.77467676349E+02 -0.16930001285E+03  0.19565768595E+03  0.00000000000E+00 0.  1.
<mgrwt>
<rscale>  0 0.13602500E+04</rscale>
<asrwt>0</asrwt>
<pdfrwt beam="1">  1        2 0.61115233E-01 0.13602500E+04</pdfrwt>
<pdfrwt beam="2">  1       -2 0.17914361E+00 0.13602500E+04</pdfrwt>
<totfact> 0.14362139E+01</totfact>
</mgrwt>
</event>
<event>
12    1  0.1746787E-007  0.1803650E+04  0.7818608E-02  0.8704361E-01
          1   -1    0    0  501    0  0.00000000000E+00  0.00000000000E+00  0.14331358406E+04  0.14331358406E+04  0.00000000000E+00 0. -1.
         -1   -1    0    0    0  501 -0.00000000000E+00 -0.00000000000E+00 -0.56748888996E+03  0.56748888996E+03  0.00000000000E+00 0.  1.
         23    2    1    2    0    0  0.30835685686E+02 -0.52049992383E+03  0.78467288708E+03  0.94662106599E+03  0.92243659021E+02 0.  0.
        254    2    1    2    0    0 -0.30835685686E+02  0.52049992383E+03  0.80974063505E+02  0.10540036645E+04  0.91241214134E+03 0.  0.
        -24    2    4    4    0    0 -0.85137188317E+02  0.60328276720E+03 -0.27676305223E+03  0.67398813199E+03  0.80397617746E+02 0.  0.
         24    2    4    4    0    0  0.54301502631E+02 -0.82782843373E+02  0.35773711574E+03  0.38001553255E+03  0.81451265518E+02 0.  0.
         13    1    3    3    0    0 -0.30049187733E+02 -0.94674801343E+02  0.14368919696E+03  0.17467929762E+03  0.00000000000E+00 0.  1.
        -13    1    3    3    0    0  0.60884873419E+02 -0.42582512249E+03  0.64098369012E+03  0.77194176837E+03  0.00000000000E+00 0. -1.
          4    1    6    6  502    0 -0.80742502518E+01 -0.90977390743E+01  0.32121641631E+01  0.12580952746E+02  0.00000000000E+00 0. -1.
          3    1    5    5  503    0 -0.31708801648E+02  0.10394305403E+03 -0.22014989679E+02  0.11087951277E+03  0.00000000000E+00 0. -1.
         -4    1    5    5    0  503 -0.53428386669E+02  0.49933971317E+03 -0.25474806255E+03  0.56310861921E+03  0.00000000000E+00 0.  1.
         -3    1    6    6    0  502  0.62375752883E+02 -0.73685104299E+02  0.35452495157E+03  0.36743457980E+03  0.00000000000E+00 0.  1.
<mgrwt>
<rscale>  0 0.18036504E+04</rscale>
<asrwt>0</asrwt>
<pdfrwt beam="1">  1        1 0.22048244E+00 0.18036504E+04</pdfrwt>
<pdfrwt beam="2">  1       -1 0.87305984E-01 0.18036504E+04</pdfrwt>
<totfact> 0.88717599E+00</totfact>
</mgrwt>
</event>
<event>
12    1  0.1518126E-007  0.1817298E+04  0.7818608E-02  0.8697154E-01
          2   -1    0    0  501    0  0.00000000000E+00  0.00000000000E+00  0.11621633369E+04  0.11621633369E+04  0.00000000000E+00 0. -1.
         -2   -1    0    0    0  501 -0.00000000000E+00 -0.00000000000E+00 -0.71043623215E+03  0.71043623215E+03  0.00000000000E+00 0.  1.
         23    2    1    2    0    0  0.27824376573E+03  0.32727051452E+02 -0.44910188810E+03  0.53707855560E+03  0.90940727494E+02 0.  0.
        254    2    1    2    0    0 -0.27824376573E+03 -0.32727051452E+02  0.90082899288E+03  0.13355210135E+04  0.94532155903E+03 0.  0.
        -24    2    4    4    0    0 -0.37471606430E+03  0.36067381635E+03  0.29737973610E+03  0.60432255082E+03  0.79204212923E+02 0.  0.
         24    2    4    4    0    0  0.96472298572E+02 -0.39340086780E+03  0.60344925679E+03  0.73119846266E+03  0.80181288980E+02 0.  0.
         13    1    3    3    0    0  0.92810578892E+02 -0.26461028069E+02 -0.11227617020E+03  0.14805380088E+03  0.00000000000E+00 0. -1.
        -13    1    3    3    0    0  0.18543318684E+03  0.59188079521E+02 -0.33682571790E+03  0.38902475471E+03  0.00000000000E+00 0.  1.
          4    1    6    6  502    0  0.26319885318E+02 -0.26007326198E+03  0.35978939520E+03  0.44472378715E+03  0.00000000000E+00 0. -1.
          3    1    5    5  503    0 -0.34364697018E+03  0.34294731885E+03  0.29581518574E+03  0.56851801003E+03  0.00000000000E+00 0. -1.
         -4    1    5    5    0  503 -0.31069094124E+02  0.17726497499E+02  0.15645503594E+01  0.35804540788E+02  0.00000000000E+00 0.  1.
         -3    1    6    6    0  502  0.70152413253E+02 -0.13332760582E+03  0.24365986159E+03  0.28647467551E+03  0.00000000000E+00 0.  1.
<mgrwt>
<rscale>  0 0.18172979E+04</rscale>
<asrwt>0</asrwt>
<pdfrwt beam="1">  1        2 0.17879436E+00 0.18172979E+04</pdfrwt>
<pdfrwt beam="2">  1       -2 0.10929788E+00 0.18172979E+04</pdfrwt>
<totfact> 0.12559287E+01</totfact>
</mgrwt>
</event>
<event>
12    1  0.1518126E-007  0.2426362E+04  0.7818608E-02  0.8429699E-01
          2   -1    0    0  501    0  0.00000000000E+00  0.00000000000E+00  0.33369446130E+04  0.33369446130E+04  0.00000000000E+00 0.  1.
         -2   -1    0    0    0  501 -0.00000000000E+00 -0.00000000000E+00 -0.44106459956E+03  0.44106459956E+03  0.00000000000E+00 0. -1.
         23    2    1    2    0    0 -0.79589576231E+03 -0.61650739049E+03  0.81941065487E+03  0.13011984215E+04  0.90288890237E+02 0.  0.
        254    2    1    2    0    0  0.79589576231E+03  0.61650739049E+03  0.20764693586E+04  0.24768107911E+04  0.89963063022E+03 0.  0.
        -24    2    4    4    0    0  0.66619197468E+03  0.82868152512E+03  0.14623980086E+04  0.18095555761E+04  0.73202666634E+02 0.  0.
         24    2    4    4    0    0  0.12970378763E+03 -0.21217413463E+03  0.61407134999E+03  0.66725521497E+03  0.79403797748E+02 0.  0.
         11    1    3    3    0    0 -0.31359200881E+03 -0.24175587870E+03  0.26620362816E+03  0.47712705280E+03  0.00000000000E+00 0. -1.
        -11    1    3    3    0    0 -0.48230375350E+03 -0.37475151179E+03  0.55320702671E+03  0.82407136865E+03  0.00000000000E+00 0.  1.
          2    1    6    6  502    0  0.99151386301E+02 -0.14106896522E+03  0.50416000848E+03  0.53283089673E+03  0.00000000000E+00 0. -1.
          3    1    5    5  503    0  0.54360637435E+03  0.69401252043E+03  0.12530029745E+04  0.15320501698E+04  0.00000000000E+00 0. -1.
         -4    1    5    5    0  503  0.12258560033E+03  0.13466900468E+03  0.20939503407E+03  0.27750540629E+03  0.00000000000E+00 0.  1.
         -1    1    6    6    0  502  0.30552401329E+02 -0.71105169406E+02  0.10991134151E+03  0.13442431824E+03  0.00000000000E+00 0.  1.
<mgrwt>
<rscale>  0 0.24263620E+04</rscale>
<asrwt>0</asrwt>
<pdfrwt beam="1">  1        2 0.51337608E+00 0.24263620E+04</pdfrwt>
<pdfrwt beam="2">  1       -2 0.67856094E-01 0.24263620E+04</pdfrwt>
<totfact> 0.18802549E+00</totfact>
</mgrwt>
</event>
<event>
12    1  0.1518126E-007  0.1629513E+04  0.7818608E-02  0.8802619E-01
         -1   -1    0    0    0  501 -0.00000000000E+00  0.00000000000E+00  0.30883207511E+03  0.30883207511E+03  0.00000000000E+00 0.  1.
          1   -1    0    0  501    0  0.00000000000E+00 -0.00000000000E+00 -0.21494800078E+04  0.21494800078E+04  0.00000000000E+00 0. -1.
         23    2    1    2    0    0  0.11304254609E+03 -0.48306983962E+03 -0.10340651622E+04  0.11506289083E+04  0.92309466361E+02 0.  0.
        254    2    1    2    0    0 -0.11304254609E+03  0.48306983962E+03 -0.80658277041E+03  0.13076831746E+04  0.90184501576E+03 0.  0.
        -24    2    4    4    0    0  0.40657341319E+02  0.69626281284E+03 -0.37542220255E+03  0.79628561730E+03  0.81817053326E+02 0.  0.
         24    2    4    4    0    0 -0.15369988741E+03 -0.21319297322E+03 -0.43116056786E+03  0.51139755731E+03  0.80951387402E+02 0.  0.
         13    1    3    3    0    0  0.11367164807E+03 -0.42696941326E+03 -0.96720369696E+03  0.10633471281E+04  0.00000000000E+00 0. -1.
        -13    1    3    3    0    0 -0.62910197966E+00 -0.56100426365E+02 -0.66861465286E+02  0.87281780160E+02  0.00000000000E+00 0.  1.
          4    1    6    6  502    0 -0.19381804641E+02 -0.91911223150E+02 -0.15396861405E+03  0.18035981095E+03  0.00000000000E+00 0. -1.
          3    1    5    5  503    0 -0.23070647001E+02  0.14887616493E+03 -0.68477319912E+02  0.16548568089E+03  0.00000000000E+00 0. -1.
         -4    1    5    5    0  503  0.63727988321E+02  0.54738664791E+03 -0.30694488264E+03  0.63079993642E+03  0.00000000000E+00 0.  1.
         -3    1    6    6    0  502 -0.13431808277E+03 -0.12128175007E+03 -0.27719195381E+03  0.33103774636E+03  0.00000000000E+00 0.  1.
<mgrwt>
<rscale>  0 0.16295133E+04</rscale>
<asrwt>0</asrwt>
<pdfrwt beam="1">  1        1 0.33068924E+00 0.16295133E+04</pdfrwt>
<pdfrwt beam="2">  1       -1 0.47512626E-01 0.16295133E+04</pdfrwt>
<totfact> 0.99892871E+00</totfact>
</mgrwt>
</event>
<event>
12    1  0.1518126E-007  0.1625597E+04  0.7818608E-02  0.8804975E-01
          2   -1    0    0  501    0  0.00000000000E+00  0.00000000000E+00  0.30362802587E+04  0.30362802587E+04  0.00000000000E+00 0. -1.
         -2   -1    0    0    0  501 -0.00000000000E+00 -0.00000000000E+00 -0.21758251058E+03  0.21758251058E+03  0.00000000000E+00 0.  1.
         23    2    1    2    0    0  0.11490581368E+02 -0.49015529545E+03  0.13883933404E+04  0.14754504959E+04  0.94519052175E+02 0.  0.
        254    2    1    2    0    0 -0.11490581368E+02  0.49015529545E+03  0.14303044078E+04  0.17784122734E+04  0.93626666505E+03 0.  0.
        -24    2    4    4    0    0  0.27814396417E+02  0.57563438498E+03  0.15185270505E+04  0.16260820372E+04  0.78037187599E+02 0.  0.
         24    2    4    4    0    0 -0.39304977785E+02 -0.85479089529E+02 -0.88222642794E+02  0.15233023616E+03  0.81053748346E+02 0.  0.
         11    1    3    3    0    0 -0.18867456823E+02 -0.17678781480E+02  0.69746230249E+02  0.74384520403E+02  0.00000000000E+00 0.  1.
        -11    1    3    3    0    0  0.30358038191E+02 -0.47247651397E+03  0.13186471101E+04  0.14010659755E+04  0.00000000000E+00 0. -1.
          4    1    6    6  502    0 -0.61223077865E+01  0.11217038359E+02  0.52430716258E+01  0.13812834693E+02  0.00000000000E+00 0. -1.
          1    1    5    5  503    0 -0.59728510424E+01  0.70495023616E+02  0.12785139476E+03  0.14612050659E+03  0.00000000000E+00 0. -1.
         -2    1    5    5    0  503  0.33787247460E+02  0.50513936136E+03  0.13906756558E+04  0.14799615306E+04  0.00000000000E+00 0.  1.
         -3    1    6    6    0  502 -0.33182669999E+02 -0.96696127888E+02 -0.93465714420E+02  0.13851740147E+03  0.00000000000E+00 0.  1.
<mgrwt>
<rscale>  0 0.16255971E+04</rscale>
<asrwt>0</asrwt>
<pdfrwt beam="1">  1        2 0.46712001E+00 0.16255971E+04</pdfrwt>
<pdfrwt beam="2">  1       -2 0.33474235E-01 0.16255971E+04</pdfrwt>
<totfact> 0.13266767E+01</totfact>
</mgrwt>
</event>
<event>
12    1  0.1518126E-007  0.2237845E+04  0.7818608E-02  0.8502839E-01
         -2   -1    0    0    0  501 -0.00000000000E+00  0.00000000000E+00  0.56653095986E+03  0.56653095986E+03  0.00000000000E+00 0.  1.
          2   -1    0    0  501    0  0.00000000000E+00 -0.00000000000E+00 -0.22099198033E+04  0.22099198033E+04  0.00000000000E+00 0. -1.
         23    2    1    2    0    0 -0.71213113402E+03  0.41893735493E+03 -0.14635817102E+03  0.84415905991E+03  0.92436707031E+02 0.  0.
        254    2    1    2    0    0  0.71213113402E+03 -0.41893735493E+03 -0.14970306724E+04  0.19322917032E+04  0.90000618491E+03 0.  0.
        -24    2    4    4    0    0  0.52519480322E+03 -0.62571543545E+03 -0.68153865107E+03  0.10668414699E+04  0.79412855328E+02 0.  0.
         24    2    4    4    0    0  0.18693633080E+03  0.20677808052E+03 -0.81549202134E+03  0.86545023330E+03  0.79211761071E+02 0.  0.
         11    1    3    3    0    0 -0.16499027062E+02 -0.36057606789E+01  0.14038091450E+01  0.16946683575E+02  0.00000000000E+00 0. -1.
        -11    1    3    3    0    0 -0.69563210695E+03  0.42254311561E+03 -0.14776198016E+03  0.82721237633E+03  0.00000000000E+00 0.  1.
          2    1    6    6  502    0  0.10343942174E+03  0.10231386633E+03 -0.30801624673E+03  0.34064915890E+03  0.00000000000E+00 0. -1.
          1    1    5    5  503    0  0.10304878363E+03 -0.17598204129E+03 -0.17182249090E+03  0.26666776904E+03  0.00000000000E+00 0. -1.
         -2    1    5    5    0  503  0.42214601958E+03 -0.44973339416E+03 -0.50971616018E+03  0.80017370090E+03  0.00000000000E+00 0.  1.
         -1    1    6    6    0  502  0.83496909060E+02  0.10446421419E+03 -0.50747577462E+03  0.52480107440E+03  0.00000000000E+00 0.  1.
<mgrwt>
<rscale>  0 0.22378454E+04</rscale>
<asrwt>0</asrwt>
<pdfrwt beam="1">  1        2 0.33998766E+00 0.22378454E+04</pdfrwt>
<pdfrwt beam="2">  1       -2 0.87158610E-01 0.22378454E+04</pdfrwt>
<totfact> 0.52845224E+00</totfact>
</mgrwt>
</event>
<event>
12    1  0.1518126E-007  0.1633245E+04  0.7818608E-02  0.8800381E-01
         -2   -1    0    0    0  501 -0.00000000000E+00  0.00000000000E+00  0.45117217272E+03  0.45117217272E+03  0.00000000000E+00 0.  1.
          2   -1    0    0  501    0  0.00000000000E+00 -0.00000000000E+00 -0.14780874091E+04  0.14780874091E+04  0.00000000000E+00 0. -1.
         23    2    1    2    0    0 -0.29931213477E+03  0.27821292923E+03 -0.82515721805E+03  0.92532390384E+03  0.91376717546E+02 0.  0.
        254    2    1    2    0    0  0.29931213477E+03 -0.27821292923E+03 -0.20175801828E+03  0.10039356779E+04  0.89453359886E+03 0.  0.
        -24    2    4    4    0    0 -0.28840909526E+03  0.42642025311E+02 -0.11695202722E+02  0.30256510155E+03  0.80066936751E+02 0.  0.
         24    2    4    4    0    0  0.58772123003E+03 -0.32085495454E+03 -0.19006281556E+03  0.70137057639E+03  0.86212907918E+02 0.  0.
         11    1    3    3    0    0 -0.22134952643E+03  0.15133389008E+03 -0.56927707482E+03  0.62926460813E+03  0.00000000000E+00 0. -1.
        -11    1    3    3    0    0 -0.77962608344E+02  0.12687903914E+03 -0.25588014323E+03  0.29605929571E+03  0.00000000000E+00 0.  1.
          2    1    6    6  502    0  0.30592095476E+03 -0.21088612462E+03 -0.12432498875E+03  0.39181282642E+03  0.00000000000E+00 0. -1.
          3    1    5    5  503    0 -0.15602889446E+03  0.48197070538E+02 -0.37560902780E+02  0.16756728479E+03  0.00000000000E+00 0. -1.
         -4    1    5    5    0  503 -0.13238020079E+03 -0.55550452269E+01  0.25865700057E+02  0.13499781676E+03  0.00000000000E+00 0.  1.
         -1    1    6    6    0  502  0.28180027527E+03 -0.10996882992E+03 -0.65737826807E+02  0.30955774997E+03  0.00000000000E+00 0.  1.
<mgrwt>
<rscale>  0 0.16332445E+04</rscale>
<asrwt>0</asrwt>
<pdfrwt beam="1">  1        2 0.22739807E+00 0.16332445E+04</pdfrwt>
<pdfrwt beam="2">  1       -2 0.69411102E-01 0.16332445E+04</pdfrwt>
<totfact> 0.23655101E+01</totfact>
</mgrwt>
</event>
<event>
12    1  0.1518126E-007  0.1931059E+04  0.7818608E-02  0.8639549E-01
          1   -1    0    0  501    0  0.00000000000E+00  0.00000000000E+00  0.10195957439E+04  0.10195957439E+04  0.00000000000E+00 0. -1.
         -1   -1    0    0    0  501 -0.00000000000E+00 -0.00000000000E+00 -0.91433001886E+03  0.91433001886E+03  0.00000000000E+00 0.  1.
         23    2    1    2    0    0 -0.62426231685E+03  0.42384863098E+03  0.54415431381E+02  0.76185250968E+03  0.90039464207E+02 0.  0.
        254    2    1    2    0    0  0.62426231685E+03 -0.42384863098E+03  0.50850293617E+02  0.11720732530E+04  0.89544338508E+03 0.  0.
        -24    2    4    4    0    0  0.62697328683E+03 -0.64157818029E+03 -0.83984044250E+02  0.90449715935E+03  0.79647522076E+02 0.  0.
         24    2    4    4    0    0 -0.27109699758E+01  0.21772954930E+03  0.13483433787E+03  0.26757609368E+03  0.77480069977E+02 0.  0.
         13    1    3    3    0    0 -0.35436867815E+03  0.29295589139E+03  0.40681208584E+02  0.46157911032E+03  0.00000000000E+00 0. -1.
        -13    1    3    3    0    0 -0.26989363870E+03  0.13089273960E+03  0.13734222796E+02  0.30027339937E+03  0.00000000000E+00 0.  1.
          2    1    6    6  502    0  0.31658010044E+02  0.48944826853E+02  0.26010397829E+02  0.63830764297E+02  0.00000000000E+00 0. -1.
          3    1    5    5  503    0  0.10323810679E+03 -0.10856319160E+03 -0.44100504532E+02  0.15616954813E+03  0.00000000000E+00 0. -1.
         -4    1    5    5    0  503  0.52373518004E+03 -0.53301498869E+03 -0.39883539718E+02  0.74832761122E+03  0.00000000000E+00 0.  1.
         -1    1    6    6    0  502 -0.34368980019E+02  0.16878472245E+03  0.10882394004E+03  0.20374532938E+03  0.00000000000E+00 0.  1.
<mgrwt>
<rscale>  0 0.19310588E+04</rscale>
<asrwt>0</asrwt>
<pdfrwt beam="1">  1        1 0.15686088E+00 0.19310588E+04</pdfrwt>
<pdfrwt beam="2">  1       -1 0.14066616E+00 0.19310588E+04</pdfrwt>
<totfact> 0.56436102E+00</totfact>
</mgrwt>
</event>
<event>
12    1  0.1518126E-007  0.1761187E+04  0.7818608E-02  0.8727217E-01
         -1   -1    0    0    0  501 -0.00000000000E+00  0.00000000000E+00  0.60347847519E+03  0.60347847519E+03  0.00000000000E+00 0.  1.
          1   -1    0    0  501    0  0.00000000000E+00 -0.00000000000E+00 -0.12849584937E+04  0.12849584937E+04  0.00000000000E+00 0. -1.
         23    2    1    2    0    0  0.38331558032E+03 -0.78161222583E+02  0.27462697065E+03  0.48650484497E+03  0.90702703039E+02 0.  0.
        254    2    1    2    0    0 -0.38331558032E+03  0.78161222583E+02 -0.95610698913E+03  0.14019321239E+04  0.94775159958E+03 0.  0.
        -24    2    4    4    0    0 -0.48357026508E+02 -0.13318106500E+03 -0.98359454156E+03  0.99689960392E+03  0.79214897687E+02 0.  0.
         24    2    4    4    0    0 -0.33495855381E+03  0.21134228759E+03  0.27487552430E+02  0.40503251997E+03  0.80205868887E+02 0.  0.
         11    1    3    3    0    0  0.33820452547E+03 -0.38826025497E+02  0.21893290733E+03  0.40474853825E+03  0.00000000000E+00 0.  1.
        -11    1    3    3    0    0  0.45111054855E+02 -0.39335197085E+02  0.55694063316E+02  0.81756306720E+02  0.00000000000E+00 0. -1.
          4    1    6    6  502    0 -0.12832241963E+03  0.66161955451E+02 -0.26502450093E+02  0.14678701438E+03  0.00000000000E+00 0. -1.
          3    1    5    5  503    0 -0.20596281105E+01 -0.10975080296E+03 -0.62416842257E+03  0.63374734757E+03  0.00000000000E+00 0. -1.
         -4    1    5    5    0  503 -0.46297398398E+02 -0.23430262042E+02 -0.35942611899E+03  0.36315225635E+03  0.00000000000E+00 0.  1.
         -3    1    6    6    0  502 -0.20663613418E+03  0.14518033214E+03  0.53990002523E+02  0.25824550560E+03  0.00000000000E+00 0.  1.
<mgrwt>
<rscale>  0 0.17611869E+04</rscale>
<asrwt>0</asrwt>
<pdfrwt beam="1">  1        1 0.19768592E+00 0.17611869E+04</pdfrwt>
<pdfrwt beam="2">  1       -1 0.92842844E-01 0.17611869E+04</pdfrwt>
<totfact> 0.98972482E+00</totfact>
</mgrwt>
</event>
<event>
12    1  0.1518126E-007  0.1672027E+04  0.7818608E-02  0.8777481E-01
         -1   -1    0    0    0  501 -0.00000000000E+00  0.00000000000E+00  0.86450004034E+03  0.86450004034E+03  0.00000000000E+00 0.  1.
          1   -1    0    0  501    0  0.00000000000E+00 -0.00000000000E+00 -0.80846568643E+03  0.80846568643E+03  0.00000000000E+00 0. -1.
         23    2    1    2    0    0  0.48668464234E+02 -0.39415927555E+03  0.45966712102E+03  0.61350203697E+03  0.85794716103E+02 0.  0.
        254    2    1    2    0    0 -0.48668464234E+02  0.39415927555E+03 -0.40363276711E+03  0.10594636898E+04  0.89544053147E+03 0.  0.
        -24    2    4    4    0    0 -0.67020156321E+02  0.10202683934E+03 -0.65148523360E+03  0.66782842701E+03  0.81612627912E+02 0.  0.
         24    2    4    4    0    0  0.18351692087E+02  0.29213243620E+03  0.24785246649E+03  0.39163526278E+03  0.79178210551E+02 0.  0.
         11    1    3    3    0    0 -0.68429429424E+01 -0.23671384990E+03  0.23526326907E+03  0.33380994349E+03  0.00000000000E+00 0.  1.
        -11    1    3    3    0    0  0.55511407176E+02 -0.15744542565E+03  0.22440385195E+03  0.27969209348E+03  0.00000000000E+00 0. -1.
          4    1    6    6  502    0  0.30571254851E+02  0.38973818609E+02  0.46434391158E+02  0.67894866097E+02  0.00000000000E+00 0. -1.
          3    1    5    5  503    0 -0.17823745975E+02  0.71757420337E+01 -0.21451705361E+02  0.28798487065E+02  0.00000000000E+00 0. -1.
         -4    1    5    5    0  503 -0.49196410346E+02  0.94851097311E+02 -0.63003352824E+03  0.63902993995E+03  0.00000000000E+00 0.  1.
         -3    1    6    6    0  502 -0.12219562764E+02  0.25315861759E+03  0.20141807533E+03  0.32374039668E+03  0.00000000000E+00 0.  1.
<mgrwt>
<rscale>  0 0.16720271E+04</rscale>
<asrwt>0</asrwt>
<pdfrwt beam="1">  1        1 0.12437934E+00 0.16720271E+04</pdfrwt>
<pdfrwt beam="2">  1       -1 0.13300001E+00 0.16720271E+04</pdfrwt>
<totfact> 0.99246653E+00</totfact>
</mgrwt>
</event>
<event>
12    1  0.1518126E-007  0.3085634E+04  0.7818608E-02  0.8219692E-01
         -1   -1    0    0    0  501 -0.00000000000E+00  0.00000000000E+00  0.17177543009E+04  0.17177543009E+04  0.00000000000E+00 0.  1.
          1   -1    0    0  501    0  0.00000000000E+00 -0.00000000000E+00 -0.13856952967E+04  0.13856952967E+04  0.00000000000E+00 0. -1.
         23    2    1    2    0    0  0.41718349126E+03  0.62336848506E+03  0.13517817484E+04  0.15485671479E+04  0.90088749149E+02 0.  0.
        254    2    1    2    0    0 -0.41718349126E+03 -0.62336848506E+03 -0.10197227442E+04  0.15548824496E+04  0.90288128982E+03 0.  0.
        -24    2    4    4    0    0  0.91578708421E+02  0.12931939831E+03 -0.43943007950E+03  0.47374801749E+03  0.78919089519E+02 0.  0.
         24    2    4    4    0    0 -0.50876219969E+03 -0.75268788337E+03 -0.58029266474E+03  0.10811344321E+04  0.82061306438E+02 0.  0.
         11    1    3    3    0    0  0.10937903429E+03  0.12388002057E+03  0.23873921042E+03  0.29035571844E+03  0.00000000000E+00 0. -1.
        -11    1    3    3    0    0  0.30780445697E+03  0.49948846450E+03  0.11130425380E+04  0.12582114295E+04  0.00000000000E+00 0.  1.
          4    1    6    6  502    0 -0.43695232659E+03 -0.63754104359E+03 -0.45773754271E+03  0.89828145699E+03  0.00000000000E+00 0. -1.
          1    1    5    5  503    0  0.55737153225E+02  0.10526231525E+03 -0.22060285629E+03  0.25070382020E+03  0.00000000000E+00 0. -1.
         -2    1    5    5    0  503  0.35841555196E+02  0.24057083055E+02 -0.21882722322E+03  0.22304419729E+03  0.00000000000E+00 0.  1.
         -3    1    6    6    0  502 -0.71809873098E+02 -0.11514683978E+03 -0.12255512203E+03  0.18285297515E+03  0.00000000000E+00 0.  1.
<mgrwt>
<rscale>  0 0.30856338E+04</rscale>
<asrwt>0</asrwt>
<pdfrwt beam="1">  1        1 0.21318389E+00 0.30856338E+04</pdfrwt>
<pdfrwt beam="2">  1       -1 0.26426989E+00 0.30856338E+04</pdfrwt>
<totfact> 0.37392454E-01</totfact>
</mgrwt>
</event>
<event>
12    1  0.1518126E-007  0.1307892E+04  0.7818608E-02  0.9023330E-01
         -2   -1    0    0    0  501 -0.00000000000E+00  0.00000000000E+00  0.43637975665E+03  0.43637975665E+03  0.00000000000E+00 0. -1.
          2   -1    0    0  501    0  0.00000000000E+00 -0.00000000000E+00 -0.97998457546E+03  0.97998457546E+03  0.00000000000E+00 0.  1.
         23    2    1    2    0    0 -0.17851837171E+03 -0.22634511583E+01 -0.45048703987E+03  0.49331387134E+03  0.92444958300E+02 0.  0.
        254    2    1    2    0    0  0.17851837171E+03  0.22634511583E+01 -0.93117778931E+02  0.92305046077E+03  0.90082034842E+03 0.  0.
        -24    2    4    4    0    0 -0.33997920025E+02 -0.44859990413E+02  0.38217463500E+03  0.39473646873E+03  0.81185902734E+02 0.  0.
         24    2    4    4    0    0  0.21251629173E+03  0.47123441571E+02 -0.47529241393E+03  0.52831399204E+03  0.76347904020E+02 0.  0.
         11    1    3    3    0    0 -0.22326827017E+02  0.49006111223E+00 -0.74494393041E+01  0.23541909661E+02  0.00000000000E+00 0. -1.
        -11    1    3    3    0    0 -0.15619154469E+03 -0.27535122706E+01 -0.44303760057E+03  0.46977196168E+03  0.00000000000E+00 0.  1.
          2    1    6    6  502    0  0.18908745914E+03  0.66038417398E+02 -0.40396384971E+03  0.45089015475E+03  0.00000000000E+00 0. -1.
          3    1    5    5  503    0 -0.42219339485E+02 -0.64628375480E+02  0.30871716041E+03  0.31822253954E+03  0.00000000000E+00 0. -1.
         -4    1    5    5    0  503  0.82214194601E+01  0.19768385067E+02  0.73457474593E+02  0.76513929187E+02  0.00000000000E+00 0.  1.
         -1    1    6    6    0  502  0.23428832592E+02 -0.18914975827E+02 -0.71328564225E+02  0.77423837295E+02  0.00000000000E+00 0.  1.
<mgrwt>
<rscale>  0 0.13078921E+04</rscale>
<asrwt>0</asrwt>
<pdfrwt beam="1">  1        2 0.15076686E+00 0.13078921E+04</pdfrwt>
<pdfrwt beam="2">  1       -2 0.67135347E-01 0.13078921E+04</pdfrwt>
<totfact> 0.51770046E+01</totfact>
</mgrwt>
</event>
<event>
12    1  0.1518126E-007  0.2337753E+04  0.7818608E-02  0.8463183E-01
          2   -1    0    0  501    0  0.00000000000E+00  0.00000000000E+00  0.28530559491E+04  0.28530559491E+04  0.00000000000E+00 0. -1.
         -2   -1    0    0    0  501 -0.00000000000E+00 -0.00000000000E+00 -0.47888016985E+03  0.47888016985E+03  0.00000000000E+00 0.  1.
         23    2    1    2    0    0 -0.53367648623E+03  0.39923730134E+03 -0.36719105298E+02  0.67354049205E+03  0.90041584787E+02 0.  0.
        254    2    1    2    0    0  0.53367648623E+03 -0.39923730134E+03  0.24108948846E+04  0.26583956269E+04  0.90025115945E+03 0.  0.
        -24    2    4    4    0    0  0.72065890308E+03 -0.42107712534E+03  0.22407800995E+04  0.23925260784E+04  0.80189659946E+02 0.  0.
         24    2    4    4    0    0 -0.18698241685E+03  0.21839823997E+02  0.17011478514E+03  0.26586954857E+03  0.79424017847E+02 0.  0.
         11    1    3    3    0    0 -0.52913981823E+02  0.10512986012E+02  0.28254007514E+01  0.54022173565E+02  0.00000000000E+00 0. -1.
        -11    1    3    3    0    0 -0.48076250441E+03  0.38872431533E+03 -0.39544506049E+02  0.61951831848E+03  0.00000000000E+00 0.  1.
          4    1    6    6  502    0 -0.12908428146E+03 -0.85393639305E+01  0.72256455751E+02  0.14817782511E+03  0.00000000000E+00 0. -1.
          1    1    5    5  503    0  0.31808002368E+03 -0.21556784273E+03  0.11175265385E+04  0.11817402255E+04  0.00000000000E+00 0. -1.
         -2    1    5    5    0  503  0.40257887940E+03 -0.20550928261E+03  0.11232535610E+04  0.12107858529E+04  0.00000000000E+00 0.  1.
         -3    1    6    6    0  502 -0.57898135387E+02  0.30379187928E+02  0.97858329386E+02  0.11769172346E+03  0.00000000000E+00 0.  1.
<mgrwt>
<rscale>  0 0.23377527E+04</rscale>
<asrwt>0</asrwt>
<pdfrwt beam="1">  1        2 0.43893168E+00 0.23377527E+04</pdfrwt>
<pdfrwt beam="2">  1       -2 0.73673874E-01 0.23377527E+04</pdfrwt>
<totfact> 0.32244116E+00</totfact>
</mgrwt>
</event>
<event>
12    1  0.1518126E-007  0.2212087E+04  0.7818608E-02  0.8513414E-01
         -2   -1    0    0    0  501 -0.00000000000E+00  0.00000000000E+00  0.72466595723E+03  0.72466595723E+03  0.00000000000E+00 0.  1.
          2   -1    0    0  501    0  0.00000000000E+00 -0.00000000000E+00 -0.16881333134E+04  0.16881333134E+04  0.00000000000E+00 0. -1.
         23    2    1    2    0    0 -0.16867495872E+01  0.27766931381E+03  0.55124994657E+03  0.62378709798E+03  0.90170655168E+02 0.  0.
        254    2    1    2    0    0  0.16867495872E+01 -0.27766931381E+03 -0.15147173027E+04  0.17890121727E+04  0.91054541555E+03 0.  0.
        -24    2    4    4    0    0 -0.12054514589E+03 -0.35709576455E+03 -0.15677484428E+04  0.16144022473E+04  0.80068214256E+02 0.  0.
         24    2    4    4    0    0  0.12223189548E+03  0.79426450732E+02  0.53031140047E+02  0.17460992538E+03  0.80169363706E+02 0.  0.
         13    1    3    3    0    0  0.22614087483E+02  0.47209104584E+02  0.54096208013E+02  0.75276133201E+02  0.00000000000E+00 0. -1.
        -13    1    3    3    0    0 -0.24300837070E+02  0.23046020923E+03  0.49715373855E+03  0.54851096477E+03  0.00000000000E+00 0.  1.
          2    1    6    6  502    0  0.51972662551E+02  0.58447026719E+02  0.63236344451E+02  0.10057856553E+03  0.00000000000E+00 0. -1.
          3    1    5    5  503    0  0.31504011862E+00 -0.10411381480E+03 -0.37923864358E+03  0.39327056140E+03  0.00000000000E+00 0. -1.
         -4    1    5    5    0  503 -0.12086018601E+03 -0.25298194974E+03 -0.11885097992E+04  0.12211316859E+04  0.00000000000E+00 0.  1.
         -1    1    6    6    0  502  0.70259232928E+02  0.20979424013E+02 -0.10205204404E+02  0.74031359845E+02  0.00000000000E+00 0.  1.
<mgrwt>
<rscale>  0 0.22120875E+04</rscale>
<asrwt>0</asrwt>
<pdfrwt beam="1">  1        2 0.25971281E+00 0.22120875E+04</pdfrwt>
<pdfrwt beam="2">  1       -2 0.11148707E+00 0.22120875E+04</pdfrwt>
<totfact> 0.57828030E+00</totfact>
</mgrwt>
</event>
<event>
12    1  0.1518126E-007  0.1395170E+04  0.7818608E-02  0.8957322E-01
         -2   -1    0    0    0  501 -0.00000000000E+00  0.00000000000E+00  0.34002852841E+03  0.34002852841E+03  0.00000000000E+00 0.  1.
          2   -1    0    0  501    0  0.00000000000E+00 -0.00000000000E+00 -0.14311299723E+04  0.14311299723E+04  0.00000000000E+00 0. -1.
         23    2    1    2    0    0 -0.26846139458E+03 -0.29583187366E+03 -0.26200280955E+03  0.48653149487E+03  0.92083687143E+02 0.  0.
        254    2    1    2    0    0  0.26846139458E+03  0.29583187366E+03 -0.82909863437E+03  0.12846270059E+04  0.89625553322E+03 0.  0.
        -24    2    4    4    0    0  0.48840054466E+03 -0.10898979065E+03 -0.35930472640E+03  0.62126841306E+03  0.80378406060E+02 0.  0.
         24    2    4    4    0    0 -0.21993915009E+03  0.40482166431E+03 -0.46979390796E+03  0.66335859280E+03  0.84169454331E+02 0.  0.
         13    1    3    3    0    0 -0.22627018927E+03 -0.22599249692E+03 -0.24579370872E+03  0.40334272581E+03  0.00000000000E+00 0. -1.
        -13    1    3    3    0    0 -0.42191205306E+02 -0.69839376737E+02 -0.16209100833E+02  0.83188769062E+02  0.00000000000E+00 0.  1.
          2    1    6    6  502    0 -0.61160353090E+02  0.12850939634E+03 -0.93671969751E+02  0.17038101905E+03  0.00000000000E+00 0. -1.
          3    1    5    5  503    0  0.97772777344E+01 -0.16453226541E+02 -0.17059544931E+02  0.25638484682E+02  0.00000000000E+00 0. -1.
         -4    1    5    5    0  503  0.47862326693E+03 -0.92536564110E+02 -0.34224518147E+03  0.59562992838E+03  0.00000000000E+00 0.  1.
         -1    1    6    6    0  502 -0.15877879700E+03  0.27631226797E+03 -0.37612193821E+03  0.49297757374E+03  0.00000000000E+00 0.  1.
<mgrwt>
<rscale>  0 0.13951703E+04</rscale>
<asrwt>0</asrwt>
<pdfrwt beam="1">  1        2 0.22017384E+00 0.13951703E+04</pdfrwt>
<pdfrwt beam="2">  1       -2 0.52312081E-01 0.13951703E+04</pdfrwt>
<totfact> 0.46633008E+01</totfact>
</mgrwt>
</event>
<event>
12    1  0.1518126E-007  0.2224549E+04  0.7818608E-02  0.8508279E-01
         -2   -1    0    0    0  501 -0.00000000000E+00  0.00000000000E+00  0.35254272374E+03  0.35254272374E+03  0.00000000000E+00 0.  1.
          2   -1    0    0  501    0  0.00000000000E+00 -0.00000000000E+00 -0.35092322965E+04  0.35092322965E+04  0.00000000000E+00 0. -1.
         23    2    1    2    0    0 -0.43852817213E+03 -0.81065327259E+03 -0.11252612673E+04  0.14579373599E+04  0.99512508936E+02 0.  0.
        254    2    1    2    0    0  0.43852817213E+03  0.81065327259E+03 -0.20314283054E+04  0.24038376604E+04  0.89569461941E+03 0.  0.
        -24    2    4    4    0    0  0.30795350411E+03  0.64297331201E+02 -0.13258528798E+04  0.13652973503E+04  0.84743663455E+02 0.  0.
         24    2    4    4    0    0  0.13057466802E+03  0.74635594139E+03 -0.70557542565E+03  0.10385403101E+04  0.81439297316E+02 0.  0.
         11    1    3    3    0    0 -0.41395536033E+03 -0.74452058164E+03 -0.99539953601E+03  0.13101489126E+04  0.00000000000E+00 0.  1.
        -11    1    3    3    0    0 -0.24572811793E+02 -0.66132690947E+02 -0.12986173131E+03  0.14778844728E+03  0.00000000000E+00 0. -1.
          4    1    6    6  502    0  0.11635136346E+03  0.71970328047E+03 -0.69284988852E+03  0.10057591261E+04  0.00000000000E+00 0. -1.
          1    1    5    5  503    0  0.14893523382E+03 -0.12010449255E+02 -0.61343056361E+03  0.63136598826E+03  0.00000000000E+00 0. -1.
         -2    1    5    5    0  503  0.15901827029E+03  0.76307780457E+02 -0.71242231618E+03  0.73393136207E+03  0.00000000000E+00 0.  1.
         -3    1    6    6    0  502  0.14223304552E+02  0.26652660916E+02 -0.12725537129E+02  0.32781183955E+02  0.00000000000E+00 0.  1.
<mgrwt>
<rscale>  0 0.22245488E+04</rscale>
<asrwt>0</asrwt>
<pdfrwt beam="1">  1        2 0.53988188E+00 0.22245488E+04</pdfrwt>
<pdfrwt beam="2">  1       -2 0.54237343E-01 0.22245488E+04</pdfrwt>
<totfact> 0.23462011E+00</totfact>
</mgrwt>
</event>
<event>
12    1  0.1518126E-007  0.1990146E+04  0.7818608E-02  0.8611242E-01
          2   -1    0    0  501    0  0.00000000000E+00  0.00000000000E+00  0.14402783405E+04  0.14402783405E+04  0.00000000000E+00 0.  1.
         -2   -1    0    0    0  501 -0.00000000000E+00 -0.00000000000E+00 -0.68748544417E+03  0.68748544417E+03  0.00000000000E+00 0. -1.
         23    2    1    2    0    0  0.63410478770E+03  0.45622998210E+03  0.40599046409E+03  0.88388407929E+03  0.78664670254E+02 0.  0.
        254    2    1    2    0    0 -0.63410478770E+03 -0.45622998210E+03  0.34680243220E+03  0.12438797053E+04  0.90373121891E+03 0.  0.
        -24    2    4    4    0    0 -0.13761364510E+03  0.43654621866E+02  0.49267567480E+03  0.51992745127E+03  0.82170510020E+02 0.  0.
         24    2    4    4    0    0 -0.49649114261E+03 -0.49988460397E+03 -0.14587324260E+03  0.72395225407E+03  0.80248310254E+02 0.  0.
         11    1    3    3    0    0  0.17568477892E+03  0.88510508439E+02  0.85530515789E+02  0.21451042115E+03  0.00000000000E+00 0. -1.
        -11    1    3    3    0    0  0.45842000878E+03  0.36771947366E+03  0.32045994830E+03  0.66937365815E+03  0.00000000000E+00 0.  1.
          2    1    6    6  502    0 -0.43374503279E+03 -0.42361827387E+03 -0.97850548135E+02  0.61413510337E+03  0.00000000000E+00 0. -1.
          1    1    5    5  503    0 -0.46864526352E+02  0.54147955576E+02  0.26766484438E+03  0.27707896680E+03  0.00000000000E+00 0. -1.
         -2    1    5    5    0  503 -0.90749118743E+02 -0.10493333710E+02  0.22501083042E+03  0.24284848447E+03  0.00000000000E+00 0.  1.
         -1    1    6    6    0  502 -0.62746109819E+02 -0.76266330096E+02 -0.48022694466E+02  0.10981715070E+03  0.00000000000E+00 0.  1.
<mgrwt>
<rscale>  0 0.19901461E+04</rscale>
<asrwt>0</asrwt>
<pdfrwt beam="1">  1        2 0.22158128E+00 0.19901461E+04</pdfrwt>
<pdfrwt beam="2">  1       -2 0.10576699E+00 0.19901461E+04</pdfrwt>
<totfact> 0.92186289E+00</totfact>
</mgrwt>
</event>
<event>
12    1  0.1518126E-007  0.2825452E+04  0.7818608E-02  0.8295410E-01
          2   -1    0    0  501    0  0.00000000000E+00  0.00000000000E+00  0.10828297241E+04  0.10828297241E+04  0.00000000000E+00 0.  1.
         -2   -1    0    0    0  501 -0.00000000000E+00 -0.00000000000E+00 -0.18431286339E+04  0.18431286339E+04  0.00000000000E+00 0. -1.
         23    2    1    2    0    0  0.11322584423E+04  0.38821919670E+03 -0.77679710614E+03  0.14299473584E+04  0.92802903228E+02 0.  0.
        254    2    1    2    0    0 -0.11322584423E+04 -0.38821919670E+03  0.16498196400E+02  0.14960109996E+04  0.89724767788E+03 0.  0.
        -24    2    4    4    0    0 -0.29404550933E+03  0.25188695878E+03 -0.15488421422E+03  0.42445558091E+03  0.79143027434E+02 0.  0.
         24    2    4    4    0    0 -0.83821293298E+03 -0.64010615547E+03  0.17138241062E+03  0.10715554187E+04  0.80760592452E+02 0.  0.
         13    1    3    3    0    0  0.30434896580E+03  0.61560811877E+02 -0.19717138240E+03  0.36782411637E+03  0.00000000000E+00 0.  1.
        -13    1    3    3    0    0  0.82790947651E+03  0.32665838482E+03 -0.57962572374E+03  0.10621232420E+04  0.00000000000E+00 0. -1.
          4    1    6    6  502    0 -0.51991337477E+02 -0.17511913609E+02  0.10359556643E+02  0.55830875909E+02  0.00000000000E+00 0. -1.
          1    1    5    5  503    0 -0.22869453466E+03  0.19598025019E+03 -0.15440402963E+03  0.33845243833E+03  0.00000000000E+00 0. -1.
         -4    1    5    5    0  503 -0.65350974674E+02  0.55906708590E+02 -0.48018458699E+00  0.86003142579E+02  0.00000000000E+00 0.  1.
         -3    1    6    6    0  502 -0.78622159550E+03 -0.62259424186E+03  0.16102285398E+03  0.10157245427E+04  0.00000000000E+00 0.  1.
<mgrwt>
<rscale>  0 0.28254518E+04</rscale>
<asrwt>0</asrwt>
<pdfrwt beam="1">  1        2 0.16658919E+00 0.28254518E+04</pdfrwt>
<pdfrwt beam="2">  1       -2 0.28355825E+00 0.28254518E+04</pdfrwt>
<totfact> 0.77662539E-01</totfact>
</mgrwt>
</event>
<event>
12    1  0.1518126E-007  0.1695500E+04  0.7818608E-02  0.8763935E-01
          2   -1    0    0  501    0  0.00000000000E+00  0.00000000000E+00  0.26661041256E+04  0.26661041256E+04  0.00000000000E+00 0. -1.
         -2   -1    0    0    0  501 -0.00000000000E+00 -0.00000000000E+00 -0.26956178837E+03  0.26956178837E+03  0.00000000000E+00 0.  1.
         23    2    1    2    0    0 -0.55763019461E+03 -0.22741452224E+03  0.96682175424E+03  0.11427464155E+04  0.91957962071E+02 0.  0.
        254    2    1    2    0    0  0.55763019461E+03  0.22741452224E+03  0.14297205830E+04  0.17929194985E+04  0.89877170835E+03 0.  0.
        -24    2    4    4    0    0  0.43133427435E+03 -0.26378626940E+03  0.42730001486E+03  0.66678665634E+03  0.79916770571E+02 0.  0.
         24    2    4    4    0    0  0.12629592027E+03  0.49120079163E+03  0.10024205682E+04  0.11261328422E+04  0.78098050953E+02 0.  0.
         13    1    3    3    0    0 -0.54542130165E+03 -0.22665151641E+03  0.96340372149E+03  0.11300451481E+04  0.00000000000E+00 0.  1.
        -13    1    3    3    0    0 -0.12208892966E+02 -0.76300582283E+00  0.34180327493E+01  0.12701267387E+02  0.00000000000E+00 0. -1.
          2    1    6    6  502    0  0.96704162980E+01  0.12686214895E+03  0.30940305100E+03  0.33454113314E+03  0.00000000000E+00 0. -1.
          3    1    5    5  503    0  0.25641866301E+03 -0.11017463305E+03  0.23260369896E+03  0.36330904376E+03  0.00000000000E+00 0. -1.
         -4    1    5    5    0  503  0.17491561134E+03 -0.15361163634E+03  0.19469631590E+03  0.30347761258E+03  0.00000000000E+00 0.  1.
         -1    1    6    6    0  502  0.11662550397E+03  0.36433864268E+03  0.69301751715E+03  0.79159170903E+03  0.00000000000E+00 0.  1.
<mgrwt>
<rscale>  0 0.16954997E+04</rscale>
<asrwt>0</asrwt>
<pdfrwt beam="1">  1        2 0.41016985E+00 0.16954997E+04</pdfrwt>
<pdfrwt beam="2">  1       -2 0.41471046E-01 0.16954997E+04</pdfrwt>
<totfact> 0.14623185E+01</totfact>
</mgrwt>
</event>
<event>
12    1  0.1518126E-007  0.1783090E+04  0.7818608E-02  0.8715344E-01
         -1   -1    0    0    0  501 -0.00000000000E+00  0.00000000000E+00  0.10226157775E+04  0.10226157775E+04  0.00000000000E+00 0. -1.
          1   -1    0    0  501    0  0.00000000000E+00 -0.00000000000E+00 -0.77727424860E+03  0.77727424860E+03  0.00000000000E+00 0.  1.
         23    2    1    2    0    0  0.48980641095E+03  0.26619635519E+03 -0.26607312704E+03  0.62456052651E+03  0.92250325804E+02 0.  0.
        254    2    1    2    0    0 -0.48980641095E+03 -0.26619635519E+03  0.51141465598E+03  0.11753294996E+04  0.89949077961E+03 0.  0.
        -24    2    4    4    0    0  0.24956262392E+02  0.24435842705E+03  0.33749095417E+03  0.42511959356E+03  0.80577098331E+02 0.  0.
         24    2    4    4    0    0 -0.51476267334E+03 -0.51055478224E+03  0.17392370181E+03  0.75020990607E+03  0.83178444154E+02 0.  0.
         13    1    3    3    0    0  0.69812920881E+02  0.13603087279E+02 -0.59394863827E+02  0.92664112549E+02  0.00000000000E+00 0. -1.
        -13    1    3    3    0    0  0.41999349007E+03  0.25259326791E+03 -0.20667826321E+03  0.53189641396E+03  0.00000000000E+00 0.  1.
          4    1    6    6  502    0 -0.48196180772E+03 -0.50074748438E+03  0.17169887017E+03  0.71590203885E+03  0.00000000000E+00 0. -1.
          3    1    5    5  503    0  0.50385421627E+02  0.20787901481E+03  0.27395556876E+03  0.34756874020E+03  0.00000000000E+00 0. -1.
         -4    1    5    5    0  503 -0.25429159235E+02  0.36479412245E+02  0.63535385417E+02  0.77550853362E+02  0.00000000000E+00 0.  1.
         -3    1    6    6    0  502 -0.32800865622E+02 -0.98072978599E+01  0.22248316366E+01  0.34307867212E+02  0.00000000000E+00 0.  1.
<mgrwt>
<rscale>  0 0.17830905E+04</rscale>
<asrwt>0</asrwt>
<pdfrwt beam="1">  1        1 0.11958065E+00 0.17830905E+04</pdfrwt>
<pdfrwt beam="2">  1       -1 0.15732550E+00 0.17830905E+04</pdfrwt>
<totfact> 0.67008755E+00</totfact>
</mgrwt>
</event>
<event>
12    1  0.1518126E-007  0.1159129E+04  0.7818608E-02  0.9149403E-01
         -2   -1    0    0    0  501 -0.00000000000E+00  0.00000000000E+00  0.62430727579E+03  0.62430727579E+03  0.00000000000E+00 0.  1.
          2   -1    0    0  501    0  0.00000000000E+00 -0.00000000000E+00 -0.53802817502E+03  0.53802817502E+03  0.00000000000E+00 0. -1.
         23    2    1    2    0    0  0.83124249920E+02 -0.91442429721E+01 -0.18264032318E+03  0.22140146677E+03  0.93101362685E+02 0.  0.
        254    2    1    2    0    0 -0.83124249920E+02  0.91442429721E+01  0.26891942396E+03  0.94093398404E+03  0.89780056117E+03 0.  0.
        -24    2    4    4    0    0 -0.32122849418E+03  0.18743042986E+03  0.44564618874E+03  0.58574292926E+03  0.78589707560E+02 0.  0.
         24    2    4    4    0    0  0.23810424426E+03 -0.17828618689E+03 -0.17672676479E+03  0.35519105477E+03  0.80304049910E+02 0.  0.
         11    1    3    3    0    0 -0.11183886717E+02  0.71446673905E+01  0.20102818174E+01  0.13422623708E+02  0.00000000000E+00 0.  1.
        -11    1    3    3    0    0  0.94308136637E+02 -0.16288910363E+02 -0.18465060500E+03  0.20797884306E+03  0.00000000000E+00 0. -1.
          2    1    6    6  502    0  0.22349882975E+03 -0.17615731249E+03 -0.14323173305E+03  0.31858822168E+03  0.00000000000E+00 0. -1.
          3    1    5    5  503    0 -0.24010410273E+03  0.13824899057E+03  0.38040397006E+03  0.47060593279E+03  0.00000000000E+00 0. -1.
         -4    1    5    5    0  503 -0.81124391449E+02  0.49181439288E+02  0.65242218685E+02  0.11513699648E+03  0.00000000000E+00 0.  1.
         -1    1    6    6    0  502  0.14605414508E+02 -0.21288743986E+01 -0.33495031741E+02  0.36602833093E+02  0.00000000000E+00 0.  1.
<mgrwt>
<rscale>  0 0.11591288E+04</rscale>
<asrwt>0</asrwt>
<pdfrwt beam="1">  1        2 0.82773565E-01 0.11591288E+04</pdfrwt>
<pdfrwt beam="2">  1       -2 0.96047273E-01 0.11591288E+04</pdfrwt>
<totfact> 0.50796508E+01</totfact>
</mgrwt>
</event>
<event>
12    1  0.1518126E-007  0.4151132E+04  0.7818608E-02  0.7974734E-01
         -2   -1    0    0    0  501 -0.00000000000E+00  0.00000000000E+00  0.27583155049E+04  0.27583155049E+04  0.00000000000E+00 0.  1.
          2   -1    0    0  501    0  0.00000000000E+00 -0.00000000000E+00 -0.15618130791E+04  0.15618130791E+04  0.00000000000E+00 0. -1.
         23    2    1    2    0    0 -0.71124826464E+03 -0.10736140822E+04  0.21360399445E+04  0.24958950493E+04  0.91127171706E+02 0.  0.
        254    2    1    2    0    0  0.71124826464E+03  0.10736140822E+04 -0.93953751868E+03  0.18242335347E+04  0.88689117077E+03 0.  0.
        -24    2    4    4    0    0 -0.53360295700E+02 -0.10418224976E+03 -0.17478507458E+02  0.14246657436E+03  0.79309294943E+02 0.  0.
         24    2    4    4    0    0  0.76460856034E+03  0.11777963320E+04 -0.92205901122E+03  0.16817669604E+04  0.79478542303E+02 0.  0.
         13    1    3    3    0    0 -0.54955807649E+03 -0.77812306980E+03  0.16313388762E+04  0.18891151686E+04  0.00000000000E+00 0.  1.
        -13    1    3    3    0    0 -0.16169018815E+03 -0.29549101241E+03  0.50470106828E+03  0.60677988075E+03  0.00000000000E+00 0. -1.
          2    1    6    6  502    0  0.46954503961E+03  0.76109209928E+03 -0.54813678883E+03  0.10488983111E+04  0.00000000000E+00 0. -1.
          3    1    5    5  503    0  0.19225693479E+02 -0.15433329133E+02 -0.12657227903E+02  0.27713180186E+02  0.00000000000E+00 0. -1.
         -4    1    5    5    0  503 -0.72585989178E+02 -0.88748920630E+02 -0.48212795549E+01  0.11475339417E+03  0.00000000000E+00 0.  1.
         -1    1    6    6    0  502  0.29506352073E+03  0.41670423269E+03 -0.37392222239E+03  0.63286864925E+03  0.00000000000E+00 0.  1.
<mgrwt>
<rscale>  0 0.41511315E+04</rscale>
<asrwt>0</asrwt>
<pdfrwt beam="1">  1        2 0.24027893E+00 0.41511315E+04</pdfrwt>
<pdfrwt beam="2">  1       -2 0.42435623E+00 0.41511315E+04</pdfrwt>
<totfact> 0.46844515E-02</totfact>
</mgrwt>
</event>
<event>
12    1  0.1518126E-007  0.2086764E+04  0.7818608E-02  0.8567096E-01
          1   -1    0    0  501    0  0.00000000000E+00  0.00000000000E+00  0.10630391435E+04  0.10630391435E+04  0.00000000000E+00 0. -1.
         -1   -1    0    0    0  501 -0.00000000000E+00 -0.00000000000E+00 -0.10240887876E+04  0.10240887876E+04  0.00000000000E+00 0.  1.
         23    2    1    2    0    0 -0.64661565975E+03  0.13932840704E+03 -0.51089819783E+03  0.84084051738E+03  0.92041244426E+02 0.  0.
        254    2    1    2    0    0  0.64661565975E+03 -0.13932840704E+03  0.54984855369E+03  0.12462874137E+04  0.90187286744E+03 0.  0.
        -24    2    4    4    0    0  0.98661667633E+02  0.34803323686E+03  0.10142965352E+03  0.38301017137E+03  0.74481931616E+02 0.  0.
         24    2    4    4    0    0  0.54795399212E+03 -0.48736164390E+03  0.44841890017E+03  0.86327724230E+03  0.79957098564E+02 0.  0.
         11    1    3    3    0    0 -0.19858807211E+03  0.74816271684E+02 -0.12695826262E+03  0.24729152298E+03  0.00000000000E+00 0. -1.
        -11    1    3    3    0    0 -0.44802758764E+03  0.64512135353E+02 -0.38393993521E+03  0.59354899439E+03  0.00000000000E+00 0.  1.
          2    1    6    6  502    0  0.36222893478E+03 -0.27574556563E+03  0.29738456834E+03  0.54376741319E+03  0.00000000000E+00 0. -1.
          3    1    5    5  503    0  0.79671444236E+02  0.31068582043E+03  0.64499653543E+02  0.32715962977E+03  0.00000000000E+00 0. -1.
         -4    1    5    5    0  503  0.18990223397E+02  0.37347416438E+02  0.36929999977E+02  0.55850541605E+02  0.00000000000E+00 0.  1.
         -1    1    6    6    0  502  0.18572505734E+03 -0.21161607827E+03  0.15103433183E+03  0.31950982911E+03  0.00000000000E+00 0.  1.
<mgrwt>
<rscale>  0 0.20867645E+04</rscale>
<asrwt>0</asrwt>
<pdfrwt beam="1">  1        1 0.16354448E+00 0.20867645E+04</pdfrwt>
<pdfrwt beam="2">  1       -1 0.15755212E+00 0.20867645E+04</pdfrwt>
<totfact> 0.37989856E+00</totfact>
</mgrwt>
</event>
<event>
12    1  0.1518126E-007  0.1570764E+04  0.7818608E-02  0.8838713E-01
          1   -1    0    0  501    0  0.00000000000E+00  0.00000000000E+00  0.41737338860E+03  0.41737338860E+03  0.00000000000E+00 0. -1.
         -1   -1    0    0    0  501 -0.00000000000E+00 -0.00000000000E+00 -0.14778738262E+04  0.14778738262E+04  0.00000000000E+00 0.  1.
         23    2    1    2    0    0  0.18590031827E+03 -0.48371073333E+03 -0.35268326937E+03  0.63346677430E+03  0.91431196895E+02 0.  0.
        254    2    1    2    0    0 -0.18590031827E+03  0.48371073333E+03 -0.70781716824E+03  0.12617804405E+04  0.90694527647E+03 0.  0.
        -24    2    4    4    0    0  0.72060011529E+02  0.20043150695E+03 -0.82272287831E+03  0.85459267278E+03  0.89945915037E+02 0.  0.
         24    2    4    4    0    0 -0.25796032980E+03  0.28327922638E+03  0.11490571007E+03  0.40718776772E+03  0.76209606527E+02 0.  0.
         11    1    3    3    0    0  0.15826583832E+03 -0.37055453684E+03 -0.31363896751E+03  0.51061545441E+03  0.00000000000E+00 0.  1.
        -11    1    3    3    0    0  0.27634479958E+02 -0.11315619650E+03 -0.39044301861E+02  0.12285131988E+03  0.00000000000E+00 0. -1.
          2    1    6    6  502    0 -0.61307581348E+02  0.58378636344E+02 -0.60655394152E+01  0.84873290737E+02  0.00000000000E+00 0. -1.
          1    1    5    5  503    0  0.36853851745E+01 -0.43421325282E+01 -0.10376382507E+03  0.10392000564E+03  0.00000000000E+00 0. -1.
         -2    1    5    5    0  503  0.68374626354E+02  0.20477363948E+03 -0.71895905324E+03  0.75067266714E+03  0.00000000000E+00 0.  1.
         -1    1    6    6    0  502 -0.19665274846E+03  0.22490059004E+03  0.12097124949E+03  0.32231447699E+03  0.00000000000E+00 0.  1.
<mgrwt>
<rscale>  0 0.15707644E+04</rscale>
<asrwt>0</asrwt>
<pdfrwt beam="1">  1        1 0.64211290E-01 0.15707644E+04</pdfrwt>
<pdfrwt beam="2">  1       -1 0.22736521E+00 0.15707644E+04</pdfrwt>
<totfact> 0.53574160E+00</totfact>
</mgrwt>
</event>
<event>
12    1  0.2148767E-007  0.1494948E+04  0.7818608E-02  0.8887820E-01
          1   -1    0    0  501    0  0.00000000000E+00  0.00000000000E+00  0.94482274582E+03  0.94482274582E+03  0.00000000000E+00 0. -1.
         -1   -1    0    0    0  501 -0.00000000000E+00 -0.00000000000E+00 -0.59134599450E+03  0.59134599450E+03  0.00000000000E+00 0.  1.
         23    2    1    2    0    0 -0.30555562521E+03 -0.34337478314E+03  0.22081518851E+03  0.51886906722E+03  0.95892020766E+02 0.  0.
        254    2    1    2    0    0  0.30555562521E+03  0.34337478314E+03  0.13266156281E+03  0.10172996731E+04  0.89779120782E+03 0.  0.
        -24    2    4    4    0    0  0.35733030644E+03 -0.21816013413E+03 -0.21172729233E+02  0.42721944615E+03  0.82397686129E+02 0.  0.
         24    2    4    4    0    0 -0.51774681228E+02  0.56153491727E+03  0.15383429205E+03  0.59008022695E+03  0.80793588198E+02 0.  0.
         11    1    3    3    0    0 -0.30735156203E+03 -0.31443623251E+03  0.19926858506E+03  0.48274537386E+03  0.00000000000E+00 0. -1.
        -11    1    3    3    0    0  0.17959368122E+01 -0.28938550635E+02  0.21546603446E+02  0.36123693360E+02  0.00000000000E+00 0.  1.
          2    1    6    6  502    0 -0.25166991926E+02  0.12071800054E+03  0.27905707574E+01  0.12334504620E+03  0.00000000000E+00 0. -1.
          3    1    5    5  503    0  0.27178767834E+02 -0.13583845890E+02  0.20411241666E+02  0.36603621085E+02  0.00000000000E+00 0. -1.
         -4    1    5    5    0  503  0.33015153861E+03 -0.20457628824E+03 -0.41583970900E+02  0.39061582506E+03  0.00000000000E+00 0.  1.
         -1    1    6    6    0  502 -0.26607689303E+02  0.44081691673E+03  0.15104372129E+03  0.46673518075E+03  0.00000000000E+00 0.  1.
<mgrwt>
<rscale>  0 0.14949477E+04</rscale>
<asrwt>0</asrwt>
<pdfrwt beam="1">  1        1 0.14535735E+00 0.14949477E+04</pdfrwt>
<pdfrwt beam="2">  1       -1 0.90976307E-01 0.14949477E+04</pdfrwt>
<totfact> 0.19105443E+01</totfact>
</mgrwt>
</event>
<event>
12    1  0.1518126E-007  0.1937916E+04  0.7818608E-02  0.8636210E-01
         -1   -1    0    0    0  501 -0.00000000000E+00  0.00000000000E+00  0.87204600914E+03  0.87204600914E+03  0.00000000000E+00 0.  1.
          1   -1    0    0  501    0  0.00000000000E+00 -0.00000000000E+00 -0.10766403818E+04  0.10766403818E+04  0.00000000000E+00 0. -1.
         23    2    1    2    0    0  0.31684341990E+03  0.36586432041E+03 -0.65698881687E+03  0.82100957209E+03  0.90421005802E+02 0.  0.
        254    2    1    2    0    0 -0.31684341990E+03 -0.36586432041E+03  0.45239444420E+03  0.11276768189E+04  0.91255017449E+03 0.  0.
        -24    2    4    4    0    0 -0.58150564461E+03 -0.18025212369E+02  0.27027954194E+03  0.64774363790E+03  0.89705443835E+02 0.  0.
         24    2    4    4    0    0  0.26466222471E+03 -0.34783910804E+03  0.18211490226E+03  0.47993318096E+03  0.78306336207E+02 0.  0.
         11    1    3    3    0    0  0.26830941244E+03  0.35040093083E+03 -0.58391590349E+03  0.73193478909E+03  0.00000000000E+00 0. -1.
        -11    1    3    3    0    0  0.48534007458E+02  0.15463389586E+02 -0.73072913380E+02  0.89074783004E+02  0.00000000000E+00 0.  1.
          4    1    6    6  502    0  0.79040628886E+01  0.31117833689E+01  0.75209996667E+01  0.11345608925E+02  0.00000000000E+00 0. -1.
          1    1    5    5  503    0 -0.30903099116E+03  0.33830406893E+02  0.15500745570E+03  0.34737870005E+03  0.00000000000E+00 0. -1.
         -2    1    5    5    0  503 -0.27247465344E+03 -0.51855619262E+02  0.11527208625E+03  0.30036493785E+03  0.00000000000E+00 0.  1.
         -3    1    6    6    0  502  0.25675816182E+03 -0.35095089141E+03  0.17459390259E+03  0.46858757204E+03  0.00000000000E+00 0.  1.
<mgrwt>
<rscale>  0 0.19379164E+04</rscale>
<asrwt>0</asrwt>
<pdfrwt beam="1">  1        1 0.16563698E+00 0.19379164E+04</pdfrwt>
<pdfrwt beam="2">  1       -1 0.13416092E+00 0.19379164E+04</pdfrwt>
<totfact> 0.57651776E+00</totfact>
</mgrwt>
</event>
<event>
12    1  0.1518126E-007  0.2529167E+04  0.7818608E-02  0.8392668E-01
          2   -1    0    0  501    0  0.00000000000E+00  0.00000000000E+00  0.28196824182E+04  0.28196824182E+04  0.00000000000E+00 0. -1.
         -2   -1    0    0    0  501 -0.00000000000E+00 -0.00000000000E+00 -0.56714596769E+03  0.56714596769E+03  0.00000000000E+00 0.  1.
         23    2    1    2    0    0  0.10234294525E+03 -0.57916891439E+03 -0.26427207890E+03  0.65065103099E+03  0.87156885027E+02 0.  0.
        254    2    1    2    0    0 -0.10234294525E+03  0.57916891439E+03  0.25168085294E+04  0.27361773549E+04  0.89801482945E+03 0.  0.
        -24    2    4    4    0    0 -0.35961917769E+02  0.14119165321E+03 -0.12508500479E+02  0.16717954555E+03  0.81019722295E+02 0.  0.
         24    2    4    4    0    0 -0.66381027485E+02  0.43797726118E+03  0.25293170299E+04  0.25689978093E+04  0.77939621751E+02 0.  0.
         11    1    3    3    0    0  0.39023361163E+02 -0.31524237905E+03 -0.98301019776E+02  0.33251115884E+03  0.00000000000E+00 0. -1.
        -11    1    3    3    0    0  0.63319584090E+02 -0.26392653535E+03 -0.16597105912E+03  0.31813987216E+03  0.00000000000E+00 0.  1.
          4    1    6    6  502    0 -0.40168898384E+02  0.24039376491E+03  0.16081475582E+04  0.16265119955E+04  0.00000000000E+00 0. -1.
          1    1    5    5  503    0 -0.28704451439E+02  0.10559403968E+03  0.27813074547E+02  0.11290533142E+03  0.00000000000E+00 0. -1.
         -2    1    5    5    0  503 -0.72574663298E+01  0.35597613532E+02 -0.40321575026E+02  0.54274214129E+02  0.00000000000E+00 0.  1.
         -3    1    6    6    0  502 -0.26212129100E+02  0.19758349627E+03  0.92116947164E+03  0.94248581379E+03  0.00000000000E+00 0.  1.
<mgrwt>
<rscale>  0 0.25291671E+04</rscale>
<asrwt>0</asrwt>
<pdfrwt beam="1">  1        2 0.43379729E+00 0.25291671E+04</pdfrwt>
<pdfrwt beam="2">  1       -2 0.87253227E-01 0.25291671E+04</pdfrwt>
<totfact> 0.22715878E+00</totfact>
</mgrwt>
</event>
<event>
12    1  0.1518126E-007  0.3934128E+04  0.7818608E-02  0.8017969E-01
         -2   -1    0    0    0  501 -0.00000000000E+00  0.00000000000E+00  0.15841073907E+04  0.15841073907E+04  0.00000000000E+00 0. -1.
          2   -1    0    0  501    0  0.00000000000E+00 -0.00000000000E+00 -0.24425995802E+04  0.24425995802E+04  0.00000000000E+00 0.  1.
         23    2    1    2    0    0 -0.57029302742E+03 -0.15256800467E+04 -0.13302083044E+04  0.21046352662E+04  0.84271757269E+02 0.  0.
        254    2    1    2    0    0  0.57029302742E+03  0.15256800467E+04  0.47171611489E+03  0.19220717046E+04  0.90493635283E+03 0.  0.
        -24    2    4    4    0    0  0.69412256200E+03  0.85535357583E+03  0.54554974416E+03  0.12319619994E+04  0.81669907162E+02 0.  0.
         24    2    4    4    0    0 -0.12382953458E+03  0.67032647082E+03 -0.73833629263E+02  0.69010970524E+03  0.78285818227E+02 0.  0.
         13    1    3    3    0    0 -0.24187526698E+03 -0.62281415003E+03 -0.59828648680E+03  0.89685440877E+03  0.00000000000E+00 0. -1.
        -13    1    3    3    0    0 -0.32841776045E+03 -0.90286589663E+03 -0.73192181756E+03  0.12077808575E+04  0.00000000000E+00 0.  1.
          4    1    6    6  502    0 -0.10936483977E+03  0.38014816685E+03 -0.46385603928E+02  0.39827744248E+03  0.00000000000E+00 0. -1.
          1    1    5    5  503    0  0.54869999684E+03  0.72329872303E+03  0.43785473432E+03  0.10079432016E+04  0.00000000000E+00 0. -1.
         -2    1    5    5    0  503  0.14542256517E+03  0.13205485280E+03  0.10769500983E+03  0.22401879776E+03  0.00000000000E+00 0.  1.
         -3    1    6    6    0  502 -0.14464694813E+02  0.29017830397E+03 -0.27448025336E+02  0.29183226276E+03  0.00000000000E+00 0.  1.
<mgrwt>
<rscale>  0 0.39341276E+04</rscale>
<asrwt>0</asrwt>
<pdfrwt beam="1">  1        2 0.37578455E+00 0.39341276E+04</pdfrwt>
<pdfrwt beam="2">  1       -2 0.24370883E+00 0.39341276E+04</pdfrwt>
<totfact> 0.20939530E-01</totfact>
</mgrwt>
</event>
<event>
12    1  0.1518126E-007  0.2089541E+04  0.7818608E-02  0.8565865E-01
         -1   -1    0    0    0  501 -0.00000000000E+00  0.00000000000E+00  0.29058588306E+03  0.29058588306E+03  0.00000000000E+00 0.  1.
          1   -1    0    0  501    0  0.00000000000E+00 -0.00000000000E+00 -0.37563618465E+04  0.37563618465E+04  0.00000000000E+00 0. -1.
         23    2    1    2    0    0  0.78562597443E+03 -0.33435458079E+03 -0.14132008634E+04  0.16535351821E+04  0.89670289416E+02 0.  0.
        254    2    1    2    0    0 -0.78562597443E+03  0.33435458079E+03 -0.20525751001E+04  0.23934125475E+04  0.88676824682E+03 0.  0.
        -24    2    4    4    0    0 -0.70536254018E+03  0.60445745030E+03 -0.16584683840E+04  0.19025685853E+04  0.79653743223E+02 0.  0.
         24    2    4    4    0    0 -0.80263434243E+02 -0.27010286951E+03 -0.39410671609E+03  0.49084396216E+03  0.78802998251E+02 0.  0.
         13    1    3    3    0    0  0.58560075849E+03 -0.24556077461E+03 -0.97200816105E+03  0.11610461694E+04  0.00000000000E+00 0.  1.
        -13    1    3    3    0    0  0.20002521593E+03 -0.88793806186E+02 -0.44119270232E+03  0.49248901268E+03  0.00000000000E+00 0. -1.
          4    1    6    6  502    0 -0.59746901073E+02 -0.81968815735E+02 -0.11161836326E+03  0.15082187493E+03  0.00000000000E+00 0. -1.
          3    1    5    5  503    0 -0.15805648226E+03  0.17706505310E+03 -0.39382510821E+03  0.45981746430E+03  0.00000000000E+00 0. -1.
         -4    1    5    5    0  503 -0.54730605792E+03  0.42739239720E+03 -0.12646432758E+04  0.14427511210E+04  0.00000000000E+00 0.  1.
         -3    1    6    6    0  502 -0.20516533170E+02 -0.18813405377E+03 -0.28248835283E+03  0.34002208723E+03  0.00000000000E+00 0.  1.
<mgrwt>
<rscale>  0 0.20895413E+04</rscale>
<asrwt>0</asrwt>
<pdfrwt beam="1">  1        1 0.57790182E+00 0.20895413E+04</pdfrwt>
<pdfrwt beam="2">  1       -1 0.44705521E-01 0.20895413E+04</pdfrwt>
<totfact> 0.71106881E-01</totfact>
</mgrwt>
</event>
<event>
12    1  0.1518126E-007  0.2169280E+04  0.7818608E-02  0.8531324E-01
          1   -1    0    0  501    0  0.00000000000E+00  0.00000000000E+00  0.73520805029E+03  0.73520805029E+03  0.00000000000E+00 0.  1.
         -1   -1    0    0    0  501 -0.00000000000E+00 -0.00000000000E+00 -0.16001514666E+04  0.16001514666E+04  0.00000000000E+00 0. -1.
         23    2    1    2    0    0 -0.75838732803E+02 -0.54348468536E+03 -0.11204978782E+04  0.12510065082E+04  0.91513232314E+02 0.  0.
        254    2    1    2    0    0  0.75838732803E+02  0.54348468536E+03  0.25555446198E+03  0.10843530087E+04  0.89965896195E+03 0.  0.
        -24    2    4    4    0    0 -0.89559656922E+02  0.74326330665E+03  0.29749498700E+03  0.80954191384E+03  0.79959788703E+02 0.  0.
         24    2    4    4    0    0  0.16539838972E+03 -0.19977862128E+03 -0.41940525027E+02  0.27481109486E+03  0.80585391812E+02 0.  0.
         11    1    3    3    0    0 -0.12241717419E+02 -0.27102131736E+03 -0.63745129672E+03  0.69278176203E+03  0.00000000000E+00 0. -1.
        -11    1    3    3    0    0 -0.63597015384E+02 -0.27246336801E+03 -0.48304658151E+03  0.55822474612E+03  0.00000000000E+00 0.  1.
          4    1    6    6  502    0  0.15292070387E+03 -0.18147579193E+03 -0.12067405401E+02  0.23762118383E+03  0.00000000000E+00 0. -1.
          3    1    5    5  503    0 -0.80500369705E+02  0.73686399734E+03  0.28909496264E+03  0.79562852986E+03  0.00000000000E+00 0. -1.
         -4    1    5    5    0  503 -0.90592872169E+01  0.63993093080E+01  0.84000243592E+01  0.13913383979E+02  0.00000000000E+00 0.  1.
         -3    1    6    6    0  502  0.12477685856E+02 -0.18302829349E+02 -0.29873119627E+02  0.37189911034E+02  0.00000000000E+00 0.  1.
<mgrwt>
<rscale>  0 0.21692803E+04</rscale>
<asrwt>0</asrwt>
<pdfrwt beam="1">  1        1 0.11310893E+00 0.21692803E+04</pdfrwt>
<pdfrwt beam="2">  1       -1 0.24617715E+00 0.21692803E+04</pdfrwt>
<totfact> 0.17055837E+00</totfact>
</mgrwt>
</event>
<event>
12    1  0.1518126E-007  0.1591560E+04  0.7818608E-02  0.8825750E-01
          2   -1    0    0  501    0  0.00000000000E+00  0.00000000000E+00  0.37094007617E+04  0.37094007617E+04  0.00000000000E+00 0.  1.
         -2   -1    0    0    0  501 -0.00000000000E+00 -0.00000000000E+00 -0.17071919222E+03  0.17071919222E+03  0.00000000000E+00 0. -1.
         23    2    1    2    0    0  0.21099205159E+03 -0.39563984331E+03  0.19690322089E+04  0.20215157665E+04  0.91594885681E+02 0.  0.
        254    2    1    2    0    0 -0.21099205159E+03  0.39563984331E+03  0.15696493606E+04  0.18586041874E+04  0.88857294515E+03 0.  0.
        -24    2    4    4    0    0  0.33057783585E+03  0.25810439434E+03  0.76186787250E+03  0.87332610117E+03  0.79726030291E+02 0.  0.
         24    2    4    4    0    0 -0.54156988744E+03  0.13753544896E+03  0.80778148808E+03  0.98527808624E+03  0.77769094356E+02 0.  0.
         11    1    3    3    0    0  0.66011796653E+02 -0.50764480925E+02  0.33290515491E+03  0.34316239886E+03  0.00000000000E+00 0. -1.
        -11    1    3    3    0    0  0.14498025494E+03 -0.34487536238E+03  0.16361270540E+04  0.16783533676E+04  0.00000000000E+00 0.  1.
          2    1    6    6  502    0 -0.27740993726E+02  0.15124677440E+02  0.22143749970E+02  0.38583212195E+02  0.00000000000E+00 0. -1.
          3    1    5    5  503    0  0.18796758906E+03  0.96224979521E+02  0.37372842607E+03  0.42925982537E+03  0.00000000000E+00 0. -1.
         -4    1    5    5    0  503  0.14261024679E+03  0.16187941482E+03  0.38813944643E+03  0.44406627580E+03  0.00000000000E+00 0.  1.
         -1    1    6    6    0  502 -0.51382889372E+03  0.12241077152E+03  0.78563773811E+03  0.94669487404E+03  0.00000000000E+00 0.  1.
<mgrwt>
<rscale>  0 0.15915601E+04</rscale>
<asrwt>0</asrwt>
<pdfrwt beam="1">  1        2 0.57067698E+00 0.15915601E+04</pdfrwt>
<pdfrwt beam="2">  1       -2 0.26264494E-01 0.15915601E+04</pdfrwt>
<totfact> 0.73386185E+00</totfact>
</mgrwt>
</event>
<event>
12    1  0.1518126E-007  0.1230035E+04  0.7818608E-02  0.9086966E-01
          2   -1    0    0  501    0  0.00000000000E+00  0.00000000000E+00  0.95237267991E+03  0.95237267991E+03  0.00000000000E+00 0. -1.
         -2   -1    0    0    0  501 -0.00000000000E+00 -0.00000000000E+00 -0.39716208834E+03  0.39716208834E+03  0.00000000000E+00 0.  1.
         23    2    1    2    0    0 -0.20742650809E+03 -0.98310862630E+02 -0.30729162066E+02  0.24849514687E+03  0.90082043968E+02 0.  0.
        254    2    1    2    0    0  0.20742650809E+03  0.98310862630E+02  0.58593975363E+03  0.11010396214E+04  0.90347776452E+03 0.  0.
        -24    2    4    4    0    0  0.26636977816E+02 -0.17329083617E+03 -0.18064026389E+03  0.26367482009E+03  0.78449112975E+02 0.  0.
         24    2    4    4    0    0  0.18078953027E+03  0.27160169880E+03  0.76658001752E+03  0.83736480129E+03  0.84157888078E+02 0.  0.
         11    1    3    3    0    0 -0.12768225796E+03 -0.10002324289E+03 -0.42988818100E+02  0.16779584797E+03  0.00000000000E+00 0.  1.
        -11    1    3    3    0    0 -0.79744250134E+02  0.17123802647E+01  0.12259656033E+02  0.80699298892E+02  0.00000000000E+00 0. -1.
          4    1    6    6  502    0  0.13363159293E+03  0.19301927837E+03  0.63505758278E+03  0.67706128075E+03  0.00000000000E+00 0. -1.
          3    1    5    5  503    0 -0.19840276172E+01 -0.10534717594E+03 -0.15119242392E+03  0.18428541151E+03  0.00000000000E+00 0. -1.
         -4    1    5    5    0  503  0.28621005433E+02 -0.67943660222E+02 -0.29447839973E+02  0.79389408585E+02  0.00000000000E+00 0.  1.
         -3    1    6    6    0  502  0.47157937339E+02  0.78582420430E+02  0.13152243474E+03  0.16030352053E+03  0.00000000000E+00 0.  1.
<mgrwt>
<rscale>  0 0.12300347E+04</rscale>
<asrwt>0</asrwt>
<pdfrwt beam="1">  1        2 0.14651887E+00 0.12300347E+04</pdfrwt>
<pdfrwt beam="2">  1       -2 0.61101860E-01 0.12300347E+04</pdfrwt>
<totfact> 0.66399215E+01</totfact>
</mgrwt>
</event>
<event>
12    1  0.1518126E-007  0.3816955E+04  0.7818608E-02  0.8042526E-01
         -2   -1    0    0    0  501 -0.00000000000E+00  0.00000000000E+00  0.20745103587E+04  0.20745103587E+04  0.00000000000E+00 0.  1.
          2   -1    0    0  501    0  0.00000000000E+00 -0.00000000000E+00 -0.17557328753E+04  0.17557328753E+04  0.00000000000E+00 0. -1.
         23    2    1    2    0    0  0.13341708832E+03  0.79192076391E+03  0.17702233176E+04  0.19459664371E+04  0.90311484793E+02 0.  0.
        254    2    1    2    0    0 -0.13341708832E+03 -0.79192076391E+03 -0.14514458342E+04  0.18842767968E+04  0.89379271732E+03 0.  0.
        -24    2    4    4    0    0  0.24162628221E+03 -0.10878832976E+03 -0.85741002666E+03  0.90105479357E+03  0.80806102862E+02 0.  0.
         24    2    4    4    0    0 -0.37504337053E+03 -0.68313243415E+03 -0.59403580758E+03  0.98322200325E+03  0.80743511318E+02 0.  0.
         13    1    3    3    0    0 -0.11596936746E+02  0.81372654122E+02  0.20696445818E+03  0.22268876202E+03  0.00000000000E+00 0. -1.
        -13    1    3    3    0    0  0.14501402507E+03  0.71054810979E+03  0.15632588595E+04  0.17232776751E+04  0.00000000000E+00 0.  1.
          2    1    6    6  502    0 -0.14759075354E+03 -0.19306645403E+03 -0.19434150018E+03  0.31116925442E+03  0.00000000000E+00 0. -1.
          1    1    5    5  503    0  0.23838342734E+02 -0.41355844742E+01 -0.18446987984E+03  0.18604974123E+03  0.00000000000E+00 0. -1.
         -2    1    5    5    0  503  0.21778793947E+03 -0.10465274529E+03 -0.67294014682E+03  0.71500505234E+03  0.00000000000E+00 0.  1.
         -1    1    6    6    0  502 -0.22745261700E+03 -0.49006598011E+03 -0.39969430740E+03  0.67205274883E+03  0.00000000000E+00 0.  1.
<mgrwt>
<rscale>  0 0.38169548E+04</rscale>
<asrwt>0</asrwt>
<pdfrwt beam="1">  1        2 0.27011275E+00 0.38169548E+04</pdfrwt>
<pdfrwt beam="2">  1       -2 0.31915544E+00 0.38169548E+04</pdfrwt>
<totfact> 0.17716284E-01</totfact>
</mgrwt>
</event>
<event>
12    1  0.1518126E-007  0.1281131E+04  0.7818608E-02  0.9044664E-01
         -2   -1    0    0    0  501 -0.00000000000E+00  0.00000000000E+00  0.35841651309E+03  0.35841651309E+03  0.00000000000E+00 0.  1.
          2   -1    0    0  501    0  0.00000000000E+00 -0.00000000000E+00 -0.11448243615E+04  0.11448243615E+04  0.00000000000E+00 0. -1.
         23    2    1    2    0    0 -0.17223192316E+03 -0.25891037992E+03 -0.26294282468E+03  0.41779859152E+03  0.93371911449E+02 0.  0.
        254    2    1    2    0    0  0.17223192316E+03  0.25891037992E+03 -0.52346502376E+03  0.10854422831E+04  0.89859384520E+03 0.  0.
        -24    2    4    4    0    0 -0.34443399084E+03  0.12486089741E+02 -0.10216715850E+03  0.37014680853E+03  0.88203486916E+02 0.  0.
         24    2    4    4    0    0  0.51666591400E+03  0.24642429018E+03 -0.42129786526E+03  0.71529547455E+03  0.80542704018E+02 0.  0.
         13    1    3    3    0    0 -0.15542938931E+03 -0.25885969842E+03 -0.26384069682E+03  0.40097200878E+03  0.00000000000E+00 0.  1.
        -13    1    3    3    0    0 -0.16802533852E+02 -0.50681494148E-01  0.89787214236E+00  0.16826582744E+02  0.00000000000E+00 0. -1.
          4    1    6    6  502    0  0.51907319926E+03  0.24790715839E+03 -0.41923234668E+03  0.71179400523E+03  0.00000000000E+00 0. -1.
          3    1    5    5  503    0 -0.30583026577E+03  0.39634490683E+02 -0.92626524804E+02  0.32199800839E+03  0.00000000000E+00 0. -1.
         -4    1    5    5    0  503 -0.38603725072E+02 -0.27148400942E+02 -0.95406337001E+01  0.48148800136E+02  0.00000000000E+00 0.  1.
         -3    1    6    6    0  502 -0.24072852631E+01 -0.14828682112E+01 -0.20655185768E+01  0.35014693289E+01  0.00000000000E+00 0.  1.
<mgrwt>
<rscale>  0 0.12811307E+04</rscale>
<asrwt>0</asrwt>
<pdfrwt beam="1">  1        2 0.17612683E+00 0.12811307E+04</pdfrwt>
<pdfrwt beam="2">  1       -2 0.55141002E-01 0.12811307E+04</pdfrwt>
<totfact> 0.62061489E+01</totfact>
</mgrwt>
</event>
<event>
12    1  0.1518126E-007  0.1806635E+04  0.7818608E-02  0.8702779E-01
         -2   -1    0    0    0  501 -0.00000000000E+00  0.00000000000E+00  0.28004620499E+03  0.28004620499E+03  0.00000000000E+00 0.  1.
          2   -1    0    0  501    0  0.00000000000E+00 -0.00000000000E+00 -0.29137411454E+04  0.29137411454E+04  0.00000000000E+00 0. -1.
         23    2    1    2    0    0 -0.57955947088E+03 -0.98698962808E+02 -0.40645299564E+03  0.72068623876E+03  0.92487574987E+02 0.  0.
        254    2    1    2    0    0  0.57955947088E+03  0.98698962808E+02 -0.22272419447E+04  0.24731011116E+04  0.89999542345E+03 0.  0.
        -24    2    4    4    0    0  0.25506215911E+02  0.35248311234E+03 -0.37563589600E+03  0.52219239453E+03  0.81778108384E+02 0.  0.
         24    2    4    4    0    0  0.55405325497E+03 -0.25378414953E+03 -0.18516060487E+04  0.19509087171E+04  0.78857204450E+02 0.  0.
         13    1    3    3    0    0 -0.16401910594E+03 -0.20754746383E+02 -0.16609749149E+03  0.23435315933E+03  0.00000000000E+00 0. -1.
        -13    1    3    3    0    0 -0.41554036494E+03 -0.77944216425E+02 -0.24035550415E+03  0.48633307943E+03  0.00000000000E+00 0.  1.
          2    1    6    6  502    0  0.55279716437E+03 -0.24539780828E+03 -0.18371727749E+04  0.19341687088E+04  0.00000000000E+00 0. -1.
          3    1    5    5  503    0  0.92750600572E+01  0.32472233945E+03 -0.30966785618E+03  0.44880374957E+03  0.00000000000E+00 0. -1.
         -4    1    5    5    0  503  0.16231155853E+02  0.27760772887E+02 -0.65968039823E+02  0.73388644964E+02  0.00000000000E+00 0.  1.
         -1    1    6    6    0  502  0.12560905919E+01 -0.83863412481E+01 -0.14433273847E+02  0.16740008275E+02  0.00000000000E+00 0.  1.
<mgrwt>
<rscale>  0 0.18066346E+04</rscale>
<asrwt>0</asrwt>
<pdfrwt beam="1">  1        2 0.44826789E+00 0.18066346E+04</pdfrwt>
<pdfrwt beam="2">  1       -2 0.43084029E-01 0.18066346E+04</pdfrwt>
<totfact> 0.95264910E+00</totfact>
</mgrwt>
</event>
<event>
12    1  0.1518126E-007  0.1555300E+04  0.7818608E-02  0.8848490E-01
         -2   -1    0    0    0  501 -0.00000000000E+00  0.00000000000E+00  0.34320640903E+03  0.34320640903E+03  0.00000000000E+00 0.  1.
          2   -1    0    0  501    0  0.00000000000E+00 -0.00000000000E+00 -0.17620283072E+04  0.17620283072E+04  0.00000000000E+00 0. -1.
         23    2    1    2    0    0 -0.36367101783E+03 -0.19864140808E+03 -0.87928284407E+03  0.97626178239E+03  0.90739901164E+02 0.  0.
        254    2    1    2    0    0  0.36367101783E+03  0.19864140808E+03 -0.53953905410E+03  0.11289729338E+04  0.90097862141E+03 0.  0.
        -24    2    4    4    0    0 -0.23865442965E+03  0.27087922247E+03 -0.28469068131E+03  0.46631198212E+03  0.77888321864E+02 0.  0.
         24    2    4    4    0    0  0.60232544748E+03 -0.72237814387E+02 -0.25484837279E+03  0.66266095172E+03  0.78470359504E+02 0.  0.
         13    1    3    3    0    0 -0.36302592004E+03 -0.19147469774E+03 -0.82446719710E+03  0.92097586157E+03  0.00000000000E+00 0. -1.
        -13    1    3    3    0    0 -0.64509778842E+00 -0.71667103378E+01 -0.54815646969E+02  0.55285920819E+02  0.00000000000E+00 0.  1.
          2    1    6    6  502    0  0.58676129158E+03 -0.69089393720E+02 -0.26064877506E+03  0.64575532639E+03  0.00000000000E+00 0. -1.
          3    1    5    5  503    0 -0.23615116260E+03  0.27565547674E+03 -0.27563306843E+03  0.45577066807E+03  0.00000000000E+00 0. -1.
         -4    1    5    5    0  503 -0.25032670456E+01 -0.47762542745E+01 -0.90576128779E+01  0.10541314047E+02  0.00000000000E+00 0.  1.
         -1    1    6    6    0  502  0.15564155893E+02 -0.31484206671E+01  0.58004022684E+01  0.16905625331E+02  0.00000000000E+00 0.  1.
<mgrwt>
<rscale>  0 0.15552999E+04</rscale>
<asrwt>0</asrwt>
<pdfrwt beam="1">  1        2 0.27108128E+00 0.15552999E+04</pdfrwt>
<pdfrwt beam="2">  1       -2 0.52800985E-01 0.15552999E+04</pdfrwt>
<totfact> 0.29486311E+01</totfact>
</mgrwt>
</event>
<event>
12    1  0.1518126E-007  0.1522826E+04  0.7818608E-02  0.8869414E-01
         -1   -1    0    0    0  501 -0.00000000000E+00  0.00000000000E+00  0.59460476342E+03  0.59460476342E+03  0.00000000000E+00 0.  1.
          1   -1    0    0  501    0  0.00000000000E+00 -0.00000000000E+00 -0.97501761576E+03  0.97501761576E+03  0.00000000000E+00 0. -1.
         23    2    1    2    0    0  0.12736591039E+03  0.25767950302E+03 -0.52422271969E+03  0.60460335389E+03  0.90083041076E+02 0.  0.
        254    2    1    2    0    0 -0.12736591039E+03 -0.25767950302E+03  0.14380986735E+03  0.96501902530E+03  0.90992287576E+03 0.  0.
        -24    2    4    4    0    0  0.10299326682E+03 -0.54429643035E+03 -0.70823092900E+01  0.55968047728E+03  0.79535277961E+02 0.  0.
         24    2    4    4    0    0 -0.23035917721E+03  0.28661692733E+03  0.15089217664E+03  0.40533854801E+03  0.79475002235E+02 0.  0.
         13    1    3    3    0    0  0.12945924734E+03  0.24792626708E+03 -0.45087380259E+03  0.53057922735E+03  0.00000000000E+00 0. -1.
        -13    1    3    3    0    0 -0.20933369487E+01  0.97532359407E+01 -0.73348917094E+02  0.74024126538E+02  0.00000000000E+00 0.  1.
          4    1    6    6  502    0 -0.73964753946E+01 -0.52547947934E+00  0.15896651534E+02  0.17541023543E+02  0.00000000000E+00 0. -1.
          1    1    5    5  503    0  0.24528576751E+02 -0.22073893236E+03  0.32260475056E+02  0.22442830835E+03  0.00000000000E+00 0. -1.
         -2    1    5    5    0  503  0.78464690072E+02 -0.32355749799E+03 -0.39342784346E+02  0.33525216894E+03  0.00000000000E+00 0.  1.
         -3    1    6    6    0  502 -0.22296270182E+03  0.28714240681E+03  0.13499552510E+03  0.38779752447E+03  0.00000000000E+00 0.  1.
<mgrwt>
<rscale>  0 0.15228265E+04</rscale>
<asrwt>0</asrwt>
<pdfrwt beam="1">  1        1 0.15000271E+00 0.15228265E+04</pdfrwt>
<pdfrwt beam="2">  1       -1 0.91477656E-01 0.15228265E+04</pdfrwt>
<totfact> 0.17815621E+01</totfact>
</mgrwt>
</event>
<event>
12    1  0.1603153E-007  0.1166072E+04  0.7818608E-02  0.9143083E-01
         -2   -1    0    0    0  501 -0.00000000000E+00  0.00000000000E+00  0.22052754289E+03  0.22052754289E+03  0.00000000000E+00 0.  1.
          2   -1    0    0  501    0  0.00000000000E+00 -0.00000000000E+00 -0.15414435952E+04  0.15414435952E+04  0.00000000000E+00 0. -1.
         23    2    1    2    0    0  0.22799433691E+03  0.33853070630E-01 -0.33124290861E+03  0.41601964360E+03  0.10662579682E+03 0.  0.
        254    2    1    2    0    0 -0.22799433691E+03 -0.33853070630E-01 -0.98967314368E+03  0.13459514945E+04  0.88326161205E+03 0.  0.
        -24    2    4    4    0    0 -0.52674609103E+03  0.16340405463E+03 -0.54239623390E+03  0.77806231204E+03  0.83815018873E+02 0.  0.
         24    2    4    4    0    0  0.29875175412E+03 -0.16343790770E+03 -0.44727690978E+03  0.56788918242E+03  0.80479371426E+02 0.  0.
         11    1    3    3    0    0 -0.51919439762E+01 -0.31766060940E+01  0.42579877274E+01  0.74281604732E+01  0.00000000000E+00 0.  1.
        -11    1    3    3    0    0  0.23318628088E+03  0.32104591646E+01 -0.33550089634E+03  0.40859148313E+03  0.00000000000E+00 0. -1.
          2    1    6    6  502    0  0.18760386373E+02 -0.95776350030E+01 -0.39358520696E+01  0.21428348528E+02  0.00000000000E+00 0. -1.
          1    1    5    5  503    0 -0.55268942580E+02  0.11234363240E+02 -0.95221586010E+02  0.11067076115E+03  0.00000000000E+00 0. -1.
         -2    1    5    5    0  503 -0.47147714845E+03  0.15216969139E+03 -0.44717464789E+03  0.66739155089E+03  0.00000000000E+00 0.  1.
         -1    1    6    6    0  502  0.27999136775E+03 -0.15386027270E+03 -0.44334105771E+03  0.54646083389E+03  0.00000000000E+00 0.  1.
<mgrwt>
<rscale>  0 0.11660716E+04</rscale>
<asrwt>0</asrwt>
<pdfrwt beam="1">  1        2 0.23714518E+00 0.11660716E+04</pdfrwt>
<pdfrwt beam="2">  1       -2 0.33927313E-01 0.11660716E+04</pdfrwt>
<totfact> 0.96653665E+01</totfact>
</mgrwt>
</event>
<event>
12    1  0.1518126E-007  0.2267572E+04  0.7818608E-02  0.8490818E-01
         -1   -1    0    0    0  501 -0.00000000000E+00  0.00000000000E+00  0.36184368562E+03  0.36184368562E+03  0.00000000000E+00 0.  1.
          1   -1    0    0  501    0  0.00000000000E+00 -0.00000000000E+00 -0.35525571358E+04  0.35525571358E+04  0.00000000000E+00 0. -1.
         23    2    1    2    0    0  0.77438334908E+03 -0.54885021564E+03 -0.11746382565E+04  0.15132149810E+04  0.95595055351E+02 0.  0.
        254    2    1    2    0    0 -0.77438334908E+03  0.54885021564E+03 -0.20160751937E+04  0.24011858404E+04  0.89455470655E+03 0.  0.
        -24    2    4    4    0    0 -0.69564305458E+02  0.55355199137E+03 -0.63877943130E+03  0.85190036753E+03  0.80225149438E+02 0.  0.
         24    2    4    4    0    0 -0.70481904362E+03 -0.47017757354E+01 -0.13772957624E+04  0.15492854729E+04  0.80931257358E+02 0.  0.
         13    1    3    3    0    0  0.27156984309E+03 -0.17957699672E+03 -0.47461129418E+03  0.57554666014E+03  0.00000000000E+00 0.  1.
        -13    1    3    3    0    0  0.50281350599E+03 -0.36927321891E+03 -0.70002696228E+03  0.93766832085E+03  0.00000000000E+00 0. -1.
          2    1    6    6  502    0 -0.63358369215E+02 -0.20278991429E+01 -0.18228602332E+03  0.19299375540E+03  0.00000000000E+00 0. -1.
          3    1    5    5  503    0 -0.31357565501E+02  0.52771701137E+02 -0.72017867562E+02  0.94629396084E+02  0.00000000000E+00 0. -1.
         -4    1    5    5    0  503 -0.38206739957E+02  0.50078029023E+03 -0.56676156373E+03  0.75727097144E+03  0.00000000000E+00 0.  1.
         -1    1    6    6    0  502 -0.64146067440E+03 -0.26738765925E+01 -0.11950097391E+04  0.13562917175E+04  0.00000000000E+00 0.  1.
<mgrwt>
<rscale>  0 0.22675717E+04</rscale>
<asrwt>0</asrwt>
<pdfrwt beam="1">  1        1 0.54654726E+00 0.22675717E+04</pdfrwt>
<pdfrwt beam="2">  1       -1 0.55668259E-01 0.22675717E+04</pdfrwt>
<totfact> 0.67323080E-01</totfact>
</mgrwt>
</event>
<event>
12    1  0.1518126E-007  0.2195122E+04  0.7818608E-02  0.8520461E-01
         -2   -1    0    0    0  501 -0.00000000000E+00  0.00000000000E+00  0.99387437936E+03  0.99387437936E+03  0.00000000000E+00 0.  1.
          2   -1    0    0  501    0  0.00000000000E+00 -0.00000000000E+00 -0.12120648268E+04  0.12120648268E+04  0.00000000000E+00 0. -1.
         23    2    1    2    0    0  0.21172799433E+03 -0.64322152607E+03  0.51401615283E+03  0.85508517565E+03  0.91626290272E+02 0.  0.
        254    2    1    2    0    0 -0.21172799433E+03  0.64322152607E+03 -0.73220660025E+03  0.13508540305E+04  0.91110780431E+03 0.  0.
        -24    2    4    4    0    0  0.29948629485E+03  0.51139803732E+03 -0.34674834293E+03  0.69218787661E+03  0.87576536969E+02 0.  0.
         24    2    4    4    0    0 -0.51121428918E+03  0.13182348875E+03 -0.38545825732E+03  0.65866615388E+03  0.80904588748E+02 0.  0.
         13    1    3    3    0    0  0.11796602956E+02 -0.15630513923E+03  0.12734187922E+03  0.20195645718E+03  0.00000000000E+00 0. -1.
        -13    1    3    3    0    0  0.19993139138E+03 -0.48691638683E+03  0.38667427360E+03  0.65312871847E+03  0.00000000000E+00 0.  1.
          4    1    6    6  502    0 -0.23317716015E+03  0.78316929282E+02 -0.13466975324E+03  0.28043015506E+03  0.00000000000E+00 0. -1.
          3    1    5    5  503    0  0.24868602918E+03  0.42245170402E+03 -0.32293859394E+03  0.58702599499E+03  0.00000000000E+00 0. -1.
         -4    1    5    5    0  503  0.50800265670E+02  0.88946333294E+02 -0.23809748992E+02  0.10516188162E+03  0.00000000000E+00 0.  1.
         -3    1    6    6    0  502 -0.27803712903E+03  0.53506559468E+02 -0.25078850408E+03  0.37823599882E+03  0.00000000000E+00 0.  1.
<mgrwt>
<rscale>  0 0.21951220E+04</rscale>
<asrwt>0</asrwt>
<pdfrwt beam="1">  1        2 0.18647151E+00 0.21951220E+04</pdfrwt>
<pdfrwt beam="2">  1       -2 0.15290375E+00 0.21951220E+04</pdfrwt>
<totfact> 0.48503070E+00</totfact>
</mgrwt>
</event>
<event>
12    1  0.1783718E-007  0.2096335E+04  0.7818608E-02  0.8562859E-01
          2   -1    0    0  501    0  0.00000000000E+00  0.00000000000E+00  0.12676301912E+04  0.12676301912E+04  0.00000000000E+00 0.  1.
         -2   -1    0    0    0  501 -0.00000000000E+00 -0.00000000000E+00 -0.86670018029E+03  0.86670018029E+03  0.00000000000E+00 0. -1.
         23    2    1    2    0    0  0.42476921243E+03  0.26437975873E+03 -0.53897561890E+03  0.74087036548E+03  0.89825608946E+02 0.  0.
        254    2    1    2    0    0 -0.42476921243E+03 -0.26437975873E+03  0.93990562978E+03  0.13934600060E+04  0.89887855394E+03 0.  0.
        -24    2    4    4    0    0 -0.47191688570E+03  0.14378759880E+02  0.98617882870E+03  0.10962336035E+04  0.79165241887E+02 0.  0.
         24    2    4    4    0    0  0.47147673275E+02 -0.27875851861E+03 -0.46273198920E+02  0.29722640248E+03  0.79202970916E+02 0.  0.
         13    1    3    3    0    0  0.87681146448E+00 -0.53379504604E+01 -0.96551086619E+01  0.11067232569E+02  0.00000000000E+00 0.  1.
        -13    1    3    3    0    0  0.42389240096E+03  0.26971770919E+03 -0.52932051024E+03  0.72980313291E+03  0.00000000000E+00 0. -1.
          4    1    6    6  502    0 -0.80864499097E+01 -0.16885671514E+03 -0.11678550100E+02  0.16945314825E+03  0.00000000000E+00 0. -1.
          1    1    5    5  503    0 -0.25287999110E+03  0.39080789347E+02  0.58431138110E+03  0.63788352234E+03  0.00000000000E+00 0. -1.
         -2    1    5    5    0  503 -0.21903689460E+03 -0.24702029466E+02  0.40186744760E+03  0.45835008116E+03  0.00000000000E+00 0.  1.
         -3    1    6    6    0  502  0.55234123185E+02 -0.10990180347E+03 -0.34594648820E+02  0.12777325423E+03  0.00000000000E+00 0.  1.
<mgrwt>
<rscale>  0 0.20963352E+04</rscale>
<asrwt>0</asrwt>
<pdfrwt beam="1">  1        2 0.19502003E+00 0.20963352E+04</pdfrwt>
<pdfrwt beam="2">  1       -2 0.13333849E+00 0.20963352E+04</pdfrwt>
<totfact> 0.64832482E+00</totfact>
</mgrwt>
</event>
<event>
12    1  0.1518126E-007  0.1262442E+04  0.7818608E-02  0.9059891E-01
         -2   -1    0    0    0  501 -0.00000000000E+00  0.00000000000E+00  0.13310748555E+03  0.13310748555E+03  0.00000000000E+00 0. -1.
          2   -1    0    0  501    0  0.00000000000E+00 -0.00000000000E+00 -0.29933719443E+04  0.29933719443E+04  0.00000000000E+00 0.  1.
         23    2    1    2    0    0  0.42551788522E+02  0.27580462488E+03 -0.40704339240E+03  0.50199006850E+03  0.91819713338E+02 0.  0.
        254    2    1    2    0    0 -0.42551788522E+02 -0.27580462488E+03 -0.24532210663E+04  0.26244893614E+04  0.88981568972E+03 0.  0.
        -24    2    4    4    0    0 -0.24899063439E+03 -0.48390570400E+03 -0.20369661419E+04  0.21100207769E+04  0.82435120591E+02 0.  0.
         24    2    4    4    0    0  0.20643884586E+03  0.20810107912E+03 -0.41625492441E+03  0.51446858446E+03  0.74072303174E+02 0.  0.
         13    1    3    3    0    0  0.35971946281E+02  0.26666264810E+03 -0.40993915124E+03  0.49036012943E+03  0.00000000000E+00 0.  1.
        -13    1    3    3    0    0  0.65798422412E+01  0.91419767891E+01  0.28957588413E+01  0.11629939071E+02  0.00000000000E+00 0. -1.
          4    1    6    6  502    0  0.17804074935E+02  0.13106924659E+02 -0.76787596338E+02  0.79906892754E+02  0.00000000000E+00 0. -1.
          3    1    5    5  503    0 -0.10073975310E+03 -0.25870289227E+03 -0.11462729169E+04  0.11794139580E+04  0.00000000000E+00 0. -1.
         -4    1    5    5    0  503 -0.14825088129E+03 -0.22520281173E+03 -0.89069322507E+03  0.93060681891E+03  0.00000000000E+00 0.  1.
         -3    1    6    6    0  502  0.18863477093E+03  0.19499415446E+03 -0.33946732807E+03  0.43456169171E+03  0.00000000000E+00 0.  1.
<mgrwt>
<rscale>  0 0.12624424E+04</rscale>
<asrwt>0</asrwt>
<pdfrwt beam="1">  1        2 0.46051876E+00 0.12624424E+04</pdfrwt>
<pdfrwt beam="2">  1       -2 0.20478075E-01 0.12624424E+04</pdfrwt>
<totfact> 0.35858110E+01</totfact>
</mgrwt>
</event>
<event>
12    1  0.1518126E-007  0.3517723E+04  0.7818608E-02  0.8109603E-01
          2   -1    0    0  501    0  0.00000000000E+00  0.00000000000E+00  0.51397083812E+04  0.51397083812E+04  0.00000000000E+00 0. -1.
         -2   -1    0    0    0  501 -0.00000000000E+00 -0.00000000000E+00 -0.60190078467E+03  0.60190078467E+03  0.00000000000E+00 0.  1.
         23    2    1    2    0    0  0.12303805005E+03 -0.16309538122E+04  0.22546188274E+04  0.27868125670E+04  0.88710355129E+02 0.  0.
        254    2    1    2    0    0 -0.12303805005E+03  0.16309538122E+04  0.22831887691E+04  0.29547965988E+04  0.91799961107E+03 0.  0.
        -24    2    4    4    0    0 -0.41469716585E+03  0.14569075329E+04  0.19672331887E+04  0.24841336940E+04  0.79752694034E+02 0.  0.
         24    2    4    4    0    0  0.29165911581E+03  0.17404627931E+03  0.31595558033E+03  0.47066290479E+03  0.79614659637E+02 0.  0.
         11    1    3    3    0    0  0.64755004682E+01 -0.55921519972E+03  0.80850307008E+03  0.98307720248E+03  0.00000000000E+00 0. -1.
        -11    1    3    3    0    0  0.11656254958E+03 -0.10717386125E+04  0.14461157574E+04  0.18037353645E+04  0.00000000000E+00 0.  1.
          2    1    6    6  502    0  0.23098723630E+03  0.14876367969E+03  0.20932707545E+03  0.34540347457E+03  0.00000000000E+00 0. -1.
          1    1    5    5  503    0 -0.28144121368E+03  0.11112488602E+04  0.14980997048E+04  0.18863684453E+04  0.00000000000E+00 0. -1.
         -2    1    5    5    0  503 -0.13325595217E+03  0.34565867273E+03  0.46913348397E+03  0.59776524875E+03  0.00000000000E+00 0.  1.
         -1    1    6    6    0  502  0.60671879508E+02  0.25282599627E+02  0.10662850488E+03  0.12525943023E+03  0.00000000000E+00 0.  1.
<mgrwt>
<rscale>  0 0.35177234E+04</rscale>
<asrwt>0</asrwt>
<pdfrwt beam="1">  1        2 0.79072434E+00 0.35177234E+04</pdfrwt>
<pdfrwt beam="2">  1       -2 0.92600124E-01 0.35177234E+04</pdfrwt>
<totfact> 0.18058930E-02</totfact>
</mgrwt>
</event>
<event>
12    1  0.1518126E-007  0.2045770E+04  0.7818608E-02  0.8585516E-01
          2   -1    0    0  501    0  0.00000000000E+00  0.00000000000E+00  0.61507390071E+03  0.61507390071E+03  0.00000000000E+00 0. -1.
         -2   -1    0    0    0  501 -0.00000000000E+00 -0.00000000000E+00 -0.17010855791E+04  0.17010855791E+04  0.00000000000E+00 0.  1.
         23    2    1    2    0    0 -0.24334043650E+03 -0.69947813451E+02 -0.13244628815E+04  0.13539194796E+04  0.12160907977E+03 0.  0.
        254    2    1    2    0    0  0.24334043650E+03  0.69947813451E+02  0.23845120305E+03  0.96224000022E+03  0.89718424927E+03 0.  0.
        -24    2    4    4    0    0 -0.17674927275E+03 -0.20750064888E+03  0.33916367725E+03  0.44206678947E+03  0.78065496123E+02 0.  0.
         24    2    4    4    0    0  0.42008970925E+03  0.27744846233E+03 -0.10071247420E+03  0.52017321074E+03  0.83571248945E+02 0.  0.
         13    1    3    3    0    0 -0.22722176931E+03 -0.91540020939E+02 -0.10528293620E+04  0.10809528081E+04  0.00000000000E+00 0. -1.
        -13    1    3    3    0    0 -0.16118667181E+02  0.21592207488E+02 -0.27163351951E+03  0.27296667155E+03  0.00000000000E+00 0.  1.
          2    1    6    6  502    0  0.15028050301E+03  0.10843867414E+03 -0.77765984738E+02  0.20097443622E+03  0.00000000000E+00 0. -1.
          3    1    5    5  503    0 -0.25015852591E+02 -0.26412550582E+02  0.97683101359E+02  0.10423724862E+03  0.00000000000E+00 0. -1.
         -4    1    5    5    0  503 -0.15173342016E+03 -0.18108809830E+03  0.24148057589E+03  0.33782954085E+03  0.00000000000E+00 0.  1.
         -1    1    6    6    0  502  0.26980920624E+03  0.16900978820E+03 -0.22946489465E+02  0.31919877452E+03  0.00000000000E+00 0.  1.
<mgrwt>
<rscale>  0 0.20457696E+04</rscale>
<asrwt>0</asrwt>
<pdfrwt beam="1">  1        2 0.94626753E-01 0.20457696E+04</pdfrwt>
<pdfrwt beam="2">  1       -2 0.26170548E+00 0.20457696E+04</pdfrwt>
<totfact> 0.24261927E+00</totfact>
</mgrwt>
</event>
<event>
12    1  0.1518126E-007  0.1958553E+04  0.7818608E-02  0.8626247E-01
         -2   -1    0    0    0  501 -0.00000000000E+00  0.00000000000E+00  0.47877739093E+03  0.47877739093E+03  0.00000000000E+00 0. -1.
          2   -1    0    0  501    0  0.00000000000E+00 -0.00000000000E+00 -0.20029824312E+04  0.20029824312E+04  0.00000000000E+00 0.  1.
         23    2    1    2    0    0 -0.11264151185E+03 -0.43482928343E+03 -0.13886202428E+04  0.14623645141E+04  0.92082448586E+02 0.  0.
        254    2    1    2    0    0  0.11264151185E+03  0.43482928343E+03 -0.13558479740E+03  0.10193953080E+04  0.90499665236E+03 0.  0.
        -24    2    4    4    0    0  0.22992324874E+03  0.22857575026E+03  0.34379112476E+03  0.47930561466E+03  0.80187036782E+02 0.  0.
         24    2    4    4    0    0 -0.11728173689E+03  0.20625353317E+03 -0.47937592216E+03  0.54008969335E+03  0.74833657951E+02 0.  0.
         11    1    3    3    0    0 -0.85636330351E+02 -0.24286619196E+03 -0.91657562121E+03  0.95206535368E+03  0.00000000000E+00 0.  1.
        -11    1    3    3    0    0 -0.27005181494E+02 -0.19196309146E+03 -0.47204462162E+03  0.51029916041E+03  0.00000000000E+00 0. -1.
          2    1    6    6  502    0 -0.32623596813E+02  0.16891624077E+02 -0.40589733859E+02  0.54746255832E+02  0.00000000000E+00 0. -1.
          1    1    5    5  503    0  0.11340082657E+03  0.85980827568E+02  0.10068087962E+03  0.17432466749E+03  0.00000000000E+00 0. -1.
         -2    1    5    5    0  503  0.11652242217E+03  0.14259492269E+03  0.24311024514E+03  0.30498094717E+03  0.00000000000E+00 0.  1.
         -1    1    6    6    0  502 -0.84658140081E+02  0.18936190910E+03 -0.43878618830E+03  0.48534343752E+03  0.00000000000E+00 0.  1.
<mgrwt>
<rscale>  0 0.19585532E+04</rscale>
<asrwt>0</asrwt>
<pdfrwt beam="1">  1        2 0.30815115E+00 0.19585532E+04</pdfrwt>
<pdfrwt beam="2">  1       -2 0.73658059E-01 0.19585532E+04</pdfrwt>
<totfact> 0.10310525E+01</totfact>
</mgrwt>
</event>
<event>
12    1  0.1518126E-007  0.1860974E+04  0.7818608E-02  0.8674530E-01
          3   -1    0    0  501    0  0.00000000000E+00  0.00000000000E+00  0.27674439590E+04  0.27674439590E+04  0.00000000000E+00 0. -1.
         -3   -1    0    0    0  501 -0.00000000000E+00 -0.00000000000E+00 -0.31285405340E+03  0.31285405340E+03  0.00000000000E+00 0.  1.
         23    2    1    2    0    0 -0.21883929359E+03 -0.59230964442E+03  0.15090122008E+04  0.16383354633E+04  0.91125829131E+02 0.  0.
        254    2    1    2    0    0  0.21883929359E+03  0.59230964442E+03  0.94557770483E+03  0.14419625492E+04  0.88680180763E+03 0.  0.
        -24    2    4    4    0    0  0.32661291171E+03 -0.59532161816E+02  0.81160358769E+02  0.35110960320E+03  0.80441763022E+02 0.  0.
         24    2    4    4    0    0 -0.10777361813E+03  0.65184180624E+03  0.86441734606E+03  0.10908529460E+04  0.78929768833E+02 0.  0.
         13    1    3    3    0    0 -0.10797540975E+03 -0.17844113770E+03  0.53698909255E+03  0.57607049417E+03  0.00000000000E+00 0.  1.
        -13    1    3    3    0    0 -0.11086388383E+03 -0.41386850672E+03  0.97202310824E+03  0.10622649691E+04  0.00000000000E+00 0. -1.
          2    1    6    6  502    0  0.99162099387E+01  0.18151057363E+02  0.22692485927E+02  0.30704088010E+02  0.00000000000E+00 0. -1.
          3    1    5    5  503    0  0.47080068738E+01  0.14931676188E+01  0.16406297022E+02  0.17133635348E+02  0.00000000000E+00 0. -1.
         -4    1    5    5    0  503  0.32190490484E+03 -0.61025329434E+02  0.64754061747E+02  0.33397596786E+03  0.00000000000E+00 0.  1.
         -1    1    6    6    0  502 -0.11768982807E+03  0.63369074888E+03  0.84172486014E+03  0.10601488580E+04  0.00000000000E+00 0.  1.
<mgrwt>
<rscale>  0 0.18609740E+04</rscale>
<asrwt>0</asrwt>
<pdfrwt beam="1">  1        3 0.42576059E+00 0.18609740E+04</pdfrwt>
<pdfrwt beam="2">  1       -3 0.48131395E-01 0.18609740E+04</pdfrwt>
<totfact> 0.86241258E-02</totfact>
</mgrwt>
</event>
<event>
12    1  0.1518126E-007  0.1298886E+04  0.7818608E-02  0.9030449E-01
         -2   -1    0    0    0  501 -0.00000000000E+00  0.00000000000E+00  0.22067103421E+03  0.22067103421E+03  0.00000000000E+00 0.  1.
          2   -1    0    0  501    0  0.00000000000E+00 -0.00000000000E+00 -0.19113332950E+04  0.19113332950E+04  0.00000000000E+00 0. -1.
         23    2    1    2    0    0  0.20430596503E+03 -0.14998512618E+03 -0.81191810291E+03  0.85534911627E+03  0.90413712713E+02 0.  0.
        254    2    1    2    0    0 -0.20430596503E+03  0.14998512618E+03 -0.87874415790E+03  0.12766552130E+04  0.89074169787E+03 0.  0.
        -24    2    4    4    0    0 -0.36606339403E+03  0.30249596709E+03 -0.14079111045E+03  0.50186810898E+03  0.80890317534E+02 0.  0.
         24    2    4    4    0    0  0.16175742900E+03 -0.15251084091E+03 -0.73795304744E+03  0.77478710398E+03  0.79343139749E+02 0.  0.
         11    1    3    3    0    0  0.14611041670E+03 -0.15159607247E+03 -0.65291829724E+03  0.68602618458E+03  0.00000000000E+00 0. -1.
        -11    1    3    3    0    0  0.58195548329E+02  0.16109462854E+01 -0.15899980567E+03  0.16932293169E+03  0.00000000000E+00 0.  1.
          4    1    6    6  502    0 -0.76199404965E+01 -0.11614315905E+02 -0.25397655436E+02  0.28948173151E+02  0.00000000000E+00 0. -1.
          1    1    5    5  503    0 -0.41040430948E+02  0.63952995690E+02 -0.38733918669E+01  0.76087487767E+02  0.00000000000E+00 0. -1.
         -2    1    5    5    0  503 -0.32502296309E+03  0.23854297140E+03 -0.13691771859E+03  0.42578062122E+03  0.00000000000E+00 0.  1.
         -3    1    6    6    0  502  0.16937736950E+03 -0.14089652500E+03 -0.71255539201E+03  0.74583893083E+03  0.00000000000E+00 0.  1.
<mgrwt>
<rscale>  0 0.12988855E+04</rscale>
<asrwt>0</asrwt>
<pdfrwt beam="1">  1        2 0.29405127E+00 0.12988855E+04</pdfrwt>
<pdfrwt beam="2">  1       -2 0.33949391E-01 0.12988855E+04</pdfrwt>
<totfact> 0.59602122E+01</totfact>
</mgrwt>
</event>
<event>
12    1  0.1518126E-007  0.1559415E+04  0.7818608E-02  0.8845876E-01
          1   -1    0    0  501    0  0.00000000000E+00  0.00000000000E+00  0.72938546171E+03  0.72938546171E+03  0.00000000000E+00 0. -1.
         -1   -1    0    0    0  501 -0.00000000000E+00 -0.00000000000E+00 -0.83350141614E+03  0.83350141614E+03  0.00000000000E+00 0.  1.
         23    2    1    2    0    0 -0.43696356420E+03  0.75324837401E+02 -0.31461015993E+03  0.54708773876E+03  0.60946317328E+02 0.  0.
        254    2    1    2    0    0  0.43696356420E+03 -0.75324837401E+02  0.21049420550E+03  0.10157991391E+04  0.88934194371E+03 0.  0.
        -24    2    4    4    0    0  0.57723019369E+03  0.19353866687E+03  0.30960873311E+03  0.68742741153E+03  0.77762242975E+02 0.  0.
         24    2    4    4    0    0 -0.14026662948E+03 -0.26886350427E+03 -0.99114527613E+02  0.32837172755E+03  0.77730242500E+02 0.  0.
         11    1    3    3    0    0 -0.18658984798E+01  0.14453644356E+01 -0.11395106943E+02  0.11636972017E+02  0.00000000000E+00 0. -1.
        -11    1    3    3    0    0 -0.43509766572E+03  0.73879472965E+02 -0.30321505299E+03  0.53545076674E+03  0.00000000000E+00 0.  1.
          2    1    6    6  502    0 -0.12468154720E+03 -0.26386427406E+03 -0.78811621144E+02  0.30229309447E+03  0.00000000000E+00 0. -1.
          3    1    5    5  503    0  0.43502628455E+03  0.15348390808E+03  0.19674283831E+03  0.50151064068E+03  0.00000000000E+00 0. -1.
         -2    1    5    5    0  503  0.14220390913E+03  0.40054758783E+02  0.11286589480E+03  0.18591677085E+03  0.00000000000E+00 0.  1.
         -1    1    6    6    0  502 -0.15585082283E+02 -0.49992302092E+01 -0.20302906469E+02  0.26078633084E+02  0.00000000000E+00 0.  1.
<mgrwt>
<rscale>  0 0.15594150E+04</rscale>
<asrwt>0</asrwt>
<pdfrwt beam="1">  1        1 0.11221315E+00 0.15594150E+04</pdfrwt>
<pdfrwt beam="2">  1       -1 0.12823099E+00 0.15594150E+04</pdfrwt>
<totfact> 0.12930211E+01</totfact>
</mgrwt>
</event>
<event>
12    1  0.1518126E-007  0.2527096E+04  0.7818608E-02  0.8393396E-01
          1   -1    0    0  501    0  0.00000000000E+00  0.00000000000E+00  0.25722866579E+04  0.25722866579E+04  0.00000000000E+00 0. -1.
         -1   -1    0    0    0  501 -0.00000000000E+00 -0.00000000000E+00 -0.62067466506E+03  0.62067466506E+03  0.00000000000E+00 0.  1.
         23    2    1    2    0    0 -0.19264652066E+03 -0.80117076946E+03 -0.68759395885E+02  0.83178087249E+03  0.90245673315E+02 0.  0.
        254    2    1    2    0    0  0.19264652066E+03  0.80117076946E+03  0.20203713887E+04  0.23611804505E+04  0.90237757480E+03 0.  0.
        -24    2    4    4    0    0  0.29814307386E+03  0.39514129200E+01  0.10710431533E+04  0.11145128213E+04  0.78105610168E+02 0.  0.
         24    2    4    4    0    0 -0.10549655319E+03  0.79721935654E+03  0.94932823539E+03  0.12466676292E+04  0.79169779281E+02 0.  0.
         11    1    3    3    0    0 -0.20230115716E+03 -0.75855029791E+03 -0.68893714214E+02  0.78808036171E+03  0.00000000000E+00 0.  1.
        -11    1    3    3    0    0  0.96546365000E+01 -0.42620471550E+02  0.13431832808E+00  0.43700510781E+02  0.00000000000E+00 0. -1.
          4    1    6    6  502    0 -0.10232838040E+03  0.64820548681E+03  0.73137480138E+03  0.98262431817E+03  0.00000000000E+00 0. -1.
          1    1    5    5  503    0  0.25812587210E+03  0.23799605759E+02  0.83613743441E+03  0.87539773606E+03  0.00000000000E+00 0. -1.
         -2    1    5    5    0  503  0.40017201763E+02 -0.19848192839E+02  0.23490571893E+03  0.23911508522E+03  0.00000000000E+00 0.  1.
         -3    1    6    6    0  502 -0.31681727934E+01  0.14901386974E+03  0.21795343402E+03  0.26404331102E+03  0.00000000000E+00 0.  1.
<mgrwt>
<rscale>  0 0.25270957E+04</rscale>
<asrwt>0</asrwt>
<pdfrwt beam="1">  1        1 0.39573640E+00 0.25270957E+04</pdfrwt>
<pdfrwt beam="2">  1       -1 0.95488411E-01 0.25270957E+04</pdfrwt>
<totfact> 0.11314851E+00</totfact>
</mgrwt>
</event>
<event>
12    1  0.1518126E-007  0.2514217E+04  0.7818608E-02  0.8397938E-01
          1   -1    0    0  501    0  0.00000000000E+00  0.00000000000E+00  0.19285434428E+04  0.19285434428E+04  0.00000000000E+00 0. -1.
         -1   -1    0    0    0  501 -0.00000000000E+00 -0.00000000000E+00 -0.81943793615E+03  0.81943793615E+03  0.00000000000E+00 0.  1.
         23    2    1    2    0    0 -0.45697229860E+02 -0.42845904832E+03 -0.61740746585E+03  0.75799711194E+03  0.87762463081E+02 0.  0.
        254    2    1    2    0    0  0.45697229860E+02  0.42845904832E+03  0.17265129725E+04  0.19899842670E+04  0.89080017167E+03 0.  0.
        -24    2    4    4    0    0  0.38595016931E+03  0.42127573890E+03  0.70955346139E+03  0.91452475989E+03  0.80365667445E+02 0.  0.
         24    2    4    4    0    0 -0.34025293945E+03  0.71833094160E+01  0.10169595111E+04  0.10754595071E+04  0.81134711951E+02 0.  0.
         13    1    3    3    0    0 -0.28111797996E+02 -0.97689292231E+02 -0.20685357336E+03  0.23048182535E+03  0.00000000000E+00 0. -1.
        -13    1    3    3    0    0 -0.17585431864E+02 -0.33076975609E+03 -0.41055389249E+03  0.52751528660E+03  0.00000000000E+00 0.  1.
          4    1    6    6  502    0 -0.48597990484E+02 -0.16495503814E+02  0.92348985440E+02  0.10565132009E+03  0.00000000000E+00 0. -1.
          1    1    5    5  503    0  0.10909601788E+03  0.17577254470E+03  0.24803533215E+03  0.32298522347E+03  0.00000000000E+00 0. -1.
         -2    1    5    5    0  503  0.27685415143E+03  0.24550319420E+03  0.46151812924E+03  0.59153953642E+03  0.00000000000E+00 0.  1.
         -3    1    6    6    0  502 -0.29165494897E+03  0.23678813230E+02  0.92461052569E+03  0.96980818705E+03  0.00000000000E+00 0.  1.
<mgrwt>
<rscale>  0 0.25142169E+04</rscale>
<asrwt>0</asrwt>
<pdfrwt beam="1">  1        1 0.29669899E+00 0.25142169E+04</pdfrwt>
<pdfrwt beam="2">  1       -1 0.12606738E+00 0.25142169E+04</pdfrwt>
<totfact> 0.16196275E+00</totfact>
</mgrwt>
</event>
<event>
12    1  0.1518126E-007  0.2340742E+04  0.7818608E-02  0.8462028E-01
         -1   -1    0    0    0  501 -0.00000000000E+00  0.00000000000E+00  0.13255036648E+04  0.13255036648E+04  0.00000000000E+00 0.  1.
          1   -1    0    0  501    0  0.00000000000E+00 -0.00000000000E+00 -0.10333948182E+04  0.10333948182E+04  0.00000000000E+00 0. -1.
         23    2    1    2    0    0  0.78882982158E+02 -0.81357708097E+03  0.70913266811E+03  0.10857987903E+04  0.89217041252E+02 0.  0.
        254    2    1    2    0    0 -0.78882982158E+02  0.81357708097E+03 -0.41702382152E+03  0.12730996928E+04  0.88246459901E+03 0.  0.
        -24    2    4    4    0    0  0.50939015351E+02  0.76379116728E+03 -0.63842563210E+03  0.99992800973E+03  0.79353679331E+02 0.  0.
         24    2    4    4    0    0 -0.12982199751E+03  0.49785913694E+02  0.22140181058E+03  0.27317168306E+03  0.79193550603E+02 0.  0.
         11    1    3    3    0    0  0.35098809776E+02 -0.65896322211E+03  0.54203463923E+03  0.85397072823E+03  0.00000000000E+00 0.  1.
        -11    1    3    3    0    0  0.43784172381E+02 -0.15461385886E+03  0.16709802888E+03  0.23182806206E+03  0.00000000000E+00 0. -1.
          4    1    6    6  502    0 -0.94332785224E+02  0.60849485576E+02  0.11607230693E+03  0.16147481135E+03  0.00000000000E+00 0. -1.
          1    1    5    5  503    0  0.37936877994E+02  0.19681768803E+03 -0.19940141121E+03  0.28273190804E+03  0.00000000000E+00 0. -1.
         -2    1    5    5    0  503  0.13002137356E+02  0.56697347925E+03 -0.43902422089E+03  0.71719610168E+03  0.00000000000E+00 0.  1.
         -3    1    6    6    0  502 -0.35489212285E+02 -0.11063571882E+02  0.10532950365E+03  0.11169687171E+03  0.00000000000E+00 0.  1.
<mgrwt>
<rscale>  0 0.23407423E+04</rscale>
<asrwt>0</asrwt>
<pdfrwt beam="1">  1        1 0.15898382E+00 0.23407423E+04</pdfrwt>
<pdfrwt beam="2">  1       -1 0.20392364E+00 0.23407423E+04</pdfrwt>
<totfact> 0.18156442E+00</totfact>
</mgrwt>
</event>
<event>
12    1  0.1518126E-007  0.2228115E+04  0.7818608E-02  0.8506816E-01
         -2   -1    0    0    0  501 -0.00000000000E+00  0.00000000000E+00  0.83888529465E+03  0.83888529465E+03  0.00000000000E+00 0.  1.
          2   -1    0    0  501    0  0.00000000000E+00 -0.00000000000E+00 -0.14794924387E+04  0.14794924387E+04  0.00000000000E+00 0. -1.
         23    2    1    2    0    0  0.96809177817E+02  0.33697612548E+03  0.62743553675E+03  0.72467244837E+03  0.92465553616E+02 0.  0.
        254    2    1    2    0    0 -0.96809177817E+02 -0.33697612548E+03 -0.12680426808E+04  0.15937052849E+04  0.89946615776E+03 0.  0.
        -24    2    4    4    0    0  0.29635770555E+02  0.29871389871E+03 -0.35614090721E+03  0.47207112629E+03  0.76853954448E+02 0.  0.
         24    2    4    4    0    0 -0.12644494837E+03 -0.63569002418E+03 -0.91190177356E+03  0.11216341587E+04  0.80051292385E+02 0.  0.
         11    1    3    3    0    0 -0.10947735063E+02  0.65385909715E+02  0.16305899068E+03  0.17602103435E+03  0.00000000000E+00 0. -1.
        -11    1    3    3    0    0  0.10775691288E+03  0.27159021576E+03  0.46437654607E+03  0.54865141403E+03  0.00000000000E+00 0.  1.
          2    1    6    6  502    0 -0.11937833856E+03 -0.63423795794E+03 -0.90572972204E+03  0.11121399662E+04  0.00000000000E+00 0. -1.
          3    1    5    5  503    0  0.36245680142E+02  0.18401441185E+03 -0.16890463880E+03  0.25239617689E+03  0.00000000000E+00 0. -1.
         -4    1    5    5    0  503 -0.66099095879E+01  0.11469948685E+03 -0.18723626840E+03  0.21967494940E+03  0.00000000000E+00 0.  1.
         -1    1    6    6    0  502 -0.70666098066E+01 -0.14520662453E+01 -0.61720515288E+01  0.94941924677E+01  0.00000000000E+00 0.  1.
<mgrwt>
<rscale>  0 0.22281153E+04</rscale>
<asrwt>0</asrwt>
<pdfrwt beam="1">  1        2 0.22761422E+00 0.22281153E+04</pdfrwt>
<pdfrwt beam="2">  1       -2 0.12905928E+00 0.22281153E+04</pdfrwt>
<totfact> 0.52604132E+00</totfact>
</mgrwt>
</event>
<event>
12    1  0.1518126E-007  0.3095839E+04  0.7818608E-02  0.8216881E-01
         -1   -1    0    0    0  501 -0.00000000000E+00  0.00000000000E+00  0.15356223348E+04  0.15356223348E+04  0.00000000000E+00 0.  1.
          1   -1    0    0  501    0  0.00000000000E+00 -0.00000000000E+00 -0.15603147667E+04  0.15603147667E+04  0.00000000000E+00 0. -1.
         23    2    1    2    0    0  0.71481424449E+03  0.95685441308E+03 -0.76970080163E+03  0.14238235789E+04  0.91128963025E+02 0.  0.
        254    2    1    2    0    0 -0.71481424449E+03 -0.95685441308E+03  0.74500836982E+03  0.16721135226E+04  0.90243913331E+03 0.  0.
        -24    2    4    4    0    0  0.10511713344E+03 -0.26110290732E+03  0.47833347529E+03  0.56125669458E+03  0.83557307728E+02 0.  0.
         24    2    4    4    0    0 -0.81993137793E+03 -0.69575150576E+03  0.26667489453E+03  0.11108568280E+04  0.80806996257E+02 0.  0.
         11    1    3    3    0    0  0.21908335121E+03  0.30995263787E+03 -0.29437015945E+03  0.48033524050E+03  0.00000000000E+00 0. -1.
        -11    1    3    3    0    0  0.49573089328E+03  0.64690177521E+03 -0.47533064218E+03  0.94348833841E+03  0.00000000000E+00 0.  1.
          4    1    6    6  502    0 -0.17303692791E+03 -0.12986034000E+03  0.23378423818E+02  0.21760523207E+03  0.00000000000E+00 0. -1.
          3    1    5    5  503    0  0.12559690097E+02  0.35326567408E+01  0.25935372737E+02  0.29032206909E+02  0.00000000000E+00 0. -1.
         -4    1    5    5    0  503  0.92557443347E+02 -0.26463556406E+03  0.45239810255E+03  0.53222448767E+03  0.00000000000E+00 0.  1.
         -3    1    6    6    0  502 -0.64689445002E+03 -0.56589116576E+03  0.24329647071E+03  0.89325159592E+03  0.00000000000E+00 0.  1.
<mgrwt>
<rscale>  0 0.30958386E+04</rscale>
<asrwt>0</asrwt>
<pdfrwt beam="1">  1        1 0.24004842E+00 0.30958386E+04</pdfrwt>
<pdfrwt beam="2">  1       -1 0.23624959E+00 0.30958386E+04</pdfrwt>
<totfact> 0.43049282E-01</totfact>
</mgrwt>
</event>
<event>
12    1  0.1518126E-007  0.2297086E+04  0.7818608E-02  0.8479071E-01
          1   -1    0    0  501    0  0.00000000000E+00  0.00000000000E+00  0.25572759974E+04  0.25572759974E+04  0.00000000000E+00 0. -1.
         -1   -1    0    0    0  501 -0.00000000000E+00 -0.00000000000E+00 -0.51584210465E+03  0.51584210465E+03  0.00000000000E+00 0.  1.
         23    2    1    2    0    0 -0.73284744382E+03  0.41198994627E+03  0.15752643033E+04  0.17877263745E+04  0.87788798785E+02 0.  0.
        254    2    1    2    0    0  0.73284744382E+03 -0.41198994627E+03  0.46616958947E+03  0.12853917275E+04  0.85329755383E+03 0.  0.
        -24    2    4    4    0    0 -0.10438466968E+03 -0.31415404650E+03  0.21349775164E+03  0.40174334401E+03  0.78914512642E+02 0.  0.
         24    2    4    4    0    0  0.83723211349E+03 -0.97835899765E+02  0.25267183783E+03  0.88364838354E+03  0.80386148984E+02 0.  0.
         13    1    3    3    0    0 -0.20761999404E+03  0.14039076477E+03  0.39859610829E+03  0.47084443960E+03  0.00000000000E+00 0. -1.
        -13    1    3    3    0    0 -0.52522744977E+03  0.27159918150E+03  0.11766681950E+04  0.13168819349E+04  0.00000000000E+00 0.  1.
          4    1    6    6  502    0  0.26698970522E+03 -0.22814308911E+01  0.55051785799E+02  0.27261585930E+03  0.00000000000E+00 0. -1.
          1    1    5    5  503    0 -0.31020679278E+02 -0.10206454763E+03  0.11439737664E+03  0.15641679644E+03  0.00000000000E+00 0. -1.
         -2    1    5    5    0  503 -0.73363990397E+02 -0.21208949887E+03  0.99100374995E+02  0.24532654757E+03  0.00000000000E+00 0.  1.
         -3    1    6    6    0  502  0.57024240827E+03 -0.95554468874E+02  0.19762005203E+03  0.61103252424E+03  0.00000000000E+00 0.  1.
<mgrwt>
<rscale>  0 0.22970857E+04</rscale>
<asrwt>0</asrwt>
<pdfrwt beam="1">  1        1 0.39342707E+00 0.22970857E+04</pdfrwt>
<pdfrwt beam="2">  1       -1 0.79360325E-01 0.22970857E+04</pdfrwt>
<totfact> 0.17730380E+00</totfact>
</mgrwt>
</event>
<event>
12    1  0.1518126E-007  0.1234741E+04  0.7818608E-02  0.9082979E-01
         -1   -1    0    0    0  501 -0.00000000000E+00  0.00000000000E+00  0.10033942334E+04  0.10033942334E+04  0.00000000000E+00 0.  1.
          1   -1    0    0  501    0  0.00000000000E+00 -0.00000000000E+00 -0.37985726927E+03  0.37985726927E+03  0.00000000000E+00 0. -1.
         23    2    1    2    0    0 -0.59878776064E+02 -0.12809135735E+03  0.44610235962E+03  0.47722714796E+03  0.93517762180E+02 0.  0.
        254    2    1    2    0    0  0.59878776064E+02  0.12809135735E+03  0.17743460456E+03  0.90602435475E+03  0.87715690093E+03 0.  0.
        -24    2    4    4    0    0 -0.10277292459E+03  0.23854495613E+03  0.47100269903E+03  0.54372443838E+03  0.79540884296E+02 0.  0.
         24    2    4    4    0    0  0.16265170066E+03 -0.11045359878E+03 -0.29356809446E+03  0.36229991637E+03  0.80146304390E+02 0.  0.
         11    1    3    3    0    0 -0.79521840440E+02 -0.95834891494E+02  0.27313346984E+03  0.30018318054E+03  0.00000000000E+00 0.  1.
        -11    1    3    3    0    0  0.19643064376E+02 -0.32256465859E+02  0.17296888978E+03  0.17704396742E+03  0.00000000000E+00 0. -1.
          4    1    6    6  502    0  0.16503691288E+03 -0.83183124758E+02 -0.25133535100E+03  0.31197127034E+03  0.00000000000E+00 0. -1.
          1    1    5    5  503    0 -0.92303529510E+02  0.24225942109E+03  0.46037340514E+03  0.52834954417E+03  0.00000000000E+00 0. -1.
         -2    1    5    5    0  503 -0.10469395081E+02 -0.37144649605E+01  0.10629293889E+02  0.15374894207E+02  0.00000000000E+00 0.  1.
         -3    1    6    6    0  502 -0.23852122238E+01 -0.27270474021E+02 -0.42232743469E+02  0.50328646034E+02  0.00000000000E+00 0.  1.
<mgrwt>
<rscale>  0 0.12347414E+04</rscale>
<asrwt>0</asrwt>
<pdfrwt beam="1">  1        1 0.58439580E-01 0.12347414E+04</pdfrwt>
<pdfrwt beam="2">  1       -1 0.15436834E+00 0.12347414E+04</pdfrwt>
<totfact> 0.20476650E+01</totfact>
</mgrwt>
</event>
<event>
12    1  0.1518126E-007  0.1251921E+04  0.7818608E-02  0.9068586E-01
         -1   -1    0    0    0  501 -0.00000000000E+00  0.00000000000E+00  0.52120970623E+03  0.52120970623E+03  0.00000000000E+00 0.  1.
          1   -1    0    0  501    0  0.00000000000E+00 -0.00000000000E+00 -0.75176339080E+03  0.75176339080E+03  0.00000000000E+00 0. -1.
         23    2    1    2    0    0  0.61384733696E+02 -0.19006879766E+03 -0.28760047569E+03  0.36179974940E+03  0.91053784528E+02 0.  0.
        254    2    1    2    0    0 -0.61384733696E+02  0.19006879766E+03  0.57046791125E+02  0.91117334762E+03  0.88717997028E+03 0.  0.
        -24    2    4    4    0    0 -0.36936055372E+03 -0.15959427929E+03  0.13643479139E+03  0.43237552962E+03  0.80228384579E+02 0.  0.
         24    2    4    4    0    0  0.30797582002E+03  0.34966307695E+03 -0.79388000268E+02  0.47879781800E+03  0.76364408201E+02 0.  0.
         13    1    3    3    0    0  0.19186385583E+02  0.47478534772E+01 -0.20019516357E+02  0.28132553023E+02  0.00000000000E+00 0.  1.
        -13    1    3    3    0    0  0.42198348113E+02 -0.19481665113E+03 -0.26758095933E+03  0.33366719638E+03  0.00000000000E+00 0. -1.
          4    1    6    6  502    0  0.22495419494E+03  0.30153094786E+03 -0.64291089263E+02  0.38165252062E+03  0.00000000000E+00 0. -1.
          1    1    5    5  503    0 -0.15477839362E+03 -0.98597224769E+02  0.32914208750E+02  0.18644331311E+03  0.00000000000E+00 0. -1.
         -2    1    5    5    0  503 -0.21458216009E+03 -0.60997054520E+02  0.10352058264E+03  0.24593221652E+03  0.00000000000E+00 0.  1.
         -3    1    6    6    0  502  0.83021625080E+02  0.48132129090E+02 -0.15096911006E+02  0.97145297383E+02  0.00000000000E+00 0.  1.
<mgrwt>
<rscale>  0 0.12519207E+04</rscale>
<asrwt>0</asrwt>
<pdfrwt beam="1">  1        1 0.11565591E+00 0.12519207E+04</pdfrwt>
<pdfrwt beam="2">  1       -1 0.80186109E-01 0.12519207E+04</pdfrwt>
<totfact> 0.37364677E+01</totfact>
</mgrwt>
</event>
<event>
12    1  0.1518126E-007  0.1269130E+04  0.7818608E-02  0.9054410E-01
          1   -1    0    0  501    0  0.00000000000E+00  0.00000000000E+00  0.97313779411E+03  0.97313779411E+03  0.00000000000E+00 0. -1.
         -1   -1    0    0    0  501 -0.00000000000E+00 -0.00000000000E+00 -0.41378822393E+03  0.41378822393E+03  0.00000000000E+00 0.  1.
         23    2    1    2    0    0 -0.30160599414E+03  0.17022522798E+02 -0.96314151867E-02  0.31649810912E+03  0.94419865481E+02 0.  0.
        254    2    1    2    0    0  0.30160599414E+03 -0.17022522798E+02  0.55935920159E+03  0.10704279089E+04  0.86120685658E+03 0.  0.
        -24    2    4    4    0    0 -0.18084153077E+03  0.27107687448E+03  0.28429417541E+03  0.43952723784E+03  0.78579154395E+02 0.  0.
         24    2    4    4    0    0  0.48244752491E+03 -0.28809939728E+03  0.27506502619E+03  0.63090067108E+03  0.81351159388E+02 0.  0.
         13    1    3    3    0    0 -0.27296228700E+03  0.35087610736E+02 -0.22054324648E+02  0.27609046305E+03  0.00000000000E+00 0.  1.
        -13    1    3    3    0    0 -0.28643707144E+02 -0.18065087938E+02  0.22044693233E+02  0.40407646070E+02  0.00000000000E+00 0. -1.
          2    1    6    6  502    0  0.42069355077E+02 -0.51595984755E+02  0.18822917010E+02  0.69182934920E+02  0.00000000000E+00 0. -1.
          3    1    5    5  503    0 -0.96521865826E+01  0.34912790420E+02  0.66469577756E+01  0.36827295426E+02  0.00000000000E+00 0. -1.
         -4    1    5    5    0  503 -0.17118934419E+03  0.23616408406E+03  0.27764721763E+03  0.40269994242E+03  0.00000000000E+00 0.  1.
         -3    1    6    6    0  502  0.44037816984E+03 -0.23650341253E+03  0.25624210918E+03  0.56171773616E+03  0.00000000000E+00 0.  1.
<mgrwt>
<rscale>  0 0.12691303E+04</rscale>
<asrwt>0</asrwt>
<pdfrwt beam="1">  1        1 0.14971351E+00 0.12691303E+04</pdfrwt>
<pdfrwt beam="2">  1       -1 0.63659727E-01 0.12691303E+04</pdfrwt>
<totfact> 0.39154585E+01</totfact>
</mgrwt>
</event>
<event>
12    1  0.1518126E-007  0.1383697E+04  0.7818608E-02  0.8965705E-01
         -3   -1    0    0    0  501 -0.00000000000E+00  0.00000000000E+00  0.78300581217E+03  0.78300581217E+03  0.00000000000E+00 0.  1.
          3   -1    0    0  501    0  0.00000000000E+00 -0.00000000000E+00 -0.61130347319E+03  0.61130347319E+03  0.00000000000E+00 0. -1.
         23    2    1    2    0    0 -0.29768511474E+03  0.18089206516E+03 -0.12280351993E+03  0.38043025828E+03  0.91148835069E+02 0.  0.
        254    2    1    2    0    0  0.29768511474E+03 -0.18089206516E+03  0.29450585891E+03  0.10138790271E+04  0.90547148704E+03 0.  0.
        -24    2    4    4    0    0  0.15003025691E+02  0.35185105235E+03  0.10396776965E+03  0.37584061747E+03  0.80141242791E+02 0.  0.
         24    2    4    4    0    0  0.28268208905E+03 -0.53274311751E+03  0.19053808927E+03  0.63803840961E+03  0.84046748590E+02 0.  0.
         13    1    3    3    0    0 -0.25283936132E+03  0.12489730376E+03 -0.12543202300E+03  0.30864262750E+03  0.00000000000E+00 0. -1.
        -13    1    3    3    0    0 -0.44845753421E+02  0.55994761404E+02  0.26285030723E+01  0.71787630781E+02  0.00000000000E+00 0.  1.
          2    1    6    6  502    0  0.17327065399E+03 -0.38765418884E+03  0.16006025784E+03  0.45378163890E+03  0.00000000000E+00 0. -1.
          1    1    5    5  503    0  0.16499533369E+02  0.30210305015E+03  0.57943776955E+02  0.30805189303E+03  0.00000000000E+00 0. -1.
         -2    1    5    5    0  503 -0.14965076780E+01  0.49748002204E+02  0.46023992694E+02  0.67788724446E+02  0.00000000000E+00 0.  1.
         -3    1    6    6    0  502  0.10941143506E+03 -0.14508892867E+03  0.30477831424E+02  0.18425677071E+03  0.00000000000E+00 0.  1.
<mgrwt>
<rscale>  0 0.13836967E+04</rscale>
<asrwt>0</asrwt>
<pdfrwt beam="1">  1        3 0.94046688E-01 0.13836967E+04</pdfrwt>
<pdfrwt beam="2">  1       -3 0.12046243E+00 0.13836967E+04</pdfrwt>
<totfact> 0.14426015E+00</totfact>
</mgrwt>
</event>
<event>
12    1  0.1587082E-007  0.2004168E+04  0.7818608E-02  0.8604674E-01
          1   -1    0    0  501    0  0.00000000000E+00  0.00000000000E+00  0.16020727848E+04  0.16020727848E+04  0.00000000000E+00 0. -1.
         -1   -1    0    0    0  501 -0.00000000000E+00 -0.00000000000E+00 -0.62679582765E+03  0.62679582765E+03  0.00000000000E+00 0.  1.
         23    2    1    2    0    0 -0.82088162535E+02  0.40270284958E+03 -0.38941701070E+03  0.57330614868E+03  0.90145884021E+02 0.  0.
        254    2    1    2    0    0  0.82088162535E+02 -0.40270284958E+03  0.13646939679E+04  0.16555624638E+04  0.84237129229E+03 0.  0.
        -24    2    4    4    0    0 -0.30517357311E+03  0.40383549750E+02  0.30375222936E+03  0.43965789420E+03  0.79195367771E+02 0.  0.
         24    2    4    4    0    0  0.38726173565E+03 -0.44308639933E+03  0.10609417385E+04  0.12159045696E+04  0.80804335571E+02 0.  0.
         13    1    3    3    0    0 -0.54388832853E+02  0.10754715156E+03 -0.14886913921E+03  0.19153734768E+03  0.00000000000E+00 0. -1.
        -13    1    3    3    0    0 -0.27699329682E+02  0.29515569802E+03 -0.24054787149E+03  0.38176880100E+03  0.00000000000E+00 0.  1.
          2    1    6    6  502    0  0.17020738764E+02 -0.22710152205E+02  0.23331707743E+02  0.36739966623E+02  0.00000000000E+00 0. -1.
          1    1    5    5  503    0 -0.22534644646E+02  0.21177829108E+02  0.12498198751E+02  0.33354394419E+02  0.00000000000E+00 0. -1.
         -2    1    5    5    0  503 -0.28263892847E+03  0.19205720642E+02  0.29125403060E+03  0.40630349978E+03  0.00000000000E+00 0.  1.
         -1    1    6    6    0  502  0.37024099688E+03 -0.42037624712E+03  0.10376100308E+04  0.11791646030E+04  0.00000000000E+00 0.  1.
<mgrwt>
<rscale>  0 0.20041682E+04</rscale>
<asrwt>0</asrwt>
<pdfrwt beam="1">  1        1 0.24647273E+00 0.20041682E+04</pdfrwt>
<pdfrwt beam="2">  1       -1 0.96430128E-01 0.20041682E+04</pdfrwt>
<totfact> 0.53391843E+00</totfact>
</mgrwt>
</event>
<event>
12    1  0.1518126E-007  0.1857553E+04  0.7818608E-02  0.8676278E-01
         -2   -1    0    0    0  501 -0.00000000000E+00  0.00000000000E+00  0.13162491370E+04  0.13162491370E+04  0.00000000000E+00 0.  1.
          2   -1    0    0  501    0  0.00000000000E+00 -0.00000000000E+00 -0.65536687077E+03  0.65536687077E+03  0.00000000000E+00 0. -1.
         23    2    1    2    0    0  0.36579285448E+03  0.10258342712E+02 -0.39026334170E+03  0.54199123466E+03  0.86829583585E+02 0.  0.
        254    2    1    2    0    0 -0.36579285448E+03 -0.10258342712E+02  0.10511456079E+04  0.14296247731E+04  0.89722363812E+03 0.  0.
        -24    2    4    4    0    0  0.15617499790E+03  0.28520425739E+03  0.21674842918E+03  0.39894254986E+03  0.80269409705E+02 0.  0.
         24    2    4    4    0    0 -0.52196785238E+03 -0.29546260010E+03  0.83439717873E+03  0.10306822232E+04  0.79615365480E+02 0.  0.
         13    1    3    3    0    0  0.34714448473E+03  0.30592180664E+02 -0.36295758677E+03  0.50317331466E+03  0.00000000000E+00 0. -1.
        -13    1    3    3    0    0  0.18648369748E+02 -0.20333837952E+02 -0.27305754940E+02  0.38817919998E+02  0.00000000000E+00 0.  1.
          4    1    6    6  502    0 -0.46069068226E+03 -0.27351323631E+03  0.77756077509E+03  0.94427017009E+03  0.00000000000E+00 0. -1.
          3    1    5    5  503    0  0.93008973713E+02  0.90517417061E+02  0.73949499163E+02  0.14937402856E+03  0.00000000000E+00 0. -1.
         -4    1    5    5    0  503  0.63166024187E+02  0.19468684032E+03  0.14279893001E+03  0.24956852129E+03  0.00000000000E+00 0.  1.
         -3    1    6    6    0  502 -0.61277170115E+02 -0.21949363783E+02  0.56836403640E+02  0.86412053132E+02  0.00000000000E+00 0.  1.
<mgrwt>
<rscale>  0 0.18575533E+04</rscale>
<asrwt>0</asrwt>
<pdfrwt beam="1">  1        2 0.10082567E+00 0.18575533E+04</pdfrwt>
<pdfrwt beam="2">  1       -2 0.20249987E+00 0.18575533E+04</pdfrwt>
<totfact> 0.53526904E+00</totfact>
</mgrwt>
</event>
<event>
12    1  0.1518126E-007  0.1177705E+04  0.7818608E-02  0.9132598E-01
          2   -1    0    0  501    0  0.00000000000E+00  0.00000000000E+00  0.34748332514E+03  0.34748332514E+03  0.00000000000E+00 0.  1.
         -2   -1    0    0    0  501 -0.00000000000E+00 -0.00000000000E+00 -0.99788126719E+03  0.99788126719E+03  0.00000000000E+00 0. -1.
         23    2    1    2    0    0  0.22066198400E+03  0.59204852192E+01 -0.52041064850E+02  0.23998996236E+03  0.78486599325E+02 0.  0.
        254    2    1    2    0    0 -0.22066198400E+03 -0.59204852192E+01 -0.59835687720E+03  0.11053746300E+04  0.90282631595E+03 0.  0.
        -24    2    4    4    0    0 -0.18777440272E+03 -0.23000246766E+03 -0.75569624967E+03  0.81573741246E+03  0.78678732065E+02 0.  0.
         24    2    4    4    0    0 -0.32887581279E+02  0.22408198244E+03  0.15733937247E+03  0.28963721751E+03  0.88542146903E+02 0.  0.
         13    1    3    3    0    0  0.17993809670E+02 -0.23341889474E+02 -0.79757946683E+01  0.30532512036E+02  0.00000000000E+00 0. -1.
        -13    1    3    3    0    0  0.20266817433E+03  0.29262374693E+02 -0.44065270181E+02  0.20945745032E+03  0.00000000000E+00 0.  1.
          2    1    6    6  502    0  0.27301047596E+02  0.34035793997E+02  0.23902092505E+02  0.49750301496E+02  0.00000000000E+00 0. -1.
          1    1    5    5  503    0 -0.17350899416E+03 -0.22640522688E+03 -0.66122112395E+03  0.72012365089E+03  0.00000000000E+00 0. -1.
         -2    1    5    5    0  503 -0.14265408564E+02 -0.35972407841E+01 -0.94475125718E+02  0.95613761573E+02  0.00000000000E+00 0.  1.
         -1    1    6    6    0  502 -0.60188628875E+02  0.19004618844E+03  0.13343727997E+03  0.23988691601E+03  0.00000000000E+00 0.  1.
<mgrwt>
<rscale>  0 0.11777047E+04</rscale>
<asrwt>0</asrwt>
<pdfrwt beam="1">  1        2 0.53458974E-01 0.11777047E+04</pdfrwt>
<pdfrwt beam="2">  1       -2 0.15352019E+00 0.11777047E+04</pdfrwt>
<totfact> 0.25899935E+01</totfact>
</mgrwt>
</event>
<event>
12    1  0.1518126E-007  0.1310259E+04  0.7818608E-02  0.9021469E-01
          2   -1    0    0  501    0  0.00000000000E+00  0.00000000000E+00  0.95309836776E+03  0.95309836776E+03  0.00000000000E+00 0. -1.
         -2   -1    0    0    0  501 -0.00000000000E+00 -0.00000000000E+00 -0.45031493292E+03  0.45031493292E+03  0.00000000000E+00 0.  1.
         23    2    1    2    0    0  0.23931840418E+03 -0.21407668643E+03  0.14711665013E+02  0.33182639819E+03  0.82402665005E+02 0.  0.
        254    2    1    2    0    0 -0.23931840418E+03  0.21407668643E+03  0.48807176982E+03  0.10715869025E+04  0.89832194164E+03 0.  0.
        -24    2    4    4    0    0  0.35884532061E+02 -0.31828854857E+03  0.27832677477E+03  0.43169136081E+03  0.79349465365E+02 0.  0.
         24    2    4    4    0    0 -0.27520293624E+03  0.53236523500E+03  0.20974499504E+03  0.63989554168E+03  0.79523215238E+02 0.  0.
         11    1    3    3    0    0  0.10013806402E+03 -0.38118473580E+02  0.54529878375E+01  0.10728646219E+03  0.00000000000E+00 0. -1.
        -11    1    3    3    0    0  0.13918034016E+03 -0.17595821285E+03  0.92586771755E+01  0.22453993600E+03  0.00000000000E+00 0.  1.
          4    1    6    6  502    0 -0.20300580543E+03  0.45739124373E+03  0.17078162895E+03  0.52875747907E+03  0.00000000000E+00 0. -1.
          3    1    5    5  503    0  0.10602720694E+02 -0.28868789091E+03  0.22771919784E+03  0.36784391950E+03  0.00000000000E+00 0. -1.
         -4    1    5    5    0  503  0.25281811367E+02 -0.29600657656E+02  0.50607576932E+02  0.63847441316E+02  0.00000000000E+00 0.  1.
         -3    1    6    6    0  502 -0.72197130809E+02  0.74973991265E+02  0.38963366094E+02  0.11113806261E+03  0.00000000000E+00 0.  1.
<mgrwt>
<rscale>  0 0.13102586E+04</rscale>
<asrwt>0</asrwt>
<pdfrwt beam="1">  1        2 0.14663052E+00 0.13102586E+04</pdfrwt>
<pdfrwt beam="2">  1       -2 0.69279221E-01 0.13102586E+04</pdfrwt>
<totfact> 0.50341163E+01</totfact>
</mgrwt>
</event>
<event>
12    1  0.1518126E-007  0.1674081E+04  0.7818608E-02  0.8776287E-01
         -2   -1    0    0    0  501 -0.00000000000E+00  0.00000000000E+00  0.38289200633E+03  0.38289200633E+03  0.00000000000E+00 0.  1.
          2   -1    0    0  501    0  0.00000000000E+00 -0.00000000000E+00 -0.18298549552E+04  0.18298549552E+04  0.00000000000E+00 0. -1.
         23    2    1    2    0    0 -0.14657378731E+01  0.57205225144E+03 -0.75221668830E+03  0.94966142691E+03  0.93706738452E+02 0.  0.
        254    2    1    2    0    0  0.14657378731E+01 -0.57205225144E+03 -0.69474626060E+03  0.12630855347E+04  0.88626563426E+03 0.  0.
        -24    2    4    4    0    0 -0.31127692154E+03 -0.60004957033E+02  0.18562513465E+02  0.32755997289E+03  0.80355784989E+02 0.  0.
         24    2    4    4    0    0  0.31274265941E+03 -0.51204729440E+03 -0.71330877407E+03  0.93552556176E+03  0.79989166953E+02 0.  0.
         11    1    3    3    0    0 -0.12909229203E+02  0.26568441050E+03 -0.42400117039E+03  0.50053156411E+03  0.00000000000E+00 0. -1.
        -11    1    3    3    0    0  0.11443491329E+02  0.30636784094E+03 -0.32821551792E+03  0.44912986280E+03  0.00000000000E+00 0.  1.
          2    1    6    6  502    0  0.13835300818E+03 -0.15493085498E+03 -0.23428552115E+03  0.31310514227E+03  0.00000000000E+00 0. -1.
          3    1    5    5  503    0 -0.26153573082E+03 -0.79333230413E+02  0.97848961201E+01  0.27347841621E+03  0.00000000000E+00 0. -1.
         -4    1    5    5    0  503 -0.49741190725E+02  0.19328273380E+02  0.87776173453E+01  0.54081556679E+02  0.00000000000E+00 0.  1.
         -1    1    6    6    0  502  0.17438965123E+03 -0.35711643942E+03 -0.47902325292E+03  0.62242041949E+03  0.00000000000E+00 0.  1.
<mgrwt>
<rscale>  0 0.16740810E+04</rscale>
<asrwt>0</asrwt>
<pdfrwt beam="1">  1        2 0.28151615E+00 0.16740810E+04</pdfrwt>
<pdfrwt beam="2">  1       -2 0.58906463E-01 0.16740810E+04</pdfrwt>
<totfact> 0.21322100E+01</totfact>
</mgrwt>
</event>
<event>
12    1  0.1518126E-007  0.1237754E+04  0.7818608E-02  0.9080438E-01
         -3   -1    0    0    0  501 -0.00000000000E+00  0.00000000000E+00  0.12011342037E+04  0.12011342037E+04  0.00000000000E+00 0.  1.
          3   -1    0    0  501    0  0.00000000000E+00 -0.00000000000E+00 -0.31887255341E+03  0.31887255341E+03  0.00000000000E+00 0. -1.
         23    2    1    2    0    0 -0.41319304489E+02 -0.18468572079E+03 -0.41557877903E+02  0.21330620068E+03  0.89198529376E+02 0.  0.
        254    2    1    2    0    0  0.41319304489E+02  0.18468572079E+03  0.92381952817E+03  0.13067005564E+04  0.90454835309E+03 0.  0.
        -24    2    4    4    0    0 -0.45490481424E+02  0.35326394207E+03  0.10170848963E+04  0.10806218906E+04  0.80107351043E+02 0.  0.
         24    2    4    4    0    0  0.86809785913E+02 -0.16857822128E+03 -0.93265368080E+02  0.22607866576E+03  0.80365282355E+02 0.  0.
         11    1    3    3    0    0 -0.93622965347E+01 -0.16369903121E+03 -0.54744262805E+02  0.17286399198E+03  0.00000000000E+00 0. -1.
        -11    1    3    3    0    0 -0.31957007954E+02 -0.20986689586E+02  0.13186384902E+02  0.40442208692E+02  0.00000000000E+00 0.  1.
          4    1    6    6  502    0  0.54170658293E+02 -0.91500285594E+02 -0.94660130871E+02  0.14236327778E+03  0.00000000000E+00 0. -1.
          1    1    5    5  503    0 -0.16683414110E+02  0.10736001643E+03  0.42900826827E+03  0.44255237394E+03  0.00000000000E+00 0. -1.
         -2    1    5    5    0  503 -0.28807067314E+02  0.24590392564E+03  0.58807662798E+03  0.63806951670E+03  0.00000000000E+00 0.  1.
         -3    1    6    6    0  502  0.32639127620E+02 -0.77077935683E+02  0.13947627904E+01  0.83715387977E+02  0.00000000000E+00 0.  1.
<mgrwt>
<rscale>  0 0.12377540E+04</rscale>
<asrwt>0</asrwt>
<pdfrwt beam="1">  1        3 0.49057316E-01 0.12377540E+04</pdfrwt>
<pdfrwt beam="2">  1       -3 0.18478988E+00 0.12377540E+04</pdfrwt>
<totfact> 0.19553176E+00</totfact>
</mgrwt>
</event>
<event>
12    1  0.1518126E-007  0.1475587E+04  0.7818608E-02  0.8900851E-01
         -2   -1    0    0    0  501 -0.00000000000E+00  0.00000000000E+00  0.85549540972E+03  0.85549540972E+03  0.00000000000E+00 0.  1.
          2   -1    0    0  501    0  0.00000000000E+00 -0.00000000000E+00 -0.63628561624E+03  0.63628561624E+03  0.00000000000E+00 0. -1.
         23    2    1    2    0    0 -0.26266405456E+03 -0.32857495695E+03 -0.12427003185E+03  0.44795272046E+03  0.90910346239E+02 0.  0.
        254    2    1    2    0    0  0.26266405456E+03  0.32857495695E+03  0.34347982533E+03  0.10438283055E+04  0.89142875940E+03 0.  0.
        -24    2    4    4    0    0 -0.30727631957E+03  0.61285689081E+02  0.23596210601E+03  0.40035571074E+03  0.80199173273E+02 0.  0.
         24    2    4    4    0    0  0.56994037413E+03  0.26728926787E+03  0.10751771933E+03  0.64347259477E+03  0.78875455413E+02 0.  0.
         11    1    3    3    0    0 -0.23809976427E+02 -0.21863686144E+01 -0.17546825405E+02  0.29657819660E+02  0.00000000000E+00 0.  1.
        -11    1    3    3    0    0 -0.23885407813E+03 -0.32638858834E+03 -0.10672320645E+03  0.41829490080E+03  0.00000000000E+00 0. -1.
          4    1    6    6  502    0  0.38776424995E+03  0.21614886750E+03  0.56665709591E+02  0.44754044410E+03  0.00000000000E+00 0. -1.
          3    1    5    5  503    0 -0.26669117658E+03  0.79966320934E+02  0.20940301730E+03  0.34837970636E+03  0.00000000000E+00 0. -1.
         -4    1    5    5    0  503 -0.40585142991E+02 -0.18680631854E+02  0.26559088706E+02  0.51976004376E+02  0.00000000000E+00 0.  1.
         -3    1    6    6    0  502  0.18217612419E+03  0.51140400366E+02  0.50852009735E+02  0.19593215067E+03  0.00000000000E+00 0.  1.
<mgrwt>
<rscale>  0 0.14755872E+04</rscale>
<asrwt>0</asrwt>
<pdfrwt beam="1">  1        2 0.97890095E-01 0.14755872E+04</pdfrwt>
<pdfrwt beam="2">  1       -2 0.13161468E+00 0.14755872E+04</pdfrwt>
<totfact> 0.18800009E+01</totfact>
</mgrwt>
</event>
<event>
12    1  0.1518126E-007  0.1329740E+04  0.7818608E-02  0.9006308E-01
          2   -1    0    0  501    0  0.00000000000E+00  0.00000000000E+00  0.10158795795E+04  0.10158795795E+04  0.00000000000E+00 0. -1.
         -2   -1    0    0    0  501 -0.00000000000E+00 -0.00000000000E+00 -0.43514243482E+03  0.43514243482E+03  0.00000000000E+00 0.  1.
         23    2    1    2    0    0  0.30584600392E+03  0.11509802574E+03  0.90683395098E+01  0.33893525711E+03  0.89473683751E+02 0.  0.
        254    2    1    2    0    0 -0.30584600392E+03 -0.11509802574E+03  0.57166880517E+03  0.11120867572E+04  0.89618212385E+03 0.  0.
        -24    2    4    4    0    0  0.28405236306E+02 -0.22584288638E+03  0.69114224108E+03  0.73170329031E+03  0.76813025391E+02 0.  0.
         24    2    4    4    0    0 -0.33425124023E+03  0.11074486064E+03 -0.11947343592E+03  0.38038346690E+03  0.80183316515E+02 0.  0.
         13    1    3    3    0    0  0.25679258311E+03  0.10688136284E+03 -0.24043145718E+02  0.27918475839E+03  0.00000000000E+00 0.  1.
        -13    1    3    3    0    0  0.49053420814E+02  0.82166629017E+01  0.33111485228E+02  0.59750498716E+02  0.00000000000E+00 0. -1.
          4    1    6    6  502    0 -0.25623737219E+03  0.11259657617E+03 -0.71837389286E+02  0.28895707358E+03  0.00000000000E+00 0. -1.
          1    1    5    5  503    0  0.38975341432E+02 -0.20661799603E+03  0.66565787386E+03  0.69807626987E+03  0.00000000000E+00 0. -1.
         -2    1    5    5    0  503 -0.10570105126E+02 -0.19224890346E+02  0.25484367225E+02  0.33627020445E+02  0.00000000000E+00 0.  1.
         -3    1    6    6    0  502 -0.78013868038E+02 -0.18517155312E+01 -0.47636046629E+02  0.91426393318E+02  0.00000000000E+00 0.  1.
<mgrwt>
<rscale>  0 0.13297403E+04</rscale>
<asrwt>0</asrwt>
<pdfrwt beam="1">  1        2 0.15628917E+00 0.13297403E+04</pdfrwt>
<pdfrwt beam="2">  1       -2 0.66944990E-01 0.13297403E+04</pdfrwt>
<totfact> 0.49311919E+01</totfact>
</mgrwt>
</event>
<event>
12    1  0.1518126E-007  0.2591083E+04  0.7818608E-02  0.8371236E-01
          1   -1    0    0  501    0  0.00000000000E+00  0.00000000000E+00  0.97911488337E+03  0.97911488337E+03  0.00000000000E+00 0. -1.
         -1   -1    0    0    0  501 -0.00000000000E+00 -0.00000000000E+00 -0.17142294114E+04  0.17142294114E+04  0.00000000000E+00 0.  1.
         23    2    1    2    0    0  0.70143568635E+03  0.46808996303E+03  0.46895875558E+03  0.96957375392E+03  0.95030070305E+02 0.  0.
        254    2    1    2    0    0 -0.70143568635E+03 -0.46808996303E+03 -0.12040732836E+04  0.17237705408E+04  0.90026227823E+03 0.  0.
        -24    2    4    4    0    0 -0.53796693826E+03 -0.27282631445E+03 -0.13036427857E+04  0.14386682266E+04  0.80244184683E+02 0.  0.
         24    2    4    4    0    0 -0.16346874809E+03 -0.19526364858E+03  0.99569502100E+02  0.28510231419E+03  0.80742304560E+02 0.  0.
         11    1    3    3    0    0  0.53399735716E+03  0.32166667250E+03  0.31028471205E+03  0.69634706015E+03  0.00000000000E+00 0. -1.
        -11    1    3    3    0    0  0.16743832919E+03  0.14642329053E+03  0.15867404353E+03  0.27322669376E+03  0.00000000000E+00 0.  1.
          4    1    6    6  502    0 -0.12507908276E+03 -0.12482297817E+03  0.10349339745E+03  0.20478387666E+03  0.00000000000E+00 0. -1.
          3    1    5    5  503    0 -0.26901743392E+03 -0.13301408270E+03 -0.55403698393E+03  0.63009531463E+03  0.00000000000E+00 0. -1.
         -4    1    5    5    0  503 -0.26894950434E+03 -0.13981223175E+03 -0.74960580173E+03  0.80857291200E+03  0.00000000000E+00 0.  1.
         -3    1    6    6    0  502 -0.38389665331E+02 -0.70440670413E+02 -0.39238953477E+01  0.80318437529E+02  0.00000000000E+00 0.  1.
<mgrwt>
<rscale>  0 0.25910828E+04</rscale>
<asrwt>0</asrwt>
<pdfrwt beam="1">  1        1 0.15063306E+00 0.25910828E+04</pdfrwt>
<pdfrwt beam="2">  1       -1 0.26372760E+00 0.25910828E+04</pdfrwt>
<totfact> 0.78596166E-01</totfact>
</mgrwt>
</event>
<event>
12    1  0.1518126E-007  0.1123506E+04  0.7818608E-02  0.9182579E-01
          1   -1    0    0  501    0  0.00000000000E+00  0.00000000000E+00  0.29905685718E+04  0.29905685718E+04  0.00000000000E+00 0. -1.
         -1   -1    0    0    0  501 -0.00000000000E+00 -0.00000000000E+00 -0.10552056087E+03  0.10552056087E+03  0.00000000000E+00 0.  1.
         23    2    1    2    0    0  0.12744085875E+03  0.11335126881E+03  0.81657273646E+03  0.83908849930E+03  0.90491950550E+02 0.  0.
        254    2    1    2    0    0 -0.12744085875E+03 -0.11335126881E+03  0.20684752745E+04  0.22570006334E+04  0.88677630513E+03 0.  0.
        -24    2    4    4    0    0 -0.19863654868E+03  0.14512703691E+03  0.19252839657E+04  0.19425445856E+04  0.79011285409E+02 0.  0.
         24    2    4    4    0    0  0.71195689937E+02 -0.25847830572E+03  0.14319130880E+03  0.31445604778E+03  0.80616340027E+02 0.  0.
         11    1    3    3    0    0  0.91068976356E+02  0.63221762866E+02  0.31982336669E+03  0.33849303631E+03  0.00000000000E+00 0. -1.
        -11    1    3    3    0    0  0.36371882390E+02  0.50129505941E+02  0.49674936977E+03  0.50059546299E+03  0.00000000000E+00 0.  1.
          4    1    6    6  502    0  0.47891922989E+02 -0.97579822680E+02  0.96378833448E+02  0.14527332040E+03  0.00000000000E+00 0. -1.
          1    1    5    5  503    0 -0.79354600858E+02  0.78925607341E+02  0.60801115570E+03  0.61822647115E+03  0.00000000000E+00 0. -1.
         -2    1    5    5    0  503 -0.11928194782E+03  0.66201429571E+02  0.13172728100E+04  0.13243181144E+04  0.00000000000E+00 0.  1.
         -3    1    6    6    0  502  0.23303766948E+02 -0.16089848304E+03  0.46812475350E+02  0.16918272739E+03  0.00000000000E+00 0.  1.
<mgrwt>
<rscale>  0 0.11235061E+04</rscale>
<asrwt>0</asrwt>
<pdfrwt beam="1">  1        1 0.46008741E+00 0.11235061E+04</pdfrwt>
<pdfrwt beam="2">  1       -1 0.16233935E-01 0.11235061E+04</pdfrwt>
<totfact> 0.17752348E+01</totfact>
</mgrwt>
</event>
<event>
12    1  0.1518126E-007  0.1602319E+04  0.7818608E-02  0.8819125E-01
          2   -1    0    0  501    0  0.00000000000E+00  0.00000000000E+00  0.30307128862E+04  0.30307128862E+04  0.00000000000E+00 0.  1.
         -2   -1    0    0    0  501 -0.00000000000E+00 -0.00000000000E+00 -0.21178397298E+03  0.21178397298E+03  0.00000000000E+00 0. -1.
         23    2    1    2    0    0  0.35872186082E+03 -0.16466539023E+03  0.16252829564E+04  0.16748761779E+04  0.88709970073E+02 0.  0.
        254    2    1    2    0    0 -0.35872186082E+03  0.16466539023E+03  0.11936459568E+04  0.15676206813E+04  0.93640155167E+03 0.  0.
        -24    2    4    4    0    0 -0.18401417992E+03 -0.11489028522E+03 -0.83857946686E+02  0.24580843697E+03  0.79552727248E+02 0.  0.
         24    2    4    4    0    0 -0.17470768090E+03  0.27955567545E+03  0.12775039035E+04  0.13218122443E+04  0.80605435778E+02 0.  0.
         11    1    3    3    0    0  0.81611531089E+02 -0.51587124085E+02  0.26456025034E+03  0.28162705736E+03  0.00000000000E+00 0. -1.
        -11    1    3    3    0    0  0.27711032974E+03 -0.11307826614E+03  0.13607227060E+04  0.13932491205E+04  0.00000000000E+00 0.  1.
          2    1    6    6  502    0 -0.17988929086E+03  0.24913401626E+03  0.11896306604E+04  0.12286777540E+04  0.00000000000E+00 0. -1.
          1    1    5    5  503    0 -0.16134539750E+03 -0.10421361296E+03 -0.99452087681E+02  0.21629501188E+03  0.00000000000E+00 0. -1.
         -2    1    5    5    0  503 -0.22668782425E+02 -0.10676672257E+02  0.15594140995E+02  0.29513425089E+02  0.00000000000E+00 0.  1.
         -1    1    6    6    0  502  0.51816099552E+01  0.30421659184E+02  0.87873243136E+02  0.93134490327E+02  0.00000000000E+00 0.  1.
<mgrwt>
<rscale>  0 0.16023188E+04</rscale>
<asrwt>0</asrwt>
<pdfrwt beam="1">  1        2 0.46626349E+00 0.16023188E+04</pdfrwt>
<pdfrwt beam="2">  1       -2 0.32582152E-01 0.16023188E+04</pdfrwt>
<totfact> 0.14106322E+01</totfact>
</mgrwt>
</event>
<event>
12    1  0.1518126E-007  0.2426729E+04  0.7818608E-02  0.8429564E-01
         -2   -1    0    0    0  501 -0.00000000000E+00  0.00000000000E+00  0.10878881589E+04  0.10878881589E+04  0.00000000000E+00 0. -1.
          2   -1    0    0  501    0  0.00000000000E+00 -0.00000000000E+00 -0.13533137427E+04  0.13533137427E+04  0.00000000000E+00 0.  1.
         23    2    1    2    0    0 -0.96068568820E+03  0.10512935059E+03  0.26126844588E+03  0.10051200589E+04  0.89643516521E+02 0.  0.
        254    2    1    2    0    0  0.96068568820E+03 -0.10512935059E+03 -0.52669402972E+03  0.14360818428E+04  0.92247237698E+03 0.  0.
        -24    2    4    4    0    0  0.15712898969E+03  0.35615219339E+03 -0.23661963334E+03  0.46235063549E+03  0.79027558497E+02 0.  0.
         24    2    4    4    0    0  0.80355669851E+03 -0.46128154398E+03 -0.29007439638E+03  0.97373120727E+03  0.74332214047E+02 0.  0.
         13    1    3    3    0    0 -0.54498518179E+03  0.55629921843E+02  0.10212865498E+03  0.55725559552E+03  0.00000000000E+00 0. -1.
        -13    1    3    3    0    0 -0.41570050641E+03  0.49499428752E+02  0.15913979091E+03  0.44786446334E+03  0.00000000000E+00 0.  1.
          4    1    6    6  502    0  0.46864547098E+03 -0.31090980763E+03 -0.17476707014E+03  0.58892870091E+03  0.00000000000E+00 0. -1.
          1    1    5    5  503    0  0.87727263516E+02  0.27256518951E+03 -0.19284297420E+03  0.34521915937E+03  0.00000000000E+00 0. -1.
         -2    1    5    5    0  503  0.69401726176E+02  0.83587003879E+02 -0.43776659135E+02  0.11713147612E+03  0.00000000000E+00 0.  1.
         -3    1    6    6    0  502  0.33491122752E+03 -0.15037173635E+03 -0.11530732624E+03  0.38480250636E+03  0.00000000000E+00 0.  1.
<mgrwt>
<rscale>  0 0.24267295E+04</rscale>
<asrwt>0</asrwt>
<pdfrwt beam="1">  1        2 0.20820211E+00 0.24267295E+04</pdfrwt>
<pdfrwt beam="2">  1       -2 0.16736741E+00 0.24267295E+04</pdfrwt>
<totfact> 0.30747150E+00</totfact>
</mgrwt>
</event>
<event>
12    1  0.1518126E-007  0.1854932E+04  0.7818608E-02  0.8677621E-01
         -1   -1    0    0    0  501 -0.00000000000E+00  0.00000000000E+00  0.10111670510E+04  0.10111670510E+04  0.00000000000E+00 0.  1.
          1   -1    0    0  501    0  0.00000000000E+00 -0.00000000000E+00 -0.85069317487E+03  0.85069317487E+03  0.00000000000E+00 0. -1.
         23    2    1    2    0    0  0.32429224025E+03  0.44467896636E+03  0.50968578529E+03  0.75528903523E+03  0.88187792810E+02 0.  0.
        254    2    1    2    0    0 -0.32429224025E+03 -0.44467896636E+03 -0.34921190912E+03  0.11065711907E+04  0.89422927839E+03 0.  0.
        -24    2    4    4    0    0 -0.15475788710E+02  0.24896428791E+03  0.10355341257E+02  0.26273705626E+03  0.81858481249E+02 0.  0.
         24    2    4    4    0    0 -0.30881645154E+03 -0.69364325427E+03 -0.35956725038E+03  0.84383413441E+03  0.79113045086E+02 0.  0.
         11    1    3    3    0    0  0.59001107630E+02  0.68793118737E+02  0.13161399296E+03  0.15979945879E+03  0.00000000000E+00 0. -1.
        -11    1    3    3    0    0  0.26529113262E+03  0.37588584763E+03  0.37807179233E+03  0.59548957644E+03  0.00000000000E+00 0.  1.
          4    1    6    6  502    0 -0.66676093578E+02 -0.17954884367E+03 -0.12706312809E+03  0.22984457191E+03  0.00000000000E+00 0. -1.
          3    1    5    5  503    0  0.78143274906E+01 -0.46218034575E+00  0.93884080817E+01  0.12223728200E+02  0.00000000000E+00 0. -1.
         -4    1    5    5    0  503 -0.23290116201E+02  0.24942646825E+03  0.96693317494E+00  0.25051332806E+03  0.00000000000E+00 0.  1.
         -3    1    6    6    0  502 -0.24214035797E+03 -0.51409441060E+03 -0.23250412229E+03  0.61398956249E+03  0.00000000000E+00 0.  1.
<mgrwt>
<rscale>  0 0.18549317E+04</rscale>
<asrwt>0</asrwt>
<pdfrwt beam="1">  1        1 0.13087587E+00 0.18549317E+04</pdfrwt>
<pdfrwt beam="2">  1       -1 0.15556416E+00 0.18549317E+04</pdfrwt>
<totfact> 0.59354214E+00</totfact>
</mgrwt>
</event>
<event>
12    1  0.1518126E-007  0.1351323E+04  0.7818608E-02  0.8989827E-01
         -1   -1    0    0    0  501 -0.00000000000E+00  0.00000000000E+00  0.31103961715E+03  0.31103961715E+03  0.00000000000E+00 0.  1.
          1   -1    0    0  501    0  0.00000000000E+00 -0.00000000000E+00 -0.14677181881E+04  0.14677181881E+04  0.00000000000E+00 0. -1.
         23    2    1    2    0    0  0.10666724155E+03  0.52111452245E+02 -0.79442405166E+03  0.80872294409E+03  0.93966603468E+02 0.  0.
        254    2    1    2    0    0 -0.10666724155E+03 -0.52111452245E+02 -0.36225451925E+03  0.97003486112E+03  0.89198979321E+03 0.  0.
        -24    2    4    4    0    0 -0.12141058239E+03 -0.36643500854E+03 -0.48284640122E+03  0.62335292059E+03  0.80081654801E+02 0.  0.
         24    2    4    4    0    0  0.14743340849E+02  0.31432355629E+03  0.12059188197E+03  0.34668194053E+03  0.81420524140E+02 0.  0.
         13    1    3    3    0    0  0.13456495928E+02  0.18377588817E+02 -0.28848919986E+02  0.36756948156E+02  0.00000000000E+00 0.  1.
        -13    1    3    3    0    0  0.93210745618E+02  0.33733863428E+02 -0.76557513167E+03  0.77196599593E+03  0.00000000000E+00 0. -1.
          4    1    6    6  502    0  0.43818790920E+02  0.19823245220E+03  0.95703946652E+02  0.22444473028E+03  0.00000000000E+00 0. -1.
          1    1    5    5  503    0 -0.12966133666E+03 -0.36063810551E+03 -0.46252567574E+03  0.60066788335E+03  0.00000000000E+00 0. -1.
         -2    1    5    5    0  503  0.82507542601E+01 -0.57969030318E+01 -0.20320725477E+02  0.22685037239E+02  0.00000000000E+00 0.  1.
         -3    1    6    6    0  502 -0.29075450071E+02  0.11609110409E+03  0.24887935317E+02  0.12223721025E+03  0.00000000000E+00 0.  1.
<mgrwt>
<rscale>  0 0.13513231E+04</rscale>
<asrwt>0</asrwt>
<pdfrwt beam="1">  1        1 0.22580280E+00 0.13513231E+04</pdfrwt>
<pdfrwt beam="2">  1       -1 0.47852248E-01 0.13513231E+04</pdfrwt>
<totfact> 0.29411308E+01</totfact>
</mgrwt>
</event>
<event>
12    1  0.1518126E-007  0.1475416E+04  0.7818608E-02  0.8900968E-01
         -1   -1    0    0    0  501 -0.00000000000E+00  0.00000000000E+00  0.15106061228E+04  0.15106061228E+04  0.00000000000E+00 0.  1.
          1   -1    0    0  501    0  0.00000000000E+00 -0.00000000000E+00 -0.36026123240E+03  0.36026123240E+03  0.00000000000E+00 0. -1.
         23    2    1    2    0    0  0.76224282082E+02 -0.94396581696E+02 -0.19731050789E+03  0.24797146192E+03  0.88529958722E+02 0.  0.
        254    2    1    2    0    0 -0.76224282082E+02  0.94396581696E+02  0.13476553982E+04  0.16228958932E+04  0.89604416859E+03 0.  0.
        -24    2    4    4    0    0 -0.24536480929E+03 -0.81677615093E+01 -0.58788455941E+00  0.25810325353E+03  0.79663931018E+02 0.  0.
         24    2    4    4    0    0  0.16914052721E+03  0.10256434321E+03  0.13482432828E+04  0.13647926397E+04  0.75967343948E+02 0.  0.
         11    1    3    3    0    0 -0.16985653042E+02 -0.81695871945E+01 -0.90919182452E+01  0.20926479435E+02  0.00000000000E+00 0.  1.
        -11    1    3    3    0    0  0.93209935123E+02 -0.86226994502E+02 -0.18821858964E+03  0.22704498249E+03  0.00000000000E+00 0. -1.
          4    1    6    6  502    0  0.71708379020E+02  0.78332232443E+02  0.84365441293E+03  0.85031217722E+03  0.00000000000E+00 0. -1.
          1    1    5    5  503    0 -0.23311084313E+03 -0.27519891854E+02 -0.49701103556E+01  0.23478226430E+03  0.00000000000E+00 0. -1.
         -2    1    5    5    0  503 -0.12253966161E+02  0.19352130344E+02  0.43822257962E+01  0.23320989226E+02  0.00000000000E+00 0.  1.
         -3    1    6    6    0  502  0.97432148190E+02  0.24232110763E+02  0.50458886987E+03  0.51448046249E+03  0.00000000000E+00 0.  1.
<mgrwt>
<rscale>  0 0.14754156E+04</rscale>
<asrwt>0</asrwt>
<pdfrwt beam="1">  1        1 0.55424806E-01 0.14754156E+04</pdfrwt>
<pdfrwt beam="2">  1       -1 0.23240094E+00 0.14754156E+04</pdfrwt>
<totfact> 0.60819541E+00</totfact>
</mgrwt>
</event>
<event>
12    1  0.1570098E-007  0.2200240E+04  0.7818608E-02  0.8518328E-01
         -2   -1    0    0    0  501 -0.00000000000E+00  0.00000000000E+00  0.92642233788E+03  0.92642233788E+03  0.00000000000E+00 0.  1.
          2   -1    0    0  501    0  0.00000000000E+00 -0.00000000000E+00 -0.13063849920E+04  0.13063849920E+04  0.00000000000E+00 0. -1.
         23    2    1    2    0    0 -0.35638424552E+03  0.50417850607E+03 -0.84290501184E+03  0.10490859762E+04  0.94269984428E+02 0.  0.
        254    2    1    2    0    0  0.35638424552E+03 -0.50417850607E+03  0.46294235772E+03  0.11837213537E+04  0.89759396178E+03 0.  0.
        -24    2    4    4    0    0  0.62878829315E+03 -0.49426134574E+03  0.31174912084E+03  0.86222566624E+03  0.81096175483E+02 0.  0.
         24    2    4    4    0    0 -0.27240404763E+03 -0.99171603357E+01  0.15119323688E+03  0.32149568747E+03  0.78725897584E+02 0.  0.
         13    1    3    3    0    0 -0.31962681994E+03  0.39888058786E+03 -0.72171962766E+03  0.88439032578E+03  0.00000000000E+00 0. -1.
        -13    1    3    3    0    0 -0.36757425581E+02  0.10529791821E+03 -0.12118538418E+03  0.16469565038E+03  0.00000000000E+00 0.  1.
          2    1    6    6  502    0 -0.22716641066E+03  0.33898817205E+01  0.15366118508E+03  0.27427692070E+03  0.00000000000E+00 0. -1.
          3    1    5    5  503    0  0.56078913260E+03 -0.45295461268E+03  0.25558579597E+03  0.76483751967E+03  0.00000000000E+00 0. -1.
         -4    1    5    5    0  503  0.67999160554E+02 -0.41306733054E+02  0.56163324868E+02  0.97388146568E+02  0.00000000000E+00 0.  1.
         -1    1    6    6    0  502 -0.45237636973E+02 -0.13307042056E+02 -0.24679481982E+01  0.47218766772E+02  0.00000000000E+00 0.  1.
<mgrwt>
<rscale>  0 0.22002402E+04</rscale>
<asrwt>0</asrwt>
<pdfrwt beam="1">  1        2 0.20098231E+00 0.22002402E+04</pdfrwt>
<pdfrwt beam="2">  1       -2 0.14252651E+00 0.22002402E+04</pdfrwt>
<totfact> 0.51361744E+00</totfact>
</mgrwt>
</event>
<event>
12    1  0.1518126E-007  0.1031633E+04  0.7818608E-02  0.9274515E-01
         -1   -1    0    0    0  501 -0.00000000000E+00  0.00000000000E+00  0.27603178323E+03  0.27603178323E+03  0.00000000000E+00 0.  1.
          1   -1    0    0  501    0  0.00000000000E+00 -0.00000000000E+00 -0.96389885980E+03  0.96389885980E+03  0.00000000000E+00 0. -1.
         23    2    1    2    0    0 -0.88180272838E+01  0.85091020443E+02 -0.90107260008E+02  0.15468765408E+03  0.92145063100E+02 0.  0.
        254    2    1    2    0    0  0.88180272838E+01 -0.85091020443E+02 -0.59775981656E+03  0.10852429889E+04  0.90173017439E+03 0.  0.
        -24    2    4    4    0    0 -0.32420845122E+03  0.23848409974E+03 -0.16019887375E+03  0.44226822481E+03  0.89172405236E+02 0.  0.
         24    2    4    4    0    0  0.33302647850E+03 -0.32357512019E+03 -0.43756094280E+03  0.64297476413E+03  0.79683592145E+02 0.  0.
         11    1    3    3    0    0 -0.15891636969E+02  0.99782125522E+02 -0.52868283657E+02  0.11403539852E+03  0.00000000000E+00 0.  1.
        -11    1    3    3    0    0  0.70736096848E+01 -0.14691105078E+02 -0.37238976351E+02  0.40652255559E+02  0.00000000000E+00 0. -1.
          2    1    6    6  502    0  0.23155449782E+03 -0.27222864500E+03 -0.33389502186E+03  0.48909284010E+03  0.00000000000E+00 0. -1.
          1    1    5    5  503    0 -0.32318994497E+03  0.22578134817E+03 -0.16660808267E+03  0.42800375106E+03  0.00000000000E+00 0. -1.
         -2    1    5    5    0  503 -0.10185062494E+01  0.12702751573E+02  0.64092089166E+01  0.14264473752E+02  0.00000000000E+00 0.  1.
         -1    1    6    6    0  502  0.10147198068E+03 -0.51346475190E+02 -0.10366592095E+03  0.15388192403E+03  0.00000000000E+00 0.  1.
<mgrwt>
<rscale>  0 0.10316331E+04</rscale>
<asrwt>0</asrwt>
<pdfrwt beam="1">  1        1 0.14829213E+00 0.10316331E+04</pdfrwt>
<pdfrwt beam="2">  1       -1 0.42466428E-01 0.10316331E+04</pdfrwt>
<totfact> 0.88135026E+01</totfact>
</mgrwt>
</event>
<event>
12    1  0.1518126E-007  0.1725831E+04  0.7818608E-02  0.8746768E-01
         -1   -1    0    0    0  501 -0.00000000000E+00  0.00000000000E+00  0.95424443915E+03  0.95424443915E+03  0.00000000000E+00 0.  1.
          1   -1    0    0  501    0  0.00000000000E+00 -0.00000000000E+00 -0.78032742891E+03  0.78032742891E+03  0.00000000000E+00 0. -1.
         23    2    1    2    0    0  0.34677298572E+03 -0.30394965970E+02 -0.45869633948E+03  0.58431683810E+03  0.99239497478E+02 0.  0.
        254    2    1    2    0    0 -0.34677298572E+03  0.30394965970E+02  0.63261334972E+03  0.11502550300E+04  0.89538350784E+03 0.  0.
        -24    2    4    4    0    0  0.13457648157E+03 -0.29155190953E+03  0.40512273980E+03  0.52294023821E+03  0.78922196470E+02 0.  0.
         24    2    4    4    0    0 -0.48134946728E+03  0.32194687550E+03  0.22749060992E+03  0.62731479174E+03  0.80154663242E+02 0.  0.
         11    1    3    3    0    0  0.20856553547E+03 -0.50262141081E+02 -0.21673996957E+03  0.30496242362E+03  0.00000000000E+00 0. -1.
        -11    1    3    3    0    0  0.13820745025E+03  0.19867175111E+02 -0.24195636991E+03  0.27935441448E+03  0.00000000000E+00 0.  1.
          2    1    6    6  502    0 -0.27865954659E+03  0.19703236703E+03  0.17489131931E+03  0.38348385903E+03  0.00000000000E+00 0. -1.
          1    1    5    5  503    0  0.13487303307E+03 -0.25420872680E+03  0.38455173470E+03  0.48030495364E+03  0.00000000000E+00 0. -1.
         -2    1    5    5    0  503 -0.29655150934E+00 -0.37343182733E+02  0.20571005094E+02  0.42635284566E+02  0.00000000000E+00 0.  1.
         -1    1    6    6    0  502 -0.20268992069E+03  0.12491450847E+03  0.52599290611E+02  0.24383093272E+03  0.00000000000E+00 0.  1.
<mgrwt>
<rscale>  0 0.17258309E+04</rscale>
<asrwt>0</asrwt>
<pdfrwt beam="1">  1        1 0.12005037E+00 0.17258309E+04</pdfrwt>
<pdfrwt beam="2">  1       -1 0.14680684E+00 0.17258309E+04</pdfrwt>
<totfact> 0.80770882E+00</totfact>
</mgrwt>
</event>
<event>
12    1  0.1518126E-007  0.1474200E+04  0.7818608E-02  0.8901793E-01
         -2   -1    0    0    0  501 -0.00000000000E+00  0.00000000000E+00  0.57700440846E+03  0.57700440846E+03  0.00000000000E+00 0.  1.
          2   -1    0    0  501    0  0.00000000000E+00 -0.00000000000E+00 -0.94161572255E+03  0.94161572255E+03  0.00000000000E+00 0. -1.
         23    2    1    2    0    0  0.14144116954E+03 -0.16352727828E+03 -0.51856656106E+03  0.56912254518E+03  0.90787763502E+02 0.  0.
        254    2    1    2    0    0 -0.14144116954E+03  0.16352727828E+03  0.15395524697E+03  0.94949758583E+03  0.91164503632E+03 0.  0.
        -24    2    4    4    0    0 -0.44904224975E+01  0.20666062394E+03 -0.35272424250E+03  0.41674747062E+03  0.80841113527E+02 0.  0.
         24    2    4    4    0    0 -0.13695074704E+03 -0.43133345668E+02  0.50667948946E+03  0.53275011521E+03  0.80514517913E+02 0.  0.
         11    1    3    3    0    0 -0.11538744845E+02 -0.21149989720E+02 -0.75331213687E+02  0.79090179247E+02  0.00000000000E+00 0.  1.
        -11    1    3    3    0    0  0.15297991438E+03 -0.14237728856E+03 -0.44323534737E+03  0.49003236593E+03  0.00000000000E+00 0. -1.
          2    1    6    6  502    0  0.97299138361E+01 -0.69259553530E+01  0.21539311296E+02  0.24628885722E+02  0.00000000000E+00 0. -1.
          1    1    5    5  503    0  0.10253792811E+02  0.49234789252E+02 -0.33255931677E+02  0.60292302422E+02  0.00000000000E+00 0. -1.
         -2    1    5    5    0  503 -0.14744215308E+02  0.15742583469E+03 -0.31946831082E+03  0.35645516819E+03  0.00000000000E+00 0.  1.
         -1    1    6    6    0  502 -0.14668066087E+03 -0.36207390315E+02  0.48514017817E+03  0.50812122949E+03  0.00000000000E+00 0.  1.
<mgrwt>
<rscale>  0 0.14742000E+04</rscale>
<asrwt>0</asrwt>
<pdfrwt beam="1">  1        2 0.14486395E+00 0.14742000E+04</pdfrwt>
<pdfrwt beam="2">  1       -2 0.88769911E-01 0.14742000E+04</pdfrwt>
<totfact> 0.29047101E+01</totfact>
</mgrwt>
</event>
<event>
12    1  0.1518126E-007  0.1341759E+04  0.7818608E-02  0.8997090E-01
         -1   -1    0    0    0  501 -0.00000000000E+00  0.00000000000E+00  0.37481060161E+03  0.37481060161E+03  0.00000000000E+00 0.  1.
          1   -1    0    0  501    0  0.00000000000E+00 -0.00000000000E+00 -0.12008184158E+04  0.12008184158E+04  0.00000000000E+00 0. -1.
         23    2    1    2    0    0 -0.24391650263E+03  0.26067809452E+03 -0.31072412270E+03  0.48217278707E+03  0.92156317972E+02 0.  0.
        254    2    1    2    0    0  0.24391650263E+03 -0.26067809452E+03 -0.51528369146E+03  0.10934562303E+04  0.89592461497E+03 0.  0.
        -24    2    4    4    0    0  0.99989119237E+02 -0.41897905847E+03 -0.68134474471E+03  0.80976967979E+03  0.77168632009E+02 0.  0.
         24    2    4    4    0    0  0.14392738339E+03  0.15830096395E+03  0.16606105325E+03  0.28368655052E+03  0.84424514550E+02 0.  0.
         11    1    3    3    0    0 -0.13071502751E+03  0.20121968394E+03 -0.18656681538E+03  0.30394564682E+03  0.00000000000E+00 0. -1.
        -11    1    3    3    0    0 -0.11320147512E+03  0.59458410578E+02 -0.12415730732E+03  0.17822714024E+03  0.00000000000E+00 0.  1.
          2    1    6    6  502    0  0.33363030473E+02  0.65187214046E+02  0.15273079407E+02  0.74804623066E+02  0.00000000000E+00 0. -1.
          3    1    5    5  503    0  0.63197628876E+02 -0.24903556194E+03 -0.33454932976E+03  0.42182449602E+03  0.00000000000E+00 0. -1.
         -4    1    5    5    0  503  0.36791490361E+02 -0.16994349653E+03 -0.34679541496E+03  0.38794518377E+03  0.00000000000E+00 0.  1.
         -1    1    6    6    0  502  0.11056435292E+03  0.93113749905E+02  0.15078797385E+03  0.20888192745E+03  0.00000000000E+00 0.  1.
<mgrwt>
<rscale>  0 0.13417593E+04</rscale>
<asrwt>0</asrwt>
<pdfrwt beam="1">  1        1 0.18474129E+00 0.13417593E+04</pdfrwt>
<pdfrwt beam="2">  1       -1 0.57663171E-01 0.13417593E+04</pdfrwt>
<totfact> 0.31835715E+01</totfact>
</mgrwt>
</event>
<event>
12    1  0.1518126E-007  0.1541479E+04  0.7818608E-02  0.8857329E-01
         -2   -1    0    0    0  501 -0.00000000000E+00  0.00000000000E+00  0.30451405869E+04  0.30451405869E+04  0.00000000000E+00 0.  1.
          2   -1    0    0  501    0  0.00000000000E+00 -0.00000000000E+00 -0.19507787413E+03  0.19507787413E+03  0.00000000000E+00 0. -1.
         23    2    1    2    0    0  0.35169189290E+03 -0.35011248759E+03  0.11155861524E+04  0.12243085576E+04  0.90183364563E+02 0.  0.
        254    2    1    2    0    0 -0.35169189290E+03  0.35011248759E+03  0.17344765604E+04  0.20159099035E+04  0.89956537219E+03 0.  0.
        -24    2    4    4    0    0 -0.21763098345E+03  0.42021182275E+03  0.17754974211E+04  0.18392346881E+04  0.80323871814E+02 0.  0.
         24    2    4    4    0    0 -0.13406090945E+03 -0.70099335166E+02 -0.41020860708E+02  0.17667521543E+03  0.81517952030E+02 0.  0.
         13    1    3    3    0    0  0.13641432907E+03 -0.15433293796E+03  0.36209795749E+03  0.41658427207E+03  0.00000000000E+00 0.  1.
        -13    1    3    3    0    0  0.21527756382E+03 -0.19577954962E+03  0.75348819489E+03  0.80772428549E+03  0.00000000000E+00 0. -1.
          4    1    6    6  502    0 -0.77012325549E+02 -0.45737979638E+02 -0.64469049309E+02  0.11035904760E+03  0.00000000000E+00 0. -1.
          3    1    5    5  503    0 -0.83821831691E+02  0.98531825434E+02  0.56330471222E+03  0.57796783552E+03  0.00000000000E+00 0. -1.
         -4    1    5    5    0  503 -0.13380915176E+03  0.32167999732E+03  0.12121927089E+04  0.12612668525E+04  0.00000000000E+00 0.  1.
         -3    1    6    6    0  502 -0.57048583896E+02 -0.24361355528E+02  0.23448188601E+02  0.66316167836E+02  0.00000000000E+00 0.  1.
<mgrwt>
<rscale>  0 0.15414792E+04</rscale>
<asrwt>0</asrwt>
<pdfrwt beam="1">  1        2 0.30011983E-01 0.15414792E+04</pdfrwt>
<pdfrwt beam="2">  1       -2 0.46848313E+00 0.15414792E+04</pdfrwt>
<totfact> 0.45260768E-01</totfact>
</mgrwt>
</event>
<event>
12    1  0.1518126E-007  0.2003753E+04  0.7818608E-02  0.8604868E-01
          2   -1    0    0  501    0  0.00000000000E+00  0.00000000000E+00  0.16213410413E+04  0.16213410413E+04  0.00000000000E+00 0. -1.
         -2   -1    0    0    0  501 -0.00000000000E+00 -0.00000000000E+00 -0.61909056255E+03  0.61909056255E+03  0.00000000000E+00 0.  1.
         23    2    1    2    0    0 -0.59048782234E+03  0.52914166718E+03  0.38137051152E+03  0.88452701774E+03  0.90982447699E+02 0.  0.
        254    2    1    2    0    0  0.59048782234E+03 -0.52914166718E+03  0.62087996728E+03  0.13559045861E+04  0.90791989773E+03 0.  0.
        -24    2    4    4    0    0  0.61341097774E+03 -0.25257747844E+03  0.78052333737E+03  0.10274720390E+04  0.80085581994E+02 0.  0.
         24    2    4    4    0    0 -0.22923155397E+02 -0.27656418873E+03 -0.15964337009E+03  0.32843254718E+03  0.73271487592E+02 0.  0.
         13    1    3    3    0    0 -0.24201101044E+03  0.16157982963E+03  0.12274309466E+03  0.31582152841E+03  0.00000000000E+00 0. -1.
        -13    1    3    3    0    0 -0.34847681189E+03  0.36756183755E+03  0.25862741685E+03  0.56870548933E+03  0.00000000000E+00 0.  1.
          2    1    6    6  502    0 -0.26078796376E+02 -0.27990575507E+03 -0.16057021444E+03  0.32374392521E+03  0.00000000000E+00 0. -1.
          3    1    5    5  503    0  0.54707304238E+03 -0.24753952110E+03  0.68310106665E+03  0.90950084963E+03  0.00000000000E+00 0. -1.
         -4    1    5    5    0  503  0.66337935352E+02 -0.50379573408E+01  0.97422270722E+02  0.11797118934E+03  0.00000000000E+00 0.  1.
         -1    1    6    6    0  502  0.31556409788E+01  0.33415663403E+01  0.92684435082E+00  0.46886219771E+01  0.00000000000E+00 0.  1.
<mgrwt>
<rscale>  0 0.20037534E+04</rscale>
<asrwt>0</asrwt>
<pdfrwt beam="1">  1        2 0.24943708E+00 0.20037534E+04</pdfrwt>
<pdfrwt beam="2">  1       -2 0.95244703E-01 0.20037534E+04</pdfrwt>
<totfact> 0.93356844E+00</totfact>
</mgrwt>
</event>
<event>
12    1  0.2337987E-007  0.2109817E+04  0.7818608E-02  0.8556931E-01
          2   -1    0    0  501    0  0.00000000000E+00  0.00000000000E+00  0.81560413713E+03  0.81560413713E+03  0.00000000000E+00 0. -1.
         -2   -1    0    0    0  501 -0.00000000000E+00 -0.00000000000E+00 -0.13644266774E+04  0.13644266774E+04  0.00000000000E+00 0.  1.
         23    2    1    2    0    0 -0.20385935940E+03  0.73838492485E+03  0.18350810993E+03  0.79294525955E+03  0.91192228682E+02 0.  0.
        254    2    1    2    0    0  0.20385935940E+03 -0.73838492485E+03 -0.73233065020E+03  0.13870855550E+04  0.89494537263E+03 0.  0.
        -24    2    4    4    0    0  0.50624686666E+03 -0.24278780135E+03 -0.21845754334E+03  0.60772154234E+03  0.79812081207E+02 0.  0.
         24    2    4    4    0    0 -0.30238750726E+03 -0.49559712350E+03 -0.51387310687E+03  0.77936401265E+03  0.79296789921E+02 0.  0.
         11    1    3    3    0    0 -0.68813267900E+00 -0.93702025855E-01  0.68939642432E+01  0.69288563010E+01  0.00000000000E+00 0. -1.
        -11    1    3    3    0    0 -0.20317122672E+03  0.73847862687E+03  0.17661414569E+03  0.78601640324E+03  0.00000000000E+00 0.  1.
          2    1    6    6  502    0 -0.30069950306E+03 -0.46851202068E+03 -0.47417521940E+03  0.73127685821E+03  0.00000000000E+00 0. -1.
          3    1    5    5  503    0  0.50349584129E+03 -0.23457401318E+03 -0.22224295221E+03  0.59826830073E+03  0.00000000000E+00 0. -1.
         -4    1    5    5    0  503  0.27510253695E+01 -0.82137881684E+01  0.37854088745E+01  0.94532416136E+01  0.00000000000E+00 0.  1.
         -1    1    6    6    0  502 -0.16880041923E+01 -0.27085102820E+02 -0.39697887462E+02  0.48087154438E+02  0.00000000000E+00 0.  1.
<mgrwt>
<rscale>  0 0.21098171E+04</rscale>
<asrwt>0</asrwt>
<pdfrwt beam="1">  1        2 0.12547756E+00 0.21098171E+04</pdfrwt>
<pdfrwt beam="2">  1       -2 0.20991180E+00 0.21098171E+04</pdfrwt>
<totfact> 0.35423954E+00</totfact>
</mgrwt>
</event>
<event>
12    1  0.1518126E-007  0.2854509E+04  0.7818608E-02  0.8286542E-01
         -1   -1    0    0    0  501 -0.00000000000E+00  0.00000000000E+00  0.73476450359E+03  0.73476450359E+03  0.00000000000E+00 0.  1.
          1   -1    0    0  501    0  0.00000000000E+00 -0.00000000000E+00 -0.27723928809E+04  0.27723928809E+04  0.00000000000E+00 0. -1.
         23    2    1    2    0    0  0.25878129291E+03 -0.48879210107E+03  0.50533300991E+03  0.75470329928E+03  0.91269619365E+02 0.  0.
        254    2    1    2    0    0 -0.25878129291E+03  0.48879210107E+03 -0.25429613872E+04  0.27524540852E+04  0.89636231440E+03 0.  0.
        -24    2    4    4    0    0 -0.57277673177E+03  0.30853489472E+03 -0.13115058758E+04  0.14663005380E+04  0.81991705842E+02 0.  0.
         24    2    4    4    0    0  0.31399543886E+03  0.18025720635E+03 -0.12314555114E+04  0.12861535472E+04  0.81378586123E+02 0.  0.
         11    1    3    3    0    0  0.10243041492E+03 -0.10942159094E+03  0.14697438988E+03  0.20992033190E+03  0.00000000000E+00 0. -1.
        -11    1    3    3    0    0  0.15635087800E+03 -0.37937051013E+03  0.35835862002E+03  0.54478296738E+03  0.00000000000E+00 0.  1.
          4    1    6    6  502    0  0.22580382694E+03  0.14926699481E+03 -0.79555678736E+03  0.84034433770E+03  0.00000000000E+00 0. -1.
          3    1    5    5  503    0 -0.48845037656E+03  0.23169150324E+03 -0.10503629442E+04  0.11813242729E+04  0.00000000000E+00 0. -1.
         -4    1    5    5    0  503 -0.84326355207E+02  0.76843391481E+02 -0.26114293152E+03  0.28497626512E+03  0.00000000000E+00 0.  1.
         -3    1    6    6    0  502  0.88191611918E+02  0.30990211545E+02 -0.43589872408E+03  0.44580920951E+03  0.00000000000E+00 0.  1.
<mgrwt>
<rscale>  0 0.28545093E+04</rscale>
<asrwt>0</asrwt>
<pdfrwt beam="1">  1        1 0.42652198E+00 0.28545093E+04</pdfrwt>
<pdfrwt beam="2">  1       -1 0.11304069E+00 0.28545093E+04</pdfrwt>
<totfact> 0.53713537E-01</totfact>
</mgrwt>
</event>
<event>
12    1  0.1518126E-007  0.1270139E+04  0.7818608E-02  0.9053586E-01
          1   -1    0    0  501    0  0.00000000000E+00  0.00000000000E+00  0.11492221627E+04  0.11492221627E+04  0.00000000000E+00 0. -1.
         -1   -1    0    0    0  501 -0.00000000000E+00 -0.00000000000E+00 -0.35094469875E+03  0.35094469875E+03  0.00000000000E+00 0.  1.
         23    2    1    2    0    0 -0.54974385438E+01 -0.30267318502E+03  0.20592729356E+03  0.37868208811E+03  0.96709848847E+02 0.  0.
        254    2    1    2    0    0  0.54974385438E+01  0.30267318502E+03  0.59235017035E+03  0.11214847733E+04  0.90288874932E+03 0.  0.
        -24    2    4    4    0    0  0.13960384897E+03 -0.15545200378E+03  0.59821733277E+03  0.63869221523E+03  0.80057532064E+02 0.  0.
         24    2    4    4    0    0 -0.13410641043E+03  0.45812518880E+03 -0.58671624168E+01  0.48279255807E+03  0.72048682134E+02 0.  0.
         13    1    3    3    0    0 -0.30865465044E+02 -0.11385074297E+03  0.12445168440E+03  0.17147271024E+03  0.00000000000E+00 0. -1.
        -13    1    3    3    0    0  0.25368026500E+02 -0.18882244205E+03  0.81475609160E+02  0.20720937788E+03  0.00000000000E+00 0.  1.
          4    1    6    6  502    0 -0.11291190232E+03  0.44053470484E+03 -0.73479366356E+00  0.45477517937E+03  0.00000000000E+00 0. -1.
          1    1    5    5  503    0  0.95778508142E+02 -0.12532890471E+03  0.33662194868E+03  0.37174614095E+03  0.00000000000E+00 0. -1.
         -2    1    5    5    0  503  0.43825340828E+02 -0.30123099075E+02  0.26159538409E+03  0.26694607428E+03  0.00000000000E+00 0.  1.
         -3    1    6    6    0  502 -0.21194508104E+02  0.17590483968E+02 -0.51323687532E+01  0.28017378697E+02  0.00000000000E+00 0.  1.
<mgrwt>
<rscale>  0 0.12701392E+04</rscale>
<asrwt>0</asrwt>
<pdfrwt beam="1">  1        1 0.17680341E+00 0.12701392E+04</pdfrwt>
<pdfrwt beam="2">  1       -1 0.53991493E-01 0.12701392E+04</pdfrwt>
<totfact> 0.39715112E+01</totfact>
</mgrwt>
</event>
<event>
12    1  0.1518126E-007  0.1409251E+04  0.7818608E-02  0.8947150E-01
          1   -1    0    0  501    0  0.00000000000E+00  0.00000000000E+00  0.63961265009E+03  0.63961265009E+03  0.00000000000E+00 0. -1.
         -1   -1    0    0    0  501 -0.00000000000E+00 -0.00000000000E+00 -0.77624603359E+03  0.77624603359E+03  0.00000000000E+00 0.  1.
         23    2    1    2    0    0  0.24232324699E+03  0.31217590659E+03 -0.14513536265E+03  0.43111455557E+03  0.92850061104E+02 0.  0.
        254    2    1    2    0    0 -0.24232324699E+03 -0.31217590659E+03  0.85019791441E+01  0.98474412811E+03  0.90192813545E+03 0.  0.
        -24    2    4    4    0    0 -0.32841829674E+03 -0.27580711066E+03 -0.37928101878E+03  0.57755529822E+03  0.76078192483E+02 0.  0.
         24    2    4    4    0    0  0.86095049753E+02 -0.36368795927E+02  0.38778299793E+03  0.40718882989E+03  0.81804906928E+02 0.  0.
         13    1    3    3    0    0  0.23705514665E+03  0.31439942436E+03 -0.15209438454E+03  0.42210761945E+03  0.00000000000E+00 0. -1.
        -13    1    3    3    0    0  0.52681003345E+01 -0.22235177698E+01  0.69590218964E+01  0.90069361141E+01  0.00000000000E+00 0.  1.
          2    1    6    6  502    0  0.99045589071E+02 -0.23379984254E+02  0.35824518341E+03  0.37241947292E+03  0.00000000000E+00 0. -1.
          3    1    5    5  503    0 -0.19465052700E+03 -0.11919496512E+03 -0.17658976973E+03  0.28858311480E+03  0.00000000000E+00 0. -1.
         -4    1    5    5    0  503 -0.13376776974E+03 -0.15661214554E+03 -0.20269124906E+03  0.28897218343E+03  0.00000000000E+00 0.  1.
         -1    1    6    6    0  502 -0.12950539319E+02 -0.12988811674E+02  0.29537814522E+02  0.34769356969E+02  0.00000000000E+00 0.  1.
<mgrwt>
<rscale>  0 0.14092506E+04</rscale>
<asrwt>0</asrwt>
<pdfrwt beam="1">  1        1 0.98401947E-01 0.14092506E+04</pdfrwt>
<pdfrwt beam="2">  1       -1 0.11942247E+00 0.14092506E+04</pdfrwt>
<totfact> 0.19045717E+01</totfact>
</mgrwt>
</event>
<event>
12    1  0.1518126E-007  0.3887305E+04  0.7818608E-02  0.8027675E-01
          2   -1    0    0  501    0  0.00000000000E+00  0.00000000000E+00  0.12710733494E+04  0.12710733494E+04  0.00000000000E+00 0.  1.
         -2   -1    0    0    0  501 -0.00000000000E+00 -0.00000000000E+00 -0.29721222951E+04  0.29721222951E+04  0.00000000000E+00 0. -1.
         23    2    1    2    0    0  0.22580149399E+03 -0.57561199186E+03 -0.26972477675E+04  0.27687196105E+04  0.91363463656E+02 0.  0.
        254    2    1    2    0    0 -0.22580149399E+03  0.57561199186E+03  0.99619882174E+03  0.14744760340E+04  0.89406487596E+03 0.  0.
        -24    2    4    4    0    0  0.26708688459E+03  0.72064132315E+02  0.50455631814E+02  0.29228442877E+03  0.79723104740E+02 0.  0.
         24    2    4    4    0    0 -0.49288837859E+03  0.50354785954E+03  0.94574318993E+03  0.11821916052E+04  0.81531647245E+02 0.  0.
         13    1    3    3    0    0  0.13583747858E+03 -0.23962595886E+03 -0.12959859576E+04  0.13249347240E+04  0.00000000000E+00 0.  1.
        -13    1    3    3    0    0  0.89964015414E+02 -0.33598603300E+03 -0.14012618099E+04  0.14437848864E+04  0.00000000000E+00 0. -1.
          2    1    6    6  502    0 -0.55330369394E+02  0.96672141031E+02  0.16422132619E+03  0.19843285163E+03  0.00000000000E+00 0. -1.
          1    1    5    5  503    0  0.94952132288E+01 -0.11875133117E+02  0.10388584267E+02  0.18414682834E+02  0.00000000000E+00 0. -1.
         -4    1    5    5    0  503  0.25759167137E+03  0.83939265432E+02  0.40067047547E+02  0.27386974593E+03  0.00000000000E+00 0.  1.
         -1    1    6    6    0  502 -0.43755800919E+03  0.40687571851E+03  0.78152186374E+03  0.98375875357E+03  0.00000000000E+00 0.  1.
<mgrwt>
<rscale>  0 0.38873052E+04</rscale>
<asrwt>0</asrwt>
<pdfrwt beam="1">  1        2 0.19554975E+00 0.38873052E+04</pdfrwt>
<pdfrwt beam="2">  1       -2 0.45724958E+00 0.38873052E+04</pdfrwt>
<totfact> 0.42531227E-02</totfact>
</mgrwt>
</event>
<event>
12    1  0.1518126E-007  0.2671481E+04  0.7818608E-02  0.8344318E-01
         -1   -1    0    0    0  501 -0.00000000000E+00  0.00000000000E+00  0.90059216228E+03  0.90059216228E+03  0.00000000000E+00 0. -1.
          1   -1    0    0  501    0  0.00000000000E+00 -0.00000000000E+00 -0.19811445910E+04  0.19811445910E+04  0.00000000000E+00 0.  1.
         23    2    1    2    0    0 -0.77353219591E+02  0.66111914432E+03  0.57386898206E+03  0.88349547713E+03  0.90424587232E+02 0.  0.
        254    2    1    2    0    0  0.77353219591E+02 -0.66111914432E+03 -0.16544214108E+04  0.19982412761E+04  0.90155196727E+03 0.  0.
        -24    2    4    4    0    0 -0.98463698897E+02 -0.84385947889E+03 -0.12617590033E+04  0.15231318971E+04  0.78109369320E+02 0.  0.
         24    2    4    4    0    0  0.17581691849E+03  0.18274033457E+03 -0.39266240750E+03  0.47510937902E+03  0.85085469141E+02 0.  0.
         11    1    3    3    0    0  0.12029052873E+02  0.10275454897E+03  0.11972804965E+03  0.15823400810E+03  0.00000000000E+00 0.  1.
        -11    1    3    3    0    0 -0.89382272464E+02  0.55836459535E+03  0.45414093241E+03  0.72526146903E+03  0.00000000000E+00 0. -1.
          2    1    6    6  502    0  0.42281713645E+02  0.10308394991E+03 -0.17936834624E+03  0.21115645307E+03  0.00000000000E+00 0. -1.
          1    1    5    5  503    0  0.63805407445E+01 -0.19709613353E+03 -0.26535539720E+03  0.33060714447E+03  0.00000000000E+00 0. -1.
         -2    1    5    5    0  503 -0.10484423964E+03 -0.64676334537E+03 -0.99640360607E+03  0.11925247527E+04  0.00000000000E+00 0.  1.
         -1    1    6    6    0  502  0.13353520484E+03  0.79656384669E+02 -0.21329406126E+03  0.26395292595E+03  0.00000000000E+00 0.  1.
<mgrwt>
<rscale>  0 0.26714815E+04</rscale>
<asrwt>0</asrwt>
<pdfrwt beam="1">  1        1 0.30479147E+00 0.26714815E+04</pdfrwt>
<pdfrwt beam="2">  1       -1 0.13855264E+00 0.26714815E+04</pdfrwt>
<totfact> 0.11568876E+00</totfact>
</mgrwt>
</event>
<event>
12    1  0.1518126E-007  0.1610582E+04  0.7818608E-02  0.8814073E-01
         -2   -1    0    0    0  501 -0.00000000000E+00  0.00000000000E+00  0.37624979687E+03  0.37624979687E+03  0.00000000000E+00 0.  1.
          2   -1    0    0  501    0  0.00000000000E+00 -0.00000000000E+00 -0.17235715276E+04  0.17235715276E+04  0.00000000000E+00 0. -1.
         23    2    1    2    0    0 -0.26881242894E+03 -0.21624289162E+03  0.92946113608E+02  0.36904517829E+03  0.92381023236E+02 0.  0.
        254    2    1    2    0    0  0.26881242894E+03  0.21624289162E+03 -0.14402678443E+04  0.17307761461E+04  0.89565255237E+03 0.  0.
        -24    2    4    4    0    0 -0.57307713508E+02 -0.30739902102E+03 -0.35768666991E+03  0.48236816970E+03  0.83432398736E+02 0.  0.
         24    2    4    4    0    0  0.32612014245E+03  0.52364191264E+03 -0.10825811744E+04  0.12484079764E+04  0.77364568601E+02 0.  0.
         11    1    3    3    0    0 -0.17853057357E+03 -0.19252307481E+03  0.81955558735E+02  0.27505456485E+03  0.00000000000E+00 0.  1.
        -11    1    3    3    0    0 -0.90281855376E+02 -0.23719816803E+02  0.10990554873E+02  0.93990613445E+02  0.00000000000E+00 0. -1.
          2    1    6    6  502    0  0.15246374409E+02  0.52947568567E+02 -0.13230378151E+03  0.14331848294E+03  0.00000000000E+00 0. -1.
          1    1    5    5  503    0 -0.67786715709E+02 -0.20922022675E+03 -0.28383001155E+03  0.35906492110E+03  0.00000000000E+00 0. -1.
         -2    1    5    5    0  503  0.10479002201E+02 -0.98178794277E+02 -0.73856658360E+02  0.12330324861E+03  0.00000000000E+00 0.  1.
         -1    1    6    6    0  502  0.31087376804E+03  0.47069434407E+03 -0.95027739289E+03  0.11050894935E+04  0.00000000000E+00 0.  1.
<mgrwt>
<rscale>  0 0.16105818E+04</rscale>
<asrwt>0</asrwt>
<pdfrwt beam="1">  1        2 0.26516485E+00 0.16105818E+04</pdfrwt>
<pdfrwt beam="2">  1       -2 0.57884583E-01 0.16105818E+04</pdfrwt>
<totfact> 0.25467035E+01</totfact>
</mgrwt>
</event>
<event>
12    1  0.1518126E-007  0.1925304E+04  0.7818608E-02  0.8642363E-01
         -4   -1    0    0    0  501 -0.00000000000E+00  0.00000000000E+00  0.65765414200E+03  0.65765414200E+03  0.00000000000E+00 0.  1.
          4   -1    0    0  501    0  0.00000000000E+00 -0.00000000000E+00 -0.14090970857E+04  0.14090970857E+04  0.00000000000E+00 0. -1.
         23    2    1    2    0    0 -0.36922897431E+03  0.39987401974E+03  0.26679669987E+03  0.61436346327E+03  0.10016346044E+03 0.  0.
        254    2    1    2    0    0  0.36922897431E+03 -0.39987401974E+03 -0.10182396436E+04  0.14523877645E+04  0.88112937724E+03 0.  0.
        -24    2    4    4    0    0  0.50113446254E+03 -0.20965558980E+03 -0.10695654379E+04  0.12023069773E+04  0.80502333745E+02 0.  0.
         24    2    4    4    0    0 -0.13190548823E+03 -0.19021842994E+03  0.51325794314E+02  0.25008078719E+03  0.79523292477E+02 0.  0.
         13    1    3    3    0    0 -0.17316127224E+03  0.16294963707E+03  0.16878239153E+03  0.29159030525E+03  0.00000000000E+00 0. -1.
        -13    1    3    3    0    0 -0.19606770207E+03  0.23692438268E+03  0.98014308336E+02  0.32277315802E+03  0.00000000000E+00 0.  1.
          2    1    6    6  502    0 -0.11978235907E+03 -0.10927169001E+03  0.24682950196E+02  0.16400415791E+03  0.00000000000E+00 0. -1.
          3    1    5    5  503    0  0.41218987231E+03 -0.20377875724E+03 -0.90776391217E+03  0.10175763328E+04  0.00000000000E+00 0. -1.
         -4    1    5    5    0  503  0.88944590235E+02 -0.58768325627E+01 -0.16180152573E+03  0.18473064451E+03  0.00000000000E+00 0.  1.
         -1    1    6    6    0  502 -0.12123129164E+02 -0.80946739928E+02  0.26642844117E+02  0.86076629281E+02  0.00000000000E+00 0.  1.
<mgrwt>
<rscale>  0 0.19253036E+04</rscale>
<asrwt>0</asrwt>
<pdfrwt beam="1">  1        4 0.21678417E+00 0.19253036E+04</pdfrwt>
<pdfrwt beam="2">  1       -4 0.10117756E+00 0.19253036E+04</pdfrwt>
<totfact> 0.15357017E-01</totfact>
</mgrwt>
</event>
<event>
12    1  0.1518126E-007  0.1366040E+04  0.7818608E-02  0.8978774E-01
          2   -1    0    0  501    0  0.00000000000E+00  0.00000000000E+00  0.13383331739E+04  0.13383331739E+04  0.00000000000E+00 0. -1.
         -2   -1    0    0    0  501 -0.00000000000E+00 -0.00000000000E+00 -0.34857990443E+03  0.34857990443E+03  0.00000000000E+00 0.  1.
         23    2    1    2    0    0 -0.23817192621E+03  0.22239788807E+03  0.49126946050E+03  0.59680147166E+03  0.92949592266E+02 0.  0.
        254    2    1    2    0    0  0.23817192621E+03 -0.22239788807E+03  0.49848380896E+03  0.10901116067E+04  0.91305559532E+03 0.  0.
        -24    2    4    4    0    0  0.55683512022E+03 -0.80845801956E+02  0.45831496380E+03  0.72997541255E+03  0.78804200872E+02 0.  0.
         24    2    4    4    0    0 -0.31866319401E+03 -0.14155208611E+03  0.40168845157E+02  0.36013619412E+03  0.80630750276E+02 0.  0.
         11    1    3    3    0    0 -0.13150409182E+03  0.82117105875E+02  0.29331314726E+03  0.33176670658E+03  0.00000000000E+00 0. -1.
        -11    1    3    3    0    0 -0.10666783439E+03  0.14028078219E+03  0.19795631324E+03  0.26503476507E+03  0.00000000000E+00 0.  1.
          4    1    6    6  502    0 -0.15811754197E+03 -0.32808141445E+02  0.39420023564E+02  0.16622716229E+03  0.00000000000E+00 0. -1.
          3    1    5    5  503    0  0.42412239697E+03 -0.91907550851E+02  0.36885491147E+03  0.56954433649E+03  0.00000000000E+00 0. -1.
         -4    1    5    5    0  503  0.13271272325E+03  0.11061748895E+02  0.89460052334E+02  0.16043107606E+03  0.00000000000E+00 0.  1.
         -3    1    6    6    0  502 -0.16054565204E+03 -0.10874394467E+03  0.74882159318E+00  0.19390903183E+03  0.00000000000E+00 0.  1.
<mgrwt>
<rscale>  0 0.13660396E+04</rscale>
<asrwt>0</asrwt>
<pdfrwt beam="1">  1        2 0.20589741E+00 0.13660396E+04</pdfrwt>
<pdfrwt beam="2">  1       -2 0.53627678E-01 0.13660396E+04</pdfrwt>
<totfact> 0.50193072E+01</totfact>
</mgrwt>
</event>
<event>
12    1  0.1518126E-007  0.2897018E+04  0.7818608E-02  0.8273765E-01
          1   -1    0    0  501    0  0.00000000000E+00  0.00000000000E+00  0.15998802436E+04  0.15998802436E+04  0.00000000000E+00 0. -1.
         -1   -1    0    0    0  501 -0.00000000000E+00 -0.00000000000E+00 -0.13114595072E+04  0.13114595072E+04  0.00000000000E+00 0.  1.
         23    2    1    2    0    0  0.23584964787E+03 -0.40779995781E+03 -0.10931721203E+04  0.11940026839E+04  0.93226941298E+02 0.  0.
        254    2    1    2    0    0 -0.23584964787E+03  0.40779995781E+03  0.13815928567E+04  0.17173370669E+04  0.90472201130E+03 0.  0.
        -24    2    4    4    0    0 -0.15707627697E+03  0.44415585783E+03  0.14852563916E+04  0.15602562826E+04  0.80409799751E+02 0.  0.
         24    2    4    4    0    0 -0.78773370897E+02 -0.36355900011E+02 -0.10366353491E+03  0.15708078427E+03  0.80007805187E+02 0.  0.
         13    1    3    3    0    0  0.22472393733E+02 -0.28995068362E+02 -0.16531107547E+03  0.16933243677E+03  0.00000000000E+00 0. -1.
        -13    1    3    3    0    0  0.21337725413E+03 -0.37880488945E+03 -0.92786104480E+03  0.10246702471E+04  0.00000000000E+00 0.  1.
          4    1    6    6  502    0 -0.60448531267E+02 -0.43086133649E+01 -0.10376334875E+03  0.12016414451E+03  0.00000000000E+00 0. -1.
          1    1    5    5  503    0 -0.10726016903E+03  0.38938112682E+03  0.12536330137E+04  0.13170869898E+04  0.00000000000E+00 0. -1.
         -2    1    5    5    0  503 -0.49816107939E+02  0.54774731002E+02  0.23162337795E+03  0.24316929284E+03  0.00000000000E+00 0.  1.
         -1    1    6    6    0  502 -0.18324839630E+02 -0.32047286646E+02  0.99813843784E-01  0.36916639766E+02  0.00000000000E+00 0.  1.
<mgrwt>
<rscale>  0 0.28970179E+04</rscale>
<asrwt>0</asrwt>
<pdfrwt beam="1">  1        1 0.24613542E+00 0.28970179E+04</pdfrwt>
<pdfrwt beam="2">  1       -1 0.20176300E+00 0.28970179E+04</pdfrwt>
<totfact> 0.70133231E-01</totfact>
</mgrwt>
</event>
<event>
12    1  0.1518126E-007  0.2258230E+04  0.7818608E-02  0.8494575E-01
          2   -1    0    0  501    0  0.00000000000E+00  0.00000000000E+00  0.14579450946E+04  0.14579450946E+04  0.00000000000E+00 0. -1.
         -2   -1    0    0    0  501 -0.00000000000E+00 -0.00000000000E+00 -0.87445050476E+03  0.87445050476E+03  0.00000000000E+00 0.  1.
         23    2    1    2    0    0  0.48816960539E+02 -0.92301915450E+03  0.47500625254E+03  0.10430253193E+04  0.89013603282E+02 0.  0.
        254    2    1    2    0    0 -0.48816960539E+02  0.92301915450E+03  0.10848833734E+03  0.12893702801E+04  0.89238923379E+03 0.  0.
        -24    2    4    4    0    0 -0.72660243166E+02 -0.98140245709E+02  0.21337845658E+03  0.25895084977E+03  0.81327474450E+02 0.  0.
         24    2    4    4    0    0  0.23843282627E+02  0.10211594002E+04 -0.10489011924E+03  0.10304194303E+04  0.86181450797E+02 0.  0.
         13    1    3    3    0    0  0.57195275780E+02 -0.73415762476E+03  0.34231447141E+03  0.81205782731E+03  0.00000000000E+00 0. -1.
        -13    1    3    3    0    0 -0.83783152405E+01 -0.18886152974E+03  0.13269178113E+03  0.23096749200E+03  0.00000000000E+00 0.  1.
          4    1    6    6  502    0  0.89151597079E+01  0.27764869274E+03  0.98121535561E+01  0.27796502480E+03  0.00000000000E+00 0. -1.
          3    1    5    5  503    0  0.68925031326E+01 -0.49449057882E+02  0.49005540961E+02  0.69958980622E+02  0.00000000000E+00 0. -1.
         -4    1    5    5    0  503 -0.79552746298E+02 -0.48691187827E+02  0.16437291562E+03  0.18899186915E+03  0.00000000000E+00 0.  1.
         -3    1    6    6    0  502  0.14928122919E+02  0.74351070747E+03 -0.11470227279E+03  0.75245440550E+03  0.00000000000E+00 0.  1.
<mgrwt>
<rscale>  0 0.22582301E+04</rscale>
<asrwt>0</asrwt>
<pdfrwt beam="1">  1        2 0.22429925E+00 0.22582301E+04</pdfrwt>
<pdfrwt beam="2">  1       -2 0.13453085E+00 0.22582301E+04</pdfrwt>
<totfact> 0.48565991E+00</totfact>
</mgrwt>
</event>
<event>
12    1  0.1518126E-007  0.1681384E+04  0.7818608E-02  0.8772053E-01
          1   -1    0    0  501    0  0.00000000000E+00  0.00000000000E+00  0.97966412786E+03  0.97966412786E+03  0.00000000000E+00 0. -1.
         -1   -1    0    0    0  501 -0.00000000000E+00 -0.00000000000E+00 -0.72143431619E+03  0.72143431619E+03  0.00000000000E+00 0.  1.
         23    2    1    2    0    0 -0.22121728824E+03 -0.35755403266E+03 -0.33617303168E+03  0.54689087002E+03  0.96412351844E+02 0.  0.
        254    2    1    2    0    0  0.22121728824E+03  0.35755403266E+03  0.59440284336E+03  0.11542075740E+04  0.89559946900E+03 0.  0.
        -24    2    4    4    0    0 -0.87597086322E+02  0.11474369877E+03  0.71645634525E+03  0.73515873379E+03  0.79431122896E+02 0.  0.
         24    2    4    4    0    0  0.30881437457E+03  0.24281033390E+03 -0.12205350189E+03  0.41904884024E+03  0.79885524312E+02 0.  0.
         13    1    3    3    0    0 -0.23334607937E+02 -0.16807356271E+01 -0.11294316055E+02  0.25978652293E+02  0.00000000000E+00 0. -1.
        -13    1    3    3    0    0 -0.19788268031E+03 -0.35587329704E+03 -0.32487871562E+03  0.52091221772E+03  0.00000000000E+00 0.  1.
          2    1    6    6  502    0  0.27997803751E+03  0.24350418647E+03 -0.10536785811E+03  0.38572577804E+03  0.00000000000E+00 0. -1.
          3    1    5    5  503    0 -0.51539294586E+02  0.43237613361E+02  0.16936029492E+03  0.18223254263E+03  0.00000000000E+00 0. -1.
         -4    1    5    5    0  503 -0.36057791736E+02  0.71506085406E+02  0.54709605033E+03  0.55292619117E+03  0.00000000000E+00 0.  1.
         -1    1    6    6    0  502  0.28836337052E+02 -0.69385257479E+00 -0.16685643785E+02  0.33323062202E+02  0.00000000000E+00 0.  1.
<mgrwt>
<rscale>  0 0.16813843E+04</rscale>
<asrwt>0</asrwt>
<pdfrwt beam="1">  1        1 0.15071756E+00 0.16813843E+04</pdfrwt>
<pdfrwt beam="2">  1       -1 0.11098989E+00 0.16813843E+04</pdfrwt>
<totfact> 0.11181224E+01</totfact>
</mgrwt>
</event>
<event>
12    1  0.1518126E-007  0.1724602E+04  0.7818608E-02  0.8747456E-01
         -1   -1    0    0    0  501 -0.00000000000E+00  0.00000000000E+00  0.82952892716E+03  0.82952892716E+03  0.00000000000E+00 0.  1.
          1   -1    0    0  501    0  0.00000000000E+00 -0.00000000000E+00 -0.89636784161E+03  0.89636784161E+03  0.00000000000E+00 0. -1.
         23    2    1    2    0    0  0.91646938053E+02  0.31844646950E+03  0.50522106523E+03  0.61135771857E+03  0.93287834773E+02 0.  0.
        254    2    1    2    0    0 -0.91646938053E+02 -0.31844646950E+03 -0.57205997968E+03  0.11145390502E+04  0.89729446608E+03 0.  0.
        -24    2    4    4    0    0 -0.35018253350E+03 -0.21315923271E+03 -0.68583335642E+03  0.80307379987E+03  0.80594478760E+02 0.  0.
         24    2    4    4    0    0  0.25853559544E+03 -0.10528723679E+03  0.11377337674E+03  0.31146525032E+03  0.78359202148E+02 0.  0.
         13    1    3    3    0    0  0.11945253821E+02  0.19924438403E+03  0.31946194741E+03  0.37669211500E+03  0.00000000000E+00 0.  1.
        -13    1    3    3    0    0  0.79701684233E+02  0.11920208547E+03  0.18575911782E+03  0.23466560358E+03  0.00000000000E+00 0. -1.
          2    1    6    6  502    0  0.17239510033E+03 -0.29898830500E+02  0.59775359547E+02  0.18489755080E+03  0.00000000000E+00 0. -1.
          3    1    5    5  503    0 -0.35134691910E+03 -0.21689950891E+03 -0.67218451982E+03  0.78887393367E+03  0.00000000000E+00 0. -1.
         -4    1    5    5    0  503  0.11643856061E+01  0.37402761952E+01 -0.13648836592E+02  0.14199866203E+02  0.00000000000E+00 0.  1.
         -1    1    6    6    0  502  0.86140495110E+02 -0.75388406288E+02  0.53998017193E+02  0.12656769952E+03  0.00000000000E+00 0.  1.
<mgrwt>
<rscale>  0 0.17246020E+04</rscale>
<asrwt>0</asrwt>
<pdfrwt beam="1">  1        1 0.13790274E+00 0.17246020E+04</pdfrwt>
<pdfrwt beam="2">  1       -1 0.12761984E+00 0.17246020E+04</pdfrwt>
<totfact> 0.92466233E+00</totfact>
</mgrwt>
</event>
<event>
12    1  0.1518126E-007  0.1164272E+04  0.7818608E-02  0.9144717E-01
          1   -1    0    0  501    0  0.00000000000E+00  0.00000000000E+00  0.99967175048E+03  0.99967175048E+03  0.00000000000E+00 0. -1.
         -1   -1    0    0    0  501 -0.00000000000E+00 -0.00000000000E+00 -0.33899350756E+03  0.33899350756E+03  0.00000000000E+00 0.  1.
         23    2    1    2    0    0 -0.20263164724E+03  0.62882827980E+02  0.11453013318E+03  0.25869350827E+03  0.93762174138E+02 0.  0.
        254    2    1    2    0    0  0.20263164724E+03 -0.62882827980E+02  0.54614810975E+03  0.10799717498E+04  0.90721959195E+03 0.  0.
        -24    2    4    4    0    0 -0.12898552706E+03 -0.40692042061E+03  0.34904223255E+03  0.55706008164E+03  0.79145180196E+02 0.  0.
         24    2    4    4    0    0  0.33161717430E+03  0.34403759263E+03  0.19710587719E+03  0.52291166814E+03  0.79082680950E+02 0.  0.
         13    1    3    3    0    0 -0.19362603535E+03  0.31371632937E+02  0.82265290530E+02  0.21270354709E+03  0.00000000000E+00 0.  1.
        -13    1    3    3    0    0 -0.90056118878E+01  0.31511195042E+02  0.32264842646E+02  0.45989961181E+02  0.00000000000E+00 0. -1.
          4    1    6    6  502    0  0.25455817563E+03  0.30688585670E+03  0.16570468360E+03  0.43178332065E+03  0.00000000000E+00 0. -1.
          3    1    5    5  503    0 -0.76857344486E+02 -0.33412751572E+03  0.29630302176E+03  0.45314868296E+03  0.00000000000E+00 0. -1.
         -4    1    5    5    0  503 -0.52128182570E+02 -0.72792904887E+02  0.52739210798E+02  0.10391139868E+03  0.00000000000E+00 0.  1.
         -3    1    6    6    0  502  0.77058998667E+02  0.37151735926E+02  0.31401193590E+02  0.91128347493E+02  0.00000000000E+00 0.  1.
<mgrwt>
<rscale>  0 0.11642718E+04</rscale>
<asrwt>0</asrwt>
<pdfrwt beam="1">  1        1 0.15379565E+00 0.11642718E+04</pdfrwt>
<pdfrwt beam="2">  1       -1 0.52152848E-01 0.11642718E+04</pdfrwt>
<totfact> 0.55607074E+01</totfact>
</mgrwt>
</event>
<event>
12    1  0.1518126E-007  0.1546726E+04  0.7818608E-02  0.8853961E-01
          1   -1    0    0  501    0  0.00000000000E+00  0.00000000000E+00  0.24680615499E+04  0.24680615499E+04  0.00000000000E+00 0. -1.
         -1   -1    0    0    0  501 -0.00000000000E+00 -0.00000000000E+00 -0.24233214268E+03  0.24233214268E+03  0.00000000000E+00 0.  1.
         23    2    1    2    0    0  0.21236275100E+03 -0.72399651600E+02 -0.55105841736E+02  0.24795886007E+03  0.90040518263E+02 0.  0.
        254    2    1    2    0    0 -0.21236275100E+03  0.72399651600E+02  0.22808352490E+04  0.24624348325E+04  0.90057549597E+03 0.  0.
        -24    2    4    4    0    0 -0.49273311265E+03  0.15451705885E+03  0.19266002776E+04  0.19962060072E+04  0.79927165551E+02 0.  0.
         24    2    4    4    0    0  0.28037036164E+03 -0.82117407248E+02  0.35423497140E+03  0.46622882535E+03  0.80846115322E+02 0.  0.
         11    1    3    3    0    0  0.51838488751E+02  0.15709630627E+02 -0.33215250211E+02  0.63539548763E+02  0.00000000000E+00 0. -1.
        -11    1    3    3    0    0  0.16052426225E+03 -0.88109282227E+02 -0.21890591526E+02  0.18441931131E+03  0.00000000000E+00 0.  1.
          2    1    6    6  502    0  0.64251618235E+02  0.46613498093E+01  0.11835631317E+03  0.13475242297E+03  0.00000000000E+00 0. -1.
          3    1    5    5  503    0 -0.27728200480E+03  0.48534359387E+02  0.97991513748E+03  0.10195462574E+04  0.00000000000E+00 0. -1.
         -4    1    5    5    0  503 -0.21545110785E+03  0.10598269946E+03  0.94668514009E+03  0.97665974983E+03  0.00000000000E+00 0.  1.
         -1    1    6    6    0  502  0.21611874341E+03 -0.86778757057E+02  0.23587865823E+03  0.33147640238E+03  0.00000000000E+00 0.  1.
<mgrwt>
<rscale>  0 0.15467264E+04</rscale>
<asrwt>0</asrwt>
<pdfrwt beam="1">  1        1 0.37970176E+00 0.15467264E+04</pdfrwt>
<pdfrwt beam="2">  1       -1 0.37281870E-01 0.15467264E+04</pdfrwt>
<totfact> 0.95338123E+00</totfact>
</mgrwt>
</event>
<event>
12    1  0.1518126E-007  0.2223867E+04  0.7818608E-02  0.8508559E-01
          2   -1    0    0  501    0  0.00000000000E+00  0.00000000000E+00  0.38829804657E+04  0.38829804657E+04  0.00000000000E+00 0. -1.
         -2   -1    0    0    0  501 -0.00000000000E+00 -0.00000000000E+00 -0.31841411722E+03  0.31841411722E+03  0.00000000000E+00 0.  1.
         23    2    1    2    0    0  0.72565688727E+03 -0.52180485585E+03  0.10366865751E+04  0.13715359970E+04  0.86796949699E+02 0.  0.
        254    2    1    2    0    0 -0.72565688727E+03  0.52180485585E+03  0.25278797733E+04  0.28298585858E+04  0.90502223285E+03 0.  0.
        -24    2    4    4    0    0 -0.86840782609E+03  0.56086518890E+03  0.17498333789E+04  0.20338612293E+04  0.77283463657E+02 0.  0.
         24    2    4    4    0    0  0.14275093883E+03 -0.39060333051E+02  0.77804639439E+03  0.79599735649E+03  0.79699809036E+02 0.  0.
         13    1    3    3    0    0  0.51348111582E+03 -0.34471429365E+03  0.66191137505E+03  0.90587938986E+03  0.00000000000E+00 0.  1.
        -13    1    3    3    0    0  0.21217577144E+03 -0.17709056220E+03  0.37477520009E+03  0.46565660718E+03  0.00000000000E+00 0. -1.
          2    1    6    6  502    0  0.23791807383E+02 -0.42913687785E+02  0.22438554384E+03  0.22968784683E+03  0.00000000000E+00 0. -1.
          3    1    5    5  503    0 -0.35558961865E+02  0.30306155379E+02  0.53425880512E+02  0.70973428346E+02  0.00000000000E+00 0. -1.
         -4    1    5    5    0  503 -0.83284886423E+03  0.53055903352E+03  0.16964074984E+04  0.19628878010E+04  0.00000000000E+00 0.  1.
         -1    1    6    6    0  502  0.11895913144E+03  0.38533547340E+01  0.55366085055E+03  0.56630950965E+03  0.00000000000E+00 0.  1.
<mgrwt>
<rscale>  0 0.22238667E+04</rscale>
<asrwt>0</asrwt>
<pdfrwt beam="1">  1        2 0.59738158E+00 0.22238667E+04</pdfrwt>
<pdfrwt beam="2">  1       -2 0.48986790E-01 0.22238667E+04</pdfrwt>
<totfact> 0.15346458E+00</totfact>
</mgrwt>
</event>
<event>
12    1  0.1518126E-007  0.1186662E+04  0.7818608E-02  0.9124612E-01
         -1   -1    0    0    0  501 -0.00000000000E+00  0.00000000000E+00  0.30486338875E+03  0.30486338875E+03  0.00000000000E+00 0.  1.
          1   -1    0    0  501    0  0.00000000000E+00 -0.00000000000E+00 -0.11547530317E+04  0.11547530317E+04  0.00000000000E+00 0. -1.
         23    2    1    2    0    0  0.16171320088E+03 -0.16698324533E+03 -0.28771202135E+03  0.38062497976E+03  0.89792006487E+02 0.  0.
        254    2    1    2    0    0 -0.16171320088E+03  0.16698324533E+03 -0.56217762161E+03  0.10789914407E+04  0.89114773595E+03 0.  0.
        -24    2    4    4    0    0 -0.29119745285E+03 -0.11985837957E+03 -0.66336784049E+03  0.73868209094E+03  0.80201945009E+02 0.  0.
         24    2    4    4    0    0  0.12948425197E+03  0.28684162490E+03  0.10119021887E+03  0.34030934976E+03  0.80788017997E+02 0.  0.
         13    1    3    3    0    0  0.16750009004E+03 -0.16125619946E+03 -0.29043675743E+03  0.37203944965E+03  0.00000000000E+00 0. -1.
        -13    1    3    3    0    0 -0.57868891592E+01 -0.57270458718E+01  0.27247360844E+01  0.85855301111E+01  0.00000000000E+00 0.  1.
          4    1    6    6  502    0 -0.25671561067E+01  0.38806640964E+02  0.33367475923E+02  0.51243869125E+02  0.00000000000E+00 0. -1.
          1    1    5    5  503    0 -0.15546310365E+03 -0.96239371282E+02 -0.43663687306E+03  0.47337358618E+03  0.00000000000E+00 0. -1.
         -2    1    5    5    0  503 -0.13573434920E+03 -0.23619008290E+02 -0.22673096743E+03  0.26530850476E+03  0.00000000000E+00 0.  1.
         -3    1    6    6    0  502  0.13205140807E+03  0.24803498394E+03  0.67822742949E+02  0.28906548063E+03  0.00000000000E+00 0.  1.
<mgrwt>
<rscale>  0 0.11866624E+04</rscale>
<asrwt>0</asrwt>
<pdfrwt beam="1">  1        1 0.17765431E+00 0.11866624E+04</pdfrwt>
<pdfrwt beam="2">  1       -1 0.46902060E-01 0.11866624E+04</pdfrwt>
<totfact> 0.51773701E+01</totfact>
</mgrwt>
</event>
<event>
12    1  0.1518126E-007  0.2046552E+04  0.7818608E-02  0.8585160E-01
         -1   -1    0    0    0  501 -0.00000000000E+00  0.00000000000E+00  0.94894261538E+03  0.94894261538E+03  0.00000000000E+00 0.  1.
          1   -1    0    0  501    0  0.00000000000E+00 -0.00000000000E+00 -0.11034323493E+04  0.11034323493E+04  0.00000000000E+00 0. -1.
         23    2    1    2    0    0  0.43716252108E+03  0.32203031673E+03 -0.67872886225E+03  0.87369979777E+03  0.88678483452E+02 0.  0.
        254    2    1    2    0    0 -0.43716252108E+03 -0.32203031673E+03  0.52423912834E+03  0.11786751669E+04  0.90533634118E+03 0.  0.
        -24    2    4    4    0    0 -0.15485833209E+03 -0.29971662900E+03 -0.19775962941E+03  0.39910828692E+03  0.79795945675E+02 0.  0.
         24    2    4    4    0    0 -0.28230418899E+03 -0.22313687733E+02  0.72199875775E+03  0.77956687998E+03  0.79049088497E+02 0.  0.
         13    1    3    3    0    0  0.26258866913E+02  0.10649572715E+02 -0.72789547440E+02  0.78110560791E+02  0.00000000000E+00 0.  1.
        -13    1    3    3    0    0  0.41090365417E+03  0.31138074402E+03 -0.60593931481E+03  0.79558923697E+03  0.00000000000E+00 0. -1.
          4    1    6    6  502    0 -0.78773456581E+02  0.29020004228E+02  0.21794838935E+03  0.23355709907E+03  0.00000000000E+00 0. -1.
          3    1    5    5  503    0  0.14973571837E+01 -0.52992690130E+01  0.62088897889E+01  0.82990748291E+01  0.00000000000E+00 0. -1.
         -4    1    5    5    0  503 -0.15635568928E+03 -0.29441735999E+03 -0.20396851920E+03  0.39080921209E+03  0.00000000000E+00 0.  1.
         -3    1    6    6    0  502 -0.20353073240E+03 -0.51333691961E+02  0.50405036841E+03  0.54600978091E+03  0.00000000000E+00 0.  1.
<mgrwt>
<rscale>  0 0.20465522E+04</rscale>
<asrwt>0</asrwt>
<pdfrwt beam="1">  1        1 0.16975882E+00 0.20465522E+04</pdfrwt>
<pdfrwt beam="2">  1       -1 0.14599117E+00 0.20465522E+04</pdfrwt>
<totfact> 0.43696309E+00</totfact>
</mgrwt>
</event>
<event>
12    1  0.1518126E-007  0.2246402E+04  0.7818608E-02  0.8499359E-01
          1   -1    0    0  501    0  0.00000000000E+00  0.00000000000E+00  0.87863683782E+03  0.87863683782E+03  0.00000000000E+00 0. -1.
         -1   -1    0    0    0  501 -0.00000000000E+00 -0.00000000000E+00 -0.14358389092E+04  0.14358389092E+04  0.00000000000E+00 0.  1.
         23    2    1    2    0    0  0.45940757457E+03  0.22092491365E+03 -0.10491369551E+04  0.11699692657E+04  0.90975793825E+02 0.  0.
        254    2    1    2    0    0 -0.45940757457E+03 -0.22092491365E+03  0.49193488378E+03  0.11445064813E+04  0.89890601220E+03 0.  0.
        -24    2    4    4    0    0 -0.41383248239E+03  0.25031673724E+03  0.51539321774E+02  0.49294481823E+03  0.80140499804E+02 0.  0.
         24    2    4    4    0    0 -0.45575092179E+02 -0.47124165089E+03  0.44039556201E+03  0.65156166305E+03  0.80240682683E+02 0.  0.
         13    1    3    3    0    0  0.43632625985E+03  0.21569233661E+03 -0.10311202688E+04  0.11402248891E+04  0.00000000000E+00 0.  1.
        -13    1    3    3    0    0  0.23081314725E+02  0.52325770412E+01 -0.18016686370E+02  0.29744376606E+02  0.00000000000E+00 0. -1.
          4    1    6    6  502    0  0.20785813507E+02 -0.18645620956E+03  0.16380138682E+03  0.24905594242E+03  0.00000000000E+00 0. -1.
          3    1    5    5  503    0 -0.44382634560E+02  0.13416547169E+02  0.26379507614E+02  0.53345106714E+02  0.00000000000E+00 0. -1.
         -4    1    5    5    0  503 -0.36944984783E+03  0.23690019007E+03  0.25159814160E+02  0.43959971152E+03  0.00000000000E+00 0.  1.
         -3    1    6    6    0  502 -0.66360905686E+02 -0.28478544133E+03  0.27659417518E+03  0.40250572063E+03  0.00000000000E+00 0.  1.
<mgrwt>
<rscale>  0 0.22464024E+04</rscale>
<asrwt>0</asrwt>
<pdfrwt beam="1">  1        1 0.13517490E+00 0.22464024E+04</pdfrwt>
<pdfrwt beam="2">  1       -1 0.22089829E+00 0.22464024E+04</pdfrwt>
<totfact> 0.18676486E+00</totfact>
</mgrwt>
</event>
<event>
12    1  0.1518126E-007  0.1226555E+04  0.7818608E-02  0.9089926E-01
          2   -1    0    0  501    0  0.00000000000E+00  0.00000000000E+00  0.37220638089E+04  0.37220638089E+04  0.00000000000E+00 0.  1.
         -2   -1    0    0    0  501 -0.00000000000E+00 -0.00000000000E+00 -0.10104853706E+03  0.10104853706E+03  0.00000000000E+00 0. -1.
         23    2    1    2    0    0 -0.79833951195E+02 -0.25773577766E+03  0.10145985473E+04  0.10538530198E+04  0.91623055918E+02 0.  0.
        254    2    1    2    0    0  0.79833951195E+02  0.25773577766E+03  0.26064167245E+04  0.27692593261E+04  0.89587269327E+03 0.  0.
        -24    2    4    4    0    0 -0.30841631881E+03  0.25724186824E+03  0.61567968039E+03  0.73944483602E+03  0.80144820102E+02 0.  0.
         24    2    4    4    0    0  0.38825027000E+03  0.49390942126E+00  0.19907370441E+04  0.20298144901E+04  0.79839646886E+02 0.  0.
         11    1    3    3    0    0 -0.97597451890E+02 -0.18311200847E+03  0.70576257299E+03  0.73563311487E+03  0.00000000000E+00 0.  1.
        -11    1    3    3    0    0  0.17763500695E+02 -0.74623769185E+02  0.30883597432E+03  0.31821990497E+03  0.00000000000E+00 0. -1.
          4    1    6    6  502    0  0.24164222058E+03  0.35262392048E+02  0.11436596053E+04  0.11694407603E+04  0.00000000000E+00 0. -1.
          3    1    5    5  503    0 -0.20751775661E+03  0.14419713046E+03  0.32539827501E+03  0.41199571493E+03  0.00000000000E+00 0. -1.
         -4    1    5    5    0  503 -0.10089856220E+03  0.11304473777E+03  0.29028140539E+03  0.32744912109E+03  0.00000000000E+00 0.  1.
         -3    1    6    6    0  502  0.14660804943E+03 -0.34768482627E+02  0.84707743884E+03  0.86037372980E+03  0.00000000000E+00 0.  1.
<mgrwt>
<rscale>  0 0.12265547E+04</rscale>
<asrwt>0</asrwt>
<pdfrwt beam="1">  1        2 0.57262510E+00 0.12265547E+04</pdfrwt>
<pdfrwt beam="2">  1       -2 0.15545932E-01 0.12265547E+04</pdfrwt>
<totfact> 0.18857512E+01</totfact>
</mgrwt>
</event>
<event>
12    1  0.1518126E-007  0.1725064E+04  0.7818608E-02  0.8747197E-01
         -2   -1    0    0    0  501 -0.00000000000E+00  0.00000000000E+00  0.28834423072E+03  0.28834423072E+03  0.00000000000E+00 0.  1.
          2   -1    0    0  501    0  0.00000000000E+00 -0.00000000000E+00 -0.25801155953E+04  0.25801155953E+04  0.00000000000E+00 0. -1.
         23    2    1    2    0    0 -0.43444254058E+03 -0.42375418512E+03 -0.11001667117E+04  0.12597322627E+04  0.90833087812E+02 0.  0.
        254    2    1    2    0    0  0.43444254058E+03  0.42375418512E+03 -0.11916046529E+04  0.16087275632E+04  0.89430128790E+03 0.  0.
        -24    2    4    4    0    0 -0.24176704277E+03  0.13532515863E+03 -0.58457431701E+03  0.65208134990E+03  0.81968001444E+02 0.  0.
         24    2    4    4    0    0  0.67620958335E+03  0.28842902649E+03 -0.60703033586E+03  0.95664621334E+03  0.78964833397E+02 0.  0.
         11    1    3    3    0    0 -0.41198800747E+03 -0.40702143163E+03 -0.10791100882E+04  0.12246955321E+04  0.00000000000E+00 0. -1.
        -11    1    3    3    0    0 -0.22454533118E+02 -0.16732753487E+02 -0.21056623524E+02  0.35036730599E+02  0.00000000000E+00 0.  1.
          4    1    6    6  502    0  0.60864889869E+03  0.23738729580E+03 -0.55532630222E+03  0.85743426105E+03  0.00000000000E+00 0. -1.
          3    1    5    5  503    0 -0.24021565745E+03  0.14092497626E+03 -0.58293003405E+03  0.64604244103E+03  0.00000000000E+00 0. -1.
         -4    1    5    5    0  503 -0.15513853164E+01 -0.55998176303E+01 -0.16442829563E+01  0.60389088694E+01  0.00000000000E+00 0.  1.
         -3    1    6    6    0  502  0.67560684657E+02  0.51041730684E+02 -0.51704033638E+02  0.99211952288E+02  0.00000000000E+00 0.  1.
<mgrwt>
<rscale>  0 0.17250640E+04</rscale>
<asrwt>0</asrwt>
<pdfrwt beam="1">  1        2 0.39694087E+00 0.17250640E+04</pdfrwt>
<pdfrwt beam="2">  1       -2 0.44360650E-01 0.17250640E+04</pdfrwt>
<totfact> 0.14334367E+01</totfact>
</mgrwt>
</event>
<event>
12    1  0.1518126E-007  0.1362213E+04  0.7818608E-02  0.8981634E-01
         -1   -1    0    0    0  501 -0.00000000000E+00  0.00000000000E+00  0.35882872981E+03  0.35882872981E+03  0.00000000000E+00 0.  1.
          1   -1    0    0  501    0  0.00000000000E+00 -0.00000000000E+00 -0.12928347077E+04  0.12928347077E+04  0.00000000000E+00 0. -1.
         23    2    1    2    0    0  0.20243580220E+03  0.24076355155E+03  0.63372805271E+02  0.33206601312E+03  0.85465682321E+02 0.  0.
        254    2    1    2    0    0 -0.20243580220E+03 -0.24076355155E+03 -0.99737878314E+03  0.13195974244E+04  0.80475187704E+03 0.  0.
        -24    2    4    4    0    0  0.13445692950E+03 -0.41792714600E+03 -0.36237790637E+03  0.57493261160E+03  0.80548094926E+02 0.  0.
         24    2    4    4    0    0 -0.33689273170E+03  0.17716359446E+03 -0.63500087677E+03  0.74466481278E+03  0.80099425812E+02 0.  0.
         11    1    3    3    0    0  0.80105378803E+02  0.16079557883E+03  0.29620821501E+02  0.18206999464E+03  0.00000000000E+00 0. -1.
        -11    1    3    3    0    0  0.12233042340E+03  0.79967972718E+02  0.33751983770E+02  0.14999601847E+03  0.00000000000E+00 0.  1.
          4    1    6    6  502    0 -0.13233169908E+03  0.28812188198E+02 -0.24542783029E+03  0.28031525226E+03  0.00000000000E+00 0. -1.
          3    1    5    5  503    0  0.10785786790E+02 -0.26172932947E+02 -0.54996417644E+02  0.61854357724E+02  0.00000000000E+00 0. -1.
         -4    1    5    5    0  503  0.12367114271E+03 -0.39175421306E+03 -0.30738148872E+03  0.51307825387E+03  0.00000000000E+00 0.  1.
         -3    1    6    6    0  502 -0.20456103263E+03  0.14835140626E+03 -0.38957304648E+03  0.46434956052E+03  0.00000000000E+00 0.  1.
<mgrwt>
<rscale>  0 0.13622133E+04</rscale>
<asrwt>0</asrwt>
<pdfrwt beam="1">  1        1 0.19889765E+00 0.13622133E+04</pdfrwt>
<pdfrwt beam="2">  1       -1 0.55204420E-01 0.13622133E+04</pdfrwt>
<totfact> 0.29687702E+01</totfact>
</mgrwt>
</event>
<event>
12    1  0.1518126E-007  0.1703864E+04  0.7818608E-02  0.8759164E-01
         -2   -1    0    0    0  501 -0.00000000000E+00  0.00000000000E+00  0.25323986049E+03  0.25323986049E+03  0.00000000000E+00 0.  1.
          2   -1    0    0  501    0  0.00000000000E+00 -0.00000000000E+00 -0.28660111153E+04  0.28660111153E+04  0.00000000000E+00 0. -1.
         23    2    1    2    0    0 -0.41991000719E+02  0.13039993847E+03  0.14256099346E+03  0.21763015987E+03  0.90949774783E+02 0.  0.
        254    2    1    2    0    0  0.41991000719E+02 -0.13039993847E+03 -0.27553322483E+04  0.29016208159E+04  0.89932206293E+03 0.  0.
        -24    2    4    4    0    0  0.14040497564E+03 -0.48274630058E+03 -0.12318134887E+04  0.13327438724E+04  0.78001348416E+02 0.  0.
         24    2    4    4    0    0 -0.98413974920E+02  0.35234636211E+03 -0.15235187596E+04  0.15688769436E+04  0.80200897892E+02 0.  0.
         11    1    3    3    0    0  0.16316998597E+02 -0.19278276850E+01  0.30760058634E+01  0.16715943733E+02  0.00000000000E+00 0. -1.
        -11    1    3    3    0    0 -0.58307999316E+02  0.13232776615E+03  0.13948498760E+03  0.20091421614E+03  0.00000000000E+00 0.  1.
          2    1    6    6  502    0 -0.78238223050E+02  0.23726094819E+03 -0.11759511431E+04  0.12021959358E+04  0.00000000000E+00 0. -1.
          1    1    5    5  503    0  0.52343921779E+02 -0.31003458244E+03 -0.78972877182E+03  0.85001933007E+03  0.00000000000E+00 0. -1.
         -2    1    5    5    0  503  0.88061053859E+02 -0.17271171814E+03 -0.44208471693E+03  0.48272454229E+03  0.00000000000E+00 0.  1.
         -1    1    6    6    0  502 -0.20175751870E+02  0.11508541392E+03 -0.34756761645E+03  0.36668100778E+03  0.00000000000E+00 0.  1.
<mgrwt>
<rscale>  0 0.17038641E+04</rscale>
<asrwt>0</asrwt>
<pdfrwt beam="1">  1        2 0.44092478E+00 0.17038641E+04</pdfrwt>
<pdfrwt beam="2">  1       -2 0.38959980E-01 0.17038641E+04</pdfrwt>
<totfact> 0.12533982E+01</totfact>
</mgrwt>
</event>
<event>
12    1  0.1518126E-007  0.1284479E+04  0.7818608E-02  0.9041965E-01
          2   -1    0    0  501    0  0.00000000000E+00  0.00000000000E+00  0.10042285263E+04  0.10042285263E+04  0.00000000000E+00 0.  1.
         -2   -1    0    0    0  501 -0.00000000000E+00 -0.00000000000E+00 -0.41073469421E+03  0.41073469421E+03  0.00000000000E+00 0. -1.
         23    2    1    2    0    0  0.33732982901E+02 -0.31443987191E+03  0.12075290541E+03  0.35071846327E+03  0.91716024417E+02 0.  0.
        254    2    1    2    0    0 -0.33732982901E+02  0.31443987191E+03  0.47274092672E+03  0.10642447573E+04  0.89951240815E+03 0.  0.
        -24    2    4    4    0    0 -0.24862596704E+03 -0.22250275775E+03  0.30039674891E+03  0.45587141972E+03  0.79108759782E+02 0.  0.
         24    2    4    4    0    0  0.21489298414E+03  0.53694262965E+03  0.17234417781E+03  0.60837333756E+03  0.77001428900E+02 0.  0.
         13    1    3    3    0    0  0.23935651384E+02 -0.22441501047E+03  0.12871524425E+03  0.25981267566E+03  0.00000000000E+00 0. -1.
        -13    1    3    3    0    0  0.97973315164E+01 -0.90024861437E+02 -0.79623388385E+01  0.90905787612E+02  0.00000000000E+00 0.  1.
          2    1    6    6  502    0  0.37718271898E+02  0.18290309332E+03  0.40439252410E+02  0.19107993803E+03  0.00000000000E+00 0. -1.
          3    1    5    5  503    0 -0.60729417304E+02 -0.10360783396E+03  0.94294660568E+02  0.15268964731E+03  0.00000000000E+00 0. -1.
         -2    1    5    5    0  503 -0.18789654974E+03 -0.11889492378E+03  0.20610208834E+03  0.30318177241E+03  0.00000000000E+00 0.  1.
         -1    1    6    6    0  502  0.17717471224E+03  0.35403953633E+03  0.13190492540E+03  0.41729339952E+03  0.00000000000E+00 0.  1.
<mgrwt>
<rscale>  0 0.12844789E+04</rscale>
<asrwt>0</asrwt>
<pdfrwt beam="1">  1        2 0.15449670E+00 0.12844789E+04</pdfrwt>
<pdfrwt beam="2">  1       -2 0.63189953E-01 0.12844789E+04</pdfrwt>
<totfact> 0.56980636E+01</totfact>
</mgrwt>
</event>
<event>
12    1  0.1518126E-007  0.2094159E+04  0.7818608E-02  0.8563821E-01
          2   -1    0    0  501    0  0.00000000000E+00  0.00000000000E+00  0.20444118903E+04  0.20444118903E+04  0.00000000000E+00 0. -1.
         -2   -1    0    0    0  501 -0.00000000000E+00 -0.00000000000E+00 -0.53627914449E+03  0.53627914449E+03  0.00000000000E+00 0.  1.
         23    2    1    2    0    0 -0.34744367128E+03  0.36828094662E+02 -0.34052435697E+03  0.49673768165E+03  0.93370623938E+02 0.  0.
        254    2    1    2    0    0  0.34744367128E+03 -0.36828094662E+02  0.18486571028E+04  0.20839533531E+04  0.89624498946E+03 0.  0.
        -24    2    4    4    0    0 -0.25455791558E+03  0.11694296137E+03  0.32678246088E+03  0.43808721516E+03  0.81598056019E+02 0.  0.
         24    2    4    4    0    0  0.60200158687E+03 -0.15377105603E+03  0.15218746419E+04  0.16458661380E+04  0.81984573158E+02 0.  0.
         13    1    3    3    0    0 -0.18547909703E+03  0.24460348632E+02 -0.11783996119E+03  0.22110418482E+03  0.00000000000E+00 0. -1.
        -13    1    3    3    0    0 -0.16196457425E+03  0.12367746031E+02 -0.22268439578E+03  0.27563349684E+03  0.00000000000E+00 0.  1.
          2    1    6    6  502    0  0.16198502577E+03 -0.34215570671E+02  0.31761683155E+03  0.35817636094E+03  0.00000000000E+00 0. -1.
          1    1    5    5  503    0 -0.22121528228E+02  0.30922547645E+02  0.17786633776E+02  0.41975353543E+02  0.00000000000E+00 0. -1.
         -4    1    5    5    0  503 -0.23243638736E+03  0.86020413724E+02  0.30899582711E+03  0.39611186162E+03  0.00000000000E+00 0.  1.
         -1    1    6    6    0  502  0.44001656110E+03 -0.11955548536E+03  0.12042578103E+04  0.12876897770E+04  0.00000000000E+00 0.  1.
<mgrwt>
<rscale>  0 0.20941590E+04</rscale>
<asrwt>0</asrwt>
<pdfrwt beam="1">  1        2 0.31452490E+00 0.20941590E+04</pdfrwt>
<pdfrwt beam="2">  1       -2 0.82504485E-01 0.20941590E+04</pdfrwt>
<totfact> 0.75016970E+00</totfact>
</mgrwt>
</event>
<event>
12    1  0.1518126E-007  0.1929962E+04  0.7818608E-02  0.8640084E-01
         -2   -1    0    0    0  501 -0.00000000000E+00  0.00000000000E+00  0.45541276765E+03  0.45541276765E+03  0.00000000000E+00 0.  1.
          2   -1    0    0  501    0  0.00000000000E+00 -0.00000000000E+00 -0.20447135586E+04  0.20447135586E+04  0.00000000000E+00 0. -1.
         23    2    1    2    0    0 -0.55628667544E+03  0.41843868036E+03 -0.24746512379E+03  0.74468701700E+03  0.93669479088E+02 0.  0.
        254    2    1    2    0    0  0.55628667544E+03 -0.41843868036E+03 -0.13418356671E+04  0.17554393092E+04  0.89246759956E+03 0.  0.
        -24    2    4    4    0    0 -0.17457954389E+03 -0.72786196715E+02 -0.67117221789E+03  0.70213960424E+03  0.82170738075E+02 0.  0.
         24    2    4    4    0    0  0.73086621932E+03 -0.34565248364E+03 -0.67066344924E+03  0.10532997050E+04  0.77522489385E+02 0.  0.
         13    1    3    3    0    0 -0.10587971695E+03  0.53498921587E+02 -0.12881329222E+02  0.11932551159E+03  0.00000000000E+00 0. -1.
        -13    1    3    3    0    0 -0.45040695848E+03  0.36493975877E+03 -0.23458379457E+03  0.62536150542E+03  0.00000000000E+00 0.  1.
          2    1    6    6  502    0  0.62112617326E+03 -0.31826104419E+03 -0.55686879169E+03  0.89285534468E+03  0.00000000000E+00 0. -1.
          3    1    5    5  503    0 -0.97604463882E+02 -0.19390340699E+01 -0.25579926990E+03  0.27379491906E+03  0.00000000000E+00 0. -1.
         -4    1    5    5    0  503 -0.76975080006E+02 -0.70847162645E+02 -0.41537294799E+03  0.42834468517E+03  0.00000000000E+00 0.  1.
         -1    1    6    6    0  502  0.10974004606E+03 -0.27391439454E+02 -0.11379465756E+03  0.16044436030E+03  0.00000000000E+00 0.  1.
<mgrwt>
<rscale>  0 0.19299623E+04</rscale>
<asrwt>0</asrwt>
<pdfrwt beam="1">  1        2 0.31457131E+00 0.19299623E+04</pdfrwt>
<pdfrwt beam="2">  1       -2 0.70063504E-01 0.19299623E+04</pdfrwt>
<totfact> 0.10934993E+01</totfact>
</mgrwt>
</event>
<event>
12    1  0.1518126E-007  0.2639396E+04  0.7818608E-02  0.8354941E-01
         -2   -1    0    0    0  501 -0.00000000000E+00  0.00000000000E+00  0.59579141245E+03  0.59579141245E+03  0.00000000000E+00 0.  1.
          2   -1    0    0  501    0  0.00000000000E+00 -0.00000000000E+00 -0.29231748232E+04  0.29231748232E+04  0.00000000000E+00 0. -1.
         23    2    1    2    0    0  0.28846954677E+03  0.11523941977E+04 -0.92858496914E+03  0.15105973746E+04  0.91691423017E+02 0.  0.
        254    2    1    2    0    0 -0.28846954677E+03 -0.11523941977E+04 -0.13987984416E+04  0.20083688610E+04  0.81589296817E+03 0.  0.
        -24    2    4    4    0    0 -0.32580569368E+03 -0.72833311261E+03 -0.35255373965E+03  0.87597837205E+03  0.80159191612E+02 0.  0.
         24    2    4    4    0    0  0.37336146916E+02 -0.42406108505E+03 -0.10462447019E+04  0.11323904890E+04  0.80364491236E+02 0.  0.
         13    1    3    3    0    0  0.22517497092E+03  0.71746742748E+03 -0.58767124735E+03  0.95436930587E+03  0.00000000000E+00 0.  1.
        -13    1    3    3    0    0  0.63294575848E+02  0.43492677018E+03 -0.34091372180E+03  0.55622806875E+03  0.00000000000E+00 0. -1.
          4    1    6    6  502    0 -0.25306341449E+02 -0.10216701612E+03 -0.24821062154E+03  0.26960530919E+03  0.00000000000E+00 0. -1.
          1    1    5    5  503    0 -0.13985538714E+03 -0.23449426414E+03 -0.14289659416E+03  0.30816639312E+03  0.00000000000E+00 0. -1.
         -2    1    5    5    0  503 -0.18595030655E+03 -0.49383884847E+03 -0.20965714548E+03  0.56781197893E+03  0.00000000000E+00 0.  1.
         -3    1    6    6    0  502  0.62642488365E+02 -0.32189406894E+03 -0.79803408041E+03  0.86278517979E+03  0.00000000000E+00 0.  1.
<mgrwt>
<rscale>  0 0.26393957E+04</rscale>
<asrwt>0</asrwt>
<pdfrwt beam="1">  1        2 0.44971921E+00 0.26393957E+04</pdfrwt>
<pdfrwt beam="2">  1       -2 0.91660217E-01 0.26393957E+04</pdfrwt>
<totfact> 0.17359395E+00</totfact>
</mgrwt>
</event>
<event>
12    1  0.1518126E-007  0.1307349E+04  0.7818608E-02  0.9023758E-01
          1   -1    0    0  501    0  0.00000000000E+00  0.00000000000E+00  0.76571342409E+03  0.76571342409E+03  0.00000000000E+00 0. -1.
         -1   -1    0    0    0  501 -0.00000000000E+00 -0.00000000000E+00 -0.55802904876E+03  0.55802904876E+03  0.00000000000E+00 0.  1.
         23    2    1    2    0    0  0.11429046432E+03 -0.20709571655E+03  0.29569163513E+03  0.38924066656E+03  0.90132166088E+02 0.  0.
        254    2    1    2    0    0 -0.11429046432E+03  0.20709571655E+03 -0.88007259795E+02  0.93450180629E+03  0.89977630672E+03 0.  0.
        -24    2    4    4    0    0  0.26586869978E+03  0.31276268921E+03  0.17613103227E+03  0.45390814615E+03  0.80646136452E+02 0.  0.
         24    2    4    4    0    0 -0.38015916411E+03 -0.10566697265E+03 -0.26413829207E+03  0.48059366015E+03  0.74261225902E+02 0.  0.
         13    1    3    3    0    0  0.78350464574E+02 -0.11980957365E+03  0.10860588827E+03  0.17968964412E+03  0.00000000000E+00 0.  1.
        -13    1    3    3    0    0  0.35939999747E+02 -0.87286142903E+02  0.18708574686E+03  0.20955102243E+03  0.00000000000E+00 0. -1.
          4    1    6    6  502    0 -0.14142806248E+03 -0.71982437391E+02 -0.12676298879E+03  0.20310643386E+03  0.00000000000E+00 0. -1.
          1    1    5    5  503    0  0.22045061580E+03  0.27148282066E+03  0.17819648560E+03  0.39249889605E+03  0.00000000000E+00 0. -1.
         -2    1    5    5    0  503  0.45418083981E+02  0.41279868547E+02 -0.20654533295E+01  0.61409250095E+02  0.00000000000E+00 0.  1.
         -3    1    6    6    0  502 -0.23873110163E+03 -0.33684535261E+02 -0.13737530328E+03  0.27748722628E+03  0.00000000000E+00 0.  1.
<mgrwt>
<rscale>  0 0.13073490E+04</rscale>
<asrwt>0</asrwt>
<pdfrwt beam="1">  1        1 0.11780207E+00 0.13073490E+04</pdfrwt>
<pdfrwt beam="2">  1       -1 0.85850623E-01 0.13073490E+04</pdfrwt>
<totfact> 0.31204808E+01</totfact>
</mgrwt>
</event>
<event>
12    1  0.1518126E-007  0.1256292E+04  0.7818608E-02  0.9064962E-01
          2   -1    0    0  501    0  0.00000000000E+00  0.00000000000E+00  0.24547562943E+03  0.24547562943E+03  0.00000000000E+00 0. -1.
         -2   -1    0    0    0  501 -0.00000000000E+00 -0.00000000000E+00 -0.16073596145E+04  0.16073596145E+04  0.00000000000E+00 0.  1.
         23    2    1    2    0    0  0.27435072208E+03  0.99505781733E+02 -0.37659201578E+03  0.48534790837E+03  0.92581458775E+02 0.  0.
        254    2    1    2    0    0 -0.27435072208E+03 -0.99505781733E+02 -0.98529196926E+03  0.13674873355E+04  0.90224809717E+03 0.  0.
        -24    2    4    4    0    0 -0.21877953520E+03 -0.46843168323E+03 -0.76641278258E+03  0.92797781484E+03  0.80383733733E+02 0.  0.
         24    2    4    4    0    0 -0.55571186871E+02  0.36892590150E+03 -0.21887918668E+03  0.43950952069E+03  0.77884804759E+02 0.  0.
         11    1    3    3    0    0  0.17283699821E+03  0.64797504911E+02 -0.16268187941E+03  0.24604214777E+03  0.00000000000E+00 0. -1.
        -11    1    3    3    0    0  0.10151372387E+03  0.34708276822E+02 -0.21391013638E+03  0.23930576060E+03  0.00000000000E+00 0.  1.
          2    1    6    6  502    0 -0.82413567601E+01  0.12647246110E+03 -0.34784753513E+02  0.13142747983E+03  0.00000000000E+00 0. -1.
          1    1    5    5  503    0 -0.86243513021E+02 -0.12816511123E+03 -0.18043863842E+03  0.23753387444E+03  0.00000000000E+00 0. -1.
         -2    1    5    5    0  503 -0.13253602218E+03 -0.34026657200E+03 -0.58597414416E+03  0.69044394039E+03  0.00000000000E+00 0.  1.
         -1    1    6    6    0  502 -0.47329830111E+02  0.24245344040E+03 -0.18409443317E+03  0.30808204087E+03  0.00000000000E+00 0.  1.
<mgrwt>
<rscale>  0 0.12562923E+04</rscale>
<asrwt>0</asrwt>
<pdfrwt beam="1">  1        2 0.37765483E-01 0.12562923E+04</pdfrwt>
<pdfrwt beam="2">  1       -2 0.24728609E+00 0.12562923E+04</pdfrwt>
<totfact> 0.90371374E+00</totfact>
</mgrwt>
</event>
<event>
12    1  0.1518126E-007  0.1130764E+04  0.7818608E-02  0.9175715E-01
         -4   -1    0    0    0  501 -0.00000000000E+00  0.00000000000E+00  0.55951628418E+03  0.55951628418E+03  0.00000000000E+00 0.  1.
          4   -1    0    0  501    0  0.00000000000E+00 -0.00000000000E+00 -0.57130900522E+03  0.57130900522E+03  0.00000000000E+00 0. -1.
         23    2    1    2    0    0  0.15874434212E+03 -0.11048806574E+03  0.38950188719E+02  0.21750877290E+03  0.91572759393E+02 0.  0.
        254    2    1    2    0    0 -0.15874434212E+03  0.11048806574E+03 -0.50742909753E+02  0.91331651649E+03  0.89115926612E+03 0.  0.
        -24    2    4    4    0    0 -0.66768683356E+02 -0.37408047290E+03 -0.12834994936E+03  0.40852666893E+03  0.77627781405E+02 0.  0.
         24    2    4    4    0    0 -0.91975658765E+02  0.48456853864E+03  0.77607039604E+02  0.50478984756E+03  0.74321915704E+02 0.  0.
         13    1    3    3    0    0  0.20186257576E+02 -0.31994173773E+02  0.44195654377E+02  0.58175321367E+02  0.00000000000E+00 0.  1.
        -13    1    3    3    0    0  0.13855808454E+03 -0.78493891966E+02 -0.52454656582E+01  0.15933345154E+03  0.00000000000E+00 0. -1.
          2    1    6    6  502    0 -0.30724352482E+02  0.73574817976E+02 -0.92790140953E+01  0.80270416582E+02  0.00000000000E+00 0. -1.
          1    1    5    5  503    0 -0.11994184460E+02 -0.55236355233E+02 -0.50453701087E+02  0.75766030341E+02  0.00000000000E+00 0. -1.
         -2    1    5    5    0  503 -0.54774498896E+02 -0.31884411767E+03 -0.77896248270E+02  0.33276063859E+03  0.00000000000E+00 0.  1.
         -1    1    6    6    0  502 -0.61251306283E+02  0.41099372067E+03  0.86886053699E+02  0.42451943098E+03  0.00000000000E+00 0.  1.
<mgrwt>
<rscale>  0 0.11307638E+04</rscale>
<asrwt>0</asrwt>
<pdfrwt beam="1">  1        4 0.87893693E-01 0.11307638E+04</pdfrwt>
<pdfrwt beam="2">  1       -4 0.86079429E-01 0.11307638E+04</pdfrwt>
<totfact> 0.25901597E+00</totfact>
</mgrwt>
</event>
<event>
12    1  0.1518126E-007  0.1716984E+04  0.7818608E-02  0.8751736E-01
         -1   -1    0    0    0  501 -0.00000000000E+00  0.00000000000E+00  0.34338697728E+03  0.34338697728E+03  0.00000000000E+00 0.  1.
          1   -1    0    0  501    0  0.00000000000E+00 -0.00000000000E+00 -0.21462924595E+04  0.21462924595E+04  0.00000000000E+00 0. -1.
         23    2    1    2    0    0  0.30962459475E+03  0.14213412317E+03 -0.14082215355E+04  0.14517117689E+04  0.91157382331E+02 0.  0.
        254    2    1    2    0    0 -0.30962459475E+03 -0.14213412317E+03 -0.39468394670E+03  0.10379676678E+04  0.89751432469E+03 0.  0.
        -24    2    4    4    0    0 -0.10250285202E+03  0.14193946279E+03 -0.59453540714E+03  0.62503122284E+03  0.80858106613E+02 0.  0.
         24    2    4    4    0    0 -0.20712174273E+03 -0.28407358596E+03  0.19985146045E+03  0.41293644499E+03  0.83538510894E+02 0.  0.
         13    1    3    3    0    0  0.30034076334E+03  0.11771966527E+03 -0.13481471882E+04  0.13862046512E+04  0.00000000000E+00 0. -1.
        -13    1    3    3    0    0  0.92838314102E+01  0.24414457905E+02 -0.60074347231E+02  0.65507117749E+02  0.00000000000E+00 0.  1.
          4    1    6    6  502    0 -0.75437337761E+01  0.57264493132E+01  0.48121484050E+01  0.10623413448E+02  0.00000000000E+00 0. -1.
          1    1    5    5  503    0  0.39547007236E+01  0.21305548131E+02 -0.16382104971E+03  0.16524800261E+03  0.00000000000E+00 0. -1.
         -2    1    5    5    0  503 -0.10645755274E+03  0.12063391466E+03 -0.43071435743E+03  0.45978322023E+03  0.00000000000E+00 0.  1.
         -3    1    6    6    0  502 -0.19957800895E+03 -0.28980003528E+03  0.19503931204E+03  0.40231303154E+03  0.00000000000E+00 0.  1.
<mgrwt>
<rscale>  0 0.17169844E+04</rscale>
<asrwt>0</asrwt>
<pdfrwt beam="1">  1        1 0.33019884E+00 0.17169844E+04</pdfrwt>
<pdfrwt beam="2">  1       -1 0.52828767E-01 0.17169844E+04</pdfrwt>
<totfact> 0.81390186E+00</totfact>
</mgrwt>
</event>
<event>
12    1  0.1518126E-007  0.2545913E+04  0.7818608E-02  0.8386809E-01
         -1   -1    0    0    0  501 -0.00000000000E+00  0.00000000000E+00  0.84594750756E+03  0.84594750756E+03  0.00000000000E+00 0. -1.
          1   -1    0    0  501    0  0.00000000000E+00 -0.00000000000E+00 -0.19155068235E+04  0.19155068235E+04  0.00000000000E+00 0.  1.
         23    2    1    2    0    0 -0.50614900994E+03  0.67021001137E+03  0.32787709110E+03  0.90557834194E+03  0.84855565093E+02 0.  0.
        254    2    1    2    0    0  0.50614900994E+03 -0.67021001137E+03 -0.13974364070E+04  0.18558759891E+04  0.88661090432E+03 0.  0.
        -24    2    4    4    0    0  0.18277341398E+03  0.93961077905E+02 -0.80160233417E+03  0.83142752357E+03  0.80440162812E+02 0.  0.
         24    2    4    4    0    0  0.32337559595E+03 -0.76417108927E+03 -0.59583407286E+03  0.10244484655E+04  0.77118003187E+02 0.  0.
         13    1    3    3    0    0 -0.23668645718E+03  0.24443053150E+03  0.13004440952E+03  0.36425034274E+03  0.00000000000E+00 0. -1.
        -13    1    3    3    0    0 -0.26946255276E+03  0.42577947987E+03  0.19783268157E+03  0.54132799920E+03  0.00000000000E+00 0.  1.
          4    1    6    6  502    0  0.13140550705E+03 -0.30285072818E+03 -0.19130298036E+03  0.38155314327E+03  0.00000000000E+00 0. -1.
          1    1    5    5  503    0  0.38984646607E+01 -0.12116922018E+02 -0.46819926525E+02  0.48519308999E+02  0.00000000000E+00 0. -1.
         -2    1    5    5    0  503  0.17887494932E+03  0.10607799992E+03 -0.75478240764E+03  0.78290821457E+03  0.00000000000E+00 0.  1.
         -3    1    6    6    0  502  0.19197008891E+03 -0.46132036109E+03 -0.40453109251E+03  0.64289532227E+03  0.00000000000E+00 0.  1.
<mgrwt>
<rscale>  0 0.25459130E+04</rscale>
<asrwt>0</asrwt>
<pdfrwt beam="1">  1        1 0.29469335E+00 0.25459130E+04</pdfrwt>
<pdfrwt beam="2">  1       -1 0.13014577E+00 0.25459130E+04</pdfrwt>
<totfact> 0.15215820E+00</totfact>
</mgrwt>
</event>
<event>
12    1  0.1518126E-007  0.1483337E+04  0.7818608E-02  0.8895610E-01
          2   -1    0    0  501    0  0.00000000000E+00  0.00000000000E+00  0.12787440757E+04  0.12787440757E+04  0.00000000000E+00 0. -1.
         -2   -1    0    0    0  501 -0.00000000000E+00 -0.00000000000E+00 -0.43016592079E+03  0.43016592079E+03  0.00000000000E+00 0.  1.
         23    2    1    2    0    0 -0.13992584603E+03 -0.34378694243E+03 -0.52872591348E+02  0.38835455069E+03  0.10126718103E+03 0.  0.
        254    2    1    2    0    0  0.13992584603E+03  0.34378694243E+03  0.90145074623E+03  0.13205554458E+04  0.89077748810E+03 0.  0.
        -24    2    4    4    0    0 -0.35343070813E+03  0.28637623139E+03  0.45387352357E+03  0.64756209167E+03  0.80067944976E+02 0.  0.
         24    2    4    4    0    0  0.49335655417E+03  0.57410711034E+02  0.44757722266E+03  0.67299335410E+03  0.76798470936E+02 0.  0.
         13    1    3    3    0    0 -0.18053325832E+01 -0.50877851112E+02  0.22811832967E+02  0.55787047626E+02  0.00000000000E+00 0. -1.
        -13    1    3    3    0    0 -0.13812051345E+03 -0.29290909131E+03 -0.75684424315E+02  0.33256750306E+03  0.00000000000E+00 0.  1.
          2    1    6    6  502    0  0.21125407464E+03 -0.65661459218E+01  0.15985953531E+03  0.26500277235E+03  0.00000000000E+00 0. -1.
          3    1    5    5  503    0 -0.23645489545E+03  0.23740307563E+03  0.32930667831E+03  0.46980211396E+03  0.00000000000E+00 0. -1.
         -4    1    5    5    0  503 -0.11697581268E+03  0.48973155764E+02  0.12456684526E+03  0.17775997771E+03  0.00000000000E+00 0.  1.
         -1    1    6    6    0  502  0.28210247952E+03  0.63976856955E+02  0.28771768735E+03  0.40799058175E+03  0.00000000000E+00 0.  1.
<mgrwt>
<rscale>  0 0.14833369E+04</rscale>
<asrwt>0</asrwt>
<pdfrwt beam="1">  1        2 0.19672986E+00 0.14833369E+04</pdfrwt>
<pdfrwt beam="2">  1       -2 0.66179373E-01 0.14833369E+04</pdfrwt>
<totfact> 0.34562076E+01</totfact>
</mgrwt>
</event>
<event>
12    1  0.1618882E-007  0.3458333E+04  0.7818608E-02  0.8123736E-01
          2   -1    0    0  501    0  0.00000000000E+00  0.00000000000E+00  0.21059821997E+04  0.21059821997E+04  0.00000000000E+00 0. -1.
         -2   -1    0    0    0  501 -0.00000000000E+00 -0.00000000000E+00 -0.14197726868E+04  0.14197726868E+04  0.00000000000E+00 0.  1.
         23    2    1    2    0    0  0.91863205037E+02  0.16041757050E+04  0.38954721373E+03  0.16559127725E+04  0.92095262825E+02 0.  0.
        254    2    1    2    0    0 -0.91863205037E+02 -0.16041757050E+04  0.29666229925E+03  0.18698421141E+04  0.90911081334E+03 0.  0.
        -24    2    4    4    0    0  0.73436642898E+02  0.73581701894E+02 -0.61371139634E+02  0.14428153900E+03  0.79016063833E+02 0.  0.
         24    2    4    4    0    0 -0.16529984794E+03 -0.16777574069E+04  0.35803343888E+03  0.17255605751E+04  0.84719530698E+02 0.  0.
         11    1    3    3    0    0  0.33784020229E+02  0.30900325182E+03  0.10925305865E+03  0.32948535701E+03  0.00000000000E+00 0.  1.
        -11    1    3    3    0    0  0.58079184808E+02  0.12951724531E+04  0.28029415508E+03  0.13264274154E+04  0.00000000000E+00 0. -1.
          2    1    6    6  502    0 -0.24305863531E+02 -0.10352847282E+03  0.73755142042E+01  0.10659886443E+03  0.00000000000E+00 0. -1.
          1    1    5    5  503    0  0.12520387694E+02  0.14135049926E+02  0.19306735020E+02  0.27005735716E+02  0.00000000000E+00 0. -1.
         -2    1    5    5    0  503  0.60916255204E+02  0.59446651968E+02 -0.80677874654E+02  0.11727580329E+03  0.00000000000E+00 0.  1.
         -1    1    6    6    0  502 -0.14099398440E+03 -0.15742289340E+04  0.35065792468E+03  0.16189617106E+04  0.00000000000E+00 0.  1.
<mgrwt>
<rscale>  0 0.34583325E+04</rscale>
<asrwt>0</asrwt>
<pdfrwt beam="1">  1        2 0.32399726E+00 0.34583325E+04</pdfrwt>
<pdfrwt beam="2">  1       -2 0.21842657E+00 0.34583325E+04</pdfrwt>
<totfact> 0.48623219E-01</totfact>
</mgrwt>
</event>
<event>
12    1  0.1518126E-007  0.1689712E+04  0.7818608E-02  0.8767254E-01
         -2   -1    0    0    0  501 -0.00000000000E+00  0.00000000000E+00  0.76869294887E+03  0.76869294887E+03  0.00000000000E+00 0.  1.
          2   -1    0    0  501    0  0.00000000000E+00 -0.00000000000E+00 -0.92856489097E+03  0.92856489097E+03  0.00000000000E+00 0. -1.
         23    2    1    2    0    0 -0.10093632240E+03 -0.53748125338E+03 -0.30842368287E+03  0.63420105500E+03  0.89507380136E+02 0.  0.
        254    2    1    2    0    0  0.10093632240E+03  0.53748125338E+03  0.14855174077E+03  0.10630567848E+04  0.89941529295E+03 0.  0.
        -24    2    4    4    0    0 -0.20224744246E+03 -0.23790138504E+02  0.32793637504E+03  0.39557891001E+03  0.86431529541E+02 0.  0.
         24    2    4    4    0    0  0.30318376486E+03  0.56127139188E+03 -0.17938463426E+03  0.66747787483E+03  0.80011847601E+02 0.  0.
         11    1    3    3    0    0 -0.28608923720E+02 -0.83650035005E+02 -0.87169962598E+02  0.12415474720E+03  0.00000000000E+00 0. -1.
        -11    1    3    3    0    0 -0.72327398675E+02 -0.45383121838E+03 -0.22125372028E+03  0.51004630781E+03  0.00000000000E+00 0.  1.
          4    1    6    6  502    0  0.23236859766E+03  0.45421934499E+03 -0.11138415999E+03  0.52222295013E+03  0.00000000000E+00 0. -1.
          1    1    5    5  503    0 -0.18837760702E+03 -0.29414473143E+02  0.24067659387E+03  0.30704487765E+03  0.00000000000E+00 0. -1.
         -2    1    5    5    0  503 -0.13869835440E+02  0.56243346394E+01  0.87259781169E+02  0.88534032354E+02  0.00000000000E+00 0.  1.
         -3    1    6    6    0  502  0.70815167193E+02  0.10705204689E+03 -0.68000474270E+02  0.14525492470E+03  0.00000000000E+00 0.  1.
<mgrwt>
<rscale>  0 0.16897116E+04</rscale>
<asrwt>0</asrwt>
<pdfrwt beam="1">  1        2 0.14285614E+00 0.16897116E+04</pdfrwt>
<pdfrwt beam="2">  1       -2 0.11826045E+00 0.16897116E+04</pdfrwt>
<totfact> 0.14710122E+01</totfact>
</mgrwt>
</event>
<event>
12    1  0.1518126E-007  0.2288553E+04  0.7818608E-02  0.8482448E-01
         -1   -1    0    0    0  501 -0.00000000000E+00  0.00000000000E+00  0.13087384192E+04  0.13087384192E+04  0.00000000000E+00 0.  1.
          1   -1    0    0  501    0  0.00000000000E+00 -0.00000000000E+00 -0.10004814806E+04  0.10004814806E+04  0.00000000000E+00 0. -1.
         23    2    1    2    0    0  0.83497963462E+03 -0.34321769578E+03  0.48716390507E+03  0.10299303630E+04  0.91861337894E+02 0.  0.
        254    2    1    2    0    0 -0.83497963462E+03  0.34321769578E+03 -0.17890696645E+03  0.12792895367E+04  0.88858575229E+03 0.  0.
        -24    2    4    4    0    0 -0.43448206499E+03 -0.27748823587E+03 -0.35452326718E+02  0.52283933564E+03  0.79559522218E+02 0.  0.
         24    2    4    4    0    0 -0.40049756963E+03  0.62070593165E+03 -0.14345463973E+03  0.75645020107E+03  0.77223805780E+02 0.  0.
         11    1    3    3    0    0  0.43243612070E+02 -0.11525332184E+02  0.48282905543E+02  0.65833746927E+02  0.00000000000E+00 0. -1.
        -11    1    3    3    0    0  0.79173602255E+03 -0.33169236359E+03  0.43888099953E+03  0.96409661612E+03  0.00000000000E+00 0.  1.
          4    1    6    6  502    0 -0.74518313283E+02  0.17567652650E+03 -0.28331816435E+02  0.19291944641E+03  0.00000000000E+00 0. -1.
          1    1    5    5  503    0 -0.27394380585E+03 -0.14269904041E+03 -0.49167075017E+02  0.31277088445E+03  0.00000000000E+00 0. -1.
         -2    1    5    5    0  503 -0.16053825914E+03 -0.13478919547E+03  0.13714748299E+02  0.21006845119E+03  0.00000000000E+00 0.  1.
         -3    1    6    6    0  502 -0.32597925634E+03  0.44502940515E+03 -0.11512282330E+03  0.56353075467E+03  0.00000000000E+00 0.  1.
<mgrwt>
<rscale>  0 0.22885529E+04</rscale>
<asrwt>0</asrwt>
<pdfrwt beam="1">  1        1 0.15392023E+00 0.22885529E+04</pdfrwt>
<pdfrwt beam="2">  1       -1 0.20134437E+00 0.22885529E+04</pdfrwt>
<totfact> 0.20151100E+00</totfact>
</mgrwt>
</event>
<event>
12    1  0.1518126E-007  0.1404039E+04  0.7818608E-02  0.8950900E-01
         -2   -1    0    0    0  501 -0.00000000000E+00  0.00000000000E+00  0.44163799204E+03  0.44163799204E+03  0.00000000000E+00 0.  1.
          2   -1    0    0  501    0  0.00000000000E+00 -0.00000000000E+00 -0.11159164695E+04  0.11159164695E+04  0.00000000000E+00 0. -1.
         23    2    1    2    0    0 -0.91044609435E+02  0.28749506197E+03 -0.34544268574E+03  0.46776786227E+03  0.92377444636E+02 0.  0.
        254    2    1    2    0    0  0.91044609435E+02 -0.28749506197E+03 -0.32883579168E+03  0.10897865992E+04  0.99426320581E+03 0.  0.
        -24    2    4    4    0    0 -0.35415435832E+03 -0.37433432478E+03  0.19350466600E+01  0.52216344134E+03  0.84258049128E+02 0.  0.
         24    2    4    4    0    0  0.44519896776E+03  0.86839262810E+02 -0.33077083834E+03  0.56762315789E+03  0.83925701800E+02 0.  0.
         11    1    3    3    0    0  0.91690366720E+01  0.91582105277E+02 -0.13420093641E+03  0.16273058893E+03  0.00000000000E+00 0.  1.
        -11    1    3    3    0    0 -0.10021364611E+03  0.19591295669E+03 -0.21124174933E+03  0.30503727334E+03  0.00000000000E+00 0. -1.
          2    1    6    6  502    0  0.12463151711E+03  0.11786890528E+02 -0.49568801697E+02  0.13464401935E+03  0.00000000000E+00 0. -1.
          3    1    5    5  503    0 -0.21985692845E+02 -0.34795245266E+02  0.22140295706E+02  0.46736200925E+02  0.00000000000E+00 0. -1.
         -4    1    5    5    0  503 -0.33216866548E+03 -0.33953907951E+03 -0.20205249046E+02  0.47542724042E+03  0.00000000000E+00 0.  1.
         -1    1    6    6    0  502  0.32056745065E+03  0.75052372282E+02 -0.28120203664E+03  0.43297913854E+03  0.00000000000E+00 0.  1.
<mgrwt>
<rscale>  0 0.14040386E+04</rscale>
<asrwt>0</asrwt>
<pdfrwt beam="1">  1        2 0.17167945E+00 0.14040386E+04</pdfrwt>
<pdfrwt beam="2">  1       -2 0.67944307E-01 0.14040386E+04</pdfrwt>
<totfact> 0.41117752E+01</totfact>
</mgrwt>
</event>
<event>
12    1  0.1979010E-007  0.2157525E+04  0.7818608E-02  0.8536318E-01
         -2   -1    0    0    0  501 -0.00000000000E+00  0.00000000000E+00  0.86084495766E+03  0.86084495766E+03  0.00000000000E+00 0.  1.
          2   -1    0    0  501    0  0.00000000000E+00 -0.00000000000E+00 -0.13518449645E+04  0.13518449645E+04  0.00000000000E+00 0. -1.
         23    2    1    2    0    0 -0.12528326862E+03 -0.18266016171E+03 -0.10829878699E+04  0.11092337497E+04  0.92066025463E+02 0.  0.
        254    2    1    2    0    0  0.12528326862E+03  0.18266016171E+03  0.59198786307E+03  0.11034561725E+04  0.90449171496E+03 0.  0.
        -24    2    4    4    0    0 -0.18702888343E+03  0.28831710972E+03  0.66835100637E+03  0.75603988524E+03  0.82441987884E+02 0.  0.
         24    2    4    4    0    0  0.31231215204E+03 -0.10565694802E+03 -0.76363143296E+02  0.34741628721E+03  0.78514176993E+02 0.  0.
         13    1    3    3    0    0 -0.38666246120E+02 -0.12946193296E+03 -0.70415570927E+03  0.71700120890E+03  0.00000000000E+00 0. -1.
        -13    1    3    3    0    0 -0.86617022496E+02 -0.53198228751E+02 -0.37883216067E+03  0.39223254083E+03  0.00000000000E+00 0.  1.
          4    1    6    6  502    0  0.12452025743E+02  0.11119850518E+02 -0.48109263314E-01  0.16694500147E+02  0.00000000000E+00 0. -1.
          3    1    5    5  503    0  0.16094761700E+01 -0.42832789710E+01  0.43738476496E+01  0.63298843233E+01  0.00000000000E+00 0. -1.
         -4    1    5    5    0  503 -0.18863835960E+03  0.29260038870E+03  0.66397715872E+03  0.74971000092E+03  0.00000000000E+00 0.  1.
         -3    1    6    6    0  502  0.29986012630E+03 -0.11677679853E+03 -0.76315034033E+02  0.33072178706E+03  0.00000000000E+00 0.  1.
<mgrwt>
<rscale>  0 0.21575254E+04</rscale>
<asrwt>0</asrwt>
<pdfrwt beam="1">  1        2 0.20797615E+00 0.21575254E+04</pdfrwt>
<pdfrwt beam="2">  1       -2 0.13243769E+00 0.21575254E+04</pdfrwt>
<totfact> 0.58620377E+00</totfact>
</mgrwt>
</event>
<event>
12    1  0.1518126E-007  0.1719560E+04  0.7818608E-02  0.8750287E-01
          1   -1    0    0  501    0  0.00000000000E+00  0.00000000000E+00  0.42231247034E+03  0.42231247034E+03  0.00000000000E+00 0. -1.
         -1   -1    0    0    0  501 -0.00000000000E+00 -0.00000000000E+00 -0.17504139467E+04  0.17504139467E+04  0.00000000000E+00 0.  1.
         23    2    1    2    0    0 -0.87818251217E+02  0.45528482003E+03  0.61051445358E+02  0.47663817200E+03  0.91980190436E+02 0.  0.
        254    2    1    2    0    0  0.87818251217E+02 -0.45528482003E+03 -0.13891529217E+04  0.16960882450E+04  0.85555431294E+03 0.  0.
        -24    2    4    4    0    0 -0.21245309730E+03 -0.18791335762E+03 -0.12165782400E+04  0.12515845054E+04  0.77158354485E+02 0.  0.
         24    2    4    4    0    0  0.30027134852E+03 -0.26737146241E+03 -0.17257468168E+03  0.44450373956E+03  0.78429408229E+02 0.  0.
         11    1    3    3    0    0 -0.17670966047E+02  0.13343909856E+03 -0.23305387715E+02  0.13660672444E+03  0.00000000000E+00 0.  1.
        -11    1    3    3    0    0 -0.70147285170E+02  0.32184572147E+03  0.84356833073E+02  0.34003144756E+03  0.00000000000E+00 0. -1.
          2    1    6    6  502    0  0.28756095896E+03 -0.24595318669E+03 -0.17926859721E+03  0.41871410904E+03  0.00000000000E+00 0. -1.
          1    1    5    5  503    0 -0.12345625307E+03 -0.15516677577E+03 -0.86557401707E+03  0.88799580728E+03  0.00000000000E+00 0. -1.
         -2    1    5    5    0  503 -0.88996844230E+02 -0.32746581848E+02 -0.35100422293E+03  0.36358869815E+03  0.00000000000E+00 0.  1.
         -3    1    6    6    0  502  0.12710389553E+02 -0.21418275719E+02  0.66939155270E+01  0.25789630522E+02  0.00000000000E+00 0.  1.
<mgrwt>
<rscale>  0 0.17195600E+04</rscale>
<asrwt>0</asrwt>
<pdfrwt beam="1">  1        1 0.64971149E-01 0.17195600E+04</pdfrwt>
<pdfrwt beam="2">  1       -1 0.26929445E+00 0.17195600E+04</pdfrwt>
<totfact> 0.27692535E+00</totfact>
</mgrwt>
</event>
<event>
12    1  0.1518126E-007  0.3279096E+04  0.7818608E-02  0.8168235E-01
          2   -1    0    0  501    0  0.00000000000E+00  0.00000000000E+00  0.32975833579E+04  0.32975833579E+04  0.00000000000E+00 0. -1.
         -2   -1    0    0    0  501 -0.00000000000E+00 -0.00000000000E+00 -0.81517826251E+03  0.81517826251E+03  0.00000000000E+00 0.  1.
         23    2    1    2    0    0  0.61982662273E+03 -0.92304771672E+03  0.24334828293E+04  0.26770704179E+04  0.93087120926E+02 0.  0.
        254    2    1    2    0    0 -0.61982662273E+03  0.92304771672E+03  0.48922266047E+02  0.14356912025E+04  0.90698054625E+03 0.  0.
        -24    2    4    4    0    0 -0.39790118928E+03 -0.62686177676E+02 -0.64317929373E+02  0.41586290373E+03  0.80933586124E+02 0.  0.
         24    2    4    4    0    0 -0.22192543345E+03  0.98573389440E+03  0.11324019542E+03  0.10198282988E+04  0.79399046379E+02 0.  0.
         11    1    3    3    0    0  0.61464167647E+03 -0.89131146048E+03  0.23794504708E+04  0.26141930023E+04  0.00000000000E+00 0. -1.
        -11    1    3    3    0    0  0.51849462525E+01 -0.31736256241E+02  0.54032358496E+02  0.62877415600E+02  0.00000000000E+00 0.  1.
          2    1    6    6  502    0 -0.88331226190E+02  0.27731743374E+03  0.58364193060E+02  0.29683959238E+03  0.00000000000E+00 0. -1.
          1    1    5    5  503    0 -0.13070454640E+02 -0.56812018765E+01 -0.19654132248E+02  0.24277515394E+02  0.00000000000E+00 0. -1.
         -2    1    5    5    0  503 -0.38483073464E+03 -0.57004975799E+02 -0.44663797124E+02  0.39158538834E+03  0.00000000000E+00 0.  1.
         -1    1    6    6    0  502 -0.13359420726E+03  0.70841646066E+03  0.54876002361E+02  0.72298870640E+03  0.00000000000E+00 0.  1.
<mgrwt>
<rscale>  0 0.32790964E+04</rscale>
<asrwt>0</asrwt>
<pdfrwt beam="1">  1        2 0.50732051E+00 0.32790964E+04</pdfrwt>
<pdfrwt beam="2">  1       -2 0.12541204E+00 0.32790964E+04</pdfrwt>
<totfact> 0.44428828E-01</totfact>
</mgrwt>
</event>
<event>
12    1  0.1518126E-007  0.1535583E+04  0.7818608E-02  0.8861129E-01
         -1   -1    0    0    0  501 -0.00000000000E+00  0.00000000000E+00  0.43917708669E+03  0.43917708669E+03  0.00000000000E+00 0.  1.
          1   -1    0    0  501    0  0.00000000000E+00 -0.00000000000E+00 -0.13422918349E+04  0.13422918349E+04  0.00000000000E+00 0. -1.
         23    2    1    2    0    0  0.40037480853E+02  0.25984782886E+02  0.27260356329E+03  0.29078378981E+03  0.89242931854E+02 0.  0.
        254    2    1    2    0    0 -0.40037480853E+02 -0.25984782886E+02 -0.11757183115E+04  0.14906851317E+04  0.91517779983E+03 0.  0.
        -24    2    4    4    0    0  0.64785967319E+02 -0.19315644980E+03  0.68289439876E+02  0.22862181502E+03  0.78088738247E+02 0.  0.
         24    2    4    4    0    0 -0.10482344817E+03  0.16717166692E+03 -0.12440077513E+04  0.12620633167E+04  0.79461994421E+02 0.  0.
         11    1    3    3    0    0  0.31800062008E+02 -0.24366576215E+02  0.18602691854E+03  0.19029185059E+03  0.00000000000E+00 0.  1.
        -11    1    3    3    0    0  0.82374188452E+01  0.50351359101E+02  0.86576644744E+02  0.10049193922E+03  0.00000000000E+00 0. -1.
          2    1    6    6  502    0  0.98573322447E+01  0.38328029531E+02 -0.27312001083E+03  0.27597236304E+03  0.00000000000E+00 0. -1.
          1    1    5    5  503    0 -0.80157554106E+01 -0.20531334371E+02  0.30286808890E+02  0.37457693717E+02  0.00000000000E+00 0. -1.
         -2    1    5    5    0  503  0.72801722730E+02 -0.17262511543E+03  0.38002630986E+02  0.19116412130E+03  0.00000000000E+00 0.  1.
         -1    1    6    6    0  502 -0.11468078042E+03  0.12884363739E+03 -0.97088774050E+03  0.98609095368E+03  0.00000000000E+00 0.  1.
<mgrwt>
<rscale>  0 0.15355830E+04</rscale>
<asrwt>0</asrwt>
<pdfrwt beam="1">  1        1 0.20650644E+00 0.15355830E+04</pdfrwt>
<pdfrwt beam="2">  1       -1 0.67565706E-01 0.15355830E+04</pdfrwt>
<totfact> 0.18057209E+01</totfact>
</mgrwt>
</event>
<event>
12    1  0.1518126E-007  0.4079962E+04  0.7818608E-02  0.7988607E-01
         -1   -1    0    0    0  501 -0.00000000000E+00  0.00000000000E+00  0.13424122118E+04  0.13424122118E+04  0.00000000000E+00 0. -1.
          1   -1    0    0  501    0  0.00000000000E+00 -0.00000000000E+00 -0.31000327462E+04  0.31000327462E+04  0.00000000000E+00 0.  1.
         23    2    1    2    0    0  0.17058298075E+04  0.45151860376E+03 -0.17183184185E+04  0.24646418933E+04  0.90094912098E+02 0.  0.
        254    2    1    2    0    0 -0.17058298075E+04 -0.45151860376E+03 -0.39302115954E+02  0.19778030647E+04  0.89243258825E+03 0.  0.
        -24    2    4    4    0    0 -0.46219765494E+03  0.20356530285E+03 -0.22323798484E+03  0.55795495360E+03  0.80081381199E+02 0.  0.
         24    2    4    4    0    0 -0.12436321526E+04 -0.65508390661E+03  0.18393586888E+03  0.14198481111E+04  0.79877400159E+02 0.  0.
         11    1    3    3    0    0  0.14804360814E+04  0.37865906609E+03 -0.14473374364E+04  0.21047231016E+04  0.00000000000E+00 0.  1.
        -11    1    3    3    0    0  0.22539372613E+03  0.72859537666E+02 -0.27098098205E+03  0.35991879173E+03  0.00000000000E+00 0. -1.
          2    1    6    6  502    0 -0.59325092268E+03 -0.35450959924E+03  0.10502158283E+03  0.69903737101E+03  0.00000000000E+00 0. -1.
          1    1    5    5  503    0 -0.27176452281E+03  0.11888366607E+03 -0.87610446970E+02  0.30929738494E+03  0.00000000000E+00 0. -1.
         -2    1    5    5    0  503 -0.19043313213E+03  0.84681636784E+02 -0.13562753787E+03  0.24865756866E+03  0.00000000000E+00 0.  1.
         -1    1    6    6    0  502 -0.65038122989E+03 -0.30057430737E+03  0.78914286055E+02  0.72081074006E+03  0.00000000000E+00 0.  1.
<mgrwt>
<rscale>  0 0.40799617E+04</rscale>
<asrwt>0</asrwt>
<pdfrwt beam="1">  1        1 0.47692811E+00 0.40799617E+04</pdfrwt>
<pdfrwt beam="2">  1       -1 0.20652496E+00 0.40799617E+04</pdfrwt>
<totfact> 0.53233691E-02</totfact>
</mgrwt>
</event>
<event>
12    1  0.1518126E-007  0.1885405E+04  0.7818608E-02  0.8662156E-01
         -1   -1    0    0    0  501 -0.00000000000E+00  0.00000000000E+00  0.23703435008E+04  0.23703435008E+04  0.00000000000E+00 0.  1.
          1   -1    0    0  501    0  0.00000000000E+00 -0.00000000000E+00 -0.37491931736E+03  0.37491931736E+03  0.00000000000E+00 0. -1.
         23    2    1    2    0    0 -0.36975431867E+03 -0.52507652474E+03  0.29540666093E+03  0.71287200577E+03  0.92183449053E+02 0.  0.
        254    2    1    2    0    0  0.36975431867E+03  0.52507652474E+03  0.17000175226E+04  0.20323908124E+04  0.91001605725E+03 0.  0.
        -24    2    4    4    0    0  0.42223900986E+03 -0.41366355347E+02  0.31930827878E+03  0.53694372814E+03  0.79710937125E+02 0.  0.
         24    2    4    4    0    0 -0.52484691184E+02  0.56644288008E+03  0.13807092438E+04  0.14954470843E+04  0.79948651299E+02 0.  0.
         13    1    3    3    0    0 -0.21344576424E+03 -0.34532810778E+03  0.14465075159E+03  0.43096918246E+03  0.00000000000E+00 0. -1.
        -13    1    3    3    0    0 -0.15630855443E+03 -0.17974841695E+03  0.15075590934E+03  0.28190282330E+03  0.00000000000E+00 0.  1.
          4    1    6    6  502    0 -0.39244302322E+02  0.31375097390E+03  0.66555082407E+03  0.73684305542E+03  0.00000000000E+00 0. -1.
          3    1    5    5  503    0  0.23949573639E+03 -0.46590504517E+02  0.22186985930E+03  0.32978040774E+03  0.00000000000E+00 0. -1.
         -4    1    5    5    0  503  0.18274327347E+03  0.52241491704E+01  0.97438419472E+02  0.20716332041E+03  0.00000000000E+00 0.  1.
         -3    1    6    6    0  502 -0.13240388863E+02  0.25269190618E+03  0.71515841971E+03  0.75860402888E+03  0.00000000000E+00 0.  1.
<mgrwt>
<rscale>  0 0.18854045E+04</rscale>
<asrwt>0</asrwt>
<pdfrwt beam="1">  1        1 0.57679897E-01 0.18854045E+04</pdfrwt>
<pdfrwt beam="2">  1       -1 0.36466822E+00 0.18854045E+04</pdfrwt>
<totfact> 0.76175520E-01</totfact>
</mgrwt>
</event>
<event>
12    1  0.1518126E-007  0.1319658E+04  0.7818608E-02  0.9014119E-01
          2   -1    0    0  501    0  0.00000000000E+00  0.00000000000E+00  0.17487562987E+04  0.17487562987E+04  0.00000000000E+00 0. -1.
         -2   -1    0    0    0  501 -0.00000000000E+00 -0.00000000000E+00 -0.24896244112E+03  0.24896244112E+03  0.00000000000E+00 0.  1.
         23    2    1    2    0    0  0.42826106074E+02 -0.24010922305E+03  0.41694240042E+02  0.26601233061E+03  0.97660821350E+02 0.  0.
        254    2    1    2    0    0 -0.42826106074E+02  0.24010922305E+03  0.14580996176E+04  0.17317064092E+04  0.90181266274E+03 0.  0.
        -24    2    4    4    0    0 -0.43286700948E+03  0.15539410412E+03  0.10770738717E+04  0.11739227680E+04  0.80531761065E+02 0.  0.
         24    2    4    4    0    0  0.39004090341E+03  0.84715118934E+02  0.38102574584E+03  0.55778364125E+03  0.81445771815E+02 0.  0.
         13    1    3    3    0    0  0.30984757706E+02 -0.89234930193E+02 -0.29228279577E+02  0.98879827587E+02  0.00000000000E+00 0.  1.
        -13    1    3    3    0    0  0.11841348368E+02 -0.15087429286E+03  0.70922519619E+02  0.16713250302E+03  0.00000000000E+00 0. -1.
          2    1    6    6  502    0  0.35017725242E+03  0.66168649597E+02  0.36718303219E+03  0.51168914140E+03  0.00000000000E+00 0. -1.
          1    1    5    5  503    0 -0.41472935871E+03  0.12810752175E+03  0.99567775278E+03  0.10861796194E+04  0.00000000000E+00 0. -1.
         -2    1    5    5    0  503 -0.18137650772E+02  0.27286582370E+02  0.81396118938E+02  0.87743148628E+02  0.00000000000E+00 0.  1.
         -3    1    6    6    0  502  0.39863650984E+02  0.18546469337E+02  0.13842713648E+02  0.46094499843E+02  0.00000000000E+00 0.  1.
<mgrwt>
<rscale>  0 0.13196585E+04</rscale>
<asrwt>0</asrwt>
<pdfrwt beam="1">  1        2 0.26903942E+00 0.13196585E+04</pdfrwt>
<pdfrwt beam="2">  1       -2 0.38301915E-01 0.13196585E+04</pdfrwt>
<totfact> 0.58049731E+01</totfact>
</mgrwt>
</event>
<event>
12    1  0.1518126E-007  0.1825196E+04  0.7818608E-02  0.8693014E-01
         -2   -1    0    0    0  501 -0.00000000000E+00  0.00000000000E+00  0.93793982311E+03  0.93793982311E+03  0.00000000000E+00 0.  1.
          2   -1    0    0  501    0  0.00000000000E+00 -0.00000000000E+00 -0.88794132837E+03  0.88794132837E+03  0.00000000000E+00 0. -1.
         23    2    1    2    0    0 -0.38193156385E+03  0.56624436611E+03  0.11091525137E+03  0.69795728918E+03  0.91311461065E+02 0.  0.
        254    2    1    2    0    0  0.38193156385E+03 -0.56624436611E+03 -0.60916756638E+02  0.11279238623E+04  0.89554284448E+03 0.  0.
        -24    2    4    4    0    0  0.53128547212E+03 -0.71412337867E+03 -0.10060964997E+03  0.89957340761E+03  0.82906942786E+02 0.  0.
         24    2    4    4    0    0 -0.14935390827E+03  0.14787901256E+03  0.39692893328E+02  0.22835045469E+03  0.79960065687E+02 0.  0.
         11    1    3    3    0    0 -0.15949500756E+03  0.24565230603E+03  0.22109818030E+01  0.29289691248E+03  0.00000000000E+00 0. -1.
        -11    1    3    3    0    0 -0.22243655628E+03  0.32059206007E+03  0.10870426957E+03  0.40506037670E+03  0.00000000000E+00 0.  1.
          4    1    6    6  502    0 -0.36823023953E+02  0.33075110734E+01  0.24846785324E+02  0.44544780429E+02  0.00000000000E+00 0. -1.
          3    1    5    5  503    0  0.16555354881E+03 -0.27745610643E+03 -0.13682555237E+02  0.32338379804E+03  0.00000000000E+00 0. -1.
         -2    1    5    5    0  503  0.36573192331E+03 -0.43666727224E+03 -0.86927094730E+02  0.57618960957E+03  0.00000000000E+00 0.  1.
         -3    1    6    6    0  502 -0.11253088432E+03  0.14457150149E+03  0.14846108004E+02  0.18380567426E+03  0.00000000000E+00 0.  1.
<mgrwt>
<rscale>  0 0.18251965E+04</rscale>
<asrwt>0</asrwt>
<pdfrwt beam="1">  1        2 0.13660636E+00 0.18251965E+04</pdfrwt>
<pdfrwt beam="2">  1       -2 0.14429843E+00 0.18251965E+04</pdfrwt>
<totfact> 0.93412113E+00</totfact>
</mgrwt>
</event>
<event>
12    1  0.1518126E-007  0.1503928E+04  0.7818608E-02  0.8881845E-01
          2   -1    0    0  501    0  0.00000000000E+00  0.00000000000E+00  0.56037424118E+03  0.56037424118E+03  0.00000000000E+00 0. -1.
         -2   -1    0    0    0  501 -0.00000000000E+00 -0.00000000000E+00 -0.10090570017E+04  0.10090570017E+04  0.00000000000E+00 0.  1.
         23    2    1    2    0    0 -0.23787062037E+03  0.28030914528E+03  0.17284731959E+03  0.41645833267E+03  0.91682593755E+02 0.  0.
        254    2    1    2    0    0  0.23787062037E+03 -0.28030914528E+03 -0.62153008010E+03  0.11529729102E+04  0.89882770441E+03 0.  0.
        -24    2    4    4    0    0  0.24653042938E+03 -0.43567265805E+03 -0.77103602818E+03  0.92278409768E+03  0.80287088517E+02 0.  0.
         24    2    4    4    0    0 -0.86598090020E+01  0.15536351277E+03  0.14950594808E+03  0.23018881252E+03  0.80137678435E+02 0.  0.
         11    1    3    3    0    0 -0.17649380696E+03  0.16137932216E+03  0.74880287497E+02  0.25060009372E+03  0.00000000000E+00 0.  1.
        -11    1    3    3    0    0 -0.61376813417E+02  0.11892982312E+03  0.97967032088E+02  0.16585823895E+03  0.00000000000E+00 0. -1.
          2    1    6    6  502    0 -0.97824318094E+01  0.15623710451E+03  0.11158664140E+03  0.19224283429E+03  0.00000000000E+00 0. -1.
          1    1    5    5  503    0  0.24031981170E+03 -0.43374295965E+03 -0.73802545637E+03  0.88913898868E+03  0.00000000000E+00 0. -1.
         -4    1    5    5    0  503  0.62106176771E+01 -0.19296984021E+01 -0.33010571811E+02  0.33645108993E+02  0.00000000000E+00 0.  1.
         -1    1    6    6    0  502  0.11226228073E+01 -0.87359173513E+00  0.37919306687E+02  0.37945978234E+02  0.00000000000E+00 0.  1.
<mgrwt>
<rscale>  0 0.15039276E+04</rscale>
<asrwt>0</asrwt>
<pdfrwt beam="1">  1        2 0.86211422E-01 0.15039276E+04</pdfrwt>
<pdfrwt beam="2">  1       -2 0.15523954E+00 0.15039276E+04</pdfrwt>
<totfact> 0.14205477E+01</totfact>
</mgrwt>
</event>
<event>
12    1  0.1518126E-007  0.2010610E+04  0.7818608E-02  0.8601676E-01
         -2   -1    0    0    0  501 -0.00000000000E+00  0.00000000000E+00  0.87645867755E+03  0.87645867755E+03  0.00000000000E+00 0.  1.
          2   -1    0    0  501    0  0.00000000000E+00 -0.00000000000E+00 -0.11530928822E+04  0.11530928822E+04  0.00000000000E+00 0. -1.
         23    2    1    2    0    0 -0.56854562100E+02 -0.75051530883E+03 -0.40729221110E+03  0.86076614038E+03  0.92334896916E+02 0.  0.
        254    2    1    2    0    0  0.56854562100E+02  0.75051530883E+03  0.13065800647E+03  0.11687854193E+04  0.88458022349E+03 0.  0.
        -24    2    4    4    0    0  0.39884746196E+03  0.14190845637E+03 -0.70062154854E+02  0.43792972841E+03  0.87501049054E+02 0.  0.
         24    2    4    4    0    0 -0.34199289986E+03  0.60860685245E+03  0.20072016132E+03  0.73085569092E+03  0.80622660519E+02 0.  0.
         11    1    3    3    0    0 -0.34302748190E+02 -0.11930308745E+03 -0.94059299340E+02  0.15574677204E+03  0.00000000000E+00 0.  1.
        -11    1    3    3    0    0 -0.22551813909E+02 -0.63121222138E+03 -0.31323291176E+03  0.70501936834E+03  0.00000000000E+00 0. -1.
          2    1    6    6  502    0 -0.12701439290E+03  0.15210971441E+03  0.57333004031E+02  0.20629370949E+03  0.00000000000E+00 0. -1.
          3    1    5    5  503    0  0.12919213396E+03  0.12789167757E+02 -0.46990777909E+02  0.13806630109E+03  0.00000000000E+00 0. -1.
         -4    1    5    5    0  503  0.26965532800E+03  0.12911928862E+03 -0.23071376945E+02  0.29986342732E+03  0.00000000000E+00 0.  1.
         -1    1    6    6    0  502 -0.21497850696E+03  0.45649713804E+03  0.14338715729E+03  0.52456198144E+03  0.00000000000E+00 0.  1.
<mgrwt>
<rscale>  0 0.20106101E+04</rscale>
<asrwt>0</asrwt>
<pdfrwt beam="1">  1        2 0.17739890E+00 0.20106101E+04</pdfrwt>
<pdfrwt beam="2">  1       -2 0.13483980E+00 0.20106101E+04</pdfrwt>
<totfact> 0.74261626E+00</totfact>
</mgrwt>
</event>
<event>
12    1  0.1518126E-007  0.2039469E+04  0.7818608E-02  0.8588387E-01
         -2   -1    0    0    0  501 -0.00000000000E+00  0.00000000000E+00  0.61467646961E+03  0.61467646961E+03  0.00000000000E+00 0.  1.
          2   -1    0    0  501    0  0.00000000000E+00 -0.00000000000E+00 -0.16917168615E+04  0.16917168615E+04  0.00000000000E+00 0. -1.
         23    2    1    2    0    0  0.42857217481E+03 -0.67717876261E+03 -0.23505944160E+03  0.83904826131E+03  0.80646501195E+02 0.  0.
        254    2    1    2    0    0 -0.42857217481E+03  0.67717876261E+03 -0.84198095027E+03  0.14673450698E+04  0.89550234374E+03 0.  0.
        -24    2    4    4    0    0 -0.19521279163E+03  0.85520698945E+03 -0.51260436660E+03  0.10191486448E+04  0.80085545863E+02 0.  0.
         24    2    4    4    0    0 -0.23335938318E+03 -0.17802822684E+03 -0.32937658367E+03  0.44819642502E+03  0.78996520553E+02 0.  0.
         13    1    3    3    0    0  0.37483410990E+03 -0.53995044703E+03 -0.20607812739E+03  0.68885070210E+03  0.00000000000E+00 0. -1.
        -13    1    3    3    0    0  0.53738064913E+02 -0.13722831558E+03 -0.28981314214E+02  0.15019755921E+03  0.00000000000E+00 0.  1.
          4    1    6    6  502    0 -0.30525135959E+02 -0.46586939815E+02 -0.29453499008E+02  0.63005043373E+02  0.00000000000E+00 0. -1.
          1    1    5    5  503    0 -0.78623399184E+02  0.20125359321E+03 -0.14105021223E+03  0.25803063781E+03  0.00000000000E+00 0. -1.
         -2    1    5    5    0  503 -0.11658939245E+03  0.65395339624E+03 -0.37155415437E+03  0.76111800696E+03  0.00000000000E+00 0.  1.
         -3    1    6    6    0  502 -0.20283424722E+03 -0.13144128702E+03 -0.29992308466E+03  0.38519138165E+03  0.00000000000E+00 0.  1.
<mgrwt>
<rscale>  0 0.20394691E+04</rscale>
<asrwt>0</asrwt>
<pdfrwt beam="1">  1        2 0.26026413E+00 0.20394691E+04</pdfrwt>
<pdfrwt beam="2">  1       -2 0.94565610E-01 0.20394691E+04</pdfrwt>
<totfact> 0.86473289E+00</totfact>
</mgrwt>
</event>
<event>
12    1  0.1518126E-007  0.1769159E+04  0.7818608E-02  0.8722874E-01
         -2   -1    0    0    0  501 -0.00000000000E+00  0.00000000000E+00  0.57240746642E+03  0.57240746642E+03  0.00000000000E+00 0.  1.
          2   -1    0    0  501    0  0.00000000000E+00 -0.00000000000E+00 -0.13670002093E+04  0.13670002093E+04  0.00000000000E+00 0. -1.
         23    2    1    2    0    0 -0.25782819829E+03 -0.30286019972E+03 -0.86116388849E+03  0.95322957756E+03  0.94040971349E+02 0.  0.
        254    2    1    2    0    0  0.25782819829E+03  0.30286019972E+03  0.66571145637E+02  0.98617809813E+03  0.89995324511E+03 0.  0.
        -24    2    4    4    0    0  0.10593127457E+03 -0.18620885988E+03  0.33224373158E+03  0.40376891306E+03  0.82147815269E+02 0.  0.
         24    2    4    4    0    0  0.15189692373E+03  0.48906905961E+03 -0.26567258594E+03  0.58240918507E+03  0.79732775127E+02 0.  0.
         13    1    3    3    0    0 -0.73817302329E+02 -0.37733206324E+02 -0.22712434201E+03  0.24178142136E+03  0.00000000000E+00 0.  1.
        -13    1    3    3    0    0 -0.18401089596E+03 -0.26512699340E+03 -0.63403954648E+03  0.71144815620E+03  0.00000000000E+00 0. -1.
          2    1    6    6  502    0  0.14940460356E+03  0.43548156734E+03 -0.21319309482E+03  0.50736301278E+03  0.00000000000E+00 0. -1.
          1    1    5    5  503    0  0.11646631355E+03 -0.18466988797E+03  0.31071614999E+03  0.37975241352E+03  0.00000000000E+00 0. -1.
         -2    1    5    5    0  503 -0.10535038987E+02 -0.15389719176E+01  0.21527581589E+02  0.24016499539E+02  0.00000000000E+00 0.  1.
         -1    1    6    6    0  502  0.24923201701E+01  0.53587492263E+02 -0.52479491114E+02  0.75046172284E+02  0.00000000000E+00 0.  1.
<mgrwt>
<rscale>  0 0.17691593E+04</rscale>
<asrwt>0</asrwt>
<pdfrwt beam="1">  1        2 0.21030772E+00 0.17691593E+04</pdfrwt>
<pdfrwt beam="2">  1       -2 0.88062688E-01 0.17691593E+04</pdfrwt>
<totfact> 0.15897389E+01</totfact>
</mgrwt>
</event>
<event>
12    1  0.1518126E-007  0.2460280E+04  0.7818608E-02  0.8417274E-01
         -2   -1    0    0    0  501 -0.00000000000E+00  0.00000000000E+00  0.11314141977E+04  0.11314141977E+04  0.00000000000E+00 0.  1.
          2   -1    0    0  501    0  0.00000000000E+00 -0.00000000000E+00 -0.13374800961E+04  0.13374800961E+04  0.00000000000E+00 0. -1.
         23    2    1    2    0    0 -0.95188695709E+03 -0.27130223988E+03  0.29904595373E+03  0.10379652193E+04  0.90827472053E+02 0.  0.
        254    2    1    2    0    0  0.95188695709E+03  0.27130223988E+03 -0.50511185213E+03  0.14309290745E+04  0.90151336578E+03 0.  0.
        -24    2    4    4    0    0  0.35704465273E+03  0.28300162473E+03  0.20087902630E+03  0.50424741848E+03  0.79638383946E+02 0.  0.
         24    2    4    4    0    0  0.59484230437E+03 -0.11699384854E+02 -0.70599087843E+03  0.92668165603E+03  0.79633714743E+02 0.  0.
         11    1    3    3    0    0 -0.42179528450E+03 -0.92810408943E+02  0.92266668244E+02  0.44163126260E+03  0.00000000000E+00 0. -1.
        -11    1    3    3    0    0 -0.53009167259E+03 -0.17849183093E+03  0.20677928549E+03  0.59633395675E+03  0.00000000000E+00 0.  1.
          4    1    6    6  502    0  0.21184486550E+03  0.87246824649E+00 -0.31149553556E+03  0.37670741553E+03  0.00000000000E+00 0. -1.
          1    1    5    5  503    0  0.29822145748E+03  0.21184249530E+03  0.13135740969E+03  0.38867473496E+03  0.00000000000E+00 0. -1.
         -2    1    5    5    0  503  0.58823195252E+02  0.71159129427E+02  0.69521616614E+02  0.11557268352E+03  0.00000000000E+00 0.  1.
         -3    1    6    6    0  502  0.38299743887E+03 -0.12571853101E+02 -0.39449534287E+03  0.54997424050E+03  0.00000000000E+00 0.  1.
<mgrwt>
<rscale>  0 0.24602796E+04</rscale>
<asrwt>0</asrwt>
<pdfrwt beam="1">  1        2 0.20576617E+00 0.24602796E+04</pdfrwt>
<pdfrwt beam="2">  1       -2 0.17406372E+00 0.24602796E+04</pdfrwt>
<totfact> 0.28065887E+00</totfact>
</mgrwt>
</event>
<event>
12    1  0.1518126E-007  0.3430254E+04  0.7818608E-02  0.8130521E-01
          1   -1    0    0  501    0  0.00000000000E+00  0.00000000000E+00  0.13663428499E+04  0.13663428499E+04  0.00000000000E+00 0. -1.
         -1   -1    0    0    0  501 -0.00000000000E+00 -0.00000000000E+00 -0.21529447414E+04  0.21529447414E+04  0.00000000000E+00 0.  1.
         23    2    1    2    0    0 -0.15750503230E+04  0.24934439308E+03 -0.41227836562E+03  0.16496407652E+04  0.91569956768E+02 0.  0.
        254    2    1    2    0    0  0.15750503230E+04 -0.24934439308E+03 -0.37432352587E+03  0.18696468261E+04  0.90139059558E+03 0.  0.
        -24    2    4    4    0    0  0.93682897117E+03 -0.43711008358E+03 -0.55486468313E+03  0.11759969337E+04  0.79876310565E+02 0.  0.
         24    2    4    4    0    0  0.63822135187E+03  0.18776569050E+03  0.18054115727E+03  0.69364989243E+03  0.77282697161E+02 0.  0.
         11    1    3    3    0    0 -0.87117409761E+03  0.10510978920E+03 -0.25971588447E+03  0.91512005594E+03  0.00000000000E+00 0.  1.
        -11    1    3    3    0    0 -0.70387622543E+03  0.14423460388E+03 -0.15256248115E+03  0.73452070926E+03  0.00000000000E+00 0. -1.
          2    1    6    6  502    0  0.81897812875E+02  0.52269067974E+02  0.26237724190E+02  0.10063660065E+03  0.00000000000E+00 0. -1.
          1    1    5    5  503    0  0.38947463479E+03 -0.15018675138E+03 -0.19344026315E+03  0.46007139320E+03  0.00000000000E+00 0. -1.
         -2    1    5    5    0  503  0.54735433638E+03 -0.28692333221E+03 -0.36142441998E+03  0.71592554045E+03  0.00000000000E+00 0.  1.
         -3    1    6    6    0  502  0.55632353900E+03  0.13549662253E+03  0.15430343308E+03  0.59301329177E+03  0.00000000000E+00 0.  1.
<mgrwt>
<rscale>  0 0.34302540E+04</rscale>
<asrwt>0</asrwt>
<pdfrwt beam="1">  1        1 0.21020659E+00 0.34302540E+04</pdfrwt>
<pdfrwt beam="2">  1       -1 0.33122227E+00 0.34302540E+04</pdfrwt>
<totfact> 0.13756801E-01</totfact>
</mgrwt>
</event>
<event>
12    1  0.1518126E-007  0.1494631E+04  0.7818608E-02  0.8888031E-01
          2   -1    0    0  501    0  0.00000000000E+00  0.00000000000E+00  0.65466501864E+03  0.65466501864E+03  0.00000000000E+00 0. -1.
         -2   -1    0    0    0  501 -0.00000000000E+00 -0.00000000000E+00 -0.85307792890E+03  0.85307792890E+03  0.00000000000E+00 0.  1.
         23    2    1    2    0    0  0.17808338328E+03  0.41293431246E+03  0.10386872122E+03  0.47200150942E+03  0.98834588314E+02 0.  0.
        254    2    1    2    0    0 -0.17808338328E+03 -0.41293431246E+03 -0.30228163148E+03  0.10357414381E+04  0.88269910168E+03 0.  0.
        -24    2    4    4    0    0  0.27772900510E+03 -0.43617942122E+03 -0.11691821194E+03  0.53625719498E+03  0.80721887466E+02 0.  0.
         24    2    4    4    0    0 -0.45581238838E+03  0.23245108766E+02 -0.18536341953E+03  0.49948424314E+03  0.82581132004E+02 0.  0.
         13    1    3    3    0    0  0.46515687391E+02  0.19142165124E+03  0.81652631580E+01  0.19716142944E+03  0.00000000000E+00 0.  1.
        -13    1    3    3    0    0  0.13156769589E+03  0.22151266122E+03  0.95703458059E+02  0.27484007999E+03  0.00000000000E+00 0. -1.
          2    1    6    6  502    0 -0.17916307353E+03  0.24507294705E+02 -0.11403449706E+03  0.21378466019E+03  0.00000000000E+00 0. -1.
          3    1    5    5  503    0  0.21581386131E+03 -0.39120332372E+03 -0.10232606769E+03  0.45835170704E+03  0.00000000000E+00 0. -1.
         -4    1    5    5    0  503  0.61915143788E+02 -0.44976097504E+02 -0.14592144255E+02  0.77905487939E+02  0.00000000000E+00 0.  1.
         -1    1    6    6    0  502 -0.27664931484E+03 -0.12621859392E+01 -0.71328922470E+02  0.28569958295E+03  0.00000000000E+00 0.  1.
<mgrwt>
<rscale>  0 0.14946308E+04</rscale>
<asrwt>0</asrwt>
<pdfrwt beam="1">  1        2 0.10071770E+00 0.14946308E+04</pdfrwt>
<pdfrwt beam="2">  1       -2 0.13124276E+00 0.14946308E+04</pdfrwt>
<totfact> 0.18255025E+01</totfact>
</mgrwt>
</event>
<event>
12    1  0.1518126E-007  0.1510209E+04  0.7818608E-02  0.8877692E-01
         -2   -1    0    0    0  501 -0.00000000000E+00  0.00000000000E+00  0.50505133201E+03  0.50505133201E+03  0.00000000000E+00 0.  1.
          2   -1    0    0  501    0  0.00000000000E+00 -0.00000000000E+00 -0.11289605319E+04  0.11289605319E+04  0.00000000000E+00 0. -1.
         23    2    1    2    0    0  0.36020924143E+03  0.17572610353E+02 -0.51529311502E+03  0.63558806001E+03  0.91573431695E+02 0.  0.
        254    2    1    2    0    0 -0.36020924143E+03 -0.17572610353E+02 -0.10861608489E+03  0.99842380392E+03  0.92465839319E+03 0.  0.
        -24    2    4    4    0    0 -0.14474733369E+03 -0.42916002743E+03 -0.22617880589E+03  0.51256323173E+03  0.80212807776E+02 0.  0.
         24    2    4    4    0    0 -0.21546190774E+03  0.41158741707E+03  0.11756272100E+03  0.48586057219E+03  0.80071634566E+02 0.  0.
         13    1    3    3    0    0  0.32976864280E+03 -0.82711352563E+01 -0.47919238148E+03  0.58175691480E+03  0.00000000000E+00 0. -1.
        -13    1    3    3    0    0  0.30440598636E+02  0.25843745609E+02 -0.36100733541E+02  0.53831145210E+02  0.00000000000E+00 0.  1.
          4    1    6    6  502    0 -0.17402080555E+03  0.33585948359E+03  0.12701103466E+03  0.39901959402E+03  0.00000000000E+00 0. -1.
          3    1    5    5  503    0 -0.13378025989E+03 -0.30778911367E+03 -0.14177672970E+03  0.36432394585E+03  0.00000000000E+00 0. -1.
         -4    1    5    5    0  503 -0.10967073803E+02 -0.12137091375E+03 -0.84402076190E+02  0.14823928588E+03  0.00000000000E+00 0.  1.
         -3    1    6    6    0  502 -0.41441102187E+02  0.75727933484E+02 -0.94483136544E+01  0.86840978179E+02  0.00000000000E+00 0.  1.
<mgrwt>
<rscale>  0 0.15102093E+04</rscale>
<asrwt>0</asrwt>
<pdfrwt beam="1">  1        2 0.17368623E+00 0.15102093E+04</pdfrwt>
<pdfrwt beam="2">  1       -2 0.77700206E-01 0.15102093E+04</pdfrwt>
<totfact> 0.29799324E+01</totfact>
</mgrwt>
</event>
<event>
12    1  0.1518126E-007  0.3760235E+04  0.7818608E-02  0.8054743E-01
         -1   -1    0    0    0  501 -0.00000000000E+00  0.00000000000E+00  0.18307844204E+04  0.18307844204E+04  0.00000000000E+00 0.  1.
          1   -1    0    0  501    0  0.00000000000E+00 -0.00000000000E+00 -0.19307799036E+04  0.19307799036E+04  0.00000000000E+00 0. -1.
         23    2    1    2    0    0  0.17177098080E+04 -0.11814903509E+03  0.41639997562E+03  0.17738831636E+04  0.93735581992E+02 0.  0.
        254    2    1    2    0    0 -0.17177098080E+04  0.11814903509E+03 -0.51639545881E+03  0.19876811604E+04  0.84836663445E+03 0.  0.
        -24    2    4    4    0    0 -0.56545588176E+03  0.15624515510E+03 -0.58104285082E+03  0.83022040537E+03  0.86615381374E+02 0.  0.
         24    2    4    4    0    0 -0.11522539263E+04 -0.38096120005E+02  0.64647392017E+02  0.11574607550E+04  0.79973052853E+02 0.  0.
         13    1    3    3    0    0  0.38558051879E+03 -0.50288332325E+02  0.62098665255E+02  0.39377340827E+03  0.00000000000E+00 0. -1.
        -13    1    3    3    0    0  0.13321292892E+04 -0.67860702769E+02  0.35430131037E+03  0.13801097553E+04  0.00000000000E+00 0.  1.
          4    1    6    6  502    0 -0.68509981442E+03 -0.20616048477E+02 -0.87310717187E+00  0.68541048977E+03  0.00000000000E+00 0. -1.
          1    1    5    5  503    0 -0.18923620651E+03  0.84910185554E+02 -0.24250449086E+03  0.31910579680E+03  0.00000000000E+00 0. -1.
         -2    1    5    5    0  503 -0.37621967525E+03  0.71334969545E+02 -0.33853835996E+03  0.51111460857E+03  0.00000000000E+00 0.  1.
         -3    1    6    6    0  502 -0.46715411184E+03 -0.17480071528E+02  0.65520499189E+02  0.47205026525E+03  0.00000000000E+00 0.  1.
<mgrwt>
<rscale>  0 0.37602350E+04</rscale>
<asrwt>0</asrwt>
<pdfrwt beam="1">  1        1 0.29704306E+00 0.37602350E+04</pdfrwt>
<pdfrwt beam="2">  1       -1 0.28165914E+00 0.37602350E+04</pdfrwt>
<totfact> 0.11509688E-01</totfact>
</mgrwt>
</event>
<event>
12    1  0.1518126E-007  0.1322819E+04  0.7818608E-02  0.9011663E-01
         -2   -1    0    0    0  501 -0.00000000000E+00  0.00000000000E+00  0.51776390019E+03  0.51776390019E+03  0.00000000000E+00 0.  1.
          2   -1    0    0  501    0  0.00000000000E+00 -0.00000000000E+00 -0.84490762056E+03  0.84490762056E+03  0.00000000000E+00 0. -1.
         23    2    1    2    0    0 -0.24168183069E+03  0.15711982687E+02  0.16894973653E+03  0.30938920624E+03  0.92307604102E+02 0.  0.
        254    2    1    2    0    0  0.24168183069E+03 -0.15711982687E+02 -0.49609345690E+03  0.10532823145E+04  0.89701613274E+03 0.  0.
        -24    2    4    4    0    0  0.21343453060E+03 -0.21680689670E+03 -0.69192043194E+03  0.76001573917E+03  0.79438720662E+02 0.  0.
         24    2    4    4    0    0  0.28247300095E+02  0.20109491401E+03  0.19582697505E+03  0.29326657534E+03  0.80124937758E+02 0.  0.
         13    1    3    3    0    0 -0.24871660042E+03  0.81563621095E+01  0.16161305062E+03  0.29672420140E+03  0.00000000000E+00 0.  1.
        -13    1    3    3    0    0  0.70347697233E+01  0.75556205778E+01  0.73366859115E+01  0.12665004838E+02  0.00000000000E+00 0. -1.
          4    1    6    6  502    0  0.42501986418E+02  0.95232683615E+02  0.13416364481E+03  0.16992812147E+03  0.00000000000E+00 0. -1.
          1    1    5    5  503    0  0.19843772045E+03 -0.19575483668E+03 -0.67156424174E+03  0.72711485735E+03  0.00000000000E+00 0. -1.
         -2    1    5    5    0  503  0.14996810145E+02 -0.21052060019E+02 -0.20356190199E+02  0.32900881826E+02  0.00000000000E+00 0.  1.
         -3    1    6    6    0  502 -0.14254686323E+02  0.10586223040E+03  0.61663330241E+02  0.12333845387E+03  0.00000000000E+00 0.  1.
<mgrwt>
<rscale>  0 0.13228192E+04</rscale>
<asrwt>0</asrwt>
<pdfrwt beam="1">  1        2 0.12998579E+00 0.13228192E+04</pdfrwt>
<pdfrwt beam="2">  1       -2 0.79655985E-01 0.13228192E+04</pdfrwt>
<totfact> 0.43727402E+01</totfact>
</mgrwt>
</event>
<event>
12    1  0.1518126E-007  0.2041736E+04  0.7818608E-02  0.8587353E-01
          2   -1    0    0  501    0  0.00000000000E+00  0.00000000000E+00  0.18808890704E+04  0.18808890704E+04  0.00000000000E+00 0. -1.
         -2   -1    0    0    0  501 -0.00000000000E+00 -0.00000000000E+00 -0.55408433722E+03  0.55408433722E+03  0.00000000000E+00 0.  1.
         23    2    1    2    0    0  0.35870480617E+03 -0.71869692528E+03  0.31942160346E+03  0.86937658771E+03  0.92688090493E+02 0.  0.
        254    2    1    2    0    0 -0.35870480617E+03  0.71869692528E+03  0.10073831297E+04  0.15655968199E+04  0.88942578333E+03 0.  0.
        -24    2    4    4    0    0 -0.22737845874E+03  0.75122988515E+03  0.30510725447E+03  0.84587332267E+03  0.79774290574E+02 0.  0.
         24    2    4    4    0    0 -0.13132634743E+03 -0.32532959864E+02  0.70227587523E+03  0.71972349722E+03  0.80656707773E+02 0.  0.
         13    1    3    3    0    0  0.30363337150E+03 -0.66509365627E+03  0.29863825945E+03  0.78976427237E+03  0.00000000000E+00 0. -1.
        -13    1    3    3    0    0  0.55071434678E+02 -0.53603269009E+02  0.20783344009E+02  0.79612315342E+02  0.00000000000E+00 0.  1.
          2    1    6    6  502    0 -0.69157411080E+02 -0.57579639097E+02  0.37385454806E+03  0.38453268450E+03  0.00000000000E+00 0. -1.
          3    1    5    5  503    0 -0.20344012109E+03  0.70936949297E+03  0.26835781311E+03  0.78524446912E+03  0.00000000000E+00 0. -1.
         -4    1    5    5    0  503 -0.23938337653E+02  0.41860392181E+02  0.36749441357E+02  0.60628853553E+02  0.00000000000E+00 0.  1.
         -1    1    6    6    0  502 -0.62168936353E+02  0.25046679234E+02  0.32842132718E+03  0.33519081272E+03  0.00000000000E+00 0.  1.
<mgrwt>
<rscale>  0 0.20417357E+04</rscale>
<asrwt>0</asrwt>
<pdfrwt beam="1">  1        2 0.28936755E+00 0.20417357E+04</pdfrwt>
<pdfrwt beam="2">  1       -2 0.85243745E-01 0.20417357E+04</pdfrwt>
<totfact> 0.86240894E+00</totfact>
</mgrwt>
</event>
<event>
12    1  0.1518126E-007  0.1316595E+04  0.7818608E-02  0.9016508E-01
         -1   -1    0    0    0  501 -0.00000000000E+00  0.00000000000E+00  0.12384636604E+04  0.12384636604E+04  0.00000000000E+00 0.  1.
          1   -1    0    0  501    0  0.00000000000E+00 -0.00000000000E+00 -0.34991370811E+03  0.34991370811E+03  0.00000000000E+00 0. -1.
         23    2    1    2    0    0 -0.16009744695E+02 -0.29376491616E+03  0.23968563963E+02  0.31076290783E+03  0.97185157987E+02 0.  0.
        254    2    1    2    0    0  0.16009744695E+02  0.29376491616E+03  0.86458138829E+03  0.12776144607E+04  0.89344479136E+03 0.  0.
        -24    2    4    4    0    0  0.28684120642E+03 -0.51181903482E+02  0.76261874981E+03  0.82040010909E+03  0.81064890638E+02 0.  0.
         24    2    4    4    0    0 -0.27083146173E+03  0.34494681964E+03  0.10196263848E+03  0.45721435156E+03  0.79439250933E+02 0.  0.
         13    1    3    3    0    0  0.31836524300E+02 -0.13407515124E+03 -0.17687349875E+02  0.13893362734E+03  0.00000000000E+00 0. -1.
        -13    1    3    3    0    0 -0.47846268995E+02 -0.15968976491E+03  0.41655913838E+02  0.17182928049E+03  0.00000000000E+00 0.  1.
          2    1    6    6  502    0 -0.23988986142E+03  0.33065925122E+03  0.78897279786E+02  0.41606185452E+03  0.00000000000E+00 0. -1.
          1    1    5    5  503    0  0.19565886126E+03 -0.57524799754E+02  0.60185691566E+03  0.63547088013E+03  0.00000000000E+00 0. -1.
         -2    1    5    5    0  503  0.91182345169E+02  0.63428962725E+01  0.16076183415E+03  0.18492922896E+03  0.00000000000E+00 0.  1.
         -1    1    6    6    0  502 -0.30941600310E+02  0.14287568416E+02  0.23065358698E+02  0.41152497042E+02  0.00000000000E+00 0.  1.
<mgrwt>
<rscale>  0 0.13165947E+04</rscale>
<asrwt>0</asrwt>
<pdfrwt beam="1">  1        1 0.53832879E-01 0.13165947E+04</pdfrwt>
<pdfrwt beam="2">  1       -1 0.19053287E+00 0.13165947E+04</pdfrwt>
<totfact> 0.12315279E+01</totfact>
</mgrwt>
</event>
<event>
12    1  0.1518126E-007  0.2293485E+04  0.7818608E-02  0.8480494E-01
          2   -1    0    0  501    0  0.00000000000E+00  0.00000000000E+00  0.16587620461E+04  0.16587620461E+04  0.00000000000E+00 0. -1.
         -2   -1    0    0    0  501 -0.00000000000E+00 -0.00000000000E+00 -0.79277070055E+03  0.79277070055E+03  0.00000000000E+00 0.  1.
         23    2    1    2    0    0 -0.72402544703E+03  0.58246798576E+03  0.87803940084E+02  0.93779843182E+03  0.90964632957E+02 0.  0.
        254    2    1    2    0    0  0.72402544703E+03 -0.58246798576E+03  0.77818740548E+03  0.15137343148E+04  0.90682640869E+03 0.  0.
        -24    2    4    4    0    0  0.19084299904E+03 -0.59215589448E+03  0.74491224498E+03  0.97387254094E+03  0.80397883194E+02 0.  0.
         24    2    4    4    0    0  0.53318244799E+03  0.96879087212E+01  0.33275160498E+02  0.53986177390E+03  0.77240664126E+02 0.  0.
         11    1    3    3    0    0 -0.30570995428E+03  0.25478351517E+03  0.82338845593E+02  0.40639008507E+03  0.00000000000E+00 0.  1.
        -11    1    3    3    0    0 -0.41831549275E+03  0.32768447059E+03  0.54650944913E+01  0.53140834675E+03  0.00000000000E+00 0. -1.
          4    1    6    6  502    0  0.36375423711E+03  0.41484517821E+02  0.13706767942E+02  0.36636864730E+03  0.00000000000E+00 0. -1.
          3    1    5    5  503    0  0.13574652159E+03 -0.32983047910E+03  0.46870737721E+03  0.58898375913E+03  0.00000000000E+00 0. -1.
         -4    1    5    5    0  503  0.55096477453E+02 -0.26232541539E+03  0.27620486776E+03  0.38488878181E+03  0.00000000000E+00 0.  1.
         -3    1    6    6    0  502  0.16942821088E+03 -0.31796609100E+02  0.19568392556E+02  0.17349312660E+03  0.00000000000E+00 0.  1.
<mgrwt>
<rscale>  0 0.22934846E+04</rscale>
<asrwt>0</asrwt>
<pdfrwt beam="1">  1        2 0.25519416E+00 0.22934846E+04</pdfrwt>
<pdfrwt beam="2">  1       -2 0.12196472E+00 0.22934846E+04</pdfrwt>
<totfact> 0.47833888E+00</totfact>
</mgrwt>
</event>
<event>
12    1  0.1518126E-007  0.1818673E+04  0.7818608E-02  0.8696432E-01
         -2   -1    0    0    0  501 -0.00000000000E+00  0.00000000000E+00  0.28820792741E+03  0.28820792741E+03  0.00000000000E+00 0. -1.
          2   -1    0    0  501    0  0.00000000000E+00 -0.00000000000E+00 -0.28690840365E+04  0.28690840365E+04  0.00000000000E+00 0.  1.
         23    2    1    2    0    0 -0.48332601786E+03 -0.21069222213E+03 -0.17826361972E+04  0.18611408948E+04  0.89768406448E+02 0.  0.
        254    2    1    2    0    0  0.48332601786E+03  0.21069222213E+03 -0.79823991188E+03  0.12961510691E+04  0.87454295775E+03 0.  0.
        -24    2    4    4    0    0  0.54469090465E+03 -0.54877653258E+02 -0.12714321498E+03  0.56756744389E+03  0.79168603686E+02 0.  0.
         24    2    4    4    0    0 -0.61364886791E+02  0.26556987539E+03 -0.67109669690E+03  0.72858362519E+03  0.78551347967E+02 0.  0.
         13    1    3    3    0    0 -0.11549205983E+03 -0.92172540958E+02 -0.53405356262E+03  0.55411858022E+03  0.00000000000E+00 0. -1.
        -13    1    3    3    0    0 -0.36783395803E+03 -0.11851968117E+03 -0.12485826346E+04  0.13070223146E+04  0.00000000000E+00 0.  1.
          2    1    6    6  502    0 -0.16814491074E+01  0.76132365042E+02 -0.11359058387E+03  0.13675446985E+03  0.00000000000E+00 0. -1.
          3    1    5    5  503    0  0.18093904262E+02 -0.14912061260E+01  0.10089046331E+02  0.20770217212E+02  0.00000000000E+00 0. -1.
         -4    1    5    5    0  503  0.52659700039E+03 -0.53386447132E+02 -0.13723226131E+03  0.54679722668E+03  0.00000000000E+00 0.  1.
         -1    1    6    6    0  502 -0.59683437683E+02  0.18943751035E+03 -0.55750611302E+03  0.59182915535E+03  0.00000000000E+00 0.  1.
<mgrwt>
<rscale>  0 0.18186729E+04</rscale>
<asrwt>0</asrwt>
<pdfrwt beam="1">  1        2 0.44139753E+00 0.18186729E+04</pdfrwt>
<pdfrwt beam="2">  1       -2 0.44339683E-01 0.18186729E+04</pdfrwt>
<totfact> 0.95712382E+00</totfact>
</mgrwt>
</event>
<event>
12    1  0.1518126E-007  0.1989855E+04  0.7818608E-02  0.8611379E-01
         -2   -1    0    0    0  501 -0.00000000000E+00  0.00000000000E+00  0.34243448891E+03  0.34243448891E+03  0.00000000000E+00 0.  1.
          2   -1    0    0  501    0  0.00000000000E+00 -0.00000000000E+00 -0.28907146992E+04  0.28907146992E+04  0.00000000000E+00 0. -1.
         23    2    1    2    0    0  0.26475088493E+03  0.15914222430E+03 -0.21825093479E+04  0.22065018611E+04  0.99418966211E+02 0.  0.
        254    2    1    2    0    0 -0.26475088493E+03 -0.15914222430E+03 -0.36577086235E+03  0.10266473270E+04  0.90818342397E+03 0.  0.
        -24    2    4    4    0    0  0.16329986034E+03 -0.40749483328E+03 -0.91118714213E+02  0.45503527899E+03  0.77689133771E+02 0.  0.
         24    2    4    4    0    0 -0.42805074527E+03  0.24835260898E+03 -0.27465214814E+03  0.57161204797E+03  0.80000449939E+02 0.  0.
         11    1    3    3    0    0  0.10351089156E+03  0.88037232570E+02 -0.66111243526E+03  0.67493311598E+03  0.00000000000E+00 0.  1.
        -11    1    3    3    0    0  0.16123999337E+03  0.71104991729E+02 -0.15213969127E+04  0.15315687452E+04  0.00000000000E+00 0. -1.
          4    1    6    6  502    0 -0.10738596048E+03  0.40600447335E+02 -0.32724247997E+02  0.11937762453E+03  0.00000000000E+00 0. -1.
          3    1    5    5  503    0  0.83308467042E+01 -0.22356558654E-01 -0.73582964609E+01  0.11115216302E+02  0.00000000000E+00 0. -1.
         -4    1    5    5    0  503  0.15496901363E+03 -0.40747247673E+03 -0.83760417752E+02  0.44392006269E+03  0.00000000000E+00 0.  1.
         -3    1    6    6    0  502 -0.32066478479E+03  0.20775216165E+03 -0.24192790014E+03  0.45223442344E+03  0.00000000000E+00 0.  1.
<mgrwt>
<rscale>  0 0.19898547E+04</rscale>
<asrwt>0</asrwt>
<pdfrwt beam="1">  1        2 0.44472534E+00 0.19898547E+04</pdfrwt>
<pdfrwt beam="2">  1       -2 0.52682229E-01 0.19898547E+04</pdfrwt>
<totfact> 0.64465437E+00</totfact>
</mgrwt>
</event>
<event>
12    1  0.1518126E-007  0.1970732E+04  0.7818608E-02  0.8620428E-01
         -1   -1    0    0    0  501 -0.00000000000E+00  0.00000000000E+00  0.22411579473E+04  0.22411579473E+04  0.00000000000E+00 0.  1.
          1   -1    0    0  501    0  0.00000000000E+00 -0.00000000000E+00 -0.43323411661E+03  0.43323411661E+03  0.00000000000E+00 0. -1.
         23    2    1    2    0    0 -0.34475440134E+03  0.67529741813E+03  0.93275836789E+03  0.12053781588E+04  0.89532857779E+02 0.  0.
        254    2    1    2    0    0  0.34475440134E+03 -0.67529741813E+03  0.87516546283E+03  0.14690139052E+04  0.90399395244E+03 0.  0.
        -24    2    4    4    0    0  0.85244700020E+02  0.10968119696E+03 -0.10005925361E+03  0.18800424236E+03  0.77698887152E+02 0.  0.
         24    2    4    4    0    0  0.25950970132E+03 -0.78497861509E+03  0.97522471644E+03  0.12810096628E+04  0.79911184560E+02 0.  0.
         11    1    3    3    0    0 -0.14195070055E+03  0.36588963812E+03  0.44825830556E+03  0.59578581485E+03  0.00000000000E+00 0. -1.
        -11    1    3    3    0    0 -0.20280370080E+03  0.30940778001E+03  0.48450006233E+03  0.60959234393E+03  0.00000000000E+00 0.  1.
          2    1    6    6  502    0  0.82572396098E+02 -0.18760525970E+03  0.19907201887E+03  0.28573344705E+03  0.00000000000E+00 0. -1.
          1    1    5    5  503    0 -0.93983179539E+01  0.30103083386E+02 -0.38828318877E+02  0.50021618891E+02  0.00000000000E+00 0. -1.
         -2    1    5    5    0  503  0.94643017974E+02  0.79578113570E+02 -0.61230934730E+02  0.13798262347E+03  0.00000000000E+00 0.  1.
         -1    1    6    6    0  502  0.17693730522E+03 -0.59737335538E+03  0.77615269757E+03  0.99527621575E+03  0.00000000000E+00 0.  1.
<mgrwt>
<rscale>  0 0.19707319E+04</rscale>
<asrwt>0</asrwt>
<pdfrwt beam="1">  1        1 0.66651404E-01 0.19707319E+04</pdfrwt>
<pdfrwt beam="2">  1       -1 0.34479352E+00 0.19707319E+04</pdfrwt>
<totfact> 0.84459998E-01</totfact>
</mgrwt>
</event>
<event>
12    1  0.1518126E-007  0.1649113E+04  0.7818608E-02  0.8790932E-01
          2   -1    0    0  501    0  0.00000000000E+00  0.00000000000E+00  0.68049496326E+03  0.68049496326E+03  0.00000000000E+00 0. -1.
         -2   -1    0    0    0  501 -0.00000000000E+00 -0.00000000000E+00 -0.99911552439E+03  0.99911552439E+03  0.00000000000E+00 0.  1.
         23    2    1    2    0    0 -0.54990005028E+02 -0.15609604983E+03 -0.67873831477E+03  0.70457687633E+03  0.91394733424E+02 0.  0.
        254    2    1    2    0    0  0.54990005028E+02  0.15609604983E+03  0.36011775364E+03  0.97503361133E+03  0.89085120492E+03 0.  0.
        -24    2    4    4    0    0  0.24272185417E+03  0.36502400606E+03  0.48382508738E+03  0.65772423348E+03  0.79737247462E+02 0.  0.
         24    2    4    4    0    0 -0.18773184914E+03 -0.20892795623E+03 -0.12370733374E+03  0.31730937785E+03  0.80545631640E+02 0.  0.
         11    1    3    3    0    0 -0.31716708910E+02 -0.77399673948E+02 -0.17227765721E+03  0.19151044443E+03  0.00000000000E+00 0. -1.
        -11    1    3    3    0    0 -0.23273296117E+02 -0.78696375886E+02 -0.50646065756E+03  0.51306643190E+03  0.00000000000E+00 0.  1.
          4    1    6    6  502    0 -0.13629178692E+03 -0.19579339280E+03 -0.93508650485E+02  0.25623109015E+03  0.00000000000E+00 0. -1.
          1    1    5    5  503    0  0.22268134649E+03  0.29890208049E+03  0.37434091360E+03  0.52826182465E+03  0.00000000000E+00 0. -1.
         -2    1    5    5    0  503  0.20040507681E+02  0.66121925574E+02  0.10948417378E+03  0.12946240882E+03  0.00000000000E+00 0.  1.
         -3    1    6    6    0  502 -0.51440062221E+02 -0.13134563427E+02 -0.30198683255E+02  0.61078287698E+02  0.00000000000E+00 0.  1.
<mgrwt>
<rscale>  0 0.16491126E+04</rscale>
<asrwt>0</asrwt>
<pdfrwt beam="1">  1        2 0.10469153E+00 0.16491126E+04</pdfrwt>
<pdfrwt beam="2">  1       -2 0.15371008E+00 0.16491126E+04</pdfrwt>
<totfact> 0.11380791E+01</totfact>
</mgrwt>
</event>
<event>
12    1  0.1518126E-007  0.1551029E+04  0.7818608E-02  0.8851211E-01
         -1   -1    0    0    0  501 -0.00000000000E+00  0.00000000000E+00  0.78651932123E+03  0.78651932123E+03  0.00000000000E+00 0.  1.
          1   -1    0    0  501    0  0.00000000000E+00 -0.00000000000E+00 -0.76466363435E+03  0.76466363435E+03  0.00000000000E+00 0. -1.
         23    2    1    2    0    0 -0.77213964232E+02  0.42784434368E+03 -0.25968632181E+03  0.51514792429E+03  0.94486080812E+02 0.  0.
        254    2    1    2    0    0  0.77213964232E+02 -0.42784434368E+03  0.28154200869E+03  0.10360350313E+04  0.89726802279E+03 0.  0.
        -24    2    4    4    0    0 -0.38152059667E+03 -0.33540517228E+03  0.21314410712E+03  0.55659049196E+03  0.79422730120E+02 0.  0.
         24    2    4    4    0    0  0.45873456090E+03 -0.92439171398E+02  0.68397901573E+02  0.47944453934E+03  0.78780680271E+02 0.  0.
         11    1    3    3    0    0 -0.75995655079E+02  0.23626523590E+03 -0.18487693676E+03  0.30947711229E+03  0.00000000000E+00 0. -1.
        -11    1    3    3    0    0 -0.12183091530E+01  0.19157910778E+03 -0.74809385054E+02  0.20567081200E+03  0.00000000000E+00 0.  1.
          4    1    6    6  502    0  0.13149610677E+03  0.67381463774E+00 -0.41686866273E+01  0.13156389349E+03  0.00000000000E+00 0. -1.
          3    1    5    5  503    0 -0.29594312851E+02 -0.13787763336E+02 -0.36727962529E+01  0.32854454847E+02  0.00000000000E+00 0. -1.
         -4    1    5    5    0  503 -0.35192628382E+03 -0.32161740895E+03  0.21681690337E+03  0.52373603711E+03  0.00000000000E+00 0.  1.
         -3    1    6    6    0  502  0.32723845413E+03 -0.93112986036E+02  0.72566588200E+02  0.34788064585E+03  0.00000000000E+00 0.  1.
<mgrwt>
<rscale>  0 0.15510290E+04</rscale>
<asrwt>0</asrwt>
<pdfrwt beam="1">  1        1 0.11764056E+00 0.15510290E+04</pdfrwt>
<pdfrwt beam="2">  1       -1 0.12100297E+00 0.15510290E+04</pdfrwt>
<totfact> 0.13887043E+01</totfact>
</mgrwt>
</event>
<event>
12    1  0.1518126E-007  0.2111158E+04  0.7818608E-02  0.8556344E-01
          2   -1    0    0  501    0  0.00000000000E+00  0.00000000000E+00  0.48939484060E+03  0.48939484060E+03  0.00000000000E+00 0.  1.
         -2   -1    0    0    0  501 -0.00000000000E+00 -0.00000000000E+00 -0.22767857106E+04  0.22767857106E+04  0.00000000000E+00 0. -1.
         23    2    1    2    0    0 -0.68663379957E+03  0.28789380142E+03 -0.19810000229E+03  0.77617263817E+03  0.94082611187E+02 0.  0.
        254    2    1    2    0    0  0.68663379957E+03 -0.28789380142E+03 -0.15892908677E+04  0.19900079130E+04  0.93804968745E+03 0.  0.
        -24    2    4    4    0    0  0.31424717191E+03 -0.25436265579E+03 -0.15520840343E+04  0.16058653856E+04  0.79919592990E+02 0.  0.
         24    2    4    4    0    0  0.37238662766E+03 -0.33531145635E+02 -0.37206833398E+02  0.38414252745E+03  0.79906162189E+02 0.  0.
         11    1    3    3    0    0 -0.21851380228E+03  0.57893015448E+02 -0.29174509165E+02  0.22792769689E+03  0.00000000000E+00 0. -1.
        -11    1    3    3    0    0 -0.46811999729E+03  0.23000078598E+03 -0.16892549313E+03  0.54824494128E+03  0.00000000000E+00 0.  1.
          2    1    6    6  502    0  0.21470723031E+03 -0.26676476515E+02  0.17590743539E+02  0.21707202354E+03  0.00000000000E+00 0. -1.
          3    1    5    5  503    0  0.22372057058E+03 -0.13695666309E+03 -0.92319854309E+03  0.95974140852E+03  0.00000000000E+00 0. -1.
         -4    1    5    5    0  503  0.90526601334E+02 -0.11740599270E+03 -0.62888549119E+03  0.64612397704E+03  0.00000000000E+00 0.  1.
         -1    1    6    6    0  502  0.15767939735E+03 -0.68546691200E+01 -0.54797576937E+02  0.16707050391E+03  0.00000000000E+00 0.  1.
<mgrwt>
<rscale>  0 0.21111581E+04</rscale>
<asrwt>0</asrwt>
<pdfrwt beam="1">  1        2 0.75291513E-01 0.21111581E+04</pdfrwt>
<pdfrwt beam="2">  1       -2 0.35027473E+00 0.21111581E+04</pdfrwt>
<totfact> 0.90241110E-01</totfact>
</mgrwt>
</event>
<event>
12    1  0.1518126E-007  0.1254544E+04  0.7818608E-02  0.9066410E-01
         -2   -1    0    0    0  501 -0.00000000000E+00  0.00000000000E+00  0.40888365221E+03  0.40888365221E+03  0.00000000000E+00 0.  1.
          2   -1    0    0  501    0  0.00000000000E+00 -0.00000000000E+00 -0.96230376077E+03  0.96230376077E+03  0.00000000000E+00 0. -1.
         23    2    1    2    0    0 -0.25570756099E+03  0.21074857005E+03 -0.19286470245E+03  0.39416269872E+03  0.91466513475E+02 0.  0.
        254    2    1    2    0    0  0.25570756099E+03 -0.21074857005E+03 -0.36055540611E+03  0.97702471426E+03  0.84544412877E+03 0.  0.
        -24    2    4    4    0    0 -0.22068831559E+02  0.20700949818E+03  0.14053611726E+03  0.26388071390E+03  0.80886743350E+02 0.  0.
         24    2    4    4    0    0  0.27777639255E+03 -0.41775806823E+03 -0.50109152337E+03  0.71314400036E+03  0.76158536086E+02 0.  0.
         11    1    3    3    0    0 -0.21846450238E+03  0.17986122399E+03 -0.19819936514E+03  0.34548485790E+03  0.00000000000E+00 0. -1.
        -11    1    3    3    0    0 -0.37243058614E+02  0.30887346054E+02  0.53346626902E+01  0.48677840823E+02  0.00000000000E+00 0.  1.
          4    1    6    6  502    0  0.21094200057E+03 -0.32301857425E+03 -0.42739004986E+03  0.57576017719E+03  0.00000000000E+00 0. -1.
          3    1    5    5  503    0  0.13924458635E+02  0.50658768123E+02  0.72681434439E+02  0.89681615998E+02  0.00000000000E+00 0. -1.
         -4    1    5    5    0  503 -0.35993290194E+02  0.15635073006E+03  0.67854682824E+02  0.17419909790E+03  0.00000000000E+00 0.  1.
         -3    1    6    6    0  502  0.66834391974E+02 -0.94739493981E+02 -0.73701473515E+02  0.13738382317E+03  0.00000000000E+00 0.  1.
<mgrwt>
<rscale>  0 0.12545442E+04</rscale>
<asrwt>0</asrwt>
<pdfrwt beam="1">  1        2 0.14804673E+00 0.12545442E+04</pdfrwt>
<pdfrwt beam="2">  1       -2 0.62905177E-01 0.12545442E+04</pdfrwt>
<totfact> 0.61378163E+01</totfact>
</mgrwt>
</event>
<event>
12    1  0.1518126E-007  0.2642553E+04  0.7818608E-02  0.8353889E-01
          1   -1    0    0  501    0  0.00000000000E+00  0.00000000000E+00  0.91884512815E+03  0.91884512815E+03  0.00000000000E+00 0. -1.
         -1   -1    0    0    0  501 -0.00000000000E+00 -0.00000000000E+00 -0.18999627106E+04  0.18999627106E+04  0.00000000000E+00 0.  1.
         23    2    1    2    0    0  0.58281628792E+03  0.77978983754E+03  0.25022395666E+03  0.10095781009E+04  0.94280948202E+02 0.  0.
        254    2    1    2    0    0 -0.58281628792E+03 -0.77978983754E+03 -0.12313415392E+04  0.18092297379E+04  0.89964617606E+03 0.  0.
        -24    2    4    4    0    0  0.17776048634E+03 -0.24896518096E+02 -0.41639573451E+03  0.46047555447E+03  0.80210357337E+02 0.  0.
         24    2    4    4    0    0 -0.76057677426E+03 -0.75489331944E+03 -0.81494580465E+03  0.13487541834E+04  0.81610228653E+02 0.  0.
         13    1    3    3    0    0  0.63103677224E+02  0.50077245096E+02  0.37182069940E+02  0.88726043981E+02  0.00000000000E+00 0.  1.
        -13    1    3    3    0    0  0.51971261070E+03  0.72971259244E+03  0.21304188672E+03  0.92085205695E+03  0.00000000000E+00 0. -1.
          2    1    6    6  502    0 -0.28741125252E+03 -0.31337087226E+03 -0.36690245767E+03  0.56162616134E+03  0.00000000000E+00 0. -1.
          1    1    5    5  503    0  0.65523697524E+02  0.52172747273E+01 -0.74404685771E+02  0.99280572911E+02  0.00000000000E+00 0. -1.
         -2    1    5    5    0  503  0.11223678881E+03 -0.30113792823E+02 -0.34199104874E+03  0.36119498156E+03  0.00000000000E+00 0.  1.
         -1    1    6    6    0  502 -0.47316552174E+03 -0.44152244719E+03 -0.44804334698E+03  0.78712802206E+03  0.00000000000E+00 0.  1.
<mgrwt>
<rscale>  0 0.26425529E+04</rscale>
<asrwt>0</asrwt>
<pdfrwt beam="1">  1        1 0.14136079E+00 0.26425529E+04</pdfrwt>
<pdfrwt beam="2">  1       -1 0.29230195E+00 0.26425529E+04</pdfrwt>
<totfact> 0.57090909E-01</totfact>
</mgrwt>
</event>
<event>
12    1  0.1518126E-007  0.1665634E+04  0.7818608E-02  0.8781211E-01
          2   -1    0    0  501    0  0.00000000000E+00  0.00000000000E+00  0.69960085081E+03  0.69960085081E+03  0.00000000000E+00 0. -1.
         -2   -1    0    0    0  501 -0.00000000000E+00 -0.00000000000E+00 -0.99140040499E+03  0.99140040499E+03  0.00000000000E+00 0.  1.
         23    2    1    2    0    0 -0.10471894133E+03 -0.55224369185E+03 -0.26446162488E+03  0.62794202923E+03  0.91826407827E+02 0.  0.
        254    2    1    2    0    0  0.10471894133E+03  0.55224369185E+03 -0.27337929300E+02  0.10630592266E+04  0.90189157051E+03 0.  0.
        -24    2    4    4    0    0  0.36721764062E+02  0.44425372989E+03  0.40370664602E+03  0.60645950757E+03  0.78129468155E+02 0.  0.
         24    2    4    4    0    0  0.67997177266E+02  0.10798996196E+03 -0.43104457532E+03  0.45659971901E+03  0.79990183642E+02 0.  0.
         13    1    3    3    0    0 -0.65655518106E+01 -0.16265324771E+01 -0.13128588098E+02  0.14768612119E+02  0.00000000000E+00 0.  1.
        -13    1    3    3    0    0 -0.98153389517E+02 -0.55061715938E+03 -0.25133303678E+03  0.61317341711E+03  0.00000000000E+00 0. -1.
          4    1    6    6  502    0  0.73077728885E+02  0.52944778483E+02 -0.32111060494E+03  0.33354988328E+03  0.00000000000E+00 0. -1.
          3    1    5    5  503    0 -0.12791404395E+02  0.21137617309E+03  0.15705712268E+03  0.26364833844E+03  0.00000000000E+00 0. -1.
         -4    1    5    5    0  503  0.49513168457E+02  0.23287755680E+03  0.24664952334E+03  0.34281116912E+03  0.00000000000E+00 0.  1.
         -3    1    6    6    0  502 -0.50805516200E+01  0.55045183478E+02 -0.10993397038E+03  0.12304983573E+03  0.00000000000E+00 0.  1.
<mgrwt>
<rscale>  0 0.16656345E+04</rscale>
<asrwt>0</asrwt>
<pdfrwt beam="1">  1        2 0.10763090E+00 0.16656345E+04</pdfrwt>
<pdfrwt beam="2">  1       -2 0.15252314E+00 0.16656345E+04</pdfrwt>
<totfact> 0.11205843E+01</totfact>
</mgrwt>
</event>
<event>
12    1  0.1518126E-007  0.1736888E+04  0.7818608E-02  0.8740601E-01
         -1   -1    0    0    0  501 -0.00000000000E+00  0.00000000000E+00  0.33425250774E+03  0.33425250774E+03  0.00000000000E+00 0.  1.
          1   -1    0    0  501    0  0.00000000000E+00 -0.00000000000E+00 -0.22563625466E+04  0.22563625466E+04  0.00000000000E+00 0. -1.
         23    2    1    2    0    0  0.50224112036E+03 -0.27783566344E+02 -0.12697044368E+04  0.13687524650E+04  0.91191469722E+02 0.  0.
        254    2    1    2    0    0 -0.50224112036E+03  0.27783566344E+02 -0.65240560204E+03  0.12218625893E+04  0.90238409118E+03 0.  0.
        -24    2    4    4    0    0 -0.86159553150E+02  0.17681767094E+02  0.22102230393E+03  0.25090618346E+03  0.79793111082E+02 0.  0.
         24    2    4    4    0    0 -0.41608156721E+03  0.10101799251E+02 -0.87342790597E+03  0.97095640584E+03  0.81572778442E+02 0.  0.
         13    1    3    3    0    0  0.65622151390E+02 -0.51946627445E-01 -0.26353660597E+03  0.27158389521E+03  0.00000000000E+00 0.  1.
        -13    1    3    3    0    0  0.43661896897E+03 -0.27731619717E+02 -0.10061678308E+04  0.10971685698E+04  0.00000000000E+00 0. -1.
          4    1    6    6  502    0 -0.41490582212E+03  0.92622840134E+01 -0.83447785684E+03  0.93197957311E+03  0.00000000000E+00 0. -1.
          3    1    5    5  503    0 -0.97420139066E+02  0.30016344113E+02  0.19360068807E+03  0.21879874504E+03  0.00000000000E+00 0. -1.
         -4    1    5    5    0  503  0.11260585916E+02 -0.12334577019E+02  0.27421615860E+02  0.32107438418E+02  0.00000000000E+00 0.  1.
         -3    1    6    6    0  502 -0.11757450975E+01  0.83951523729E+00 -0.38950049131E+02  0.38976832730E+02  0.00000000000E+00 0.  1.
<mgrwt>
<rscale>  0 0.17368878E+04</rscale>
<asrwt>0</asrwt>
<pdfrwt beam="1">  1        1 0.34713269E+00 0.17368878E+04</pdfrwt>
<pdfrwt beam="2">  1       -1 0.51423464E-01 0.17368878E+04</pdfrwt>
<totfact> 0.71998608E+00</totfact>
</mgrwt>
</event>
<event>
12    1  0.1518126E-007  0.2494960E+04  0.7818608E-02  0.8404783E-01
          2   -1    0    0  501    0  0.00000000000E+00  0.00000000000E+00  0.10832636861E+04  0.10832636861E+04  0.00000000000E+00 0. -1.
         -2   -1    0    0    0  501 -0.00000000000E+00 -0.00000000000E+00 -0.14365906667E+04  0.14365906667E+04  0.00000000000E+00 0.  1.
         23    2    1    2    0    0 -0.77111225729E+03  0.55716280293E+03 -0.66622056142E+03  0.11653863875E+04  0.96078579072E+02 0.  0.
        254    2    1    2    0    0  0.77111225729E+03 -0.55716280293E+03  0.31289358083E+03  0.13544679654E+04  0.91194110226E+03 0.  0.
        -24    2    4    4    0    0  0.32096839027E+03 -0.13407177035E+03  0.57667599078E+03  0.67804733039E+03  0.78721259827E+02 0.  0.
         24    2    4    4    0    0  0.45014386703E+03 -0.42309103258E+03 -0.26378240995E+03  0.67642063499E+03  0.79549938780E+02 0.  0.
         11    1    3    3    0    0 -0.73126189577E+03  0.53491425925E+03 -0.65610607679E+03  0.11186386409E+04  0.00000000000E+00 0.  1.
        -11    1    3    3    0    0 -0.39850361523E+02  0.22248543685E+02 -0.10114484623E+02  0.46747746564E+02  0.00000000000E+00 0. -1.
          2    1    6    6  502    0  0.10910983093E+03 -0.15175251818E+03 -0.72321247186E+02  0.20040994181E+03  0.00000000000E+00 0. -1.
          3    1    5    5  503    0  0.26237924708E+03 -0.10656359156E+03  0.40174491722E+03  0.49152583539E+03  0.00000000000E+00 0. -1.
         -4    1    5    5    0  503  0.58589143192E+02 -0.27508178796E+02  0.17493107356E+03  0.18652149500E+03  0.00000000000E+00 0.  1.
         -3    1    6    6    0  502  0.34103403609E+03 -0.27133851440E+03 -0.19146116277E+03  0.47601069318E+03  0.00000000000E+00 0.  1.
<mgrwt>
<rscale>  0 0.24949601E+04</rscale>
<asrwt>0</asrwt>
<pdfrwt beam="1">  1        2 0.16665595E+00 0.24949601E+04</pdfrwt>
<pdfrwt beam="2">  1       -2 0.22101395E+00 0.24949601E+04</pdfrwt>
<totfact> 0.19385492E+00</totfact>
</mgrwt>
</event>
<event>
12    1  0.1518126E-007  0.2999541E+04  0.7818608E-02  0.8243862E-01
         -2   -1    0    0    0  501 -0.00000000000E+00  0.00000000000E+00  0.14893504048E+04  0.14893504048E+04  0.00000000000E+00 0. -1.
          2   -1    0    0  501    0  0.00000000000E+00 -0.00000000000E+00 -0.15102633279E+04  0.15102633279E+04  0.00000000000E+00 0.  1.
         23    2    1    2    0    0 -0.47809045078E+03 -0.87908661980E+03 -0.93540603922E+03  0.13728145173E+04  0.90947657843E+02 0.  0.
        254    2    1    2    0    0  0.47809045078E+03  0.87908661980E+03  0.91449311613E+03  0.16267992154E+04  0.89934101634E+03 0.  0.
        -24    2    4    4    0    0  0.42952830207E+03  0.78264141893E+03  0.22501018917E+03  0.92420461167E+03  0.80637622059E+02 0.  0.
         24    2    4    4    0    0  0.48562148710E+02  0.96445200872E+02  0.68948292695E+03  0.70259460377E+03  0.81194283220E+02 0.  0.
         11    1    3    3    0    0 -0.46235485304E+03 -0.84261621792E+03 -0.87063518923E+03  0.12968345051E+04  0.00000000000E+00 0.  1.
        -11    1    3    3    0    0 -0.15735597744E+02 -0.36470401886E+02 -0.64770849992E+02  0.75980012232E+02  0.00000000000E+00 0. -1.
          2    1    6    6  502    0 -0.16088114983E+02  0.46909339712E+02  0.18279625107E+03  0.18940375656E+03  0.00000000000E+00 0. -1.
          3    1    5    5  503    0  0.24956698892E+03  0.53359184003E+03  0.14279837780E+03  0.60613142998E+03  0.00000000000E+00 0. -1.
         -4    1    5    5    0  503  0.17996131315E+03  0.24904957891E+03  0.82211811378E+02  0.31807318169E+03  0.00000000000E+00 0.  1.
         -1    1    6    6    0  502  0.64650263693E+02  0.49535861160E+02  0.50668667589E+03  0.51319084721E+03  0.00000000000E+00 0.  1.
<mgrwt>
<rscale>  0 0.29995408E+04</rscale>
<asrwt>0</asrwt>
<pdfrwt beam="1">  1        2 0.23234820E+00 0.29995408E+04</pdfrwt>
<pdfrwt beam="2">  1       -2 0.22913083E+00 0.29995408E+04</pdfrwt>
<totfact> 0.92837964E-01</totfact>
</mgrwt>
</event>
<event>
12    1  0.1518126E-007  0.2018553E+04  0.7818608E-02  0.8597995E-01
         -1   -1    0    0    0  501 -0.00000000000E+00  0.00000000000E+00  0.93496092737E+03  0.93496092737E+03  0.00000000000E+00 0.  1.
          1   -1    0    0  501    0  0.00000000000E+00 -0.00000000000E+00 -0.10894988110E+04  0.10894988110E+04  0.00000000000E+00 0. -1.
         23    2    1    2    0    0 -0.22092150806E+03  0.25967328073E+03  0.66569924673E+03  0.75258485725E+03  0.83617909622E+02 0.  0.
        254    2    1    2    0    0  0.22092150806E+03 -0.25967328073E+03 -0.82023713038E+03  0.12718748811E+04  0.91029678556E+03 0.  0.
        -24    2    4    4    0    0  0.29691481864E+03  0.69052351032E+01 -0.91602807557E+03  0.96629900512E+03  0.80126401786E+02 0.  0.
         24    2    4    4    0    0 -0.75993310583E+02 -0.26657851584E+03  0.95790945196E+02  0.30557587602E+03  0.85799897826E+02 0.  0.
         11    1    3    3    0    0 -0.13998196749E+01  0.11835088073E+02  0.70504083802E+02  0.71504228109E+02  0.00000000000E+00 0. -1.
        -11    1    3    3    0    0 -0.21952168838E+03  0.24783819266E+03  0.59519516293E+03  0.68108062914E+03  0.00000000000E+00 0.  1.
          4    1    6    6  502    0 -0.91531626604E+01 -0.37530891915E+02 -0.16334685768E+02  0.41942462896E+02  0.00000000000E+00 0. -1.
          3    1    5    5  503    0  0.84771902217E+02 -0.24813285656E+02 -0.35048542884E+03  0.36144433926E+03  0.00000000000E+00 0. -1.
         -4    1    5    5    0  503  0.21214291642E+03  0.31718520759E+02 -0.56554264673E+03  0.60485466586E+03  0.00000000000E+00 0.  1.
         -3    1    6    6    0  502 -0.66840147922E+02 -0.22904762392E+03  0.11212563096E+03  0.26363341313E+03  0.00000000000E+00 0.  1.
<mgrwt>
<rscale>  0 0.20185528E+04</rscale>
<asrwt>0</asrwt>
<pdfrwt beam="1">  1        1 0.16761520E+00 0.20185528E+04</pdfrwt>
<pdfrwt beam="2">  1       -1 0.14384014E+00 0.20185528E+04</pdfrwt>
<totfact> 0.46682705E+00</totfact>
</mgrwt>
</event>
<event>
12    1  0.1518126E-007  0.1578662E+04  0.7818608E-02  0.8833765E-01
         -2   -1    0    0    0  501 -0.00000000000E+00  0.00000000000E+00  0.34264098450E+03  0.34264098450E+03  0.00000000000E+00 0. -1.
          2   -1    0    0  501    0  0.00000000000E+00 -0.00000000000E+00 -0.18183560187E+04  0.18183560187E+04  0.00000000000E+00 0.  1.
         23    2    1    2    0    0 -0.90210757047E+02  0.30437311726E+03 -0.10054259579E+04  0.10582034503E+04  0.90178768200E+02 0.  0.
        254    2    1    2    0    0  0.90210757047E+02 -0.30437311726E+03 -0.47028907630E+03  0.11027935529E+04  0.94562192753E+03 0.  0.
        -24    2    4    4    0    0  0.10421669243E+03 -0.45812798032E+03  0.11668243684E+03  0.49070880531E+03  0.80236994001E+02 0.  0.
         24    2    4    4    0    0 -0.14005935381E+02  0.15375486306E+03 -0.58697151314E+03  0.61208474759E+03  0.79217781160E+02 0.  0.
         11    1    3    3    0    0 -0.19464966135E+02  0.85836285847E+02 -0.42418184149E+03  0.43321702128E+03  0.00000000000E+00 0.  1.
        -11    1    3    3    0    0 -0.70745790912E+02  0.21853683142E+03 -0.58124411644E+03  0.62498642907E+03  0.00000000000E+00 0. -1.
          2    1    6    6  502    0  0.11437218832E+02 -0.40812086406E+01 -0.24663745413E+02  0.27491209075E+02  0.00000000000E+00 0. -1.
          3    1    5    5  503    0  0.94322846788E+01 -0.19727206665E+03  0.28809589167E+02  0.19958764667E+03  0.00000000000E+00 0. -1.
         -4    1    5    5    0  503  0.94784407749E+02 -0.26085591367E+03  0.87872847673E+02  0.29112115864E+03  0.00000000000E+00 0.  1.
         -1    1    6    6    0  502 -0.25443154212E+02  0.15783607170E+03 -0.56230776773E+03  0.58459353851E+03  0.00000000000E+00 0.  1.
<mgrwt>
<rscale>  0 0.15786618E+04</rscale>
<asrwt>0</asrwt>
<pdfrwt beam="1">  1        2 0.27974707E+00 0.15786618E+04</pdfrwt>
<pdfrwt beam="2">  1       -2 0.52713999E-01 0.15786618E+04</pdfrwt>
<totfact> 0.27483536E+01</totfact>
</mgrwt>
</event>
<event>
12    1  0.1518126E-007  0.1966446E+04  0.7818608E-02  0.8622471E-01
         -2   -1    0    0    0  501 -0.00000000000E+00  0.00000000000E+00  0.39607012377E+03  0.39607012377E+03  0.00000000000E+00 0.  1.
          2   -1    0    0  501    0  0.00000000000E+00 -0.00000000000E+00 -0.24407986132E+04  0.24407986132E+04  0.00000000000E+00 0. -1.
         23    2    1    2    0    0 -0.19980589201E+03 -0.67192935299E+03 -0.33309709285E+03  0.78155435597E+03  0.91989609134E+02 0.  0.
        254    2    1    2    0    0  0.19980589201E+03  0.67192935299E+03 -0.17116313966E+04  0.20553143810E+04  0.89622749185E+03 0.  0.
        -24    2    4    4    0    0  0.51344730025E+03  0.55986252214E+03 -0.13903958096E+04  0.15861732357E+04  0.75305062788E+02 0.  0.
         24    2    4    4    0    0 -0.31364140823E+03  0.11206683084E+03 -0.32123558705E+03  0.46914114536E+03  0.77273568278E+02 0.  0.
         11    1    3    3    0    0  0.35048466195E+01 -0.19837361301E+01 -0.94060066606E+01  0.10231916739E+02  0.00000000000E+00 0.  1.
        -11    1    3    3    0    0 -0.20331073863E+03 -0.66994561686E+03 -0.32369108619E+03  0.77132243923E+03  0.00000000000E+00 0. -1.
          4    1    6    6  502    0 -0.26481251054E+03  0.75647120733E+02 -0.29262158222E+03  0.40184019584E+03  0.00000000000E+00 0. -1.
          3    1    5    5  503    0  0.65890740850E+02  0.46412147886E+02 -0.18167193233E+03  0.19874699544E+03  0.00000000000E+00 0. -1.
         -4    1    5    5    0  503  0.44755655940E+03  0.51345037426E+03 -0.12087238773E+04  0.13874262402E+04  0.00000000000E+00 0.  1.
         -3    1    6    6    0  502 -0.48828897695E+02  0.36419710110E+02 -0.28614004831E+02  0.67300949526E+02  0.00000000000E+00 0.  1.
<mgrwt>
<rscale>  0 0.19664459E+04</rscale>
<asrwt>0</asrwt>
<pdfrwt beam="1">  1        2 0.37550748E+00 0.19664459E+04</pdfrwt>
<pdfrwt beam="2">  1       -2 0.60933865E-01 0.19664459E+04</pdfrwt>
<totfact> 0.87991654E+00</totfact>
</mgrwt>
</event>
<event>
12    1  0.1518126E-007  0.1682019E+04  0.7818608E-02  0.8771687E-01
          1   -1    0    0  501    0  0.00000000000E+00  0.00000000000E+00  0.11108972992E+04  0.11108972992E+04  0.00000000000E+00 0. -1.
         -1   -1    0    0    0  501 -0.00000000000E+00 -0.00000000000E+00 -0.63668949816E+03  0.63668949816E+03  0.00000000000E+00 0.  1.
         23    2    1    2    0    0 -0.24864570014E+03 -0.18048995185E+03 -0.36035304360E+03  0.48222135967E+03  0.91004487643E+02 0.  0.
        254    2    1    2    0    0  0.24864570014E+03  0.18048995185E+03  0.83456084463E+03  0.12653654377E+04  0.90014253348E+03 0.  0.
        -24    2    4    4    0    0  0.42229412972E+03  0.36331486576E+03  0.23424388944E+03  0.60967079728E+03  0.80611771091E+02 0.  0.
         24    2    4    4    0    0 -0.17364842958E+03 -0.18282491391E+03  0.60031695519E+03  0.65569464041E+03  0.77306458548E+02 0.  0.
         13    1    3    3    0    0 -0.70522431276E+01  0.73491057079E+01 -0.10221524558E+01  0.10236614845E+02  0.00000000000E+00 0. -1.
        -13    1    3    3    0    0 -0.24159345701E+03 -0.18783905755E+03 -0.35933089114E+03  0.47198474482E+03  0.00000000000E+00 0.  1.
          4    1    6    6  502    0 -0.16155472131E+03 -0.12459445165E+03  0.45279997144E+03  0.49664023145E+03  0.00000000000E+00 0. -1.
          3    1    5    5  503    0  0.39491509599E+03  0.31380860487E+03  0.19488352937E+03  0.54075258996E+03  0.00000000000E+00 0. -1.
         -4    1    5    5    0  503  0.27379033733E+02  0.49506260888E+02  0.39360360069E+02  0.68918207319E+02  0.00000000000E+00 0.  1.
         -3    1    6    6    0  502 -0.12093708265E+02 -0.58230462258E+02  0.14751698375E+03  0.15905440895E+03  0.00000000000E+00 0.  1.
<mgrwt>
<rscale>  0 0.16820186E+04</rscale>
<asrwt>0</asrwt>
<pdfrwt beam="1">  1        1 0.17090728E+00 0.16820186E+04</pdfrwt>
<pdfrwt beam="2">  1       -1 0.97952230E-01 0.16820186E+04</pdfrwt>
<totfact> 0.11849486E+01</totfact>
</mgrwt>
</event>
<event>
12    1  0.1518126E-007  0.1547946E+04  0.7818608E-02  0.8853181E-01
          1   -1    0    0  501    0  0.00000000000E+00  0.00000000000E+00  0.81465500646E+03  0.81465500646E+03  0.00000000000E+00 0. -1.
         -1   -1    0    0    0  501 -0.00000000000E+00 -0.00000000000E+00 -0.73532296814E+03  0.73532296814E+03  0.00000000000E+00 0.  1.
         23    2    1    2    0    0  0.27052224932E+03 -0.27764349097E+03  0.32612620862E+03  0.51494820718E+03  0.92440016652E+02 0.  0.
        254    2    1    2    0    0 -0.27052224932E+03  0.27764349097E+03 -0.24679417029E+03  0.10350297674E+04  0.92742172796E+03 0.  0.
        -24    2    4    4    0    0  0.12116633015E+03  0.29271040087E+03  0.23978595651E+03  0.40507436941E+03  0.78913126130E+02 0.  0.
         24    2    4    4    0    0 -0.39168857947E+03 -0.15066909905E+02 -0.48658012681E+03  0.62995539800E+03  0.80228602177E+02 0.  0.
         11    1    3    3    0    0  0.17102092626E+03 -0.12410930862E+03  0.21194095488E+03  0.29928288635E+03  0.00000000000E+00 0. -1.
        -11    1    3    3    0    0  0.99501323059E+02 -0.15353418234E+03  0.11418525374E+03  0.21566532083E+03  0.00000000000E+00 0.  1.
          4    1    6    6  502    0 -0.37632530651E+03  0.15239874418E+01 -0.46897023688E+03  0.60129538659E+03  0.00000000000E+00 0. -1.
          1    1    5    5  503    0  0.11639486144E+03  0.29138769433E+03  0.24484196931E+03  0.39799766597E+03  0.00000000000E+00 0. -1.
         -2    1    5    5    0  503  0.47714687074E+01  0.13227065373E+01 -0.50560128009E+01  0.70767034453E+01  0.00000000000E+00 0.  1.
         -3    1    6    6    0  502 -0.15363272965E+02 -0.16590897346E+02 -0.17609889925E+02  0.28660011412E+02  0.00000000000E+00 0.  1.
<mgrwt>
<rscale>  0 0.15479464E+04</rscale>
<asrwt>0</asrwt>
<pdfrwt beam="1">  1        1 0.12533154E+00 0.15479464E+04</pdfrwt>
<pdfrwt beam="2">  1       -1 0.11312661E+00 0.15479464E+04</pdfrwt>
<totfact> 0.14775791E+01</totfact>
</mgrwt>
</event>
<event>
12    1  0.1518126E-007  0.1641443E+04  0.7818608E-02  0.8795485E-01
         -2   -1    0    0    0  501 -0.00000000000E+00  0.00000000000E+00  0.30606791037E+03  0.30606791037E+03  0.00000000000E+00 0.  1.
          2   -1    0    0  501    0  0.00000000000E+00 -0.00000000000E+00 -0.22007657153E+04  0.22007657153E+04  0.00000000000E+00 0. -1.
         23    2    1    2    0    0 -0.31633099446E+03 -0.44631016288E+03 -0.89455259743E+03  0.10526379219E+04  0.92542884549E+02 0.  0.
        254    2    1    2    0    0  0.31633099446E+03  0.44631016288E+03 -0.10001452075E+04  0.14541957038E+04  0.90284918413E+03 0.  0.
        -24    2    4    4    0    0 -0.29039088660E+03  0.24497211334E+03 -0.52531396285E+03  0.65340731810E+03  0.81536252356E+02 0.  0.
         24    2    4    4    0    0  0.60672188106E+03  0.20133804954E+03 -0.47483124470E+03  0.80078838572E+03  0.84551029694E+02 0.  0.
         11    1    3    3    0    0 -0.29303219423E+03 -0.37277086958E+03 -0.80664162734E+03  0.93567980796E+03  0.00000000000E+00 0.  1.
        -11    1    3    3    0    0 -0.23298800225E+02 -0.73539293305E+02 -0.87910970083E+02  0.11695811392E+03  0.00000000000E+00 0. -1.
          4    1    6    6  502    0  0.31952179178E+03  0.66654031174E+02 -0.21626544041E+03  0.39154524134E+03  0.00000000000E+00 0. -1.
          3    1    5    5  503    0 -0.39946668642E+01  0.29075033431E+02 -0.31032165533E+02  0.42711944817E+02  0.00000000000E+00 0. -1.
         -4    1    5    5    0  503 -0.28639621974E+03  0.21589707991E+03 -0.49428179731E+03  0.61069537328E+03  0.00000000000E+00 0.  1.
         -3    1    6    6    0  502  0.28720008927E+03  0.13468401836E+03 -0.25856580429E+03  0.40924314439E+03  0.00000000000E+00 0.  1.
<mgrwt>
<rscale>  0 0.16414430E+04</rscale>
<asrwt>0</asrwt>
<pdfrwt beam="1">  1        2 0.33857935E+00 0.16414430E+04</pdfrwt>
<pdfrwt beam="2">  1       -2 0.47087370E-01 0.16414430E+04</pdfrwt>
<totfact> 0.21094379E+01</totfact>
</mgrwt>
</event>
<event>
12    1  0.1518126E-007  0.1556534E+04  0.7818608E-02  0.8847705E-01
          1   -1    0    0  501    0  0.00000000000E+00  0.00000000000E+00  0.72483321728E+03  0.72483321728E+03  0.00000000000E+00 0. -1.
         -1   -1    0    0    0  501 -0.00000000000E+00 -0.00000000000E+00 -0.83563939840E+03  0.83563939840E+03  0.00000000000E+00 0.  1.
         23    2    1    2    0    0 -0.34968564785E+03  0.27225736323E+03 -0.30278358041E+03  0.54446411169E+03  0.91428377447E+02 0.  0.
        254    2    1    2    0    0  0.34968564785E+03 -0.27225736323E+03  0.19197739929E+03  0.10160085040E+04  0.89387573755E+03 0.  0.
        -24    2    4    4    0    0  0.77794132691E+02  0.20819128454E+03 -0.21994394845E+03  0.32263174506E+03  0.79500719594E+02 0.  0.
         24    2    4    4    0    0  0.27189151516E+03 -0.48044864777E+03  0.41192134774E+03  0.69337675893E+03  0.79600464415E+02 0.  0.
         11    1    3    3    0    0 -0.21721077406E+03  0.14998106191E+03 -0.12796965839E+03  0.29334463139E+03  0.00000000000E+00 0. -1.
        -11    1    3    3    0    0 -0.13247487380E+03  0.12227630132E+03 -0.17481392202E+03  0.25111948030E+03  0.00000000000E+00 0.  1.
          4    1    6    6  502    0  0.20430543813E+03 -0.39581779208E+03  0.29647562553E+03  0.53507965118E+03  0.00000000000E+00 0. -1.
          1    1    5    5  503    0  0.42566897014E+02  0.18997348761E+03 -0.16710885788E+03  0.25656819191E+03  0.00000000000E+00 0. -1.
         -2    1    5    5    0  503  0.35227235677E+02  0.18217796928E+02 -0.52835090576E+02  0.66063553148E+02  0.00000000000E+00 0.  1.
         -3    1    6    6    0  502  0.67586077036E+02 -0.84630855691E+02  0.11544572221E+03  0.15829710775E+03  0.00000000000E+00 0.  1.
<mgrwt>
<rscale>  0 0.15565336E+04</rscale>
<asrwt>0</asrwt>
<pdfrwt beam="1">  1        1 0.11151280E+00 0.15565336E+04</pdfrwt>
<pdfrwt beam="2">  1       -1 0.12855991E+00 0.15565336E+04</pdfrwt>
<totfact> 0.12974972E+01</totfact>
</mgrwt>
</event>
<event>
12    1  0.1518126E-007  0.3057089E+04  0.7818608E-02  0.8227614E-01
         -2   -1    0    0    0  501 -0.00000000000E+00  0.00000000000E+00  0.14302699014E+04  0.14302699014E+04  0.00000000000E+00 0.  1.
          2   -1    0    0  501    0  0.00000000000E+00 -0.00000000000E+00 -0.16335711286E+04  0.16335711286E+04  0.00000000000E+00 0. -1.
         23    2    1    2    0    0  0.80906820479E+03  0.29874467825E+03 -0.11915561801E+04  0.14740182426E+04  0.95309529725E+02 0.  0.
        254    2    1    2    0    0 -0.80906820479E+03 -0.29874467825E+03  0.98825495287E+03  0.15898227873E+04  0.89835900422E+03 0.  0.
        -24    2    4    4    0    0  0.13858898500E+03 -0.81229784832E+02 -0.27874718668E+02  0.18122468049E+03  0.79121426759E+02 0.  0.
         24    2    4    4    0    0 -0.94765718979E+03 -0.21751489342E+03  0.10161296715E+04  0.14085981068E+04  0.79134309837E+02 0.  0.
         13    1    3    3    0    0  0.85560339221E+02  0.50451939037E+02 -0.18276068412E+03  0.20800826296E+03  0.00000000000E+00 0.  1.
        -13    1    3    3    0    0  0.72350786557E+03  0.24829273921E+03 -0.10087954960E+04  0.12660099797E+04  0.00000000000E+00 0. -1.
          2    1    6    6  502    0 -0.15953542588E+03 -0.66717138138E+02  0.19037336721E+03  0.25718621187E+03  0.00000000000E+00 0. -1.
          3    1    5    5  503    0  0.56872735043E+02 -0.15872510947E+02  0.24839961061E+02  0.64058319214E+02  0.00000000000E+00 0. -1.
         -4    1    5    5    0  503  0.81716249956E+02 -0.65357273885E+02 -0.52714679729E+02  0.11716636128E+03  0.00000000000E+00 0.  1.
         -1    1    6    6    0  502 -0.78812176391E+03 -0.15079775528E+03  0.82575630433E+03  0.11514118950E+04  0.00000000000E+00 0.  1.
<mgrwt>
<rscale>  0 0.30570886E+04</rscale>
<asrwt>0</asrwt>
<pdfrwt beam="1">  1        2 0.25131864E+00 0.30570886E+04</pdfrwt>
<pdfrwt beam="2">  1       -2 0.22004152E+00 0.30570886E+04</pdfrwt>
<totfact> 0.89888785E-01</totfact>
</mgrwt>
</event>
<event>
12    1  0.1518126E-007  0.1435400E+04  0.7818608E-02  0.8928586E-01
         -1   -1    0    0    0  501 -0.00000000000E+00  0.00000000000E+00  0.51780981872E+03  0.51780981872E+03  0.00000000000E+00 0.  1.
          1   -1    0    0  501    0  0.00000000000E+00 -0.00000000000E+00 -0.99475358120E+03  0.99475358120E+03  0.00000000000E+00 0. -1.
         23    2    1    2    0    0  0.16886659387E+02  0.23173406160E+03 -0.51942682277E+03  0.57628607211E+03  0.91189791794E+02 0.  0.
        254    2    1    2    0    0 -0.16886659387E+02 -0.23173406160E+03  0.42483060285E+02  0.93627732781E+03  0.90599370284E+03 0.  0.
        -24    2    4    4    0    0 -0.18485607423E+03 -0.51146213623E+03 -0.12252340734E+03  0.56328458065E+03  0.80698503568E+02 0.  0.
         24    2    4    4    0    0  0.16796941485E+03  0.27972807462E+03  0.16500646763E+03  0.37299274716E+03  0.73722011770E+02 0.  0.
         11    1    3    3    0    0 -0.20414647323E+01  0.69660003115E+01  0.25206552660E+01  0.76841682415E+01  0.00000000000E+00 0.  1.
        -11    1    3    3    0    0  0.18928124119E+02  0.22476806129E+03 -0.52194747803E+03  0.56860190387E+03  0.00000000000E+00 0. -1.
          4    1    6    6  502    0  0.15578384944E+02  0.52817188168E+02  0.27684370223E+01  0.55136246580E+02  0.00000000000E+00 0. -1.
          1    1    5    5  503    0 -0.41368659787E+01  0.23360961137E+01  0.86473581291E+00  0.48289515636E+01  0.00000000000E+00 0. -1.
         -2    1    5    5    0  503 -0.18071920825E+03 -0.51379823234E+03 -0.12338814315E+03  0.55845562909E+03  0.00000000000E+00 0.  1.
         -3    1    6    6    0  502  0.15239102990E+03  0.22691088646E+03  0.16223803060E+03  0.31785650058E+03  0.00000000000E+00 0.  1.
<mgrwt>
<rscale>  0 0.14353998E+04</rscale>
<asrwt>0</asrwt>
<pdfrwt beam="1">  1        1 0.15303901E+00 0.14353998E+04</pdfrwt>
<pdfrwt beam="2">  1       -1 0.79663050E-01 0.14353998E+04</pdfrwt>
<totfact> 0.23383603E+01</totfact>
</mgrwt>
</event>
<event>
12    1  0.1518126E-007  0.1510625E+04  0.7818608E-02  0.8877418E-01
          2   -1    0    0  501    0  0.00000000000E+00  0.00000000000E+00  0.25509451332E+04  0.25509451332E+04  0.00000000000E+00 0.  1.
         -2   -1    0    0    0  501 -0.00000000000E+00 -0.00000000000E+00 -0.22364127369E+03  0.22364127369E+03  0.00000000000E+00 0. -1.
         23    2    1    2    0    0 -0.11653420035E+02 -0.18140671056E+03 -0.62466204302E+02  0.21404957855E+03  0.94185978605E+02 0.  0.
        254    2    1    2    0    0  0.11653420035E+02  0.18140671056E+03  0.23897700639E+04  0.25605368284E+04  0.90127892160E+03 0.  0.
        -24    2    4    4    0    0  0.69664602596E+02  0.53182728054E+03  0.12138582158E+04  0.13295592910E+04  0.81134006375E+02 0.  0.
         24    2    4    4    0    0 -0.58011182561E+02 -0.35042056998E+03  0.11759118480E+04  0.12309775374E+04  0.79857059812E+02 0.  0.
         11    1    3    3    0    0  0.71987949664E+01 -0.22376620081E+01  0.15891329513E+02  0.17588750210E+02  0.00000000000E+00 0.  1.
        -11    1    3    3    0    0 -0.18852215001E+02 -0.17916904855E+03 -0.78357533815E+02  0.19646082834E+03  0.00000000000E+00 0. -1.
          2    1    6    6  502    0 -0.17959547382E+02 -0.74596683820E+02  0.38017515314E+03  0.38784063434E+03  0.00000000000E+00 0. -1.
          1    1    5    5  503    0  0.44873724802E+02  0.30279084878E+03  0.59307818622E+03  0.66741118080E+03  0.00000000000E+00 0. -1.
         -2    1    5    5    0  503  0.24790877794E+02  0.22903643175E+03  0.62078002961E+03  0.66214811021E+03  0.00000000000E+00 0.  1.
         -1    1    6    6    0  502 -0.40051635179E+02 -0.27582388616E+03  0.79573669489E+03  0.84313690303E+03  0.00000000000E+00 0.  1.
<mgrwt>
<rscale>  0 0.15106245E+04</rscale>
<asrwt>0</asrwt>
<pdfrwt beam="1">  1        2 0.39245308E+00 0.15106245E+04</pdfrwt>
<pdfrwt beam="2">  1       -2 0.34406352E-01 0.15106245E+04</pdfrwt>
<totfact> 0.24923419E+01</totfact>
</mgrwt>
</event>
<event>
12    1  0.1518126E-007  0.1993681E+04  0.7818608E-02  0.8609581E-01
          2   -1    0    0  501    0  0.00000000000E+00  0.00000000000E+00  0.81270251175E+03  0.81270251175E+03  0.00000000000E+00 0. -1.
         -2   -1    0    0    0  501 -0.00000000000E+00 -0.00000000000E+00 -0.12226995336E+04  0.12226995336E+04  0.00000000000E+00 0.  1.
         23    2    1    2    0    0  0.41173512696E+03  0.61567239332E+03 -0.44838476685E+03  0.86981195188E+03  0.83340397242E+02 0.  0.
        254    2    1    2    0    0 -0.41173512696E+03 -0.61567239332E+03  0.38387744964E+02  0.11655900935E+04  0.89919315858E+03 0.  0.
        -24    2    4    4    0    0 -0.59400350816E+03 -0.44123086204E+03 -0.23955730334E+03  0.78189273597E+03  0.80272708066E+02 0.  0.
         24    2    4    4    0    0  0.18226838119E+03 -0.17444153128E+03  0.27794504830E+03  0.38369735753E+03  0.79489632533E+02 0.  0.
         13    1    3    3    0    0  0.79537563986E+02  0.14240587882E+03 -0.62610594959E+02  0.17471618417E+03  0.00000000000E+00 0. -1.
        -13    1    3    3    0    0  0.33219756298E+03  0.47326651450E+03 -0.38577417189E+03  0.69509576771E+03  0.00000000000E+00 0.  1.
          2    1    6    6  502    0  0.64502634148E+02 -0.73652342594E+02  0.55406212573E+02  0.11249491443E+03  0.00000000000E+00 0. -1.
          1    1    5    5  503    0 -0.18068361561E+03 -0.17287252359E+03 -0.10368885614E+03  0.27070806647E+03  0.00000000000E+00 0. -1.
         -2    1    5    5    0  503 -0.41331989255E+03 -0.26835833845E+03 -0.13586844720E+03  0.51118466950E+03  0.00000000000E+00 0.  1.
         -1    1    6    6    0  502  0.11776574705E+03 -0.10078918869E+03  0.22253883573E+03  0.27120244310E+03  0.00000000000E+00 0.  1.
<mgrwt>
<rscale>  0 0.19936810E+04</rscale>
<asrwt>0</asrwt>
<pdfrwt beam="1">  1        2 0.12503116E+00 0.19936810E+04</pdfrwt>
<pdfrwt beam="2">  1       -2 0.18810762E+00 0.19936810E+04</pdfrwt>
<totfact> 0.50016518E+00</totfact>
</mgrwt>
</event>
<event>
12    1  0.1518126E-007  0.2574558E+04  0.7818608E-02  0.8376895E-01
         -2   -1    0    0    0  501 -0.00000000000E+00  0.00000000000E+00  0.18144630515E+04  0.18144630515E+04  0.00000000000E+00 0.  1.
          2   -1    0    0  501    0  0.00000000000E+00 -0.00000000000E+00 -0.91326583685E+03  0.91326583685E+03  0.00000000000E+00 0. -1.
         23    2    1    2    0    0  0.65759161845E+02  0.62615158592E+03  0.13873797103E+04  0.15267470679E+04  0.98712070329E+02 0.  0.
        254    2    1    2    0    0 -0.65759161845E+02 -0.62615158592E+03 -0.48618249557E+03  0.12009818205E+04  0.89977432635E+03 0.  0.
        -24    2    4    4    0    0 -0.48109921057E+02  0.21755317414E+03 -0.18853179776E+03  0.30274719683E+03  0.80421877248E+02 0.  0.
         24    2    4    4    0    0 -0.17649240788E+02 -0.84370476006E+03 -0.29765069781E+03  0.89823462371E+03  0.77976172545E+02 0.  0.
         11    1    3    3    0    0  0.16741586701E+02  0.13085637811E+03  0.39685966276E+03  0.41821198494E+03  0.00000000000E+00 0. -1.
        -11    1    3    3    0    0  0.49017575144E+02  0.49529520781E+03  0.99052004750E+03  0.11085350829E+04  0.00000000000E+00 0.  1.
          4    1    6    6  502    0 -0.47894266849E+02 -0.59759352587E+03 -0.20840119268E+03  0.63469909412E+03  0.00000000000E+00 0. -1.
          3    1    5    5  503    0 -0.18558807169E+02  0.21069374226E+02 -0.59613530090E+02  0.65894770837E+02  0.00000000000E+00 0. -1.
         -4    1    5    5    0  503 -0.29551113888E+02  0.19648379991E+03 -0.12891826767E+03  0.23685242599E+03  0.00000000000E+00 0.  1.
         -1    1    6    6    0  502  0.30245026061E+02 -0.24611123418E+03 -0.89249505125E+02  0.26353552959E+03  0.00000000000E+00 0.  1.
<mgrwt>
<rscale>  0 0.25745579E+04</rscale>
<asrwt>0</asrwt>
<pdfrwt beam="1">  1        2 0.14050244E+00 0.25745579E+04</pdfrwt>
<pdfrwt beam="2">  1       -2 0.27914816E+00 0.25745579E+04</pdfrwt>
<totfact> 0.10851159E+00</totfact>
</mgrwt>
</event>
<event>
12    1  0.1518126E-007  0.1688807E+04  0.7818608E-02  0.8767774E-01
          2   -1    0    0  501    0  0.00000000000E+00  0.00000000000E+00  0.32775304123E+04  0.32775304123E+04  0.00000000000E+00 0. -1.
         -2   -1    0    0    0  501 -0.00000000000E+00 -0.00000000000E+00 -0.21754712560E+03  0.21754712560E+03  0.00000000000E+00 0.  1.
         23    2    1    2    0    0 -0.19389568742E+03 -0.51576053124E+03  0.58754849112E+03  0.81087954397E+03  0.93316355656E+02 0.  0.
        254    2    1    2    0    0  0.19389568742E+03  0.51576053124E+03  0.24724347956E+04  0.26841979939E+04  0.88790798453E+03 0.  0.
        -24    2    4    4    0    0  0.19729279965E+03  0.62911450859E+03  0.97113056926E+03  0.11764503464E+04  0.78938718665E+02 0.  0.
         24    2    4    4    0    0 -0.33971122376E+01 -0.11335397735E+03  0.15013042263E+04  0.15077476475E+04  0.80795569583E+02 0.  0.
         11    1    3    3    0    0 -0.11639980885E+03 -0.27786861841E+03  0.38570212131E+03  0.48941394645E+03  0.00000000000E+00 0.  1.
        -11    1    3    3    0    0 -0.77495878569E+02 -0.23789191284E+03  0.20184636981E+03  0.32146559753E+03  0.00000000000E+00 0. -1.
          2    1    6    6  502    0  0.56623038425E+00 -0.36229009816E+01  0.56722013319E+03  0.56723198563E+03  0.00000000000E+00 0. -1.
          3    1    5    5  503    0  0.18725402432E+03  0.62562002130E+03  0.95997786807E+03  0.11610434909E+04  0.00000000000E+00 0. -1.
         -4    1    5    5    0  503  0.10038775333E+02  0.34944872930E+01  0.11152701189E+02  0.15406855469E+02  0.00000000000E+00 0.  1.
         -1    1    6    6    0  502 -0.39633426218E+01 -0.10973107637E+03  0.93408409311E+03  0.94051566186E+03  0.00000000000E+00 0.  1.
<mgrwt>
<rscale>  0 0.16888071E+04</rscale>
<asrwt>0</asrwt>
<pdfrwt beam="1">  1        2 0.50423541E+00 0.16888071E+04</pdfrwt>
<pdfrwt beam="2">  1       -2 0.33468791E-01 0.16888071E+04</pdfrwt>
<totfact> 0.92311795E+00</totfact>
</mgrwt>
</event>
<event>
12    1  0.1518126E-007  0.2518310E+04  0.7818608E-02  0.8396492E-01
         -2   -1    0    0    0  501 -0.00000000000E+00  0.00000000000E+00  0.59126622789E+03  0.59126622789E+03  0.00000000000E+00 0.  1.
          2   -1    0    0  501    0  0.00000000000E+00 -0.00000000000E+00 -0.26814836329E+04  0.26814836329E+04  0.00000000000E+00 0. -1.
         23    2    1    2    0    0 -0.20526229398E+03 -0.10286714667E+04 -0.44036709140E+03  0.11412976521E+04  0.91321190289E+02 0.  0.
        254    2    1    2    0    0  0.20526229398E+03  0.10286714667E+04 -0.16498503136E+04  0.21314522087E+04  0.84899049758E+03 0.  0.
        -24    2    4    4    0    0  0.48531362029E+03  0.68705539081E+03 -0.13464664557E+04  0.15896413625E+04  0.80083238497E+02 0.  0.
         24    2    4    4    0    0 -0.28005132631E+03  0.34161607587E+03 -0.30338385795E+03  0.54181084620E+03  0.79918327914E+02 0.  0.
         13    1    3    3    0    0 -0.80461539979E+02 -0.33790671797E+03 -0.19077891161E+03  0.39629736635E+03  0.00000000000E+00 0.  1.
        -13    1    3    3    0    0 -0.12480075400E+03 -0.69076474871E+03 -0.24958817979E+03  0.74500028574E+03  0.00000000000E+00 0. -1.
          4    1    6    6  502    0 -0.28420650723E+03  0.34096950571E+03 -0.29670030475E+03  0.53391442518E+03  0.00000000000E+00 0. -1.
          3    1    5    5  503    0  0.40049621261E+03  0.53760456012E+03 -0.11208983823E+04  0.13060739117E+04  0.00000000000E+00 0. -1.
         -4    1    5    5    0  503  0.84817407679E+02  0.14945083069E+03 -0.22556807341E+03  0.28356745085E+03  0.00000000000E+00 0.  1.
         -3    1    6    6    0  502  0.41551809237E+01  0.64657015280E+00 -0.66835532024E+01  0.78964210172E+01  0.00000000000E+00 0.  1.
<mgrwt>
<rscale>  0 0.25183095E+04</rscale>
<asrwt>0</asrwt>
<pdfrwt beam="1">  1        2 0.41253595E+00 0.25183095E+04</pdfrwt>
<pdfrwt beam="2">  1       -2 0.90964033E-01 0.25183095E+04</pdfrwt>
<totfact> 0.25006749E+00</totfact>
</mgrwt>
</event>
<event>
12    1  0.1518126E-007  0.1160503E+04  0.7818608E-02  0.9148148E-01
         -1   -1    0    0    0  501 -0.00000000000E+00  0.00000000000E+00  0.27219717829E+03  0.27219717829E+03  0.00000000000E+00 0.  1.
          1   -1    0    0  501    0  0.00000000000E+00 -0.00000000000E+00 -0.12369413787E+04  0.12369413787E+04  0.00000000000E+00 0. -1.
         23    2    1    2    0    0 -0.75178980331E+02  0.10984385076E+03  0.21086794344E+02  0.16278654868E+03  0.91308580659E+02 0.  0.
        254    2    1    2    0    0  0.75178980331E+02 -0.10984385076E+03 -0.98583099474E+03  0.13463520083E+04  0.90723945539E+03 0.  0.
        -24    2    4    4    0    0  0.37372851698E+03 -0.32141049168E+03 -0.76100920655E+03  0.91032984583E+03  0.81164691651E+02 0.  0.
         24    2    4    4    0    0 -0.29854953665E+03  0.21156664092E+03 -0.22482178819E+03  0.43602216247E+03  0.75353966942E+02 0.  0.
         11    1    3    3    0    0 -0.94465305391E+02  0.71475275459E+02  0.14547027099E+02  0.11934833439E+03  0.00000000000E+00 0.  1.
        -11    1    3    3    0    0  0.19286325060E+02  0.38368575302E+02  0.65397672444E+01  0.43438214289E+02  0.00000000000E+00 0. -1.
          2    1    6    6  502    0 -0.15965313475E+03  0.14460472581E+03 -0.16198209241E+03  0.26951409689E+03  0.00000000000E+00 0. -1.
          3    1    5    5  503    0  0.19180770614E+03 -0.17620222533E+03 -0.32914269183E+03  0.41972887908E+03  0.00000000000E+00 0. -1.
         -4    1    5    5    0  503  0.18192081084E+03 -0.14520826635E+03 -0.43186651472E+03  0.49060096675E+03  0.00000000000E+00 0.  1.
         -1    1    6    6    0  502 -0.13889640190E+03  0.66961915114E+02 -0.62839695778E+02  0.16650806558E+03  0.00000000000E+00 0.  1.
<mgrwt>
<rscale>  0 0.11605033E+04</rscale>
<asrwt>0</asrwt>
<pdfrwt beam="1">  1        1 0.19029867E+00 0.11605033E+04</pdfrwt>
<pdfrwt beam="2">  1       -1 0.41876489E-01 0.11605033E+04</pdfrwt>
<totfact> 0.55769747E+01</totfact>
</mgrwt>
</event>
<event>
12    1  0.1518126E-007  0.1067965E+04  0.7818608E-02  0.9236990E-01
         -1   -1    0    0    0  501 -0.00000000000E+00  0.00000000000E+00  0.96311957720E+02  0.96311957720E+02  0.00000000000E+00 0.  1.
          1   -1    0    0  501    0  0.00000000000E+00 -0.00000000000E+00 -0.29605624883E+04  0.29605624883E+04  0.00000000000E+00 0. -1.
         23    2    1    2    0    0  0.45366257681E+02 -0.10320154544E+03 -0.23313830447E+03  0.27480999436E+03  0.91969601889E+02 0.  0.
        254    2    1    2    0    0 -0.45366257681E+02  0.10320154544E+03 -0.26311122261E+04  0.27820644517E+04  0.89689598644E+03 0.  0.
        -24    2    4    4    0    0 -0.32980329324E+03  0.23559947511E+03 -0.61807942625E+03  0.74328746295E+03  0.78592305671E+02 0.  0.
         24    2    4    4    0    0  0.28443703555E+03 -0.13239792967E+03 -0.20130327999E+04  0.20387769887E+04  0.76661055579E+02 0.  0.
         13    1    3    3    0    0  0.22499987124E+02  0.10526456248E+02 -0.72700011834E+02  0.76826736378E+02  0.00000000000E+00 0. -1.
        -13    1    3    3    0    0  0.22866270557E+02 -0.11372800169E+03 -0.16043829264E+03  0.19798325799E+03  0.00000000000E+00 0.  1.
          4    1    6    6  502    0  0.23752172112E+03 -0.10858599560E+03 -0.18223499210E+04  0.18409689626E+04  0.00000000000E+00 0. -1.
          1    1    5    5  503    0 -0.15723004071E+03  0.65176983838E+02 -0.24617392335E+03  0.29928402140E+03  0.00000000000E+00 0. -1.
         -2    1    5    5    0  503 -0.17257325253E+03  0.17042249128E+03 -0.37190550290E+03  0.44400344155E+03  0.00000000000E+00 0.  1.
         -3    1    6    6    0  502  0.46915314433E+02 -0.23811934075E+02 -0.19068287884E+03  0.19780802616E+03  0.00000000000E+00 0.  1.
<mgrwt>
<rscale>  0 0.10679655E+04</rscale>
<asrwt>0</asrwt>
<pdfrwt beam="1">  1        1 0.45547111E+00 0.10679655E+04</pdfrwt>
<pdfrwt beam="2">  1       -1 0.14817226E-01 0.10679655E+04</pdfrwt>
<totfact> 0.21797352E+01</totfact>
</mgrwt>
</event>
<event>
12    1  0.1518126E-007  0.2421032E+04  0.7818608E-02  0.8431671E-01
          1   -1    0    0  501    0  0.00000000000E+00  0.00000000000E+00  0.20024420181E+04  0.20024420181E+04  0.00000000000E+00 0. -1.
         -1   -1    0    0    0  501 -0.00000000000E+00 -0.00000000000E+00 -0.73178069700E+03  0.73178069700E+03  0.00000000000E+00 0.  1.
         23    2    1    2    0    0  0.19389985941E+03 -0.42051871962E+01  0.16853351008E+04  0.16986022654E+04  0.85325347811E+02 0.  0.
        254    2    1    2    0    0 -0.19389985941E+03  0.42051871962E+01 -0.41467377968E+03  0.10356204497E+04  0.92894592588E+03 0.  0.
        -24    2    4    4    0    0  0.32649081139E+03 -0.11039709071E+03 -0.34124878764E+03  0.49175057281E+03  0.81142610459E+02 0.  0.
         24    2    4    4    0    0 -0.52039067080E+03  0.11460227790E+03 -0.73424992042E+02  0.54386987690E+03  0.80393290674E+02 0.  0.
         13    1    3    3    0    0  0.19105940992E+03  0.96661169319E+01  0.14119630561E+04  0.14248637843E+04  0.00000000000E+00 0. -1.
        -13    1    3    3    0    0  0.28404494898E+01 -0.13871304128E+02  0.27337204464E+03  0.27373848107E+03  0.00000000000E+00 0.  1.
          4    1    6    6  502    0 -0.36653856571E+03  0.11548176195E+03 -0.65233558448E+02  0.38979735074E+03  0.00000000000E+00 0. -1.
          3    1    5    5  503    0  0.24373526935E+03 -0.54869563611E+02 -0.27775438261E+03  0.37358405693E+03  0.00000000000E+00 0. -1.
         -4    1    5    5    0  503  0.82755542036E+02 -0.55527527096E+02 -0.63494405031E+02  0.11816651587E+03  0.00000000000E+00 0.  1.
         -3    1    6    6    0  502 -0.15385210509E+03 -0.87948404564E+00 -0.81914335942E+01  0.15407252616E+03  0.00000000000E+00 0.  1.
<mgrwt>
<rscale>  0 0.24210315E+04</rscale>
<asrwt>0</asrwt>
<pdfrwt beam="1">  1        1 0.30806800E+00 0.24210315E+04</pdfrwt>
<pdfrwt beam="2">  1       -1 0.11258165E+00 0.24210315E+04</pdfrwt>
<totfact> 0.19174882E+00</totfact>
</mgrwt>
</event>
<event>
12    1  0.1518126E-007  0.1223595E+04  0.7818608E-02  0.9092451E-01
         -2   -1    0    0    0  501 -0.00000000000E+00  0.00000000000E+00  0.30215767798E+03  0.30215767798E+03  0.00000000000E+00 0. -1.
          2   -1    0    0  501    0  0.00000000000E+00 -0.00000000000E+00 -0.12387454345E+04  0.12387454345E+04  0.00000000000E+00 0.  1.
         23    2    1    2    0    0 -0.74697764814E+01 -0.98169759609E+02  0.95427967544E+02  0.16714080033E+03  0.95584783750E+02 0.  0.
        254    2    1    2    0    0  0.74697764814E+01  0.98169759609E+02 -0.10320157240E+04  0.13737623121E+04  0.90137302837E+03 0.  0.
        -24    2    4    4    0    0  0.39078160638E+02  0.48416897455E+03 -0.71039879387E+03  0.86398163331E+03  0.76492599729E+02 0.  0.
         24    2    4    4    0    0 -0.31608384157E+02 -0.38599921494E+03 -0.32161693015E+03  0.50978067879E+03  0.80277062880E+02 0.  0.
         13    1    3    3    0    0 -0.26817563917E+02 -0.86000012581E+02  0.25576493291E+02  0.93644759103E+02  0.00000000000E+00 0.  1.
        -13    1    3    3    0    0  0.19347787436E+02 -0.12169747027E+02  0.69851474253E+02  0.73496041231E+02  0.00000000000E+00 0. -1.
          4    1    6    6  502    0 -0.16845333965E+02 -0.53803528934E+02 -0.83665316416E+02  0.10088840455E+03  0.00000000000E+00 0. -1.
          1    1    5    5  503    0 -0.11768639101E+02  0.28261695957E+03 -0.38203776006E+03  0.47535638926E+03  0.00000000000E+00 0. -1.
         -2    1    5    5    0  503  0.50846799739E+02  0.20155201498E+03 -0.32836103381E+03  0.38862524405E+03  0.00000000000E+00 0.  1.
         -3    1    6    6    0  502 -0.14763050191E+02 -0.33219568601E+03 -0.23795161373E+03  0.40889227424E+03  0.00000000000E+00 0.  1.
<mgrwt>
<rscale>  0 0.12235954E+04</rscale>
<asrwt>0</asrwt>
<pdfrwt beam="1">  1        2 0.19057622E+00 0.12235954E+04</pdfrwt>
<pdfrwt beam="2">  1       -2 0.46485797E-01 0.12235954E+04</pdfrwt>
<totfact> 0.77604950E+01</totfact>
</mgrwt>
</event>
<event>
12    1  0.1518126E-007  0.2949556E+04  0.7818608E-02  0.8258284E-01
          2   -1    0    0  501    0  0.00000000000E+00  0.00000000000E+00  0.26164446810E+04  0.26164446810E+04  0.00000000000E+00 0. -1.
         -2   -1    0    0    0  501 -0.00000000000E+00 -0.00000000000E+00 -0.83126920878E+03  0.83126920878E+03  0.00000000000E+00 0.  1.
         23    2    1    2    0    0  0.12369304236E+04  0.46310831236E+03  0.10041309855E+04  0.16620214350E+04  0.97826544061E+02 0.  0.
        254    2    1    2    0    0 -0.12369304236E+04 -0.46310831236E+03  0.78104448672E+03  0.17856924548E+04  0.91334597553E+03 0.  0.
        -24    2    4    4    0    0 -0.14690698139E+03 -0.46472208548E+03  0.37271294168E+03  0.61888981995E+03  0.81002434726E+02 0.  0.
         24    2    4    4    0    0 -0.10900234422E+04  0.16137731198E+01  0.40833154504E+03  0.11668026348E+04  0.80870446714E+02 0.  0.
         11    1    3    3    0    0  0.12003389643E+04  0.43533791437E+03  0.98328011684E+03  0.16115745459E+04  0.00000000000E+00 0. -1.
        -11    1    3    3    0    0  0.36591459274E+02  0.27770397989E+02  0.20850868649E+02  0.50446889099E+02  0.00000000000E+00 0.  1.
          2    1    6    6  502    0 -0.51105470056E+03 -0.23920638231E+02  0.15741265759E+03  0.53528296130E+03  0.00000000000E+00 0. -1.
          3    1    5    5  503    0 -0.45941339425E+02 -0.57345697961E+02  0.42729290371E+02  0.84999576460E+02  0.00000000000E+00 0. -1.
         -4    1    5    5    0  503 -0.10096564196E+03 -0.40737638752E+03  0.32998365131E+03  0.53389024349E+03  0.00000000000E+00 0.  1.
         -1    1    6    6    0  502 -0.57896874162E+03  0.25534411351E+02  0.25091888745E+03  0.63151967350E+03  0.00000000000E+00 0.  1.
<mgrwt>
<rscale>  0 0.29495558E+04</rscale>
<asrwt>0</asrwt>
<pdfrwt beam="1">  1        2 0.40252995E+00 0.29495558E+04</pdfrwt>
<pdfrwt beam="2">  1       -2 0.12788757E+00 0.29495558E+04</pdfrwt>
<totfact> 0.11577053E+00</totfact>
</mgrwt>
</event>
<event>
12    1  0.1518126E-007  0.1675909E+04  0.7818608E-02  0.8775225E-01
         -1   -1    0    0    0  501 -0.00000000000E+00  0.00000000000E+00  0.37067105002E+03  0.37067105002E+03  0.00000000000E+00 0.  1.
          1   -1    0    0  501    0  0.00000000000E+00 -0.00000000000E+00 -0.18943144636E+04  0.18943144636E+04  0.00000000000E+00 0. -1.
         23    2    1    2    0    0  0.39306831174E+03  0.23410193127E+03 -0.42538121286E+02  0.46905479343E+03  0.94321235998E+02 0.  0.
        254    2    1    2    0    0 -0.39306831174E+03 -0.23410193127E+03 -0.14811052923E+04  0.17959307201E+04  0.90685602655E+03 0.  0.
        -24    2    4    4    0    0 -0.13014203138E+03  0.10399446480E+03 -0.13179043793E+04  0.13306989235E+04  0.78331825478E+02 0.  0.
         24    2    4    4    0    0 -0.26292628036E+03 -0.33809639606E+03 -0.16320091292E+03  0.46523179665E+03  0.79791507680E+02 0.  0.
         11    1    3    3    0    0  0.24632498467E+03  0.17934713356E+03 -0.62861833553E+02  0.31111573812E+03  0.00000000000E+00 0. -1.
        -11    1    3    3    0    0  0.14674332707E+03  0.54754797702E+02  0.20323712267E+02  0.15793905530E+03  0.00000000000E+00 0.  1.
          2    1    6    6  502    0 -0.83170773021E+02 -0.57611406044E+02 -0.53774321442E+02  0.11457804867E+03  0.00000000000E+00 0. -1.
          1    1    5    5  503    0 -0.14870716276E+02  0.47211864762E+01 -0.39759238259E+03  0.39789839218E+03  0.00000000000E+00 0. -1.
         -2    1    5    5    0  503 -0.11527131510E+03  0.99273278320E+02 -0.92031199675E+03  0.93280053132E+03  0.00000000000E+00 0.  1.
         -1    1    6    6    0  502 -0.17975550734E+03 -0.28048499002E+03 -0.10942659147E+03  0.35065374797E+03  0.00000000000E+00 0.  1.
<mgrwt>
<rscale>  0 0.16759087E+04</rscale>
<asrwt>0</asrwt>
<pdfrwt beam="1">  1        1 0.29143298E+00 0.16759087E+04</pdfrwt>
<pdfrwt beam="2">  1       -1 0.57026317E-01 0.16759087E+04</pdfrwt>
<totfact> 0.10437174E+01</totfact>
</mgrwt>
</event>
<event>
12    1  0.1518126E-007  0.2326783E+04  0.7818608E-02  0.8467435E-01
         -1   -1    0    0    0  501 -0.00000000000E+00  0.00000000000E+00  0.95266635106E+03  0.95266635106E+03  0.00000000000E+00 0.  1.
          1   -1    0    0  501    0  0.00000000000E+00 -0.00000000000E+00 -0.14207285809E+04  0.14207285809E+04  0.00000000000E+00 0. -1.
         23    2    1    2    0    0  0.10680572260E+03  0.68046828844E+03  0.54835471555E+03  0.88491818498E+03  0.89122085373E+02 0.  0.
        254    2    1    2    0    0 -0.10680572260E+03 -0.68046828844E+03 -0.10164169454E+04  0.14884767470E+04  0.84143631100E+03 0.  0.
        -24    2    4    4    0    0 -0.18933848606E+03 -0.64628518274E+03 -0.11333819109E+04  0.13207738490E+04  0.79720791979E+02 0.  0.
         24    2    4    4    0    0  0.82532763458E+02 -0.34183105698E+02  0.11696496548E+03  0.16770289794E+03  0.80394757716E+02 0.  0.
         11    1    3    3    0    0  0.31395071913E+02  0.45138594740E+03  0.37880763999E+03  0.59011028813E+03  0.00000000000E+00 0.  1.
        -11    1    3    3    0    0  0.75410650691E+02  0.22908234104E+03  0.16954707556E+03  0.29480789685E+03  0.00000000000E+00 0. -1.
          4    1    6    6  502    0  0.62892446519E+02 -0.57104207545E+02  0.10541600900E+03  0.13538421363E+03  0.00000000000E+00 0. -1.
          1    1    5    5  503    0 -0.37396703950E+02 -0.19162485899E+03 -0.39163063109E+03  0.43759930445E+03  0.00000000000E+00 0. -1.
         -2    1    5    5    0  503 -0.15194178211E+03 -0.45466032375E+03 -0.74175127979E+03  0.88317454459E+03  0.00000000000E+00 0.  1.
         -3    1    6    6    0  502  0.19640316939E+02  0.22921101847E+02  0.11548956482E+02  0.32318684305E+02  0.00000000000E+00 0.  1.
<mgrwt>
<rscale>  0 0.23267835E+04</rscale>
<asrwt>0</asrwt>
<pdfrwt beam="1">  1        1 0.21857363E+00 0.23267835E+04</pdfrwt>
<pdfrwt beam="2">  1       -1 0.14656405E+00 0.23267835E+04</pdfrwt>
<totfact> 0.24879154E+00</totfact>
</mgrwt>
</event>
<event>
12    1  0.1518126E-007  0.1592073E+04  0.7818608E-02  0.8825433E-01
          2   -1    0    0  501    0  0.00000000000E+00  0.00000000000E+00  0.60423662534E+03  0.60423662534E+03  0.00000000000E+00 0. -1.
         -2   -1    0    0    0  501 -0.00000000000E+00 -0.00000000000E+00 -0.10487182223E+04  0.10487182223E+04  0.00000000000E+00 0.  1.
         23    2    1    2    0    0  0.24317435449E+03  0.65439553544E+02  0.34288298605E+03  0.43518120683E+03  0.91639722881E+02 0.  0.
        254    2    1    2    0    0 -0.24317435449E+03 -0.65439553544E+02 -0.78736458305E+03  0.12177736408E+04  0.89421113383E+03 0.  0.
        -24    2    4    4    0    0 -0.19441783466E+03 -0.20459228472E+02 -0.97777980159E+03  0.10003177065E+04  0.79782823891E+02 0.  0.
         24    2    4    4    0    0 -0.48756519828E+02 -0.44980325072E+02  0.19041521854E+03  0.21745593439E+03  0.81416829215E+02 0.  0.
         11    1    3    3    0    0  0.21983572265E+03  0.45083870513E+02  0.24374316835E+03  0.33131711766E+03  0.00000000000E+00 0. -1.
        -11    1    3    3    0    0  0.23338631839E+02  0.20355683031E+02  0.99139817694E+02  0.10386408918E+03  0.00000000000E+00 0.  1.
          2    1    6    6  502    0 -0.84473732576E+01 -0.49097358268E+02  0.47230683524E+02  0.68648715720E+02  0.00000000000E+00 0. -1.
          3    1    5    5  503    0 -0.28398420114E+02  0.42363676826E+01 -0.32639483020E+03  0.32765531014E+03  0.00000000000E+00 0. -1.
         -4    1    5    5    0  503 -0.16601941455E+03 -0.24695596155E+02 -0.65138497139E+03  0.67266239632E+03  0.00000000000E+00 0.  1.
         -1    1    6    6    0  502 -0.40309146571E+02  0.41170331965E+01  0.14318453502E+03  0.14880721867E+03  0.00000000000E+00 0.  1.
<mgrwt>
<rscale>  0 0.15920728E+04</rscale>
<asrwt>0</asrwt>
<pdfrwt beam="1">  1        2 0.92959481E-01 0.15920728E+04</pdfrwt>
<pdfrwt beam="2">  1       -2 0.16134126E+00 0.15920728E+04</pdfrwt>
<totfact> 0.11607733E+01</totfact>
</mgrwt>
</event>
<event>
12    1  0.1518126E-007  0.1092159E+04  0.7818608E-02  0.9212868E-01
         -1   -1    0    0    0  501 -0.00000000000E+00  0.00000000000E+00  0.19228949780E+03  0.19228949780E+03  0.00000000000E+00 0.  1.
          1   -1    0    0  501    0  0.00000000000E+00 -0.00000000000E+00 -0.15508020879E+04  0.15508020879E+04  0.00000000000E+00 0. -1.
         23    2    1    2    0    0 -0.88648070972E+02 -0.11693084026E+03 -0.19194756762E+03  0.25980416584E+03  0.95514574730E+02 0.  0.
        254    2    1    2    0    0  0.88648070972E+02  0.11693084026E+03 -0.11665650225E+04  0.14832874198E+04  0.90428773979E+03 0.  0.
        -24    2    4    4    0    0 -0.33471531102E+03  0.28041340709E+03 -0.69247233793E+03  0.82214897087E+03  0.75795601420E+02 0.  0.
         24    2    4    4    0    0  0.42336338199E+03 -0.16348256683E+03 -0.47409268452E+03  0.66113844896E+03  0.79856573342E+02 0.  0.
         11    1    3    3    0    0 -0.10043368210E+03 -0.74962081973E+02 -0.16941950167E+03  0.21073491828E+03  0.00000000000E+00 0. -1.
        -11    1    3    3    0    0  0.11785611130E+02 -0.41968758284E+02 -0.22528065944E+02  0.49069247567E+02  0.00000000000E+00 0.  1.
          4    1    6    6  502    0  0.33939892388E+03 -0.10213463935E+03 -0.39339094966E+03  0.52950878497E+03  0.00000000000E+00 0. -1.
          1    1    5    5  503    0 -0.34853657057E+02  0.36220865013E+02 -0.42455659457E+02  0.65796743783E+02  0.00000000000E+00 0. -1.
         -2    1    5    5    0  503 -0.29986165396E+03  0.24419254208E+03 -0.65001667848E+03  0.75635222709E+03  0.00000000000E+00 0.  1.
         -3    1    6    6    0  502  0.83964458110E+02 -0.61347927484E+02 -0.80701734868E+02  0.13162966399E+03  0.00000000000E+00 0.  1.
<mgrwt>
<rscale>  0 0.10921592E+04</rscale>
<asrwt>0</asrwt>
<pdfrwt beam="1">  1        1 0.23858494E+00 0.10921592E+04</pdfrwt>
<pdfrwt beam="2">  1       -1 0.29582999E-01 0.10921592E+04</pdfrwt>
<totfact> 0.62898422E+01</totfact>
</mgrwt>
</event>
<event>
12    1  0.1518126E-007  0.1207688E+04  0.7818608E-02  0.9106154E-01
         -1   -1    0    0    0  501 -0.00000000000E+00  0.00000000000E+00  0.49158968122E+03  0.49158968122E+03  0.00000000000E+00 0.  1.
          1   -1    0    0  501    0  0.00000000000E+00 -0.00000000000E+00 -0.74173183242E+03  0.74173183242E+03  0.00000000000E+00 0. -1.
         23    2    1    2    0    0 -0.25802529544E+03 -0.30375704489E+02  0.67289306482E+02  0.28310983321E+03  0.90130962401E+02 0.  0.
        254    2    1    2    0    0  0.25802529544E+03  0.30375704489E+02 -0.31743145768E+03  0.95021168042E+03  0.85711129427E+03 0.  0.
        -24    2    4    4    0    0  0.28203651163E+03  0.18879155572E+03  0.20040499706E+03  0.40217558680E+03  0.79976211290E+02 0.  0.
         24    2    4    4    0    0 -0.24011216182E+02 -0.15841585123E+03 -0.51783645474E+03  0.54803609361E+03  0.80726981980E+02 0.  0.
         11    1    3    3    0    0 -0.14164488267E+03 -0.56055479838E+02  0.15353363345E+02  0.15310524280E+03  0.00000000000E+00 0. -1.
        -11    1    3    3    0    0 -0.11638041277E+03  0.25679775349E+02  0.51935943137E+02  0.13000459042E+03  0.00000000000E+00 0.  1.
          2    1    6    6  502    0  0.94221449214E+01 -0.14044711350E+03 -0.38697680131E+03  0.41178296864E+03  0.00000000000E+00 0. -1.
          1    1    5    5  503    0  0.27483080877E+03  0.19556234527E+03  0.18750019499E+03  0.38591829117E+03  0.00000000000E+00 0. -1.
         -2    1    5    5    0  503  0.72057028563E+01 -0.67707895531E+01  0.12904802073E+02  0.16257295635E+02  0.00000000000E+00 0.  1.
         -1    1    6    6    0  502 -0.33433361104E+02 -0.17968737734E+02 -0.13085965343E+03  0.13625312498E+03  0.00000000000E+00 0.  1.
<mgrwt>
<rscale>  0 0.12076882E+04</rscale>
<asrwt>0</asrwt>
<pdfrwt beam="1">  1        1 0.11411259E+00 0.12076882E+04</pdfrwt>
<pdfrwt beam="2">  1       -1 0.75629181E-01 0.12076882E+04</pdfrwt>
<totfact> 0.43324937E+01</totfact>
</mgrwt>
</event>
<event>
12    1  0.1518126E-007  0.1619538E+04  0.7818608E-02  0.8808634E-01
         -1   -1    0    0    0  501 -0.00000000000E+00  0.00000000000E+00  0.33415475641E+03  0.33415475641E+03  0.00000000000E+00 0.  1.
          1   -1    0    0  501    0  0.00000000000E+00 -0.00000000000E+00 -0.19623419894E+04  0.19623419894E+04  0.00000000000E+00 0. -1.
         23    2    1    2    0    0  0.48162498720E+03 -0.17784459169E+03 -0.85123880076E+03  0.99828184460E+03  0.91475779611E+02 0.  0.
        254    2    1    2    0    0 -0.48162498720E+03  0.17784459169E+03 -0.77694843223E+03  0.12982149012E+04  0.90450082162E+03 0.  0.
        -24    2    4    4    0    0 -0.31678828282E+03  0.29975121024E+03 -0.92908698865E+03  0.10302148580E+04  0.89075343983E+02 0.  0.
         24    2    4    4    0    0 -0.16483670438E+03 -0.12190661855E+03  0.15213855641E+03  0.26800004327E+03  0.81520059407E+02 0.  0.
         11    1    3    3    0    0  0.43541802250E+03 -0.14365964358E+03 -0.70317872290E+03  0.83945652886E+03  0.00000000000E+00 0. -1.
        -11    1    3    3    0    0  0.46206964702E+02 -0.34184948113E+02 -0.14806007786E+03  0.15882531574E+03  0.00000000000E+00 0.  1.
          2    1    6    6  502    0 -0.33874182847E+02 -0.52136297916E+01  0.61864911761E+02  0.70724179079E+02  0.00000000000E+00 0. -1.
          1    1    5    5  503    0 -0.12594996363E+03  0.11105311674E+03 -0.46126736095E+03  0.49088060295E+03  0.00000000000E+00 0. -1.
         -2    1    5    5    0  503 -0.19083831919E+03  0.18869809350E+03 -0.46781962770E+03  0.53933425500E+03  0.00000000000E+00 0.  1.
         -1    1    6    6    0  502 -0.13096252153E+03 -0.11669298876E+03  0.90273644651E+02  0.19727586419E+03  0.00000000000E+00 0.  1.
<mgrwt>
<rscale>  0 0.16195381E+04</rscale>
<asrwt>0</asrwt>
<pdfrwt beam="1">  1        1 0.30189877E+00 0.16195381E+04</pdfrwt>
<pdfrwt beam="2">  1       -1 0.51408424E-01 0.16195381E+04</pdfrwt>
<totfact> 0.11528667E+01</totfact>
</mgrwt>
</event>
<event>
12    1  0.1518126E-007  0.2872215E+04  0.7818608E-02  0.8281193E-01
          1   -1    0    0  501    0  0.00000000000E+00  0.00000000000E+00  0.24226186109E+04  0.24226186109E+04  0.00000000000E+00 0. -1.
         -1   -1    0    0    0  501 -0.00000000000E+00 -0.00000000000E+00 -0.85131220648E+03  0.85131220648E+03  0.00000000000E+00 0.  1.
         23    2    1    2    0    0 -0.11035972265E+04 -0.65685524390E+03  0.51729521895E+03  0.13874716971E+04  0.89987315700E+02 0.  0.
        254    2    1    2    0    0  0.11035972265E+04  0.65685524390E+03  0.10540111855E+04  0.18864591203E+04  0.89353387376E+03 0.  0.
        -24    2    4    4    0    0  0.72781505843E+03 -0.63303613937E+02  0.37540292676E+03  0.82492535012E+03  0.76500777954E+02 0.  0.
         24    2    4    4    0    0  0.37578216808E+03  0.72015885784E+03  0.67860825874E+03  0.10615337702E+04  0.80645880332E+02 0.  0.
         11    1    3    3    0    0 -0.89832578390E+03 -0.55143591547E+03  0.45760170066E+03  0.11491170956E+04  0.00000000000E+00 0.  1.
        -11    1    3    3    0    0 -0.20527144261E+03 -0.10541932843E+03  0.59693518295E+02  0.23835460156E+03  0.00000000000E+00 0. -1.
          4    1    6    6  502    0  0.31579665496E+03  0.61196864953E+03  0.61062083639E+03  0.92037544574E+03  0.00000000000E+00 0. -1.
          3    1    5    5  503    0  0.47803116740E+03 -0.54193681250E+02  0.20823300280E+03  0.52422489024E+03  0.00000000000E+00 0. -1.
         -4    1    5    5    0  503  0.24978389103E+03 -0.91099326873E+01  0.16716992396E+03  0.30070045988E+03  0.00000000000E+00 0.  1.
         -3    1    6    6    0  502  0.59985513118E+02  0.10819020831E+03  0.67987422355E+02  0.14115832443E+03  0.00000000000E+00 0.  1.
<mgrwt>
<rscale>  0 0.28722150E+04</rscale>
<asrwt>0</asrwt>
<pdfrwt beam="1">  1        1 0.37271055E+00 0.28722150E+04</pdfrwt>
<pdfrwt beam="2">  1       -1 0.13097111E+00 0.28722150E+04</pdfrwt>
<totfact> 0.65601917E-01</totfact>
</mgrwt>
</event>
<event>
12    1  0.1518126E-007  0.1715797E+04  0.7818608E-02  0.8752406E-01
         -2   -1    0    0    0  501 -0.00000000000E+00  0.00000000000E+00  0.23964142587E+03  0.23964142587E+03  0.00000000000E+00 0.  1.
          2   -1    0    0  501    0  0.00000000000E+00 -0.00000000000E+00 -0.30712128276E+04  0.30712128276E+04  0.00000000000E+00 0. -1.
         23    2    1    2    0    0 -0.34273887087E+03 -0.51479241073E+03 -0.98649732095E+03  0.11681513713E+04  0.94443116244E+02 0.  0.
        254    2    1    2    0    0  0.34273887087E+03  0.51479241073E+03 -0.18450740808E+04  0.21427028822E+04  0.89688132887E+03 0.  0.
        -24    2    4    4    0    0  0.21060476100E+03  0.22222100986E+03 -0.53844577981E+02  0.32118450409E+03  0.80769452832E+02 0.  0.
         24    2    4    4    0    0  0.13213410987E+03  0.29257140087E+03 -0.17912295028E+04  0.18215183781E+04  0.79803649589E+02 0.  0.
         11    1    3    3    0    0 -0.12947052779E+03 -0.19097000084E+03 -0.45613905841E+03  0.51117022546E+03  0.00000000000E+00 0. -1.
        -11    1    3    3    0    0 -0.21326834308E+03 -0.32382240989E+03 -0.53035826254E+03  0.65698114581E+03  0.00000000000E+00 0.  1.
          2    1    6    6  502    0  0.65168928226E+02  0.18159439622E+03 -0.12611271406E+04  0.12757998192E+04  0.00000000000E+00 0. -1.
          3    1    5    5  503    0  0.11859728985E+03  0.13166504094E+03 -0.71110651198E+02  0.19093906065E+03  0.00000000000E+00 0. -1.
         -4    1    5    5    0  503  0.92007471151E+02  0.90555968920E+02  0.17266073217E+02  0.13024544345E+03  0.00000000000E+00 0.  1.
         -1    1    6    6    0  502  0.66965181641E+02  0.11097700465E+03 -0.53010236219E+03  0.54571855888E+03  0.00000000000E+00 0.  1.
<mgrwt>
<rscale>  0 0.17157970E+04</rscale>
<asrwt>0</asrwt>
<pdfrwt beam="1">  1        2 0.47249429E+00 0.17157970E+04</pdfrwt>
<pdfrwt beam="2">  1       -2 0.36867911E-01 0.17157970E+04</pdfrwt>
<totfact> 0.10396030E+01</totfact>
</mgrwt>
</event>
<event>
12    1  0.1518126E-007  0.1240458E+04  0.7818608E-02  0.9078163E-01
          1   -1    0    0  501    0  0.00000000000E+00  0.00000000000E+00  0.17390390399E+04  0.17390390399E+04  0.00000000000E+00 0. -1.
         -1   -1    0    0    0  501 -0.00000000000E+00 -0.00000000000E+00 -0.22120481103E+03  0.22120481103E+03  0.00000000000E+00 0.  1.
         23    2    1    2    0    0  0.16413369575E+03 -0.22613022704E+03  0.25462009220E+03  0.38885232864E+03  0.91104294503E+02 0.  0.
        254    2    1    2    0    0 -0.16413369575E+03  0.22613022704E+03  0.12632141367E+04  0.15713915223E+04  0.89190056149E+03 0.  0.
        -24    2    4    4    0    0  0.14321063462E+03  0.29715776827E+03  0.85935934639E+02  0.35001724540E+03  0.79467365015E+02 0.  0.
         24    2    4    4    0    0 -0.30734433037E+03 -0.71027541223E+02  0.11772782020E+04  0.12213742769E+04  0.79156239571E+02 0.  0.
         13    1    3    3    0    0 -0.84026465794E+01  0.64268871392E+00  0.11662151135E+02  0.14388303841E+02  0.00000000000E+00 0. -1.
        -13    1    3    3    0    0  0.17253634233E+03 -0.22677291576E+03  0.24295794107E+03  0.37446402480E+03  0.00000000000E+00 0.  1.
          2    1    6    6  502    0 -0.26961583156E+03 -0.33581158102E+02  0.96221203558E+03  0.99983618270E+03  0.00000000000E+00 0. -1.
          1    1    5    5  503    0  0.13072147656E+03  0.29061588616E+03  0.95868685787E+02  0.33277094620E+03  0.00000000000E+00 0. -1.
         -2    1    5    5    0  503  0.12489158057E+02  0.65418821098E+01 -0.99327511477E+01  0.17246299194E+02  0.00000000000E+00 0.  1.
         -1    1    6    6    0  502 -0.37728498815E+02 -0.37446383121E+02  0.21506616645E+03  0.22153809420E+03  0.00000000000E+00 0.  1.
<mgrwt>
<rscale>  0 0.12404577E+04</rscale>
<asrwt>0</asrwt>
<pdfrwt beam="1">  1        1 0.26754446E+00 0.12404577E+04</pdfrwt>
<pdfrwt beam="2">  1       -1 0.34031511E-01 0.12404577E+04</pdfrwt>
<totfact> 0.36110074E+01</totfact>
</mgrwt>
</event>
<event>
12    1  0.1518126E-007  0.1764394E+04  0.7818608E-02  0.8725467E-01
          1   -1    0    0  501    0  0.00000000000E+00  0.00000000000E+00  0.84428014886E+03  0.84428014886E+03  0.00000000000E+00 0. -1.
         -1   -1    0    0    0  501 -0.00000000000E+00 -0.00000000000E+00 -0.92181621003E+03  0.92181621003E+03  0.00000000000E+00 0.  1.
         23    2    1    2    0    0  0.49204502446E+03 -0.21841018568E+03  0.34199951672E+03  0.64438095256E+03  0.91933820081E+02 0.  0.
        254    2    1    2    0    0 -0.49204502446E+03  0.21841018568E+03 -0.41953557789E+03  0.11217154063E+04  0.89018202428E+03 0.  0.
        -24    2    4    4    0    0  0.35296331033E+02  0.88893920145E+02 -0.54469794654E+03  0.55884399342E+03  0.80391516879E+02 0.  0.
         24    2    4    4    0    0 -0.52734135549E+03  0.12951626553E+03  0.12516236865E+03  0.56287141291E+03  0.79342552824E+02 0.  0.
         11    1    3    3    0    0  0.38054584661E+03 -0.15110001490E+03  0.21496698853E+03  0.46244692888E+03  0.00000000000E+00 0. -1.
        -11    1    3    3    0    0  0.11149917785E+03 -0.67310170777E+02  0.12703252819E+03  0.18193402368E+03  0.00000000000E+00 0.  1.
          4    1    6    6  502    0 -0.29219990448E+02  0.20494818762E+02 -0.64002096206E+01  0.36260282970E+02  0.00000000000E+00 0. -1.
          3    1    5    5  503    0 -0.59736202849E+01 -0.86541209787E+01 -0.14399511063E+03  0.14437856431E+03  0.00000000000E+00 0. -1.
         -4    1    5    5    0  503  0.41269951318E+02  0.97548041124E+02 -0.40070283592E+03  0.41446542910E+03  0.00000000000E+00 0.  1.
         -3    1    6    6    0  502 -0.49812136505E+03  0.10902144677E+03  0.13156257827E+03  0.52661112994E+03  0.00000000000E+00 0.  1.
<mgrwt>
<rscale>  0 0.17643935E+04</rscale>
<asrwt>0</asrwt>
<pdfrwt beam="1">  1        1 0.12988925E+00 0.17643935E+04</pdfrwt>
<pdfrwt beam="2">  1       -1 0.14181788E+00 0.17643935E+04</pdfrwt>
<totfact> 0.77677988E+00</totfact>
</mgrwt>
</event>
<event>
12    1  0.1518126E-007  0.1437982E+04  0.7818608E-02  0.8926775E-01
         -3   -1    0    0    0  501 -0.00000000000E+00  0.00000000000E+00  0.48324254146E+03  0.48324254146E+03  0.00000000000E+00 0.  1.
          3   -1    0    0  501    0  0.00000000000E+00 -0.00000000000E+00 -0.10697480380E+04  0.10697480380E+04  0.00000000000E+00 0. -1.
         23    2    1    2    0    0 -0.17357743509E+03 -0.28780688323E+03 -0.47914345846E+03  0.59221276193E+03  0.90418878561E+02 0.  0.
        254    2    1    2    0    0  0.17357743509E+03  0.28780688323E+03 -0.10736203807E+03  0.96077781752E+03  0.89364729027E+03 0.  0.
        -24    2    4    4    0    0  0.27990698915E+03  0.52218033259E+03 -0.25933995267E+03  0.65158500673E+03  0.79281697860E+02 0.  0.
         24    2    4    4    0    0 -0.10632955406E+03 -0.23437344937E+03  0.15197791460E+03  0.30919281079E+03  0.79158195315E+02 0.  0.
         13    1    3    3    0    0  0.36527760353E+01  0.28782472976E+01 -0.20489631477E+02  0.21010761012E+02  0.00000000000E+00 0.  1.
        -13    1    3    3    0    0 -0.17723021113E+03 -0.29068513052E+03 -0.45865382698E+03  0.57120200091E+03  0.00000000000E+00 0. -1.
          2    1    6    6  502    0 -0.12511864601E+02  0.30622877840E+01  0.18204540200E+01  0.13009166580E+02  0.00000000000E+00 0. -1.
          3    1    5    5  503    0  0.57337388112E+02  0.18458606136E+03 -0.78198712616E+02  0.20850570443E+03  0.00000000000E+00 0. -1.
         -4    1    5    5    0  503  0.22256960104E+03  0.33759427123E+03 -0.18114124005E+03  0.44307930230E+03  0.00000000000E+00 0.  1.
         -1    1    6    6    0  502 -0.93817689459E+02 -0.23743573715E+03  0.15015746058E+03  0.29618364421E+03  0.00000000000E+00 0.  1.
<mgrwt>
<rscale>  0 0.14379816E+04</rscale>
<asrwt>0</asrwt>
<pdfrwt beam="1">  1        3 0.16457662E+00 0.14379816E+04</pdfrwt>
<pdfrwt beam="2">  1       -3 0.74345007E-01 0.14379816E+04</pdfrwt>
<totfact> 0.11024365E+00</totfact>
</mgrwt>
</event>
<event>
12    1  0.1518126E-007  0.1117962E+04  0.7818608E-02  0.9187859E-01
          2   -1    0    0  501    0  0.00000000000E+00  0.00000000000E+00  0.94665289453E+03  0.94665289453E+03  0.00000000000E+00 0. -1.
         -2   -1    0    0    0  501 -0.00000000000E+00 -0.00000000000E+00 -0.33006819075E+03  0.33006819075E+03  0.00000000000E+00 0.  1.
         23    2    1    2    0    0  0.75848320222E+02 -0.36364377835E+02  0.30594548666E+03  0.32962979086E+03  0.89318657379E+02 0.  0.
        254    2    1    2    0    0 -0.75848320222E+02  0.36364377835E+02  0.31063921712E+03  0.94709129443E+03  0.89073557306E+03 0.  0.
        -24    2    4    4    0    0  0.10852035276E+03 -0.18216345988E+03 -0.23459072267E+03  0.32644935323E+03  0.81093649475E+02 0.  0.
         24    2    4    4    0    0 -0.18436867298E+03  0.21852783771E+03  0.54522993980E+03  0.62064194119E+03  0.78578040721E+02 0.  0.
         11    1    3    3    0    0  0.14862371862E+02 -0.24659280233E+02  0.22875967079E+03  0.23056443173E+03  0.00000000000E+00 0. -1.
        -11    1    3    3    0    0  0.60985948360E+02 -0.11705097603E+02  0.77185815872E+02  0.99065359128E+02  0.00000000000E+00 0.  1.
          2    1    6    6  502    0 -0.10614594844E+03  0.13800534713E+03  0.40624812629E+03  0.44198413809E+03  0.00000000000E+00 0. -1.
          3    1    5    5  503    0  0.20677274947E+02 -0.10929050713E+03 -0.13545626234E+03  0.17527225581E+03  0.00000000000E+00 0. -1.
         -4    1    5    5    0  503  0.87843077808E+02 -0.72872952749E+02 -0.99134460329E+02  0.15117709742E+03  0.00000000000E+00 0.  1.
         -1    1    6    6    0  502 -0.78222724542E+02  0.80522490585E+02  0.13898181351E+03  0.17865780310E+03  0.00000000000E+00 0.  1.
<mgrwt>
<rscale>  0 0.11179624E+04</rscale>
<asrwt>0</asrwt>
<pdfrwt beam="1">  1        2 0.14563891E+00 0.11179624E+04</pdfrwt>
<pdfrwt beam="2">  1       -2 0.50779722E-01 0.11179624E+04</pdfrwt>
<totfact> 0.99215733E+01</totfact>
</mgrwt>
</event>
<event>
12    1  0.1518126E-007  0.1536935E+04  0.7818608E-02  0.8860256E-01
          2   -1    0    0  501    0  0.00000000000E+00  0.00000000000E+00  0.27800491892E+04  0.27800491892E+04  0.00000000000E+00 0. -1.
         -2   -1    0    0    0  501 -0.00000000000E+00 -0.00000000000E+00 -0.21242151031E+03  0.21242151031E+03  0.00000000000E+00 0.  1.
         23    2    1    2    0    0 -0.19603946088E+03 -0.36945822139E+03  0.13245896357E+04  0.13924513653E+04  0.97222704163E+02 0.  0.
        254    2    1    2    0    0  0.19603946088E+03  0.36945822139E+03  0.12430380432E+04  0.16000193342E+04  0.91650828987E+03 0.  0.
        -24    2    4    4    0    0  0.49734285417E+03 -0.16228280683E+02  0.72772405395E+03  0.88516742385E+03  0.79534884576E+02 0.  0.
         24    2    4    4    0    0 -0.30130339329E+03  0.38568650208E+03  0.51531398930E+03  0.71485191039E+03  0.76986580159E+02 0.  0.
         11    1    3    3    0    0 -0.29908655700E+02 -0.70905952590E+01  0.98845266702E+02  0.10351420664E+03  0.00000000000E+00 0.  1.
        -11    1    3    3    0    0 -0.16613080518E+03 -0.36236762613E+03  0.12257443690E+04  0.12889371586E+04  0.00000000000E+00 0. -1.
          2    1    6    6  502    0 -0.29771880001E+02  0.43759269289E+02  0.25722607744E+02  0.58846334097E+02  0.00000000000E+00 0. -1.
          1    1    5    5  503    0  0.17967008113E+03 -0.30728837770E+02  0.31771524375E+03  0.36629028875E+03  0.00000000000E+00 0. -1.
         -2    1    5    5    0  503  0.31767277304E+03  0.14500557087E+02  0.41000881020E+03  0.51887713510E+03  0.00000000000E+00 0.  1.
         -1    1    6    6    0  502 -0.27153151329E+03  0.34192723279E+03  0.48959138156E+03  0.65600557629E+03  0.00000000000E+00 0.  1.
<mgrwt>
<rscale>  0 0.15369349E+04</rscale>
<asrwt>0</asrwt>
<pdfrwt beam="1">  1        2 0.42769985E+00 0.15369349E+04</pdfrwt>
<pdfrwt beam="2">  1       -2 0.32680234E-01 0.15369349E+04</pdfrwt>
<totfact> 0.20091578E+01</totfact>
</mgrwt>
</event>
<event>
12    1  0.1518126E-007  0.1609959E+04  0.7818608E-02  0.8814453E-01
          2   -1    0    0  501    0  0.00000000000E+00  0.00000000000E+00  0.18701465388E+04  0.18701465388E+04  0.00000000000E+00 0.  1.
         -2   -1    0    0    0  501 -0.00000000000E+00 -0.00000000000E+00 -0.34649260149E+03  0.34649260149E+03  0.00000000000E+00 0. -1.
         23    2    1    2    0    0  0.26803302820E+03  0.33208085268E+03  0.10008663062E+04  0.10916900640E+04  0.89075451563E+02 0.  0.
        254    2    1    2    0    0 -0.26803302820E+03 -0.33208085268E+03  0.52278763112E+03  0.11249490763E+04  0.90004673214E+03 0.  0.
        -24    2    4    4    0    0 -0.49688664480E+03  0.70823667926E+02  0.16616370883E+03  0.53476594195E+03  0.80323750017E+02 0.  0.
         24    2    4    4    0    0  0.22885361660E+03 -0.40290452061E+03  0.35662392229E+03  0.59018313432E+03  0.80184035404E+02 0.  0.
         11    1    3    3    0    0  0.57650814376E+02  0.36059190858E+02  0.10596548225E+03  0.12590696991E+03  0.00000000000E+00 0. -1.
        -11    1    3    3    0    0  0.21038221383E+03  0.29602166182E+03  0.89490082397E+03  0.96578309413E+03  0.00000000000E+00 0.  1.
          4    1    6    6  502    0  0.56083672372E+02 -0.12592980890E+03  0.15058958535E+03  0.20415905146E+03  0.00000000000E+00 0. -1.
          3    1    5    5  503    0 -0.20608926322E+03 -0.53577902697E+01  0.47347553855E+02  0.21152607685E+03  0.00000000000E+00 0. -1.
         -4    1    5    5    0  503 -0.29079738158E+03  0.76181458196E+02  0.11881615497E+03  0.32323986510E+03  0.00000000000E+00 0.  1.
         -3    1    6    6    0  502  0.17276994423E+03 -0.27697471171E+03  0.20603433694E+03  0.38602408287E+03  0.00000000000E+00 0.  1.
<mgrwt>
<rscale>  0 0.16099589E+04</rscale>
<asrwt>0</asrwt>
<pdfrwt beam="1">  1        2 0.28771485E+00 0.16099589E+04</pdfrwt>
<pdfrwt beam="2">  1       -2 0.53306555E-01 0.16099589E+04</pdfrwt>
<totfact> 0.25077027E+01</totfact>
</mgrwt>
</event>
<event>
12    1  0.1518126E-007  0.1684495E+04  0.7818608E-02  0.8770257E-01
          1   -1    0    0  501    0  0.00000000000E+00  0.00000000000E+00  0.57329277859E+03  0.57329277859E+03  0.00000000000E+00 0. -1.
         -1   -1    0    0    0  501 -0.00000000000E+00 -0.00000000000E+00 -0.12373795800E+04  0.12373795800E+04  0.00000000000E+00 0.  1.
         23    2    1    2    0    0  0.38962036647E+03  0.19886637114E+03 -0.67561769711E+03  0.81021571761E+03  0.92942847376E+02 0.  0.
        254    2    1    2    0    0 -0.38962036647E+03 -0.19886637114E+03  0.11530895737E+02  0.10004566410E+04  0.89968253586E+03 0.  0.
        -24    2    4    4    0    0 -0.20530556138E+03 -0.38841340327E+03 -0.33459505625E+03  0.55760487703E+03  0.77162178902E+02 0.  0.
         24    2    4    4    0    0 -0.18431480509E+03  0.18954703213E+03  0.34612595199E+03  0.44285176392E+03  0.80090482597E+02 0.  0.
         13    1    3    3    0    0  0.32198555089E+03  0.19892799093E+03 -0.59234704150E+03  0.70293816096E+03  0.00000000000E+00 0.  1.
        -13    1    3    3    0    0  0.67634815584E+02 -0.61619793234E-01 -0.83270655609E+02  0.10727755665E+03  0.00000000000E+00 0. -1.
          2    1    6    6  502    0 -0.54168319830E+02  0.35986715858E+02  0.14193340144E+03  0.15612283957E+03  0.00000000000E+00 0. -1.
          1    1    5    5  503    0 -0.45340810421E+01 -0.15588147062E+02 -0.35928016737E+02  0.39425507052E+02  0.00000000000E+00 0. -1.
         -2    1    5    5    0  503 -0.20077148034E+03 -0.37282525620E+03 -0.29866703951E+03  0.51817936998E+03  0.00000000000E+00 0.  1.
         -1    1    6    6    0  502 -0.13014648526E+03  0.15356031627E+03  0.20419255055E+03  0.28672892435E+03  0.00000000000E+00 0.  1.
<mgrwt>
<rscale>  0 0.16844949E+04</rscale>
<asrwt>0</asrwt>
<pdfrwt beam="1">  1        1 0.88198889E-01 0.16844949E+04</pdfrwt>
<pdfrwt beam="2">  1       -1 0.19036609E+00 0.16844949E+04</pdfrwt>
<totfact> 0.61194663E+00</totfact>
</mgrwt>
</event>
<event>
12    1  0.1518126E-007  0.1089679E+04  0.7818608E-02  0.9215310E-01
          2   -1    0    0  501    0  0.00000000000E+00  0.00000000000E+00  0.15187026592E+04  0.15187026592E+04  0.00000000000E+00 0. -1.
         -2   -1    0    0    0  501 -0.00000000000E+00 -0.00000000000E+00 -0.19546294335E+03  0.19546294335E+03  0.00000000000E+00 0.  1.
         23    2    1    2    0    0  0.68273554692E+02  0.95877075595E+02  0.59725626608E+02  0.16079326042E+03  0.91834798560E+02 0.  0.
        254    2    1    2    0    0 -0.68273554692E+02 -0.95877075595E+02  0.12635140892E+04  0.15533723421E+04  0.89590406165E+03 0.  0.
        -24    2    4    4    0    0 -0.23210824170E+03  0.20096624378E+03  0.90916325375E+02  0.33007076178E+03  0.80120300531E+02 0.  0.
         24    2    4    4    0    0  0.16383468700E+03 -0.29684331938E+03  0.11725977638E+04  0.12233015803E+04  0.80768061426E+02 0.  0.
         11    1    3    3    0    0  0.55670081320E+02  0.10527711494E+03  0.73453389346E+02  0.13992079649E+03  0.00000000000E+00 0.  1.
        -11    1    3    3    0    0  0.12603473372E+02 -0.94000393409E+01 -0.13727762738E+02  0.20872463928E+02  0.00000000000E+00 0. -1.
          4    1    6    6  502    0  0.84675904830E+02 -0.22945660853E+03  0.82496829486E+03  0.86046094134E+03  0.00000000000E+00 0. -1.
          3    1    5    5  503    0 -0.23252463400E+03  0.20532465840E+03  0.94644695108E+02  0.32432011821E+03  0.00000000000E+00 0. -1.
         -2    1    5    5    0  503  0.41639229935E+00 -0.43584146225E+01 -0.37283697330E+01  0.57506435670E+01  0.00000000000E+00 0.  1.
         -3    1    6    6    0  502  0.79158782174E+02 -0.67386710845E+02  0.34762946899E+03  0.36284063899E+03  0.00000000000E+00 0.  1.
<mgrwt>
<rscale>  0 0.10896790E+04</rscale>
<asrwt>0</asrwt>
<pdfrwt beam="1">  1        2 0.23364656E+00 0.10896790E+04</pdfrwt>
<pdfrwt beam="2">  1       -2 0.30071223E-01 0.10896790E+04</pdfrwt>
<totfact> 0.12556053E+02</totfact>
</mgrwt>
</event>
<event>
12    1  0.1518126E-007  0.1664662E+04  0.7818608E-02  0.8781780E-01
         -2   -1    0    0    0  501 -0.00000000000E+00  0.00000000000E+00  0.56662832506E+03  0.56662832506E+03  0.00000000000E+00 0. -1.
          2   -1    0    0  501    0  0.00000000000E+00 -0.00000000000E+00 -0.12226261512E+04  0.12226261512E+04  0.00000000000E+00 0.  1.
         23    2    1    2    0    0  0.35247968956E+02  0.79180214773E+00  0.39244167901E+03  0.40467642366E+03  0.92246897920E+02 0.  0.
        254    2    1    2    0    0 -0.35247968956E+02 -0.79180214773E+00 -0.10484395051E+04  0.13845780526E+04  0.90365255575E+03 0.  0.
        -24    2    4    4    0    0 -0.31006568811E+03  0.16059540665E+03 -0.87432606499E+02  0.36895807462E+03  0.80956683267E+02 0.  0.
         24    2    4    4    0    0  0.27481771916E+03 -0.16138720880E+03 -0.96100689860E+03  0.10156199779E+04  0.79869083539E+02 0.  0.
         13    1    3    3    0    0 -0.22400875034E+01  0.73261148548E+01  0.33891619080E+03  0.33900276449E+03  0.00000000000E+00 0. -1.
        -13    1    3    3    0    0  0.37488056459E+02 -0.65343127070E+01  0.53525488212E+02  0.65673659164E+02  0.00000000000E+00 0.  1.
          2    1    6    6  502    0  0.55926667062E+01 -0.77674339424E+01 -0.10109121315E+03  0.10154331257E+03  0.00000000000E+00 0. -1.
          1    1    5    5  503    0 -0.15535821534E+03  0.50667239251E+02 -0.91692473475E+01  0.16366862651E+03  0.00000000000E+00 0. -1.
         -2    1    5    5    0  503 -0.15470747278E+03  0.10992816740E+03 -0.78263359151E+02  0.20528944812E+03  0.00000000000E+00 0.  1.
         -1    1    6    6    0  502  0.26922505245E+03 -0.15361977486E+03 -0.85991568545E+03  0.91407666537E+03  0.00000000000E+00 0.  1.
<mgrwt>
<rscale>  0 0.16646617E+04</rscale>
<asrwt>0</asrwt>
<pdfrwt beam="1">  1        2 0.18809633E+00 0.16646617E+04</pdfrwt>
<pdfrwt beam="2">  1       -2 0.87173590E-01 0.16646617E+04</pdfrwt>
<totfact> 0.19928366E+01</totfact>
</mgrwt>
</event>
<event>
12    1  0.1518126E-007  0.2959173E+04  0.7818608E-02  0.8255486E-01
         -2   -1    0    0    0  501 -0.00000000000E+00  0.00000000000E+00  0.11201907838E+04  0.11201907838E+04  0.00000000000E+00 0.  1.
          2   -1    0    0  501    0  0.00000000000E+00 -0.00000000000E+00 -0.19542889473E+04  0.19542889473E+04  0.00000000000E+00 0. -1.
         23    2    1    2    0    0  0.74938641507E+03  0.46910119794E+03 -0.14249789661E+04  0.16794549016E+04  0.91475568162E+02 0.  0.
        254    2    1    2    0    0 -0.74938641507E+03 -0.46910119794E+03  0.59088080260E+03  0.13950248294E+04  0.90294973221E+03 0.  0.
        -24    2    4    4    0    0 -0.84215540200E+03 -0.63471424932E+03  0.50130726505E+03  0.11703825566E+04  0.79990345061E+02 0.  0.
         24    2    4    4    0    0  0.92768986930E+02  0.16561305138E+03  0.89573537555E+02  0.22464227289E+03  0.80043515762E+02 0.  0.
         11    1    3    3    0    0  0.45896092006E+03  0.27489783121E+03 -0.77838643535E+03  0.94451013043E+03  0.00000000000E+00 0. -1.
        -11    1    3    3    0    0  0.29042549501E+03  0.19420336673E+03 -0.64659253075E+03  0.73494477114E+03  0.00000000000E+00 0.  1.
          4    1    6    6  502    0  0.11202049560E+02  0.19633176245E+02  0.46896809352E+02  0.52060140714E+02  0.00000000000E+00 0. -1.
          1    1    5    5  503    0 -0.51177998026E+02 -0.41246472849E+02  0.53950275842E+02  0.85035823438E+02  0.00000000000E+00 0. -1.
         -2    1    5    5    0  503 -0.79097740397E+03 -0.59346777647E+03  0.44735698921E+03  0.10853467331E+04  0.00000000000E+00 0.  1.
         -3    1    6    6    0  502  0.81566937369E+02  0.14597987513E+03  0.42676728204E+02  0.17258213217E+03  0.00000000000E+00 0.  1.
<mgrwt>
<rscale>  0 0.29591732E+04</rscale>
<asrwt>0</asrwt>
<pdfrwt beam="1">  1        2 0.30065983E+00 0.29591732E+04</pdfrwt>
<pdfrwt beam="2">  1       -2 0.17233705E+00 0.29591732E+04</pdfrwt>
<totfact> 0.12483565E+00</totfact>
</mgrwt>
</event>
<event>
12    1  0.1518126E-007  0.1289668E+04  0.7818608E-02  0.9037799E-01
         -1   -1    0    0    0  501 -0.00000000000E+00  0.00000000000E+00  0.45463835366E+03  0.45463835366E+03  0.00000000000E+00 0.  1.
          1   -1    0    0  501    0  0.00000000000E+00 -0.00000000000E+00 -0.91459768198E+03  0.91459768198E+03  0.00000000000E+00 0. -1.
         23    2    1    2    0    0 -0.85288513093E+00  0.19367002043E+03 -0.40192604680E+03  0.45553942072E+03  0.91993546015E+02 0.  0.
        254    2    1    2    0    0  0.85288513093E+00 -0.19367002043E+03 -0.58033281518E+02  0.91369661491E+03  0.89104704596E+03 0.  0.
        -24    2    4    4    0    0  0.24960581852E+03 -0.32196493070E+03 -0.31719181195E+03  0.52233484406E+03  0.79111077056E+02 0.  0.
         24    2    4    4    0    0 -0.24875293339E+03  0.12829491027E+03  0.25915853043E+03  0.39136177085E+03  0.87540196005E+02 0.  0.
         13    1    3    3    0    0 -0.15100341577E+02  0.19349853999E+03 -0.33543489156E+03  0.38753873582E+03  0.00000000000E+00 0. -1.
        -13    1    3    3    0    0  0.14247456446E+02  0.17148044779E+00 -0.66491155246E+02  0.68000684898E+02  0.00000000000E+00 0.  1.
          4    1    6    6  502    0 -0.15707836467E+03  0.63354212827E+02  0.10047016595E+03  0.19693050342E+03  0.00000000000E+00 0. -1.
          3    1    5    5  503    0  0.51233756967E+02 -0.67674232963E+02 -0.28648084204E+02  0.89584666035E+02  0.00000000000E+00 0. -1.
         -4    1    5    5    0  503  0.19837206155E+03 -0.25429069774E+03 -0.28854372774E+03  0.43275017803E+03  0.00000000000E+00 0.  1.
         -3    1    6    6    0  502 -0.91674568721E+02  0.64940697441E+02  0.15868836448E+03  0.19443126743E+03  0.00000000000E+00 0.  1.
<mgrwt>
<rscale>  0 0.12896685E+04</rscale>
<asrwt>0</asrwt>
<pdfrwt beam="1">  1        1 0.14070733E+00 0.12896685E+04</pdfrwt>
<pdfrwt beam="2">  1       -1 0.69944363E-01 0.12896685E+04</pdfrwt>
<totfact> 0.35981583E+01</totfact>
</mgrwt>
</event>
<event>
12    1  0.1518126E-007  0.1545506E+04  0.7818608E-02  0.8854744E-01
          1   -1    0    0  501    0  0.00000000000E+00  0.00000000000E+00  0.20566027251E+04  0.20566027251E+04  0.00000000000E+00 0. -1.
         -1   -1    0    0    0  501 -0.00000000000E+00 -0.00000000000E+00 -0.29035594987E+03  0.29035594987E+03  0.00000000000E+00 0.  1.
         23    2    1    2    0    0 -0.36861645329E+03 -0.33849153952E+03  0.52444338909E+03  0.73058157921E+03  0.90851326618E+02 0.  0.
        254    2    1    2    0    0  0.36861645329E+03  0.33849153952E+03  0.12418033861E+04  0.16163770958E+04  0.90561838205E+03 0.  0.
        -24    2    4    4    0    0  0.94398590133E+02  0.29453831071E+03  0.12830502809E+04  0.13223922380E+04  0.82700043936E+02 0.  0.
         24    2    4    4    0    0  0.27421786316E+03  0.43953228806E+02 -0.41246894817E+02  0.29398485780E+03  0.87169188843E+02 0.  0.
         11    1    3    3    0    0 -0.27982713670E+03 -0.21474172008E+03  0.40468077048E+03  0.53682749443E+03  0.00000000000E+00 0. -1.
        -11    1    3    3    0    0 -0.88789316597E+02 -0.12374981943E+03  0.11976261861E+03  0.19375408478E+03  0.00000000000E+00 0.  1.
          4    1    6    6  502    0  0.25816680647E+03  0.44007054025E+02 -0.60631277821E+02  0.26881754522E+03  0.00000000000E+00 0. -1.
          1    1    5    5  503    0  0.19437398309E+02  0.15687704038E+03  0.76436717635E+03  0.78054173401E+03  0.00000000000E+00 0. -1.
         -2    1    5    5    0  503  0.74961191824E+02  0.13766127033E+03  0.51868310460E+03  0.54185050394E+03  0.00000000000E+00 0.  1.
         -3    1    6    6    0  502  0.16051056689E+02 -0.53825218949E-01  0.19384383004E+02  0.25167312578E+02  0.00000000000E+00 0.  1.
<mgrwt>
<rscale>  0 0.15455055E+04</rscale>
<asrwt>0</asrwt>
<pdfrwt beam="1">  1        1 0.31640041E+00 0.15455055E+04</pdfrwt>
<pdfrwt beam="2">  1       -1 0.44670147E-01 0.15455055E+04</pdfrwt>
<totfact> 0.13061400E+01</totfact>
</mgrwt>
</event>
<event>
12    1  0.1518126E-007  0.1617702E+04  0.7818608E-02  0.8809746E-01
          1   -1    0    0  501    0  0.00000000000E+00  0.00000000000E+00  0.20637422942E+04  0.20637422942E+04  0.00000000000E+00 0. -1.
         -1   -1    0    0    0  501 -0.00000000000E+00 -0.00000000000E+00 -0.31701641410E+03  0.31701641410E+03  0.00000000000E+00 0.  1.
         23    2    1    2    0    0 -0.93903966888E+02  0.37454592115E+03  0.13055144435E+02  0.39707066749E+03  0.91608275467E+02 0.  0.
        254    2    1    2    0    0  0.93903966888E+02 -0.37454592115E+03  0.17336707357E+04  0.19836880408E+04  0.88334671650E+03 0.  0.
        -24    2    4    4    0    0  0.25178334438E+03  0.13613755236E+03  0.11526339281E+04  0.11903761486E+04  0.80635706245E+02 0.  0.
         24    2    4    4    0    0 -0.15787937749E+03 -0.51068347351E+03  0.58103680754E+03  0.79331189226E+03  0.77565963767E+02 0.  0.
         11    1    3    3    0    0 -0.78309877333E+02  0.36172429989E+03 -0.47767033585E+01  0.37013473616E+03  0.00000000000E+00 0.  1.
        -11    1    3    3    0    0 -0.15594089555E+02  0.12821621269E+02  0.17831847793E+02  0.26935931332E+02  0.00000000000E+00 0. -1.
          2    1    6    6  502    0 -0.34984495619E+02 -0.10222263350E+03  0.75204833102E+02  0.13164022431E+03  0.00000000000E+00 0. -1.
          3    1    5    5  503    0  0.56767572299E+02 -0.44519911214E+01  0.22640280579E+03  0.23345365270E+03  0.00000000000E+00 0. -1.
         -4    1    5    5    0  503  0.19501577208E+03  0.14058954348E+03  0.92623112235E+03  0.95692249587E+03  0.00000000000E+00 0.  1.
         -1    1    6    6    0  502 -0.12289488187E+03 -0.40846084001E+03  0.50583197444E+03  0.66167166796E+03  0.00000000000E+00 0.  1.
<mgrwt>
<rscale>  0 0.16177023E+04</rscale>
<asrwt>0</asrwt>
<pdfrwt beam="1">  1        1 0.31749881E+00 0.16177023E+04</pdfrwt>
<pdfrwt beam="2">  1       -1 0.48771757E-01 0.16177023E+04</pdfrwt>
<totfact> 0.10881684E+01</totfact>
</mgrwt>
</event>
<event>
12    1  0.1518126E-007  0.1265024E+04  0.7818608E-02  0.9057771E-01
         -2   -1    0    0    0  501 -0.00000000000E+00  0.00000000000E+00  0.57625657749E+03  0.57625657749E+03  0.00000000000E+00 0.  1.
          2   -1    0    0  501    0  0.00000000000E+00 -0.00000000000E+00 -0.69425939242E+03  0.69425939242E+03  0.00000000000E+00 0. -1.
         23    2    1    2    0    0 -0.22609902717E+02 -0.76857048344E+02 -0.32886615460E+03  0.35082819759E+03  0.92245666570E+02 0.  0.
        254    2    1    2    0    0  0.22609902717E+02  0.76857048344E+02  0.21086333967E+03  0.91968777232E+03  0.89159634194E+03 0.  0.
        -24    2    4    4    0    0  0.71431402285E+02  0.34503674915E+03  0.42941364886E+03  0.56118569476E+03  0.79878023709E+02 0.  0.
         24    2    4    4    0    0 -0.48821499568E+02 -0.26817970081E+03 -0.21855030920E+03  0.35850207757E+03  0.80346818374E+02 0.  0.
         11    1    3    3    0    0 -0.29438080051E+02 -0.25942033801E+02 -0.26941459128E+03  0.27225688544E+03  0.00000000000E+00 0. -1.
        -11    1    3    3    0    0  0.68281773336E+01 -0.50915014543E+02 -0.59451563320E+02  0.78571312149E+02  0.00000000000E+00 0.  1.
          4    1    6    6  502    0 -0.37747959710E+02 -0.39698446124E+02 -0.32934016712E+02  0.63918108105E+02  0.00000000000E+00 0. -1.
          3    1    5    5  503    0  0.73425363879E+02  0.16502660669E+03  0.19825830819E+03  0.26820033882E+03  0.00000000000E+00 0. -1.
         -4    1    5    5    0  503 -0.19939615941E+01  0.18001014246E+03  0.23115534067E+03  0.29298535594E+03  0.00000000000E+00 0.  1.
         -3    1    6    6    0  502 -0.11073539858E+02 -0.22848125469E+03 -0.18561629248E+03  0.29458396946E+03  0.00000000000E+00 0.  1.
<mgrwt>
<rscale>  0 0.12650242E+04</rscale>
<asrwt>0</asrwt>
<pdfrwt beam="1">  1        2 0.10680914E+00 0.12650242E+04</pdfrwt>
<pdfrwt beam="2">  1       -2 0.88654858E-01 0.12650242E+04</pdfrwt>
<totfact> 0.44526790E+01</totfact>
</mgrwt>
</event>
<event>
12    1  0.1518126E-007  0.1527717E+04  0.7818608E-02  0.8866228E-01
          1   -1    0    0  501    0  0.00000000000E+00  0.00000000000E+00  0.11357011423E+04  0.11357011423E+04  0.00000000000E+00 0. -1.
         -1   -1    0    0    0  501 -0.00000000000E+00 -0.00000000000E+00 -0.51376145775E+03  0.51376145775E+03  0.00000000000E+00 0.  1.
         23    2    1    2    0    0 -0.38915540549E+02 -0.48549044876E+03  0.22605450492E+03  0.55074291818E+03  0.12248153981E+03 0.  0.
        254    2    1    2    0    0  0.38915540549E+02  0.48549044876E+03  0.39588517959E+03  0.10987196818E+04  0.90180068126E+03 0.  0.
        -24    2    4    4    0    0  0.32525374354E+03 -0.10310869118E+03  0.22932716409E+03  0.41872505604E+03  0.79487888900E+02 0.  0.
         24    2    4    4    0    0 -0.28633820300E+03  0.58859913994E+03  0.16655801550E+03  0.67999462580E+03  0.78820077095E+02 0.  0.
         13    1    3    3    0    0  0.23187595266E+02 -0.64946575593E+02  0.69001257292E+02  0.97554578382E+02  0.00000000000E+00 0. -1.
        -13    1    3    3    0    0 -0.62103135815E+02 -0.42054387316E+03  0.15705324763E+03  0.45318833979E+03  0.00000000000E+00 0.  1.
          4    1    6    6  502    0 -0.25445273027E+03  0.50462823823E+03  0.11603755284E+03  0.57694069403E+03  0.00000000000E+00 0. -1.
          1    1    5    5  503    0  0.23182906074E+03 -0.56631857068E+02  0.11829637359E+03  0.26635673944E+03  0.00000000000E+00 0. -1.
         -2    1    5    5    0  503  0.93424682804E+02 -0.46476834113E+02  0.11103079050E+03  0.15236831661E+03  0.00000000000E+00 0.  1.
         -3    1    6    6    0  502 -0.31885472727E+02  0.83970901708E+02  0.50520462660E+02  0.10305393176E+03  0.00000000000E+00 0.  1.
<mgrwt>
<rscale>  0 0.15277166E+04</rscale>
<asrwt>0</asrwt>
<pdfrwt beam="1">  1        1 0.17472325E+00 0.15277166E+04</pdfrwt>
<pdfrwt beam="2">  1       -1 0.79040225E-01 0.15277166E+04</pdfrwt>
<totfact> 0.18417408E+01</totfact>
</mgrwt>
</event>
<event>
12    1  0.1518126E-007  0.3832302E+04  0.7818608E-02  0.8039258E-01
         -2   -1    0    0    0  501 -0.00000000000E+00  0.00000000000E+00  0.17347251021E+04  0.17347251021E+04  0.00000000000E+00 0.  1.
          2   -1    0    0  501    0  0.00000000000E+00 -0.00000000000E+00 -0.21165513166E+04  0.21165513166E+04  0.00000000000E+00 0. -1.
         23    2    1    2    0    0  0.58346811621E+03  0.47499112332E+03 -0.18403581176E+04  0.19918421762E+04  0.12027320635E+03 0.  0.
        254    2    1    2    0    0 -0.58346811621E+03 -0.47499112332E+03  0.14585319031E+04  0.18594342424E+04  0.87414459884E+03 0.  0.
        -24    2    4    4    0    0  0.18752988256E+03 -0.84017863529E+02  0.89997239951E+02  0.23871437824E+03  0.81600201794E+02 0.  0.
         24    2    4    4    0    0 -0.77099799877E+03 -0.39097325979E+03  0.13685346632E+04  0.16207198642E+04  0.80918168268E+02 0.  0.
         11    1    3    3    0    0  0.16922939060E+03  0.19807124478E+03 -0.71977177551E+03  0.76546862344E+03  0.00000000000E+00 0.  1.
        -11    1    3    3    0    0  0.41423872561E+03  0.27691987855E+03 -0.11205863421E+04  0.12263735528E+04  0.00000000000E+00 0. -1.
          4    1    6    6  502    0 -0.67081036574E+03 -0.31221620881E+03  0.11925580904E+04  0.14034458689E+04  0.00000000000E+00 0. -1.
          3    1    5    5  503    0  0.13375354871E+03 -0.36967430890E+02  0.22803061669E+02  0.14062923722E+03  0.00000000000E+00 0. -1.
         -4    1    5    5    0  503  0.53776333856E+02 -0.47050432639E+02  0.67194178281E+02  0.98085141023E+02  0.00000000000E+00 0.  1.
         -3    1    6    6    0  502 -0.10018763304E+03 -0.78757050988E+02  0.17597657276E+03  0.21727399534E+03  0.00000000000E+00 0.  1.
<mgrwt>
<rscale>  0 0.38323020E+04</rscale>
<asrwt>0</asrwt>
<pdfrwt beam="1">  1        2 0.32562328E+00 0.38323020E+04</pdfrwt>
<pdfrwt beam="2">  1       -2 0.26688079E+00 0.38323020E+04</pdfrwt>
<totfact> 0.23295656E-01</totfact>
</mgrwt>
</event>
<event>
12    1  0.1518126E-007  0.1064334E+04  0.7818608E-02  0.9240669E-01
          2   -1    0    0  501    0  0.00000000000E+00  0.00000000000E+00  0.21718322404E+03  0.21718322404E+03  0.00000000000E+00 0. -1.
         -2   -1    0    0    0  501 -0.00000000000E+00 -0.00000000000E+00 -0.13039754746E+04  0.13039754746E+04  0.00000000000E+00 0.  1.
         23    2    1    2    0    0 -0.63478979329E+02  0.63263521411E+02 -0.73752515881E+02  0.14958228255E+03  0.94358739369E+02 0.  0.
        254    2    1    2    0    0  0.63478979329E+02 -0.63263521411E+02 -0.10130397347E+04  0.13715764161E+04  0.92029370701E+03 0.  0.
        -24    2    4    4    0    0  0.25633840266E+03  0.36130847900E+03 -0.45653579067E+03  0.64107780616E+03  0.79389115837E+02 0.  0.
         24    2    4    4    0    0 -0.19285942333E+03 -0.42457200041E+03 -0.55650394402E+03  0.73049860994E+03  0.80470110630E+02 0.  0.
         13    1    3    3    0    0 -0.35522443282E+01 -0.96007189854E+00  0.20450990798E+02  0.20779393697E+02  0.00000000000E+00 0. -1.
        -13    1    3    3    0    0 -0.59926735001E+02  0.64223593310E+02 -0.94203506679E+02  0.12880288885E+03  0.00000000000E+00 0.  1.
          2    1    6    6  502    0 -0.18621785289E+03 -0.34975568578E+03 -0.44254848352E+03  0.59401623609E+03  0.00000000000E+00 0. -1.
          3    1    5    5  503    0  0.70524068292E+02  0.46494989757E+02 -0.82819386985E+02  0.11829826348E+03  0.00000000000E+00 0. -1.
         -4    1    5    5    0  503  0.18581433437E+03  0.31481348924E+03 -0.37371640368E+03  0.52277954268E+03  0.00000000000E+00 0.  1.
         -1    1    6    6    0  502 -0.66415704419E+01 -0.74816314634E+02 -0.11395546050E+03  0.13648237385E+03  0.00000000000E+00 0.  1.
<mgrwt>
<rscale>  0 0.10643338E+04</rscale>
<asrwt>0</asrwt>
<pdfrwt beam="1">  1        2 0.33412803E-01 0.10643338E+04</pdfrwt>
<pdfrwt beam="2">  1       -2 0.20061162E+00 0.10643338E+04</pdfrwt>
<totfact> 0.20675003E+01</totfact>
</mgrwt>
</event>
<event>
12    1  0.1518126E-007  0.1611972E+04  0.7818608E-02  0.8813227E-01
         -1   -1    0    0    0  501 -0.00000000000E+00  0.00000000000E+00  0.55055218691E+03  0.55055218691E+03  0.00000000000E+00 0.  1.
          1   -1    0    0  501    0  0.00000000000E+00 -0.00000000000E+00 -0.11799307984E+04  0.11799307984E+04  0.00000000000E+00 0. -1.
         23    2    1    2    0    0  0.21182686430E+03 -0.23090507828E+03 -0.70547610859E+03  0.77727506654E+03  0.90951710586E+02 0.  0.
        254    2    1    2    0    0 -0.21182686430E+03  0.23090507828E+03  0.76097497096E+02  0.95320791876E+03  0.89700988384E+03 0.  0.
        -24    2    4    4    0    0 -0.27736726819E+03  0.15155540187E+03  0.45079780836E+03  0.55667275147E+03  0.82245041818E+02 0.  0.
         24    2    4    4    0    0  0.65540403888E+02  0.79349676411E+02 -0.37470031126E+03  0.39653516730E+03  0.79043658535E+02 0.  0.
         13    1    3    3    0    0  0.16622675161E+03 -0.20888188895E+03 -0.51365317748E+03  0.57888043948E+03  0.00000000000E+00 0. -1.
        -13    1    3    3    0    0  0.45600112695E+02 -0.22023189337E+02 -0.19182293111E+03  0.19839462706E+03  0.00000000000E+00 0.  1.
          4    1    6    6  502    0  0.82757896510E+02  0.74242142262E+02 -0.30770329886E+03  0.32717286754E+03  0.00000000000E+00 0. -1.
          3    1    5    5  503    0 -0.89139394459E+02  0.25501228107E+02  0.81578229536E+02  0.12349555382E+03  0.00000000000E+00 0. -1.
         -4    1    5    5    0  503 -0.18822787373E+03  0.12605417377E+03  0.36921957882E+03  0.43317719764E+03  0.00000000000E+00 0.  1.
         -3    1    6    6    0  502 -0.17217492622E+02  0.51075341489E+01 -0.66997012398E+02  0.69362299756E+02  0.00000000000E+00 0.  1.
<mgrwt>
<rscale>  0 0.16119721E+04</rscale>
<asrwt>0</asrwt>
<pdfrwt beam="1">  1        1 0.18152781E+00 0.16119721E+04</pdfrwt>
<pdfrwt beam="2">  1       -1 0.84700338E-01 0.16119721E+04</pdfrwt>
<totfact> 0.14621118E+01</totfact>
</mgrwt>
</event>
<event>
12    1  0.1518126E-007  0.1847675E+04  0.7818608E-02  0.8681350E-01
         -2   -1    0    0    0  501 -0.00000000000E+00  0.00000000000E+00  0.19102527688E+04  0.19102527688E+04  0.00000000000E+00 0.  1.
          2   -1    0    0  501    0  0.00000000000E+00 -0.00000000000E+00 -0.44678666679E+03  0.44678666679E+03  0.00000000000E+00 0. -1.
         23    2    1    2    0    0 -0.37978731508E+03  0.21136783840E+03 -0.13857287911E+03  0.46506391121E+03  0.90372733059E+02 0.  0.
        254    2    1    2    0    0  0.37978731508E+03 -0.21136783840E+03  0.16020389811E+04  0.18919755244E+04  0.90781480493E+03 0.  0.
        -24    2    4    4    0    0 -0.11654679176E+03  0.27278178105E+03  0.53684248465E+03  0.61830062145E+03  0.78120102490E+02 0.  0.
         24    2    4    4    0    0  0.49633410684E+03 -0.48414961944E+03  0.10651964964E+04  0.12736749029E+04  0.82799653878E+02 0.  0.
         11    1    3    3    0    0 -0.57880795618E+02  0.63190773938E+02 -0.33197741268E+01  0.85757106484E+02  0.00000000000E+00 0.  1.
        -11    1    3    3    0    0 -0.32190651946E+03  0.14817706446E+03 -0.13525310498E+03  0.37930680472E+03  0.00000000000E+00 0. -1.
          2    1    6    6  502    0  0.30886312147E+03 -0.28996146946E+03  0.57689475192E+03  0.71573852514E+03  0.00000000000E+00 0. -1.
          1    1    5    5  503    0 -0.16508141779E+02  0.80389881720E+02  0.21586774825E+03  0.23094141370E+03  0.00000000000E+00 0. -1.
         -2    1    5    5    0  503 -0.10003864998E+03  0.19239189932E+03  0.32097473641E+03  0.38735920775E+03  0.00000000000E+00 0.  1.
         -1    1    6    6    0  502  0.18747098536E+03 -0.19418814998E+03  0.48830174453E+03  0.55793637779E+03  0.00000000000E+00 0.  1.
<mgrwt>
<rscale>  0 0.18476747E+04</rscale>
<asrwt>0</asrwt>
<pdfrwt beam="1">  1        2 0.68736411E-01 0.18476747E+04</pdfrwt>
<pdfrwt beam="2">  1       -2 0.29388504E+00 0.18476747E+04</pdfrwt>
<totfact> 0.22875500E+00</totfact>
</mgrwt>
</event>
<event>
12    1  0.1518126E-007  0.2052612E+04  0.7818608E-02  0.8582410E-01
         -3   -1    0    0    0  501 -0.00000000000E+00  0.00000000000E+00  0.73042447809E+03  0.73042447809E+03  0.00000000000E+00 0.  1.
          3   -1    0    0  501    0  0.00000000000E+00 -0.00000000000E+00 -0.14420437961E+04  0.14420437961E+04  0.00000000000E+00 0. -1.
         23    2    1    2    0    0  0.56622282465E+03 -0.13398735750E+03 -0.91013997164E+03  0.10840530546E+04  0.90859001303E+02 0.  0.
        254    2    1    2    0    0 -0.56622282465E+03  0.13398735750E+03  0.19852065367E+03  0.10884152195E+04  0.89815162477E+03 0.  0.
        -24    2    4    4    0    0 -0.40602645011E+03  0.30078690752E+03  0.48802510907E+03  0.70706306375E+03  0.80246041048E+02 0.  0.
         24    2    4    4    0    0 -0.16019637453E+03 -0.16679955002E+03 -0.28950445541E+03  0.38135215579E+03  0.90175765719E+02 0.  0.
         13    1    3    3    0    0  0.20774248787E+03 -0.18324600835E+02 -0.26794843443E+03  0.33954248008E+03  0.00000000000E+00 0.  1.
        -13    1    3    3    0    0  0.35848033678E+03 -0.11566275667E+03 -0.64219153721E+03  0.74451057454E+03  0.00000000000E+00 0. -1.
          4    1    6    6  502    0 -0.12722372171E+03 -0.17221492002E+03 -0.25964419416E+03  0.33653968801E+03  0.00000000000E+00 0. -1.
          3    1    5    5  503    0 -0.18586501188E+03  0.15854646622E+03  0.18526074637E+03  0.30660125365E+03  0.00000000000E+00 0. -1.
         -4    1    5    5    0  503 -0.22016143823E+03  0.14224044130E+03  0.30276436270E+03  0.40046181010E+03  0.00000000000E+00 0.  1.
         -3    1    6    6    0  502 -0.32972652824E+02  0.54153700056E+01 -0.29860261246E+02  0.44812467777E+02  0.00000000000E+00 0.  1.
<mgrwt>
<rscale>  0 0.20526121E+04</rscale>
<asrwt>0</asrwt>
<pdfrwt beam="1">  1        3 0.22185289E+00 0.20526121E+04</pdfrwt>
<pdfrwt beam="2">  1       -3 0.11237300E+00 0.20526121E+04</pdfrwt>
<totfact> 0.17308309E-01</totfact>
</mgrwt>
</event>
<event>
12    1  0.1518126E-007  0.1562795E+04  0.7818608E-02  0.8843736E-01
          1   -1    0    0  501    0  0.00000000000E+00  0.00000000000E+00  0.12339701036E+04  0.12339701036E+04  0.00000000000E+00 0. -1.
         -1   -1    0    0    0  501 -0.00000000000E+00 -0.00000000000E+00 -0.49481113846E+03  0.49481113846E+03  0.00000000000E+00 0.  1.
         23    2    1    2    0    0  0.84484476491E+02 -0.31650622424E+03 -0.18692494934E+03  0.38823595739E+03  0.92045668927E+02 0.  0.
        254    2    1    2    0    0 -0.84484476491E+02  0.31650622424E+03  0.92608391447E+03  0.13405452847E+04  0.91220415853E+03 0.  0.
        -24    2    4    4    0    0 -0.82811270210E+02 -0.15792775554E+03 -0.91906700289E+02  0.21478930108E+03  0.76737994865E+02 0.  0.
         24    2    4    4    0    0 -0.16732062813E+01  0.47443397979E+03  0.10179906148E+04  0.11257559836E+04  0.77014557363E+02 0.  0.
         11    1    3    3    0    0  0.54746555280E+02 -0.29706324465E+03 -0.15098542282E+03  0.33769861496E+03  0.00000000000E+00 0. -1.
        -11    1    3    3    0    0  0.29737921211E+02 -0.19442979589E+02 -0.35939526520E+02  0.50537342428E+02  0.00000000000E+00 0.  1.
          2    1    6    6  502    0 -0.13082307898E+02  0.45002864800E+03  0.98605458491E+03  0.10839744348E+04  0.00000000000E+00 0. -1.
          3    1    5    5  503    0 -0.89261713564E+02 -0.15423494816E+03 -0.69659851804E+02  0.19133365542E+03  0.00000000000E+00 0. -1.
         -4    1    5    5    0  503  0.64504433540E+01 -0.36928073804E+01 -0.22246848485E+02  0.23455645660E+02  0.00000000000E+00 0.  1.
         -1    1    6    6    0  502  0.11409101617E+02  0.24405331786E+02  0.31936029843E+02  0.41781548816E+02  0.00000000000E+00 0.  1.
<mgrwt>
<rscale>  0 0.15627951E+04</rscale>
<asrwt>0</asrwt>
<pdfrwt beam="1">  1        1 0.18984155E+00 0.15627951E+04</pdfrwt>
<pdfrwt beam="2">  1       -1 0.76124791E-01 0.15627951E+04</pdfrwt>
<totfact> 0.16834765E+01</totfact>
</mgrwt>
</event>
<event>
12    1  0.1518126E-007  0.2644640E+04  0.7818608E-02  0.8353194E-01
         -2   -1    0    0    0  501 -0.00000000000E+00  0.00000000000E+00  0.25480891162E+04  0.25480891162E+04  0.00000000000E+00 0.  1.
          2   -1    0    0  501    0  0.00000000000E+00 -0.00000000000E+00 -0.68621258457E+03  0.68621258457E+03  0.00000000000E+00 0. -1.
         23    2    1    2    0    0 -0.10275320344E+04  0.17023899636E+03  0.15154376223E+04  0.18406213210E+04  0.80822414338E+02 0.  0.
        254    2    1    2    0    0  0.10275320344E+04 -0.17023899636E+03  0.34643890930E+03  0.13936803797E+04  0.85879082741E+03 0.  0.
        -24    2    4    4    0    0  0.85250529147E+03  0.24672418930E+03  0.23496169939E+03  0.92122287399E+03  0.76200300591E+02 0.  0.
         24    2    4    4    0    0  0.17502674296E+03 -0.41696318565E+03  0.11147720991E+03  0.47245750572E+03  0.79349022919E+02 0.  0.
         11    1    3    3    0    0 -0.76166897997E+03  0.12566074625E+03  0.11834405540E+04  0.14129620671E+04  0.00000000000E+00 0.  1.
        -11    1    3    3    0    0 -0.26586305446E+03  0.44578250103E+02  0.33199706829E+03  0.42765925392E+03  0.00000000000E+00 0. -1.
          2    1    6    6  502    0  0.85596149934E+01 -0.97239797356E+02  0.10885350531E+02  0.98220853463E+02  0.00000000000E+00 0. -1.
          1    1    5    5  503    0  0.83612087693E+02  0.45537735773E+02  0.13456315894E+02  0.96154766003E+02  0.00000000000E+00 0. -1.
         -2    1    5    5    0  503  0.76889320378E+03  0.20118645352E+03  0.22150538349E+03  0.82506810798E+03  0.00000000000E+00 0.  1.
         -1    1    6    6    0  502  0.16646712797E+03 -0.31972338830E+03  0.10059185938E+03  0.37423665226E+03  0.00000000000E+00 0.  1.
<mgrwt>
<rscale>  0 0.26446405E+04</rscale>
<asrwt>0</asrwt>
<pdfrwt beam="1">  1        2 0.10557117E+00 0.26446405E+04</pdfrwt>
<pdfrwt beam="2">  1       -2 0.39201371E+00 0.26446405E+04</pdfrwt>
<totfact> 0.30988497E-01</totfact>
</mgrwt>
</event>
<event>
12    1  0.1518126E-007  0.1208437E+04  0.7818608E-02  0.9105503E-01
         -2   -1    0    0    0  501 -0.00000000000E+00  0.00000000000E+00  0.39345573501E+03  0.39345573501E+03  0.00000000000E+00 0.  1.
          2   -1    0    0  501    0  0.00000000000E+00 -0.00000000000E+00 -0.92788110907E+03  0.92788110907E+03  0.00000000000E+00 0. -1.
         23    2    1    2    0    0  0.22438882880E+03 -0.96835454731E+02 -0.22721866156E+03  0.34610522796E+03  0.91831676882E+02 0.  0.
        254    2    1    2    0    0 -0.22438882880E+03  0.96835454731E+02 -0.30720671250E+03  0.97523161612E+03  0.89273360477E+03 0.  0.
        -24    2    4    4    0    0 -0.10120596597E+03 -0.14471275053E+03 -0.56222929054E+03  0.59470907143E+03  0.79954216794E+02 0.  0.
         24    2    4    4    0    0 -0.12318286283E+03  0.24154820526E+03  0.25502257804E+03  0.38052254469E+03  0.79002142657E+02 0.  0.
         13    1    3    3    0    0  0.92126505842E+02  0.74080607689E+01 -0.73370743797E+02  0.11800609513E+03  0.00000000000E+00 0.  1.
        -13    1    3    3    0    0  0.13226232296E+03 -0.10424351550E+03 -0.15384791776E+03  0.22809913283E+03  0.00000000000E+00 0. -1.
          4    1    6    6  502    0 -0.83106993478E+01  0.90022477806E+02  0.62337413975E+02  0.10981378518E+03  0.00000000000E+00 0. -1.
          3    1    5    5  503    0 -0.55378832969E+02 -0.76703718955E+02 -0.17545017708E+03  0.19933148342E+03  0.00000000000E+00 0. -1.
         -4    1    5    5    0  503 -0.45827133002E+02 -0.68009031575E+02 -0.38677911346E+03  0.39537758801E+03  0.00000000000E+00 0.  1.
         -3    1    6    6    0  502 -0.11487216348E+03  0.15152572746E+03  0.19268516407E+03  0.27070875951E+03  0.00000000000E+00 0.  1.
<mgrwt>
<rscale>  0 0.12084372E+04</rscale>
<asrwt>0</asrwt>
<pdfrwt beam="1">  1        2 0.14275094E+00 0.12084372E+04</pdfrwt>
<pdfrwt beam="2">  1       -2 0.60531652E-01 0.12084372E+04</pdfrwt>
<totfact> 0.70414662E+01</totfact>
</mgrwt>
</event>
<event>
12    1  0.1518126E-007  0.1302949E+04  0.7818608E-02  0.9027230E-01
          1   -1    0    0  501    0  0.00000000000E+00  0.00000000000E+00  0.13361120185E+04  0.13361120185E+04  0.00000000000E+00 0. -1.
         -1   -1    0    0    0  501 -0.00000000000E+00 -0.00000000000E+00 -0.31765244831E+03  0.31765244831E+03  0.00000000000E+00 0.  1.
         23    2    1    2    0    0  0.19810099886E+03 -0.23405098611E+03  0.12846339505E+03  0.34036987600E+03  0.72972178105E+02 0.  0.
        254    2    1    2    0    0 -0.19810099886E+03  0.23405098611E+03  0.88999617515E+03  0.13133945908E+04  0.91590845042E+03 0.  0.
        -24    2    4    4    0    0 -0.32165979740E+03  0.21809545133E+03  0.10335534499E+04  0.11069942373E+04  0.78567528465E+02 0.  0.
         24    2    4    4    0    0  0.12355879855E+03  0.15955534777E+02 -0.14355727471E+03  0.20640035352E+03  0.80442892929E+02 0.  0.
         13    1    3    3    0    0  0.12782947137E+03 -0.12764767559E+03  0.39579516999E+02  0.18493469388E+03  0.00000000000E+00 0.  1.
        -13    1    3    3    0    0  0.70271527480E+02 -0.10640331052E+03  0.88883878051E+02  0.15543518212E+03  0.00000000000E+00 0. -1.
          4    1    6    6  502    0  0.99993564548E+02 -0.19628065584E+02 -0.12077626427E+03  0.15802177040E+03  0.00000000000E+00 0. -1.
          3    1    5    5  503    0 -0.98531388022E+02  0.11269159170E+03  0.39626145119E+03  0.42359292601E+03  0.00000000000E+00 0. -1.
         -4    1    5    5    0  503 -0.22312840938E+03  0.10540385963E+03  0.63729199866E+03  0.68340131128E+03  0.00000000000E+00 0.  1.
         -3    1    6    6    0  502  0.23565234000E+02  0.35583600361E+02 -0.22781010443E+02  0.48378583123E+02  0.00000000000E+00 0.  1.
<mgrwt>
<rscale>  0 0.13029494E+04</rscale>
<asrwt>0</asrwt>
<pdfrwt beam="1">  1        1 0.20555569E+00 0.13029494E+04</pdfrwt>
<pdfrwt beam="2">  1       -1 0.48869608E-01 0.13029494E+04</pdfrwt>
<totfact> 0.35099517E+01</totfact>
</mgrwt>
</event>
<event>
12    1  0.3358498E-007  0.1761926E+04  0.7818608E-02  0.8726813E-01
          1   -1    0    0  501    0  0.00000000000E+00  0.00000000000E+00  0.13261475128E+04  0.13261475128E+04  0.00000000000E+00 0. -1.
         -1   -1    0    0    0  501 -0.00000000000E+00 -0.00000000000E+00 -0.58522556065E+03  0.58522556065E+03  0.00000000000E+00 0.  1.
         23    2    1    2    0    0 -0.23019758403E+03 -0.98299426554E+01 -0.38345911246E+03  0.45631948809E+03  0.89994604359E+02 0.  0.
        254    2    1    2    0    0  0.23019758403E+03  0.98299426554E+01  0.11243810646E+04  0.14550535854E+04  0.89434926195E+03 0.  0.
        -24    2    4    4    0    0  0.14408952801E+03  0.21216370237E+03 -0.35892888625E+02  0.27141346498E+03  0.81251097437E+02 0.  0.
         24    2    4    4    0    0  0.86108056018E+02 -0.20233375971E+03  0.11602739533E+04  0.11836401204E+04  0.80092074273E+02 0.  0.
         11    1    3    3    0    0 -0.21496365242E+03  0.16522890860E+02 -0.35010214033E+03  0.41116163056E+03  0.00000000000E+00 0.  1.
        -11    1    3    3    0    0 -0.15233931615E+02 -0.26352833515E+02 -0.33356972138E+02  0.45157857533E+02  0.00000000000E+00 0. -1.
          2    1    6    6  502    0 -0.12866110174E+02 -0.61534458657E+01  0.66218715593E+02  0.67737138867E+02  0.00000000000E+00 0. -1.
          3    1    5    5  503    0  0.78084011711E+01 -0.29650658394E+01 -0.13360161580E+02  0.15756162659E+02  0.00000000000E+00 0. -1.
         -4    1    5    5    0  503  0.13628112684E+03  0.21512876821E+03 -0.22532727045E+02  0.25565730232E+03  0.00000000000E+00 0.  1.
         -1    1    6    6    0  502  0.98974166193E+02 -0.19618031385E+03  0.10940552377E+04  0.11159029815E+04  0.00000000000E+00 0.  1.
<mgrwt>
<rscale>  0 0.17619256E+04</rscale>
<asrwt>0</asrwt>
<pdfrwt beam="1">  1        1 0.20402269E+00 0.17619256E+04</pdfrwt>
<pdfrwt beam="2">  1       -1 0.90034702E-01 0.17619256E+04</pdfrwt>
<totfact> 0.99005737E+00</totfact>
</mgrwt>
</event>
<event>
12    1  0.1518126E-007  0.1529201E+04  0.7818608E-02  0.8865264E-01
          2   -1    0    0  501    0  0.00000000000E+00  0.00000000000E+00  0.22534895526E+04  0.22534895526E+04  0.00000000000E+00 0. -1.
         -2   -1    0    0    0  501 -0.00000000000E+00 -0.00000000000E+00 -0.25942597000E+03  0.25942597000E+03  0.00000000000E+00 0.  1.
         23    2    1    2    0    0 -0.12757647178E+03  0.37482859179E+03  0.18749144907E+03  0.44742807020E+03  0.90920873019E+02 0.  0.
        254    2    1    2    0    0  0.12757647178E+03 -0.37482859179E+03  0.18065721336E+04  0.20654874524E+04  0.91965390936E+03 0.  0.
        -24    2    4    4    0    0  0.33028465680E+03  0.77506348380E+02  0.13246708789E+04  0.13697155779E+04  0.79199989382E+02 0.  0.
         24    2    4    4    0    0 -0.20270818502E+03 -0.45233494017E+03  0.48190125467E+03  0.69577187456E+03  0.78563196203E+02 0.  0.
         11    1    3    3    0    0 -0.54306364853E+02  0.25355944089E+03  0.15486664001E+03  0.30203517596E+03  0.00000000000E+00 0.  1.
        -11    1    3    3    0    0 -0.73270106928E+02  0.12126915090E+03  0.32624809064E+02  0.14539289424E+03  0.00000000000E+00 0. -1.
          4    1    6    6  502    0 -0.16241053320E+03 -0.41870125144E+03  0.43838072500E+03  0.62758710893E+03  0.00000000000E+00 0. -1.
          1    1    5    5  503    0  0.15865183545E+03  0.54370215449E+02  0.79332429303E+03  0.81085754552E+03  0.00000000000E+00 0. -1.
         -2    1    5    5    0  503  0.17163282135E+03  0.23136132930E+02  0.53134658587E+03  0.55885803236E+03  0.00000000000E+00 0.  1.
         -3    1    6    6    0  502 -0.40297651822E+02 -0.33633688733E+02  0.43520529670E+02  0.68184765622E+02  0.00000000000E+00 0.  1.
<mgrwt>
<rscale>  0 0.15292007E+04</rscale>
<asrwt>0</asrwt>
<pdfrwt beam="1">  1        2 0.34669069E+00 0.15292007E+04</pdfrwt>
<pdfrwt beam="2">  1       -2 0.39911689E-01 0.15292007E+04</pdfrwt>
<totfact> 0.27619233E+01</totfact>
</mgrwt>
</event>
<event>
12    1  0.1518126E-007  0.1539683E+04  0.7818608E-02  0.8858485E-01
          1   -1    0    0  501    0  0.00000000000E+00  0.00000000000E+00  0.14018772588E+04  0.14018772588E+04  0.00000000000E+00 0. -1.
         -1   -1    0    0    0  501 -0.00000000000E+00 -0.00000000000E+00 -0.42275889874E+03  0.42275889874E+03  0.00000000000E+00 0.  1.
         23    2    1    2    0    0 -0.87129452923E+02  0.18445310098E+03 -0.21590143338E+03  0.31368994751E+03  0.10086360199E+03 0.  0.
        254    2    1    2    0    0  0.87129452923E+02 -0.18445310098E+03  0.11950197935E+04  0.15109462100E+04  0.90181575439E+03 0.  0.
        -24    2    4    4    0    0  0.16443661981E+03 -0.43166385125E+03  0.11409469633E+04  0.12335019937E+04  0.79963197964E+02 0.  0.
         24    2    4    4    0    0 -0.77307166889E+02  0.24721075027E+03  0.54072830157E+02  0.27744421633E+03  0.83437815850E+02 0.  0.
         11    1    3    3    0    0 -0.82543188503E+02  0.15270708318E+03 -0.11603502371E+03  0.20879884566E+03  0.00000000000E+00 0. -1.
        -11    1    3    3    0    0 -0.45862644202E+01  0.31746017805E+02 -0.99866409669E+02  0.10489110185E+03  0.00000000000E+00 0.  1.
          4    1    6    6  502    0 -0.27933763227E+02  0.15120650788E+03 -0.60331340399E+01  0.15388340346E+03  0.00000000000E+00 0. -1.
          3    1    5    5  503    0  0.22603314673E+02 -0.13014362206E+03  0.39538440975E+03  0.41686581014E+03  0.00000000000E+00 0. -1.
         -4    1    5    5    0  503  0.14183330514E+03 -0.30152022919E+03  0.74556255355E+03  0.81663618357E+03  0.00000000000E+00 0.  1.
         -3    1    6    6    0  502 -0.49373403662E+02  0.96004242382E+02  0.60105964197E+02  0.12356081287E+03  0.00000000000E+00 0.  1.
<mgrwt>
<rscale>  0 0.15396832E+04</rscale>
<asrwt>0</asrwt>
<pdfrwt beam="1">  1        1 0.21567342E+00 0.15396832E+04</pdfrwt>
<pdfrwt beam="2">  1       -1 0.65039831E-01 0.15396832E+04</pdfrwt>
<totfact> 0.17700712E+01</totfact>
</mgrwt>
</event>
<event>
12    1  0.1518126E-007  0.1930866E+04  0.7818608E-02  0.8639643E-01
         -2   -1    0    0    0  501 -0.00000000000E+00  0.00000000000E+00  0.44206683531E+03  0.44206683531E+03  0.00000000000E+00 0.  1.
          2   -1    0    0  501    0  0.00000000000E+00 -0.00000000000E+00 -0.21084161253E+04  0.21084161253E+04  0.00000000000E+00 0. -1.
         23    2    1    2    0    0 -0.17912668473E+02 -0.51651430886E+03  0.49079240350E+02  0.52741242505E+03  0.92990318414E+02 0.  0.
        254    2    1    2    0    0  0.17912668473E+02  0.51651430886E+03 -0.17154285303E+04  0.20230705355E+04  0.93968689157E+03 0.  0.
        -24    2    4    4    0    0  0.86127367794E+02 -0.18733159000E+03 -0.73156241576E+02  0.23326292769E+03  0.80924098138E+02 0.  0.
         24    2    4    4    0    0 -0.68214699321E+02  0.70384589886E+03 -0.16422722887E+04  0.17898076078E+04  0.79377000423E+02 0.  0.
         13    1    3    3    0    0 -0.84805802510E+01 -0.50255927991E+03  0.32347032061E+02  0.50367060719E+03  0.00000000000E+00 0.  1.
        -13    1    3    3    0    0 -0.94320882218E+01 -0.13955028951E+02  0.16732208289E+02  0.23741817864E+02  0.00000000000E+00 0. -1.
          4    1    6    6  502    0  0.69483582481E+01  0.13534029264E+03 -0.37803406549E+03  0.40159062386E+03  0.00000000000E+00 0. -1.
          3    1    5    5  503    0  0.74556325732E+02 -0.13758332419E+03 -0.88696866944E+02  0.17987482038E+03  0.00000000000E+00 0. -1.
         -4    1    5    5    0  503  0.11571042062E+02 -0.49748265806E+02  0.15540625368E+02  0.53388107308E+02  0.00000000000E+00 0.  1.
         -3    1    6    6    0  502 -0.75163057569E+02  0.56850560622E+03 -0.12642382232E+04  0.13882169840E+04  0.00000000000E+00 0.  1.
<mgrwt>
<rscale>  0 0.19308660E+04</rscale>
<asrwt>0</asrwt>
<pdfrwt beam="1">  1        2 0.32437171E+00 0.19308660E+04</pdfrwt>
<pdfrwt beam="2">  1       -2 0.68010283E-01 0.19308660E+04</pdfrwt>
<totfact> 0.10749475E+01</totfact>
</mgrwt>
</event>
<event>
12    1  0.1518126E-007  0.1238870E+04  0.7818608E-02  0.9079498E-01
         -3   -1    0    0    0  501 -0.00000000000E+00  0.00000000000E+00  0.62960323540E+03  0.62960323540E+03  0.00000000000E+00 0.  1.
          3   -1    0    0  501    0  0.00000000000E+00 -0.00000000000E+00 -0.60943139312E+03  0.60943139312E+03  0.00000000000E+00 0. -1.
         23    2    1    2    0    0  0.81616589919E+02 -0.27119243848E+03 -0.15333116789E+02  0.29729792469E+03  0.89131055837E+02 0.  0.
        254    2    1    2    0    0 -0.81616589919E+02  0.27119243848E+03  0.35504959071E+02  0.94173670383E+03  0.89744125756E+03 0.  0.
        -24    2    4    4    0    0 -0.96250068604E+02  0.16699888555E+03  0.45564448277E+03  0.50118383545E+03  0.80128888387E+02 0.  0.
         24    2    4    4    0    0  0.14633478685E+02  0.10419355293E+03 -0.42013952370E+03  0.44055286838E+03  0.80617462663E+02 0.  0.
         13    1    3    3    0    0  0.63911040948E+02 -0.27139637986E+03 -0.10843175286E+02  0.27903080584E+03  0.00000000000E+00 0.  1.
        -13    1    3    3    0    0  0.17705548971E+02  0.20394137847E+00 -0.44899415028E+01  0.18267118851E+02  0.00000000000E+00 0. -1.
          2    1    6    6  502    0  0.44723591589E+02  0.55747367485E+02 -0.17854075332E+03  0.19231424602E+03  0.00000000000E+00 0. -1.
          1    1    5    5  503    0  0.89246731746E+01  0.43044661472E+02  0.69759972542E+02  0.82455724129E+02  0.00000000000E+00 0. -1.
         -2    1    5    5    0  503 -0.10517474178E+03  0.12395422408E+03  0.38588451023E+03  0.41872811132E+03  0.00000000000E+00 0.  1.
         -1    1    6    6    0  502 -0.30090112904E+02  0.48446185448E+02 -0.24159877038E+03  0.24823862235E+03  0.00000000000E+00 0.  1.
<mgrwt>
<rscale>  0 0.12388704E+04</rscale>
<asrwt>0</asrwt>
<pdfrwt beam="1">  1        3 0.93758676E-01 0.12388704E+04</pdfrwt>
<pdfrwt beam="2">  1       -3 0.96862037E-01 0.12388704E+04</pdfrwt>
<totfact> 0.24669117E+00</totfact>
</mgrwt>
</event>
<event>
12    1  0.1518126E-007  0.1598476E+04  0.7818608E-02  0.8821485E-01
          1   -1    0    0  501    0  0.00000000000E+00  0.00000000000E+00  0.18272019470E+04  0.18272019470E+04  0.00000000000E+00 0. -1.
         -1   -1    0    0    0  501 -0.00000000000E+00 -0.00000000000E+00 -0.34959543682E+03  0.34959543682E+03  0.00000000000E+00 0.  1.
         23    2    1    2    0    0  0.26838963673E+03  0.46938000517E+03  0.57460860390E+03  0.79424767963E+03  0.91124873392E+02 0.  0.
        254    2    1    2    0    0 -0.26838963673E+03 -0.46938000517E+03  0.90299790631E+03  0.13825497042E+04  0.89648640789E+03 0.  0.
        -24    2    4    4    0    0 -0.18123024919E+03  0.24930311398E+03  0.26773085498E+03  0.41594118753E+03  0.79566418274E+02 0.  0.
         24    2    4    4    0    0 -0.87159387543E+02 -0.71868311915E+03  0.63526705134E+03  0.96660851671E+03  0.81643208377E+02 0.  0.
         13    1    3    3    0    0  0.26785210002E+03  0.45101390757E+03  0.57127642539E+03  0.77557401098E+03  0.00000000000E+00 0.  1.
        -13    1    3    3    0    0  0.53753671507E+00  0.18366097606E+02  0.33321785114E+01  0.18673668644E+02  0.00000000000E+00 0. -1.
          4    1    6    6  502    0 -0.56329767593E+02 -0.17365861761E+03  0.15317891112E+03  0.23831520514E+03  0.00000000000E+00 0. -1.
          1    1    5    5  503    0  0.39787169642E+01  0.22081955507E+02  0.35331158213E+02  0.41853717737E+02  0.00000000000E+00 0. -1.
         -2    1    5    5    0  503 -0.18520896615E+03  0.22722115847E+03  0.23239969676E+03  0.37408746979E+03  0.00000000000E+00 0.  1.
         -3    1    6    6    0  502 -0.30829619950E+02 -0.54502450154E+03  0.48208814022E+03  0.72829331157E+03  0.00000000000E+00 0.  1.
<mgrwt>
<rscale>  0 0.15984761E+04</rscale>
<asrwt>0</asrwt>
<pdfrwt beam="1">  1        1 0.28110799E+00 0.15984761E+04</pdfrwt>
<pdfrwt beam="2">  1       -1 0.53783914E-01 0.15984761E+04</pdfrwt>
<totfact> 0.13074486E+01</totfact>
</mgrwt>
</event>
<event>
12    1  0.1518126E-007  0.1354096E+04  0.7818608E-02  0.8987733E-01
         -2   -1    0    0    0  501 -0.00000000000E+00  0.00000000000E+00  0.41742390883E+03  0.41742390883E+03  0.00000000000E+00 0.  1.
          2   -1    0    0  501    0  0.00000000000E+00 -0.00000000000E+00 -0.10981502019E+04  0.10981502019E+04  0.00000000000E+00 0. -1.
         23    2    1    2    0    0  0.25469689152E+03 -0.21203764979E+03 -0.35050351524E+03  0.49106470879E+03  0.91985664863E+02 0.  0.
        254    2    1    2    0    0 -0.25469689152E+03  0.21203764979E+03 -0.33022277787E+03  0.10245094020E+04  0.91145047054E+03 0.  0.
        -24    2    4    4    0    0 -0.56420346332E+03  0.12580272330E+03 -0.37059426198E+03  0.69113588565E+03  0.78592825459E+02 0.  0.
         24    2    4    4    0    0  0.30950657180E+03  0.86234926495E+02  0.40371484117E+02  0.33337351633E+03  0.79229187340E+02 0.  0.
         11    1    3    3    0    0  0.15663821674E+03 -0.15142265924E+03 -0.16763616397E+03  0.27489313586E+03  0.00000000000E+00 0.  1.
        -11    1    3    3    0    0  0.98058674777E+02 -0.60614990556E+02 -0.18286735127E+03  0.21617157292E+03  0.00000000000E+00 0. -1.
          2    1    6    6  502    0  0.10308074717E+03  0.58994907284E+02  0.39471965461E+02  0.12515620472E+03  0.00000000000E+00 0. -1.
          1    1    5    5  503    0 -0.52907616688E+03  0.11042274914E+03 -0.32160545889E+03  0.62892356060E+03  0.00000000000E+00 0. -1.
         -2    1    5    5    0  503 -0.35127296433E+02  0.15379974154E+02 -0.48988803091E+02  0.62212325049E+02  0.00000000000E+00 0.  1.
         -1    1    6    6    0  502  0.20642582463E+03  0.27240019211E+02  0.89951865619E+00  0.20821731161E+03  0.00000000000E+00 0.  1.
<mgrwt>
<rscale>  0 0.13540962E+04</rscale>
<asrwt>0</asrwt>
<pdfrwt beam="1">  1        2 0.16894618E+00 0.13540962E+04</pdfrwt>
<pdfrwt beam="2">  1       -2 0.64219064E-01 0.13540962E+04</pdfrwt>
<totfact> 0.47798018E+01</totfact>
</mgrwt>
</event>
<event>
12    1  0.1518126E-007  0.1122999E+04  0.7818608E-02  0.9183061E-01
          2   -1    0    0  501    0  0.00000000000E+00  0.00000000000E+00  0.15956612695E+04  0.15956612695E+04  0.00000000000E+00 0. -1.
         -2   -1    0    0    0  501 -0.00000000000E+00 -0.00000000000E+00 -0.19758694723E+03  0.19758694723E+03  0.00000000000E+00 0.  1.
         23    2    1    2    0    0  0.13979473939E+03 -0.88089065620E+02  0.39138228180E+03  0.43349641758E+03  0.86236888318E+02 0.  0.
        254    2    1    2    0    0 -0.13979473939E+03  0.88089065620E+02  0.10066920405E+04  0.13597517991E+04  0.89899601683E+03 0.  0.
        -24    2    4    4    0    0  0.22600623908E+03 -0.28735323579E+03  0.32067921849E+03  0.49270351285E+03  0.79188939768E+02 0.  0.
         24    2    4    4    0    0 -0.36580097847E+03  0.37544230140E+03  0.68601282196E+03  0.86704828629E+03  0.79949117060E+02 0.  0.
         11    1    3    3    0    0  0.12433256029E+03 -0.10019472565E+03  0.37616364984E+03  0.40865224833E+03  0.00000000000E+00 0. -1.
        -11    1    3    3    0    0  0.15462179100E+02  0.12105660035E+02  0.15218631952E+02  0.24844169254E+02  0.00000000000E+00 0.  1.
          4    1    6    6  502    0 -0.14497520909E+03  0.10432692705E+03  0.26806200778E+03  0.32211668533E+03  0.00000000000E+00 0. -1.
          1    1    5    5  503    0  0.19885989101E+03 -0.25443639992E+03  0.24323964022E+03  0.40428784354E+03  0.00000000000E+00 0. -1.
         -2    1    5    5    0  503  0.27146348067E+02 -0.32916835863E+02  0.77439578271E+02  0.88415669309E+02  0.00000000000E+00 0.  1.
         -3    1    6    6    0  502 -0.22082576938E+03  0.27111537436E+03  0.41795081419E+03  0.54493160095E+03  0.00000000000E+00 0.  1.
<mgrwt>
<rscale>  0 0.11229993E+04</rscale>
<asrwt>0</asrwt>
<pdfrwt beam="1">  1        2 0.24548634E+00 0.11229993E+04</pdfrwt>
<pdfrwt beam="2">  1       -2 0.30397993E-01 0.11229993E+04</pdfrwt>
<totfact> 0.11119223E+02</totfact>
</mgrwt>
</event>
<event>
12    1  0.1518126E-007  0.1428147E+04  0.7818608E-02  0.8933693E-01
         -2   -1    0    0    0  501 -0.00000000000E+00  0.00000000000E+00  0.42764177889E+03  0.42764177889E+03  0.00000000000E+00 0.  1.
          2   -1    0    0  501    0  0.00000000000E+00 -0.00000000000E+00 -0.11923552334E+04  0.11923552334E+04  0.00000000000E+00 0. -1.
         23    2    1    2    0    0  0.27947765225E+03  0.81691513871E+02 -0.54256776418E+03  0.62243913961E+03  0.90936473656E+02 0.  0.
        254    2    1    2    0    0 -0.27947765225E+03 -0.81691513871E+02 -0.22214569034E+03  0.99755787270E+03  0.92789640591E+03 0.  0.
        -24    2    4    4    0    0  0.13333327686E+03  0.24981209407E+03  0.16411213054E+03  0.33710153025E+03  0.80751503051E+02 0.  0.
         24    2    4    4    0    0 -0.41281092911E+03 -0.33150360794E+03 -0.38625782088E+03  0.66045634244E+03  0.81853349391E+02 0.  0.
         11    1    3    3    0    0  0.60108251285E+02 -0.67816527465E+01 -0.60955723612E+02  0.85875450087E+02  0.00000000000E+00 0.  1.
        -11    1    3    3    0    0  0.21936940097E+03  0.88473166617E+02 -0.48161204057E+03  0.53656368952E+03  0.00000000000E+00 0. -1.
          4    1    6    6  502    0 -0.17227499698E+03 -0.89391924948E+02 -0.15172221009E+03  0.24635182131E+03  0.00000000000E+00 0. -1.
          3    1    5    5  503    0  0.14263558976E+03  0.23044637483E+03  0.16142617265E+03  0.31545023752E+03  0.00000000000E+00 0. -1.
         -4    1    5    5    0  503 -0.93023128971E+01  0.19365719244E+02  0.26859578914E+01  0.21651292730E+02  0.00000000000E+00 0.  1.
         -3    1    6    6    0  502 -0.24053593214E+03 -0.24211168300E+03 -0.23453561079E+03  0.41410452113E+03  0.00000000000E+00 0.  1.
<mgrwt>
<rscale>  0 0.14281469E+04</rscale>
<asrwt>0</asrwt>
<pdfrwt beam="1">  1        2 0.18343927E+00 0.14281469E+04</pdfrwt>
<pdfrwt beam="2">  1       -2 0.65791042E-01 0.14281469E+04</pdfrwt>
<totfact> 0.39548767E+01</totfact>
</mgrwt>
</event>
<event>
12    1  0.1518126E-007  0.1703231E+04  0.7818608E-02  0.8759524E-01
          2   -1    0    0  501    0  0.00000000000E+00  0.00000000000E+00  0.18173661518E+04  0.18173661518E+04  0.00000000000E+00 0. -1.
         -2   -1    0    0    0  501 -0.00000000000E+00 -0.00000000000E+00 -0.39906610391E+03  0.39906610391E+03  0.00000000000E+00 0.  1.
         23    2    1    2    0    0 -0.17697143839E+03 -0.37452310369E+03 -0.70874257944E+02  0.42953313367E+03  0.88820646676E+02 0.  0.
        254    2    1    2    0    0  0.17697143839E+03  0.37452310369E+03  0.14891743059E+04  0.17868991221E+04  0.89653885248E+03 0.  0.
        -24    2    4    4    0    0  0.50575045540E+03  0.39923586558E+03  0.10047001462E+04  0.11956236225E+04  0.70147439779E+02 0.  0.
         24    2    4    4    0    0 -0.32877901701E+03 -0.24712761888E+02  0.48447415963E+03  0.59127549958E+03  0.78645676468E+02 0.  0.
         13    1    3    3    0    0 -0.24786903092E+02 -0.14756863804E+03 -0.37368405205E+02  0.15423129127E+03  0.00000000000E+00 0.  1.
        -13    1    3    3    0    0 -0.15218453530E+03 -0.22695446565E+03 -0.33505852739E+02  0.27530184240E+03  0.00000000000E+00 0. -1.
          4    1    6    6  502    0 -0.26768279582E+03 -0.50824864153E+02  0.38546008727E+03  0.47203466491E+03  0.00000000000E+00 0. -1.
          1    1    5    5  503    0  0.63066611129E+02  0.81766429606E+02  0.15145086765E+03  0.18330442374E+03  0.00000000000E+00 0. -1.
         -2    1    5    5    0  503  0.44268384427E+03  0.31746943598E+03  0.85324927859E+03  0.10123191988E+04  0.00000000000E+00 0.  1.
         -3    1    6    6    0  502 -0.61096221195E+02  0.26112102265E+02  0.99014072362E+02  0.11924083468E+03  0.00000000000E+00 0.  1.
<mgrwt>
<rscale>  0 0.17032313E+04</rscale>
<asrwt>0</asrwt>
<pdfrwt beam="1">  1        2 0.27959479E+00 0.17032313E+04</pdfrwt>
<pdfrwt beam="2">  1       -2 0.61394786E-01 0.17032313E+04</pdfrwt>
<totfact> 0.19801913E+01</totfact>
</mgrwt>
</event>
<event>
12    1  0.1518126E-007  0.1777113E+04  0.7818608E-02  0.8718566E-01
          2   -1    0    0  501    0  0.00000000000E+00  0.00000000000E+00  0.30223957984E+04  0.30223957984E+04  0.00000000000E+00 0.  1.
         -2   -1    0    0    0  501 -0.00000000000E+00 -0.00000000000E+00 -0.26122737120E+03  0.26122737120E+03  0.00000000000E+00 0. -1.
         23    2    1    2    0    0  0.57192268345E+03  0.40163051607E+02  0.16048811187E+04  0.17070035824E+04  0.97515120217E+02 0.  0.
        254    2    1    2    0    0 -0.57192268345E+03 -0.40163051607E+02  0.11562873085E+04  0.15766195872E+04  0.90554975365E+03 0.  0.
        -24    2    4    4    0    0 -0.17704242508E+03 -0.17649860140E+03  0.11192697477E+04  0.11496356753E+04  0.80010258043E+02 0.  0.
         24    2    4    4    0    0 -0.39488025837E+03  0.13633554980E+03  0.37017560827E+02  0.42698391184E+03  0.80169573860E+02 0.  0.
         11    1    3    3    0    0  0.31035461064E+03  0.44745122763E+02  0.74763804622E+03  0.81073100256E+03  0.00000000000E+00 0. -1.
        -11    1    3    3    0    0  0.26156807281E+03 -0.45820711568E+01  0.85724307251E+03  0.89627257988E+03  0.00000000000E+00 0.  1.
          2    1    6    6  502    0 -0.26458990982E+03  0.99238947165E+02  0.61800281894E+02  0.28926711506E+03  0.00000000000E+00 0. -1.
          3    1    5    5  503    0 -0.16070094284E+03 -0.17519832467E+03  0.10938607614E+04  0.11193974323E+04  0.00000000000E+00 0. -1.
         -4    1    5    5    0  503 -0.16341482242E+02 -0.13002767286E+01  0.25408986207E+02  0.30238243029E+02  0.00000000000E+00 0.  1.
         -1    1    6    6    0  502 -0.13029034856E+03  0.37096602631E+02 -0.24782721067E+02  0.13771679679E+03  0.00000000000E+00 0.  1.
<mgrwt>
<rscale>  0 0.17771128E+04</rscale>
<asrwt>0</asrwt>
<pdfrwt beam="1">  1        2 0.46498394E+00 0.17771128E+04</pdfrwt>
<pdfrwt beam="2">  1       -2 0.40188828E-01 0.17771128E+04</pdfrwt>
<totfact> 0.93817103E+00</totfact>
</mgrwt>
</event>
<event>
12    1  0.1518126E-007  0.1301673E+04  0.7818608E-02  0.9028240E-01
          1   -1    0    0  501    0  0.00000000000E+00  0.00000000000E+00  0.13594985114E+04  0.13594985114E+04  0.00000000000E+00 0. -1.
         -1   -1    0    0    0  501 -0.00000000000E+00 -0.00000000000E+00 -0.31157669352E+03  0.31157669352E+03  0.00000000000E+00 0.  1.
         23    2    1    2    0    0 -0.79481282463E+02 -0.31190542080E+03  0.16974538517E+03  0.37509734808E+03  0.91006917098E+02 0.  0.
        254    2    1    2    0    0  0.79481282463E+02  0.31190542080E+03  0.87817643267E+03  0.12959778568E+04  0.89708555480E+03 0.  0.
        -24    2    4    4    0    0  0.45523235584E+03  0.32834449688E+03  0.56437055602E+03  0.80003966851E+03  0.80639570042E+02 0.  0.
         24    2    4    4    0    0 -0.37575107338E+03 -0.16439076074E+02  0.31380587664E+03  0.49593818828E+03  0.77597976864E+02 0.  0.
         11    1    3    3    0    0 -0.43642342935E+02 -0.80310849947E+02  0.88050648842E+02  0.12691494584E+03  0.00000000000E+00 0. -1.
        -11    1    3    3    0    0 -0.35838939528E+02 -0.23159457086E+03  0.81694736330E+02  0.24818240224E+03  0.00000000000E+00 0.  1.
          2    1    6    6  502    0 -0.19115447743E+03 -0.47184870201E+02  0.16127560510E+03  0.25451182098E+03  0.00000000000E+00 0. -1.
          1    1    5    5  503    0  0.19168070390E+03  0.16539608575E+03  0.30149404095E+03  0.39369533164E+03  0.00000000000E+00 0. -1.
         -2    1    5    5    0  503  0.26355165195E+03  0.16294841113E+03  0.26287651507E+03  0.40634433687E+03  0.00000000000E+00 0.  1.
         -1    1    6    6    0  502 -0.18459659595E+03  0.30745794127E+02  0.15253027154E+03  0.24142636730E+03  0.00000000000E+00 0.  1.
<mgrwt>
<rscale>  0 0.13016728E+04</rscale>
<asrwt>0</asrwt>
<pdfrwt beam="1">  1        1 0.20915361E+00 0.13016728E+04</pdfrwt>
<pdfrwt beam="2">  1       -1 0.47934877E-01 0.13016728E+04</pdfrwt>
<totfact> 0.35046817E+01</totfact>
</mgrwt>
</event>
<event>
12    1  0.1518126E-007  0.1803124E+04  0.7818608E-02  0.8704640E-01
         -2   -1    0    0    0  501 -0.00000000000E+00  0.00000000000E+00  0.90732730948E+03  0.90732730948E+03  0.00000000000E+00 0.  1.
          2   -1    0    0  501    0  0.00000000000E+00 -0.00000000000E+00 -0.89583311260E+03  0.89583311260E+03  0.00000000000E+00 0. -1.
         23    2    1    2    0    0 -0.56282503151E+03 -0.19722128931E+02  0.34496771260E+03  0.66651932339E+03  0.89912775786E+02 0.  0.
        254    2    1    2    0    0  0.56282503151E+03  0.19722128931E+02 -0.33347351571E+03  0.11366410987E+04  0.92929404554E+03 0.  0.
        -24    2    4    4    0    0  0.43484928716E+03 -0.20242167379E+03 -0.59060910769E+03  0.76475620768E+03  0.77230191935E+02 0.  0.
         24    2    4    4    0    0  0.12797574436E+03  0.22214380272E+03  0.25713559198E+03  0.37188489101E+03  0.80336786500E+02 0.  0.
         13    1    3    3    0    0 -0.39997857901E+03 -0.45424700486E+02  0.21354353903E+03  0.45568312471E+03  0.00000000000E+00 0. -1.
        -13    1    3    3    0    0 -0.16284645251E+03  0.25702571556E+02  0.13142417357E+03  0.21083619869E+03  0.00000000000E+00 0.  1.
          4    1    6    6  502    0  0.61054010708E+02  0.14864863343E+03  0.20231702979E+03  0.25837219082E+03  0.00000000000E+00 0. -1.
          3    1    5    5  503    0  0.42999612986E+03 -0.19604441037E+03 -0.59102655654E+03  0.75673144052E+03  0.00000000000E+00 0. -1.
         -4    1    5    5    0  503  0.48531572921E+01 -0.63772634208E+01  0.41744885610E+00  0.80247671610E+01  0.00000000000E+00 0.  1.
         -3    1    6    6    0  502  0.66921733651E+02  0.73495169295E+02  0.54818562187E+02  0.11351270019E+03  0.00000000000E+00 0.  1.
<mgrwt>
<rscale>  0 0.18031238E+04</rscale>
<asrwt>0</asrwt>
<pdfrwt beam="1">  1        2 0.13782048E+00 0.18031238E+04</pdfrwt>
<pdfrwt beam="2">  1       -2 0.13958882E+00 0.18031238E+04</pdfrwt>
<totfact> 0.10079659E+01</totfact>
</mgrwt>
</event>
<event>
12    1  0.1518126E-007  0.1813024E+04  0.7818608E-02  0.8699404E-01
         -2   -1    0    0    0  501 -0.00000000000E+00  0.00000000000E+00  0.24830827307E+03  0.24830827307E+03  0.00000000000E+00 0.  1.
          2   -1    0    0  501    0  0.00000000000E+00 -0.00000000000E+00 -0.33094523535E+04  0.33094523535E+04  0.00000000000E+00 0. -1.
         23    2    1    2    0    0  0.44674918064E+03  0.34190161463E+03 -0.19307111289E+04  0.20130028701E+04  0.89741557509E+02 0.  0.
        254    2    1    2    0    0 -0.44674918064E+03 -0.34190161463E+03 -0.11304329515E+04  0.15447577564E+04  0.88989680516E+03 0.  0.
        -24    2    4    4    0    0 -0.66921637513E+03 -0.15182451435E+03 -0.99981006062E+03  0.12153459983E+04  0.80898073310E+02 0.  0.
         24    2    4    4    0    0  0.22246719449E+03 -0.19007710028E+03 -0.13062289086E+03  0.32941175819E+03  0.76346644626E+02 0.  0.
         13    1    3    3    0    0  0.41139525007E+03  0.33134161645E+03 -0.18555381708E+04  0.19292628701E+04  0.00000000000E+00 0. -1.
        -13    1    3    3    0    0  0.35353930570E+02  0.10559998173E+02 -0.75172958122E+02  0.83740000006E+02  0.00000000000E+00 0.  1.
          2    1    6    6  502    0  0.11087805166E+03 -0.49463912021E+02 -0.36828013075E+02  0.12687365164E+03  0.00000000000E+00 0. -1.
          1    1    5    5  503    0 -0.45682390501E+03 -0.13830368495E+03 -0.71887318832E+03  0.86289898038E+03  0.00000000000E+00 0. -1.
         -2    1    5    5    0  503 -0.21239247012E+03 -0.13520829395E+02 -0.28093687229E+03  0.35244701787E+03  0.00000000000E+00 0.  1.
         -1    1    6    6    0  502  0.11158914283E+03 -0.14061318826E+03 -0.93794877781E+02  0.20253810656E+03  0.00000000000E+00 0.  1.
<mgrwt>
<rscale>  0 0.18130244E+04</rscale>
<asrwt>0</asrwt>
<pdfrwt beam="1">  1        2 0.50914646E+00 0.18130244E+04</pdfrwt>
<pdfrwt beam="2">  1       -2 0.38201277E-01 0.18130244E+04</pdfrwt>
<totfact> 0.67400964E+00</totfact>
</mgrwt>
</event>
<event>
12    1  0.1518126E-007  0.1998146E+04  0.7818608E-02  0.8607488E-01
         -2   -1    0    0    0  501 -0.00000000000E+00  0.00000000000E+00  0.60593544480E+03  0.60593544480E+03  0.00000000000E+00 0.  1.
          2   -1    0    0  501    0  0.00000000000E+00 -0.00000000000E+00 -0.16472824434E+04  0.16472824434E+04  0.00000000000E+00 0. -1.
         23    2    1    2    0    0  0.86674928096E+02  0.17423813122E+03  0.45133354193E+03  0.49984920373E+03  0.90971373861E+02 0.  0.
        254    2    1    2    0    0 -0.86674928096E+02 -0.17423813122E+03 -0.14926805405E+04  0.17533686845E+04  0.89907456758E+03 0.  0.
        -24    2    4    4    0    0 -0.13834655844E+03 -0.32398464217E+02 -0.15604040083E+04  0.15690721774E+04  0.83291043222E+02 0.  0.
         24    2    4    4    0    0  0.51671630344E+02 -0.14183966701E+03  0.67723467788E+02  0.18429650711E+03  0.81180576026E+02 0.  0.
         11    1    3    3    0    0 -0.14254236427E+02  0.59516278014E+02  0.11007661317E+03  0.12594535074E+03  0.00000000000E+00 0. -1.
        -11    1    3    3    0    0  0.10092916452E+03  0.11472185321E+03  0.34125692876E+03  0.37390385300E+03  0.00000000000E+00 0.  1.
          2    1    6    6  502    0  0.67398095887E+01 -0.53545071451E+02 -0.14129888860E+02  0.55786678241E+02  0.00000000000E+00 0. -1.
          3    1    5    5  503    0  0.49664300111E+00 -0.10022799651E+01 -0.39569852244E+03  0.39570010346E+03  0.00000000000E+00 0. -1.
         -4    1    5    5    0  503 -0.13884320144E+03 -0.31396184252E+02 -0.11647054859E+04  0.11733720739E+04  0.00000000000E+00 0.  1.
         -1    1    6    6    0  502  0.44931820755E+02 -0.88294595556E+02  0.81853356648E+02  0.12850982887E+03  0.00000000000E+00 0.  1.
<mgrwt>
<rscale>  0 0.19981460E+04</rscale>
<asrwt>0</asrwt>
<pdfrwt beam="1">  1        2 0.25342806E+00 0.19981460E+04</pdfrwt>
<pdfrwt beam="2">  1       -2 0.93220840E-01 0.19981460E+04</pdfrwt>
<totfact> 0.94977439E+00</totfact>
</mgrwt>
</event>
<event>
12    1  0.1518126E-007  0.1571806E+04  0.7818608E-02  0.8838058E-01
          1   -1    0    0  501    0  0.00000000000E+00  0.00000000000E+00  0.27412891648E+04  0.27412891648E+04  0.00000000000E+00 0. -1.
         -1   -1    0    0    0  501 -0.00000000000E+00 -0.00000000000E+00 -0.22531126891E+03  0.22531126891E+03  0.00000000000E+00 0.  1.
         23    2    1    2    0    0  0.17138712775E+03  0.48227614127E+03  0.10129520588E+04  0.11377020168E+04  0.79562438074E+02 0.  0.
        254    2    1    2    0    0 -0.17138712775E+03 -0.48227614127E+03  0.15030258371E+04  0.18288984169E+04  0.90764471491E+03 0.  0.
        -24    2    4    4    0    0 -0.91873132510E+02 -0.19984595871E+03 -0.55495301423E+02  0.24050876715E+03  0.79910317885E+02 0.  0.
         24    2    4    4    0    0 -0.79513995240E+02 -0.28243018256E+03  0.15585211385E+04  0.15883896498E+04  0.88905887859E+02 0.  0.
         13    1    3    3    0    0  0.64372801306E+02  0.20968706119E+03  0.35150661480E+03  0.41433008752E+03  0.00000000000E+00 0.  1.
        -13    1    3    3    0    0  0.10701432645E+03  0.27258908008E+03  0.66144544400E+03  0.72337192926E+03  0.00000000000E+00 0. -1.
          4    1    6    6  502    0 -0.94414210914E+02 -0.20670868761E+03  0.10759648782E+04  0.10997012975E+04  0.00000000000E+00 0. -1.
          3    1    5    5  503    0 -0.86000072351E+02 -0.12193770595E+03 -0.87658751370E+01  0.14947125859E+03  0.00000000000E+00 0. -1.
         -4    1    5    5    0  503 -0.58730601596E+01 -0.77908252758E+02 -0.46729426287E+02  0.91037508558E+02  0.00000000000E+00 0.  1.
         -3    1    6    6    0  502  0.14900215673E+02 -0.75721494947E+02  0.48255626036E+03  0.48868835226E+03  0.00000000000E+00 0.  1.
<mgrwt>
<rscale>  0 0.15718058E+04</rscale>
<asrwt>0</asrwt>
<pdfrwt beam="1">  1        1 0.42173677E+00 0.15718058E+04</pdfrwt>
<pdfrwt beam="2">  1       -1 0.34663274E-01 0.15718058E+04</pdfrwt>
<totfact> 0.69915569E+00</totfact>
</mgrwt>
</event>
<event>
12    1  0.1518126E-007  0.1503241E+04  0.7818608E-02  0.8882301E-01
          2   -1    0    0  501    0  0.00000000000E+00  0.00000000000E+00  0.19463546680E+04  0.19463546680E+04  0.00000000000E+00 0. -1.
         -2   -1    0    0    0  501 -0.00000000000E+00 -0.00000000000E+00 -0.29025201449E+03  0.29025201449E+03  0.00000000000E+00 0.  1.
         23    2    1    2    0    0  0.58817477904E+02 -0.14727846005E+03 -0.13228478241E+03  0.22609349566E+03  0.92024804371E+02 0.  0.
        254    2    1    2    0    0 -0.58817477904E+02  0.14727846005E+03  0.17883874359E+04  0.20105131868E+04  0.90481114769E+03 0.  0.
        -24    2    4    4    0    0 -0.25607017847E+02 -0.33902170771E+03  0.11584348885E+04  0.12099096959E+04  0.79489896396E+02 0.  0.
         24    2    4    4    0    0 -0.33210460056E+02  0.48630016776E+03  0.62995254739E+03  0.80060349093E+03  0.80839036984E+02 0.  0.
         11    1    3    3    0    0  0.16739563846E+02  0.84871725490E+01 -0.23188453946E+01  0.18910900021E+02  0.00000000000E+00 0. -1.
        -11    1    3    3    0    0  0.42077914058E+02 -0.15576563260E+03 -0.12996593701E+03  0.20718259563E+03  0.00000000000E+00 0.  1.
          2    1    6    6  502    0 -0.37776518590E+02  0.43443998460E+03  0.59580882195E+03  0.73834498569E+03  0.00000000000E+00 0. -1.
          3    1    5    5  503    0  0.21152444227E+02 -0.15007839245E+03  0.58624238870E+03  0.60551720709E+03  0.00000000000E+00 0. -1.
         -4    1    5    5    0  503 -0.46759462075E+02 -0.18894331527E+03  0.57219249984E+03  0.60439248883E+03  0.00000000000E+00 0.  1.
         -1    1    6    6    0  502  0.45660585335E+01  0.51860183156E+02  0.34143725441E+02  0.62258505238E+02  0.00000000000E+00 0.  1.
<mgrwt>
<rscale>  0 0.15032410E+04</rscale>
<asrwt>0</asrwt>
<pdfrwt beam="1">  1        2 0.29943917E+00 0.15032410E+04</pdfrwt>
<pdfrwt beam="2">  1       -2 0.44654157E-01 0.15032410E+04</pdfrwt>
<totfact> 0.32885063E+01</totfact>
</mgrwt>
</event>
<event>
12    1  0.1518126E-007  0.1751126E+04  0.7818608E-02  0.8732731E-01
          2   -1    0    0  501    0  0.00000000000E+00  0.00000000000E+00  0.14066836933E+04  0.14066836933E+04  0.00000000000E+00 0. -1.
         -2   -1    0    0    0  501 -0.00000000000E+00 -0.00000000000E+00 -0.54497733224E+03  0.54497733224E+03  0.00000000000E+00 0.  1.
         23    2    1    2    0    0  0.18290745689E+03 -0.60706268659E+03  0.21574505723E+03  0.67653004577E+03  0.95743040857E+02 0.  0.
        254    2    1    2    0    0 -0.18290745689E+03  0.60706268659E+03  0.64596130385E+03  0.12751309798E+04  0.89817190243E+03 0.  0.
        -24    2    4    4    0    0 -0.10164681080E+03  0.54127720083E+03 -0.57511742710E+02  0.55950977127E+03  0.80190406573E+02 0.  0.
         24    2    4    4    0    0 -0.81260646097E+02  0.65785485763E+02  0.70347304656E+03  0.71562120853E+03  0.79425210866E+02 0.  0.
         13    1    3    3    0    0  0.50139157604E+02 -0.20221676073E+03  0.25396504951E+02  0.20988219531E+03  0.00000000000E+00 0. -1.
        -13    1    3    3    0    0  0.13276829929E+03 -0.40484592587E+03  0.19034855228E+03  0.46664785046E+03  0.00000000000E+00 0.  1.
          4    1    6    6  502    0 -0.36395682493E+02  0.67534106029E+02  0.29984853711E+03  0.30950710232E+03  0.00000000000E+00 0. -1.
          3    1    5    5  503    0 -0.32467980497E+02  0.31365474526E+03 -0.62914188855E+02  0.32154574191E+03  0.00000000000E+00 0. -1.
         -4    1    5    5    0  503 -0.69178830301E+02  0.22762245557E+03  0.54024461454E+01  0.23796402936E+03  0.00000000000E+00 0.  1.
         -3    1    6    6    0  502 -0.44864963604E+02 -0.17486202666E+01  0.40362450945E+03  0.40611410621E+03  0.00000000000E+00 0.  1.
<mgrwt>
<rscale>  0 0.17511262E+04</rscale>
<asrwt>0</asrwt>
<pdfrwt beam="1">  1        2 0.21641287E+00 0.17511262E+04</pdfrwt>
<pdfrwt beam="2">  1       -2 0.83842667E-01 0.17511262E+04</pdfrwt>
<totfact> 0.16899473E+01</totfact>
</mgrwt>
</event>
<event>
12    1  0.1518126E-007  0.1518990E+04  0.7818608E-02  0.8871922E-01
         -2   -1    0    0    0  501 -0.00000000000E+00  0.00000000000E+00  0.41089254889E+03  0.41089254889E+03  0.00000000000E+00 0.  1.
          2   -1    0    0  501    0  0.00000000000E+00 -0.00000000000E+00 -0.14038536744E+04  0.14038536744E+04  0.00000000000E+00 0. -1.
         23    2    1    2    0    0 -0.16716200329E+03  0.38679102107E+03 -0.26344490359E+02  0.43208646501E+03  0.91947005148E+02 0.  0.
        254    2    1    2    0    0  0.16716200329E+03 -0.38679102107E+03 -0.96661663515E+03  0.13826597583E+04  0.89434325539E+03 0.  0.
        -24    2    4    4    0    0  0.48115826753E+03 -0.38681568753E+03 -0.81460480747E+03  0.10252134127E+04  0.79636014394E+02 0.  0.
         24    2    4    4    0    0 -0.31399626424E+03  0.24666467349E-01 -0.15201182769E+03  0.35744634553E+03  0.77888635934E+02 0.  0.
         13    1    3    3    0    0 -0.18552165698E+02  0.35427330916E+01  0.58567795998E+01  0.19774622047E+02  0.00000000000E+00 0.  1.
        -13    1    3    3    0    0 -0.14860983759E+03  0.38324828797E+03 -0.32201269959E+02  0.41231184297E+03  0.00000000000E+00 0. -1.
          2    1    6    6  502    0 -0.19999427231E+03 -0.14498697838E+02 -0.57358047216E+02  0.20856142207E+03  0.00000000000E+00 0. -1.
          1    1    5    5  503    0  0.12294834121E+03 -0.91677480854E+02 -0.26165525335E+03  0.30328950973E+03  0.00000000000E+00 0. -1.
         -2    1    5    5    0  503  0.35820992632E+03 -0.29513820668E+03 -0.55294955411E+03  0.72192390302E+03  0.00000000000E+00 0.  1.
         -1    1    6    6    0  502 -0.11400199193E+03  0.14523364306E+02 -0.94653780469E+02  0.14888492346E+03  0.00000000000E+00 0.  1.
<mgrwt>
<rscale>  0 0.15189905E+04</rscale>
<asrwt>0</asrwt>
<pdfrwt beam="1">  1        2 0.21597749E+00 0.15189905E+04</pdfrwt>
<pdfrwt beam="2">  1       -2 0.63214238E-01 0.15189905E+04</pdfrwt>
<totfact> 0.32191405E+01</totfact>
</mgrwt>
</event>
<event>
12    1  0.1518126E-007  0.1098981E+04  0.7818608E-02  0.9206186E-01
          2   -1    0    0  501    0  0.00000000000E+00  0.00000000000E+00  0.29081575566E+04  0.29081575566E+04  0.00000000000E+00 0. -1.
         -2   -1    0    0    0  501 -0.00000000000E+00 -0.00000000000E+00 -0.10382509975E+03  0.10382509975E+03  0.00000000000E+00 0.  1.
         23    2    1    2    0    0 -0.42794054474E+02 -0.65543221597E+02  0.60584294332E+03  0.61793710454E+03  0.93130812288E+02 0.  0.
        254    2    1    2    0    0  0.42794054474E+02  0.65543221597E+02  0.21984895135E+04  0.23940455518E+04  0.94444201411E+03 0.  0.
        -24    2    4    4    0    0 -0.62361054200E+02  0.47043747802E+03  0.81422880683E+03  0.94570410041E+03  0.78659861817E+02 0.  0.
         24    2    4    4    0    0  0.10515510867E+03 -0.40489425643E+03  0.13842607067E+04  0.14483414514E+04  0.80735989073E+02 0.  0.
         13    1    3    3    0    0 -0.62150428918E+02 -0.65794975215E+02  0.35527097460E+03  0.36661849377E+03  0.00000000000E+00 0.  1.
        -13    1    3    3    0    0  0.19356374444E+02  0.25175361794E+00  0.25057196872E+03  0.25131861077E+03  0.00000000000E+00 0. -1.
          4    1    6    6  502    0  0.44037303099E+02 -0.72025936676E+02  0.35360054047E+03  0.36353866622E+03  0.00000000000E+00 0. -1.
          1    1    5    5  503    0  0.20760294535E+01 -0.70883772118E+00 -0.59192832133E+00  0.22721638022E+01  0.00000000000E+00 0. -1.
         -2    1    5    5    0  503 -0.64437083654E+02  0.47114631574E+03  0.81482073515E+03  0.94343193661E+03  0.00000000000E+00 0.  1.
         -3    1    6    6    0  502  0.61117805575E+02 -0.33286831975E+03  0.10306601662E+04  0.10848027851E+04  0.00000000000E+00 0.  1.
<mgrwt>
<rscale>  0 0.10989809E+04</rscale>
<asrwt>0</asrwt>
<pdfrwt beam="1">  1        2 0.44740879E+00 0.10989809E+04</pdfrwt>
<pdfrwt beam="2">  1       -2 0.15973094E-01 0.10989809E+04</pdfrwt>
<totfact> 0.63272568E+01</totfact>
</mgrwt>
</event>
<event>
12    1  0.1518126E-007  0.1089192E+04  0.7818608E-02  0.9215791E-01
          1   -1    0    0  501    0  0.00000000000E+00  0.00000000000E+00  0.19355304089E+04  0.19355304089E+04  0.00000000000E+00 0. -1.
         -1   -1    0    0    0  501 -0.00000000000E+00 -0.00000000000E+00 -0.15323173234E+03  0.15323173234E+03  0.00000000000E+00 0.  1.
         23    2    1    2    0    0 -0.87435945192E+02  0.19338550078E+02  0.54201746639E+03  0.55696564037E+03  0.91699327403E+02 0.  0.
        254    2    1    2    0    0  0.87435945192E+02 -0.19338550078E+02  0.12402812101E+04  0.15317965008E+04  0.89447415600E+03 0.  0.
        -24    2    4    4    0    0  0.39345935752E+03  0.25551438207E+03  0.73521392424E+03  0.87570862272E+03  0.78919022048E+02 0.  0.
         24    2    4    4    0    0 -0.30602341232E+03 -0.27485293214E+03  0.50506728589E+03  0.65608787812E+03  0.78510364575E+02 0.  0.
         13    1    3    3    0    0 -0.72904791772E+02  0.41339628315E+01  0.52460090856E+03  0.52965867459E+03  0.00000000000E+00 0. -1.
        -13    1    3    3    0    0 -0.14531153420E+02  0.15204587247E+02  0.17416557834E+02  0.27306965775E+02  0.00000000000E+00 0.  1.
          4    1    6    6  502    0 -0.43286046780E+02 -0.10264679927E+02  0.38561176660E+02  0.58872827732E+02  0.00000000000E+00 0. -1.
          1    1    5    5  503    0  0.19263763855E+03  0.78563419047E+02  0.31612404826E+03  0.37843874602E+03  0.00000000000E+00 0. -1.
         -2    1    5    5    0  503  0.20082171896E+03  0.17695096302E+03  0.41908987598E+03  0.49726987670E+03  0.00000000000E+00 0.  1.
         -3    1    6    6    0  502 -0.26273736554E+03 -0.26458825222E+03  0.46650610923E+03  0.59721505039E+03  0.00000000000E+00 0.  1.
<mgrwt>
<rscale>  0 0.10891918E+04</rscale>
<asrwt>0</asrwt>
<pdfrwt beam="1">  1        1 0.29777389E+00 0.10891918E+04</pdfrwt>
<pdfrwt beam="2">  1       -1 0.23574114E-01 0.10891918E+04</pdfrwt>
<totfact> 0.51032818E+01</totfact>
</mgrwt>
</event>
<event>
12    1  0.1518126E-007  0.2203320E+04  0.7818608E-02  0.8517047E-01
          2   -1    0    0  501    0  0.00000000000E+00  0.00000000000E+00  0.13946850140E+04  0.13946850140E+04  0.00000000000E+00 0.  1.
         -2   -1    0    0    0  501 -0.00000000000E+00 -0.00000000000E+00 -0.87019995475E+03  0.87019995475E+03  0.00000000000E+00 0. -1.
         23    2    1    2    0    0 -0.82104276021E+03 -0.34806151675E+03  0.55371209966E+01  0.89634591102E+03  0.90262389510E+02 0.  0.
        254    2    1    2    0    0  0.82104276021E+03  0.34806151675E+03  0.51894793821E+03  0.13685390577E+04  0.89907405497E+03 0.  0.
        -24    2    4    4    0    0  0.77711348752E+03  0.40281618729E+03  0.72398455433E+03  0.11388528488E+04  0.81645104727E+02 0.  0.
         24    2    4    4    0    0  0.43929272683E+02 -0.54754670538E+02 -0.20503661612E+03  0.22968620887E+03  0.76078154883E+02 0.  0.
         11    1    3    3    0    0 -0.25926908721E+03 -0.12650685629E+03  0.41179930606E+02  0.29141075985E+03  0.00000000000E+00 0.  1.
        -11    1    3    3    0    0 -0.56177367299E+03 -0.22155466046E+03 -0.35642809609E+02  0.60493515117E+03  0.00000000000E+00 0. -1.
          4    1    6    6  502    0  0.29796719740E+02 -0.24849027350E+01 -0.17844383046E+02  0.34820127156E+02  0.00000000000E+00 0. -1.
          3    1    5    5  503    0  0.67254993385E+02  0.47677609242E+02  0.42782350349E+02  0.92880127366E+02  0.00000000000E+00 0. -1.
         -4    1    5    5    0  503  0.70985849414E+03  0.35513857805E+03  0.68120220399E+03  0.10459727215E+04  0.00000000000E+00 0.  1.
         -3    1    6    6    0  502  0.14132552943E+02 -0.52269767803E+02 -0.18719223307E+03  0.19486608171E+03  0.00000000000E+00 0.  1.
<mgrwt>
<rscale>  0 0.22033201E+04</rscale>
<asrwt>0</asrwt>
<pdfrwt beam="1">  1        2 0.21456693E+00 0.22033201E+04</pdfrwt>
<pdfrwt beam="2">  1       -2 0.13387692E+00 0.22033201E+04</pdfrwt>
<totfact> 0.53677560E+00</totfact>
</mgrwt>
</event>
<event>
12    1  0.1518126E-007  0.1758208E+04  0.7818608E-02  0.8728845E-01
          1   -1    0    0  501    0  0.00000000000E+00  0.00000000000E+00  0.10856575701E+04  0.10856575701E+04  0.00000000000E+00 0. -1.
         -1   -1    0    0    0  501 -0.00000000000E+00 -0.00000000000E+00 -0.71184894422E+03  0.71184894422E+03  0.00000000000E+00 0.  1.
         23    2    1    2    0    0  0.27673862726E+03  0.58375762669E+03  0.24446865471E+03  0.69681710674E+03  0.91825500727E+02 0.  0.
        254    2    1    2    0    0 -0.27673862726E+03 -0.58375762669E+03  0.12933997122E+03  0.11006894076E+04  0.88172053927E+03 0.  0.
        -24    2    4    4    0    0  0.18313062686E+03  0.12744529065E+03  0.75279199180E+02  0.24858020774E+03  0.79661993766E+02 0.  0.
         24    2    4    4    0    0 -0.45986925411E+03 -0.71120291734E+03  0.54060772038E+02  0.85210919988E+03  0.76669426326E+02 0.  0.
         11    1    3    3    0    0  0.11109677128E+03  0.23660749552E+03  0.14751141516E+03  0.30014199494E+03  0.00000000000E+00 0. -1.
        -11    1    3    3    0    0  0.16564185598E+03  0.34715013117E+03  0.96957239545E+02  0.39667511180E+03  0.00000000000E+00 0.  1.
          4    1    6    6  502    0 -0.13714393316E+03 -0.24057987894E+03  0.50268260216E+02  0.28144987926E+03  0.00000000000E+00 0. -1.
          1    1    5    5  503    0  0.95652614689E+01 -0.10632912843E+02  0.97621997919E+01  0.17316281566E+02  0.00000000000E+00 0. -1.
         -2    1    5    5    0  503  0.17356536539E+03  0.13807820349E+03  0.65516999388E+02  0.23126392618E+03  0.00000000000E+00 0.  1.
         -3    1    6    6    0  502 -0.32272532095E+03 -0.47062303840E+03  0.37925118220E+01  0.57065932061E+03  0.00000000000E+00 0.  1.
<mgrwt>
<rscale>  0 0.17582084E+04</rscale>
<asrwt>0</asrwt>
<pdfrwt beam="1">  1        1 0.16702424E+00 0.17582084E+04</pdfrwt>
<pdfrwt beam="2">  1       -1 0.10951522E+00 0.17582084E+04</pdfrwt>
<totfact> 0.94948514E+00</totfact>
</mgrwt>
</event>
<event>
12    1  0.1518126E-007  0.1865947E+04  0.7818608E-02  0.8671995E-01
         -2   -1    0    0    0  501 -0.00000000000E+00  0.00000000000E+00  0.74280069418E+03  0.74280069418E+03  0.00000000000E+00 0.  1.
          2   -1    0    0  501    0  0.00000000000E+00 -0.00000000000E+00 -0.11718350261E+04  0.11718350261E+04  0.00000000000E+00 0. -1.
         23    2    1    2    0    0  0.70931000437E+03  0.37132343301E+02 -0.11207314951E+03  0.72502188180E+03  0.92719172916E+02 0.  0.
        254    2    1    2    0    0 -0.70931000437E+03 -0.37132343301E+02 -0.31696118241E+03  0.11896138385E+04  0.90012065876E+03 0.  0.
        -24    2    4    4    0    0  0.77403337554E+02 -0.12717160450E+03 -0.35452387337E+03  0.39296430979E+03  0.81054785920E+02 0.  0.
         24    2    4    4    0    0 -0.78671334193E+03  0.90039261200E+02  0.37562690966E+02  0.79664952869E+03  0.78832511600E+02 0.  0.
         13    1    3    3    0    0  0.38352091915E+03  0.56713064410E+02 -0.32283298150E+02  0.38903326135E+03  0.00000000000E+00 0. -1.
        -13    1    3    3    0    0  0.32578908522E+03 -0.19580721110E+02 -0.79789851358E+02  0.33598862045E+03  0.00000000000E+00 0.  1.
          2    1    6    6  502    0 -0.69457884674E+03  0.10051432679E+03  0.18937544149E+02  0.70206946580E+03  0.00000000000E+00 0. -1.
          1    1    5    5  503    0  0.45273556194E+02 -0.10344746906E+03 -0.16943675077E+03  0.20361700876E+03  0.00000000000E+00 0. -1.
         -2    1    5    5    0  503  0.32129781360E+02 -0.23724135439E+02 -0.18508712260E+03  0.18934730103E+03  0.00000000000E+00 0.  1.
         -1    1    6    6    0  502 -0.92134495182E+02 -0.10475065588E+02  0.18625146818E+02  0.94580062886E+02  0.00000000000E+00 0.  1.
<mgrwt>
<rscale>  0 0.18659473E+04</rscale>
<asrwt>0</asrwt>
<pdfrwt beam="1">  1        2 0.18028231E+00 0.18659473E+04</pdfrwt>
<pdfrwt beam="2">  1       -2 0.11427703E+00 0.18659473E+04</pdfrwt>
<totfact> 0.11076410E+01</totfact>
</mgrwt>
</event>
<event>
12    1  0.1518126E-007  0.1711098E+04  0.7818608E-02  0.8755060E-01
         -1   -1    0    0    0  501 -0.00000000000E+00  0.00000000000E+00  0.28971186066E+03  0.28971186066E+03  0.00000000000E+00 0.  1.
          1   -1    0    0  501    0  0.00000000000E+00 -0.00000000000E+00 -0.25265233595E+04  0.25265233595E+04  0.00000000000E+00 0. -1.
         23    2    1    2    0    0 -0.50997321027E+03 -0.17008648671E+03 -0.13159438279E+04  0.14246814423E+04  0.94905035807E+02 0.  0.
        254    2    1    2    0    0  0.50997321027E+03  0.17008648671E+03 -0.92086767096E+03  0.13915537778E+04  0.89410433454E+03 0.  0.
        -24    2    4    4    0    0  0.42045710522E+03 -0.53892891586E+02  0.49112946128E+01  0.43156666440E+03  0.80851987695E+02 0.  0.
         24    2    4    4    0    0  0.89516105049E+02  0.22397937830E+03 -0.92577896557E+03  0.95998711343E+03  0.79552937725E+02 0.  0.
         13    1    3    3    0    0 -0.27186230664E+03 -0.13924185478E+03 -0.71116527942E+03  0.77398544078E+03  0.00000000000E+00 0.  1.
        -13    1    3    3    0    0 -0.23811090363E+03 -0.30844631933E+02 -0.60477854846E+03  0.65069600154E+03  0.00000000000E+00 0. -1.
          4    1    6    6  502    0  0.10258232870E+02  0.12765757602E+03 -0.42276408697E+03  0.44173652927E+03  0.00000000000E+00 0. -1.
          1    1    5    5  503    0  0.36408462328E+03 -0.63582325203E+02  0.26228593258E+02  0.37052430971E+03  0.00000000000E+00 0. -1.
         -2    1    5    5    0  503  0.56372481944E+02  0.96894336169E+01 -0.21317298645E+02  0.61042354688E+02  0.00000000000E+00 0.  1.
         -3    1    6    6    0  502  0.79257872179E+02  0.96321802277E+02 -0.50301487860E+03  0.51825058416E+03  0.00000000000E+00 0.  1.
<mgrwt>
<rscale>  0 0.17110976E+04</rscale>
<asrwt>0</asrwt>
<pdfrwt beam="1">  1        1 0.38869591E+00 0.17110976E+04</pdfrwt>
<pdfrwt beam="2">  1       -1 0.44571055E-01 0.17110976E+04</pdfrwt>
<totfact> 0.61645934E+00</totfact>
</mgrwt>
</event>
<event>
12    1  0.1518126E-007  0.1248248E+04  0.7818608E-02  0.9071643E-01
          1   -1    0    0  501    0  0.00000000000E+00  0.00000000000E+00  0.52906534114E+03  0.52906534114E+03  0.00000000000E+00 0. -1.
         -1   -1    0    0    0  501 -0.00000000000E+00 -0.00000000000E+00 -0.73626153135E+03  0.73626153135E+03  0.00000000000E+00 0.  1.
         23    2    1    2    0    0 -0.24652414642E+03  0.39994808826E+02 -0.19435926862E+03  0.32836214326E+03  0.87592421636E+02 0.  0.
        254    2    1    2    0    0  0.24652414642E+03 -0.39994808826E+02 -0.12836921597E+02  0.93696472923E+03  0.90297529189E+03 0.  0.
        -24    2    4    4    0    0 -0.25155267854E+03 -0.81215102568E+02 -0.25397327274E+03  0.37534677481E+03  0.80673013670E+02 0.  0.
         24    2    4    4    0    0  0.49807682496E+03  0.41220293742E+02  0.24113635114E+03  0.56161795442E+03  0.86535257019E+02 0.  0.
         11    1    3    3    0    0 -0.22373163849E+03  0.60625294386E+02 -0.18389863209E+03  0.29588845747E+03  0.00000000000E+00 0.  1.
        -11    1    3    3    0    0 -0.22792507935E+02 -0.20630485559E+02 -0.10460636528E+02  0.32473685792E+02  0.00000000000E+00 0. -1.
          4    1    6    6  502    0  0.43628661022E+03  0.65730348898E+01  0.20984644513E+03  0.48417428843E+03  0.00000000000E+00 0. -1.
          3    1    5    5  503    0 -0.83103789628E+02  0.29066059812E+01 -0.11219418177E+03  0.13965035851E+03  0.00000000000E+00 0. -1.
         -4    1    5    5    0  503 -0.16844888891E+03 -0.84121708549E+02 -0.14177909097E+03  0.23569641631E+03  0.00000000000E+00 0.  1.
         -3    1    6    6    0  502  0.61790214742E+02  0.34647258852E+02  0.31289906007E+02  0.77443665988E+02  0.00000000000E+00 0.  1.
<mgrwt>
<rscale>  0 0.12482475E+04</rscale>
<asrwt>0</asrwt>
<pdfrwt beam="1">  1        1 0.81394668E-01 0.12482475E+04</pdfrwt>
<pdfrwt beam="2">  1       -1 0.11327100E+00 0.12482475E+04</pdfrwt>
<totfact> 0.28774709E+01</totfact>
</mgrwt>
</event>
<event>
12    1  0.1518126E-007  0.1294787E+04  0.7818608E-02  0.9033709E-01
          2   -1    0    0  501    0  0.00000000000E+00  0.00000000000E+00  0.90576190756E+03  0.90576190756E+03  0.00000000000E+00 0.  1.
         -2   -1    0    0    0  501 -0.00000000000E+00 -0.00000000000E+00 -0.46272482887E+03  0.46272482887E+03  0.00000000000E+00 0. -1.
         23    2    1    2    0    0 -0.24374011882E+03 -0.65902478416E+02  0.39372829876E+03  0.47692307544E+03  0.93173303386E+02 0.  0.
        254    2    1    2    0    0  0.24374011882E+03  0.65902478416E+02  0.49308779933E+02  0.89156366099E+03  0.85364045338E+03 0.  0.
        -24    2    4    4    0    0  0.48172137041E+03  0.23886205318E+03 -0.99542013693E+02  0.55276601691E+03  0.80815207778E+02 0.  0.
         24    2    4    4    0    0 -0.23798125159E+03 -0.17295957476E+03  0.14885079363E+03  0.33879764408E+03  0.77956361251E+02 0.  0.
         11    1    3    3    0    0 -0.13250143987E+03 -0.19310321455E+02  0.28352368134E+03  0.31355254418E+03  0.00000000000E+00 0.  1.
        -11    1    3    3    0    0 -0.11123867895E+03 -0.46592156962E+02  0.11020461742E+03  0.16337053127E+03  0.00000000000E+00 0. -1.
          2    1    6    6  502    0 -0.12088548176E+03 -0.40652854289E+02  0.57576551450E+02  0.13993217478E+03  0.00000000000E+00 0. -1.
          1    1    5    5  503    0  0.11099585401E+03  0.76836284544E+02 -0.54871359015E+02  0.14572151616E+03  0.00000000000E+00 0. -1.
         -2    1    5    5    0  503  0.37072551640E+03  0.16202576863E+03 -0.44670654678E+02  0.40704450076E+03  0.00000000000E+00 0.  1.
         -1    1    6    6    0  502 -0.11709576984E+03 -0.13230672047E+03  0.91274242176E+02  0.19886546930E+03  0.00000000000E+00 0.  1.
<mgrwt>
<rscale>  0 0.12947873E+04</rscale>
<asrwt>0</asrwt>
<pdfrwt beam="1">  1        2 0.13934799E+00 0.12947873E+04</pdfrwt>
<pdfrwt beam="2">  1       -2 0.71188435E-01 0.12947873E+04</pdfrwt>
<totfact> 0.51066511E+01</totfact>
</mgrwt>
</event>
<event>
12    1  0.1518126E-007  0.1339842E+04  0.7818608E-02  0.8998553E-01
         -1   -1    0    0    0  501 -0.00000000000E+00  0.00000000000E+00  0.19664039550E+03  0.19664039550E+03  0.00000000000E+00 0.  1.
          1   -1    0    0  501    0  0.00000000000E+00 -0.00000000000E+00 -0.22823095827E+04  0.22823095827E+04  0.00000000000E+00 0. -1.
         23    2    1    2    0    0  0.14914775380E+02  0.33800123984E+03 -0.35795144222E+03  0.50105024328E+03  0.91950109534E+02 0.  0.
        254    2    1    2    0    0 -0.14914775380E+02 -0.33800123984E+03 -0.17277177450E+04  0.19778997349E+04  0.90144964718E+03 0.  0.
        -24    2    4    4    0    0 -0.19806171884E+03  0.22516020140E+03 -0.30521691053E+03  0.43520986368E+03  0.79527996356E+02 0.  0.
         24    2    4    4    0    0  0.18314694346E+03 -0.56316144124E+03 -0.14225008345E+04  0.15426898712E+04  0.75430782843E+02 0.  0.
         11    1    3    3    0    0  0.39535080260E+02  0.25425004473E+03 -0.30464449521E+03  0.39876606711E+03  0.00000000000E+00 0. -1.
        -11    1    3    3    0    0 -0.24620304880E+02  0.83751195107E+02 -0.53306947005E+02  0.10228417616E+03  0.00000000000E+00 0.  1.
          4    1    6    6  502    0  0.98179324454E+02 -0.19074046029E+03 -0.48274317854E+03  0.52826326711E+03  0.00000000000E+00 0. -1.
          3    1    5    5  503    0 -0.97798863622E+02  0.59133532362E+02 -0.13753626377E+03  0.17882286271E+03  0.00000000000E+00 0. -1.
         -4    1    5    5    0  503 -0.10026285522E+03  0.16602666904E+03 -0.16768064676E+03  0.25638700097E+03  0.00000000000E+00 0.  1.
         -3    1    6    6    0  502  0.84967619006E+02 -0.37242098095E+03 -0.93975765591E+03  0.10144266041E+04  0.00000000000E+00 0.  1.
<mgrwt>
<rscale>  0 0.13398422E+04</rscale>
<asrwt>0</asrwt>
<pdfrwt beam="1">  1        1 0.35112454E+00 0.13398422E+04</pdfrwt>
<pdfrwt beam="2">  1       -1 0.30252369E-01 0.13398422E+04</pdfrwt>
<totfact> 0.18899342E+01</totfact>
</mgrwt>
</event>
<event>
12    1  0.1708836E-007  0.2255979E+04  0.7818608E-02  0.8495483E-01
          2   -1    0    0  501    0  0.00000000000E+00  0.00000000000E+00  0.92738804454E+03  0.92738804454E+03  0.00000000000E+00 0.  1.
         -2   -1    0    0    0  501 -0.00000000000E+00 -0.00000000000E+00 -0.13719824495E+04  0.13719824495E+04  0.00000000000E+00 0. -1.
         23    2    1    2    0    0  0.85233550957E+03  0.22790155979E+03  0.12801327791E+03  0.89641966814E+03  0.93626279796E+02 0.  0.
        254    2    1    2    0    0 -0.85233550957E+03 -0.22790155979E+03 -0.57260768286E+03  0.14029508259E+04  0.92842690587E+03 0.  0.
        -24    2    4    4    0    0 -0.60325560884E+02  0.26096194996E+03 -0.34037132398E+03  0.44021630211E+03  0.78723832680E+02 0.  0.
         24    2    4    4    0    0 -0.79200994869E+03 -0.48886350975E+03 -0.23223635888E+03  0.96273452377E+03  0.81588889489E+02 0.  0.
         11    1    3    3    0    0  0.33637510997E+03  0.10005864578E+03  0.58039598922E+01  0.35098950576E+03  0.00000000000E+00 0. -1.
        -11    1    3    3    0    0  0.51596039960E+03  0.12784291401E+03  0.12220931802E+03  0.54543016237E+03  0.00000000000E+00 0.  1.
          2    1    6    6  502    0 -0.11807235032E+03 -0.52421681707E+02 -0.55466876420E+02  0.14059049400E+03  0.00000000000E+00 0. -1.
          1    1    5    5  503    0  0.10605010552E+02  0.24652038425E+01 -0.17054001525E+02  0.20233201596E+02  0.00000000000E+00 0. -1.
         -2    1    5    5    0  503 -0.70930571435E+02  0.25849674612E+03 -0.32331732246E+03  0.41998310052E+03  0.00000000000E+00 0.  1.
         -1    1    6    6    0  502 -0.67393759837E+03 -0.43644182805E+03 -0.17676948245E+03  0.82214402977E+03  0.00000000000E+00 0.  1.
<mgrwt>
<rscale>  0 0.22559788E+04</rscale>
<asrwt>0</asrwt>
<pdfrwt beam="1">  1        2 0.14267509E+00 0.22559788E+04</pdfrwt>
<pdfrwt beam="2">  1       -2 0.21107422E+00 0.22559788E+04</pdfrwt>
<totfact> 0.28809913E+00</totfact>
</mgrwt>
</event>
<event>
12    1  0.1518126E-007  0.1498167E+04  0.7818608E-02  0.8885673E-01
          2   -1    0    0  501    0  0.00000000000E+00  0.00000000000E+00  0.26899156652E+04  0.26899156652E+04  0.00000000000E+00 0. -1.
         -2   -1    0    0    0  501 -0.00000000000E+00 -0.00000000000E+00 -0.20860352231E+03  0.20860352231E+03  0.00000000000E+00 0.  1.
         23    2    1    2    0    0  0.55110174736E+02  0.26398585296E+03  0.14524564290E+04  0.14793366620E+04  0.77984739254E+02 0.  0.
        254    2    1    2    0    0 -0.55110174736E+02 -0.26398585296E+03  0.10288557139E+04  0.14191825255E+04  0.93957932009E+03 0.  0.
        -24    2    4    4    0    0 -0.38087866977E+03 -0.24342128174E+03  0.15997435145E+03  0.48762562768E+03  0.88681893067E+02 0.  0.
         24    2    4    4    0    0  0.32576849503E+03 -0.20564571215E+02  0.86888136247E+03  0.93155689783E+03  0.79343669650E+02 0.  0.
         13    1    3    3    0    0  0.66275557585E+02  0.13009321620E+03  0.79407016909E+03  0.80738103017E+03  0.00000000000E+00 0.  1.
        -13    1    3    3    0    0 -0.11165382849E+02  0.13389263676E+03  0.65838625988E+03  0.67195563184E+03  0.00000000000E+00 0. -1.
          2    1    6    6  502    0  0.50688608648E+02 -0.24077448198E+02  0.21409135545E+03  0.22132367030E+03  0.00000000000E+00 0. -1.
          1    1    5    5  503    0  0.42329011463E+01 -0.46860212045E+01 -0.16995332703E+01  0.65394694112E+01  0.00000000000E+00 0. -1.
         -2    1    5    5    0  503 -0.38511157091E+03 -0.23873526054E+03  0.16167388472E+03  0.48108615827E+03  0.00000000000E+00 0.  1.
         -1    1    6    6    0  502  0.27507988638E+03  0.35128769833E+01  0.65479000702E+03  0.71023322753E+03  0.00000000000E+00 0.  1.
<mgrwt>
<rscale>  0 0.14981667E+04</rscale>
<asrwt>0</asrwt>
<pdfrwt beam="1">  1        2 0.41383316E+00 0.14981667E+04</pdfrwt>
<pdfrwt beam="2">  1       -2 0.32092851E-01 0.14981667E+04</pdfrwt>
<totfact> 0.23607204E+01</totfact>
</mgrwt>
</event>
<event>
12    1  0.1518126E-007  0.2311786E+04  0.7818608E-02  0.8473288E-01
         -3   -1    0    0    0  501 -0.00000000000E+00  0.00000000000E+00  0.14197000514E+04  0.14197000514E+04  0.00000000000E+00 0.  1.
          3   -1    0    0  501    0  0.00000000000E+00 -0.00000000000E+00 -0.94110649884E+03  0.94110649884E+03  0.00000000000E+00 0. -1.
         23    2    1    2    0    0  0.95547660081E+03 -0.10345139184E+02 -0.30051608277E+02  0.96026879282E+03  0.90390810974E+02 0.  0.
        254    2    1    2    0    0 -0.95547660081E+03  0.10345139184E+02  0.50864516082E+03  0.14005377574E+04  0.88867516772E+03 0.  0.
        -24    2    4    4    0    0 -0.87240552404E+03  0.20011475639E+03  0.67426979676E+03  0.11231648905E+04  0.75645875053E+02 0.  0.
         24    2    4    4    0    0 -0.83071076770E+02 -0.18976961720E+03 -0.16562463594E+03  0.27737286688E+03  0.81184209322E+02 0.  0.
         11    1    3    3    0    0  0.22024276238E+02  0.65981930964E+01 -0.13198778565E+02  0.26510613941E+02  0.00000000000E+00 0.  1.
        -11    1    3    3    0    0  0.93345232457E+03 -0.16943332281E+02 -0.16852829711E+02  0.93375817888E+03  0.00000000000E+00 0. -1.
          2    1    6    6  502    0 -0.62415465601E+02 -0.93466643409E+02 -0.13184548556E+03  0.17324819145E+03  0.00000000000E+00 0. -1.
          3    1    5    5  503    0 -0.36236557551E+03  0.11547016239E+03  0.26077795266E+03  0.46113697457E+03  0.00000000000E+00 0. -1.
         -2    1    5    5    0  503 -0.51003994852E+03  0.84644593999E+02  0.41349184410E+03  0.66202791597E+03  0.00000000000E+00 0.  1.
         -1    1    6    6    0  502 -0.20655611169E+02 -0.96302973794E+02 -0.33779150376E+02  0.10412467543E+03  0.00000000000E+00 0.  1.
<mgrwt>
<rscale>  0 0.23117863E+04</rscale>
<asrwt>0</asrwt>
<pdfrwt beam="1">  1        3 0.14478561E+00 0.23117863E+04</pdfrwt>
<pdfrwt beam="2">  1       -3 0.21841539E+00 0.23117863E+04</pdfrwt>
<totfact> 0.94216465E-02</totfact>
</mgrwt>
</event>
<event>
12    1  0.1518126E-007  0.1522545E+04  0.7818608E-02  0.8869598E-01
         -2   -1    0    0    0  501 -0.00000000000E+00  0.00000000000E+00  0.36424167080E+03  0.36424167080E+03  0.00000000000E+00 0.  1.
          2   -1    0    0  501    0  0.00000000000E+00 -0.00000000000E+00 -0.15910746934E+04  0.15910746934E+04  0.00000000000E+00 0. -1.
         23    2    1    2    0    0 -0.20728465537E+02  0.92083016031E+02 -0.10187178976E+04  0.10271120574E+04  0.90906944002E+02 0.  0.
        254    2    1    2    0    0  0.20728465537E+02 -0.92083016031E+02 -0.20811512498E+03  0.92820430678E+03  0.89963458068E+03 0.  0.
        -24    2    4    4    0    0  0.23659672633E+03 -0.31345951644E+03  0.16798672738E+03  0.43452584961E+03  0.79738911728E+02 0.  0.
         24    2    4    4    0    0 -0.21586826079E+03  0.22137650041E+03 -0.37610185236E+03  0.49367845717E+03  0.81603644371E+02 0.  0.
         11    1    3    3    0    0  0.20148952960E+02  0.85029856884E+02 -0.59743888944E+03  0.60379572993E+03  0.00000000000E+00 0. -1.
        -11    1    3    3    0    0 -0.40877418497E+02  0.70531591477E+01 -0.42127900819E+03  0.42331632752E+03  0.00000000000E+00 0.  1.
          4    1    6    6  502    0  0.75614575821E+00 -0.51464283178E+01 -0.18628176238E+01  0.55251760458E+01  0.00000000000E+00 0. -1.
          3    1    5    5  503    0  0.10864807353E+03 -0.86073880916E+02  0.74552220156E+02  0.15738853321E+03  0.00000000000E+00 0. -1.
         -4    1    5    5    0  503  0.12794865280E+03 -0.22738563553E+03  0.93434507221E+02  0.27713731639E+03  0.00000000000E+00 0.  1.
         -3    1    6    6    0  502 -0.21662440655E+03  0.22652292873E+03 -0.37423903473E+03  0.48815328112E+03  0.00000000000E+00 0.  1.
<mgrwt>
<rscale>  0 0.15225448E+04</rscale>
<asrwt>0</asrwt>
<pdfrwt beam="1">  1        2 0.24478072E+00 0.15225448E+04</pdfrwt>
<pdfrwt beam="2">  1       -2 0.56037180E-01 0.15225448E+04</pdfrwt>
<totfact> 0.32531631E+01</totfact>
</mgrwt>
</event>
<event>
12    1  0.1518126E-007  0.1407878E+04  0.7818608E-02  0.8948135E-01
          2   -1    0    0  501    0  0.00000000000E+00  0.00000000000E+00  0.11288164780E+04  0.11288164780E+04  0.00000000000E+00 0. -1.
         -2   -1    0    0    0  501 -0.00000000000E+00 -0.00000000000E+00 -0.43898225751E+03  0.43898225751E+03  0.00000000000E+00 0.  1.
         23    2    1    2    0    0 -0.39941753709E+03  0.81290498316E+02  0.23353438616E+03  0.47923526100E+03  0.94792467053E+02 0.  0.
        254    2    1    2    0    0  0.39941753709E+03 -0.81290498316E+02  0.45629983436E+03  0.10885634745E+04  0.90034348180E+03 0.  0.
        -24    2    4    4    0    0  0.12766524226E+03 -0.39887541176E+03 -0.46607970906E+02  0.42960725050E+03  0.83606689570E+02 0.  0.
         24    2    4    4    0    0  0.27175229484E+03  0.31758491345E+03  0.50290780526E+03  0.65895622404E+03  0.81225350787E+02 0.  0.
         13    1    3    3    0    0 -0.16117892386E+03  0.10591480981E+02  0.13984775480E+03  0.21365443943E+03  0.00000000000E+00 0. -1.
        -13    1    3    3    0    0 -0.23823861324E+03  0.70699017335E+02  0.93686631354E+02  0.26558082157E+03  0.00000000000E+00 0.  1.
          2    1    6    6  502    0  0.15616524176E+03  0.12650030403E+03  0.26594035043E+03  0.33333793610E+03  0.00000000000E+00 0. -1.
          1    1    5    5  503    0  0.25865140917E+02 -0.20062433475E+03 -0.42541770922E+02  0.20670977597E+03  0.00000000000E+00 0. -1.
         -2    1    5    5    0  503  0.10180010134E+03 -0.19825107701E+03 -0.40661999838E+01  0.22289747453E+03  0.00000000000E+00 0.  1.
         -1    1    6    6    0  502  0.11558705308E+03  0.19108460941E+03  0.23696745483E+03  0.32561828794E+03  0.00000000000E+00 0.  1.
<mgrwt>
<rscale>  0 0.14078784E+04</rscale>
<asrwt>0</asrwt>
<pdfrwt beam="1">  1        2 0.17366407E+00 0.14078784E+04</pdfrwt>
<pdfrwt beam="2">  1       -2 0.67535732E-01 0.14078784E+04</pdfrwt>
<totfact> 0.40896060E+01</totfact>
</mgrwt>
</event>
<event>
12    1  0.1518126E-007  0.1682280E+04  0.7818608E-02  0.8771536E-01
          2   -1    0    0  501    0  0.00000000000E+00  0.00000000000E+00  0.11502010494E+04  0.11502010494E+04  0.00000000000E+00 0.  1.
         -2   -1    0    0    0  501 -0.00000000000E+00 -0.00000000000E+00 -0.61512396532E+03  0.61512396532E+03  0.00000000000E+00 0. -1.
         23    2    1    2    0    0 -0.31177061770E+02 -0.89207543189E+01 -0.43547222276E+03  0.44619825461E+03  0.91680077332E+02 0.  0.
        254    2    1    2    0    0  0.31177061770E+02  0.89207543189E+01  0.97054930688E+03  0.13191267602E+04  0.89279217248E+03 0.  0.
        -24    2    4    4    0    0 -0.40155872700E+03  0.65874040514E+02  0.28760035820E+03  0.50471567600E+03  0.80219368717E+02 0.  0.
         24    2    4    4    0    0  0.43273578877E+03 -0.56953286195E+02  0.68294894868E+03  0.81441108416E+03  0.79637979644E+02 0.  0.
         13    1    3    3    0    0 -0.32011512958E+02 -0.43870890456E+02 -0.17077648368E+03  0.17920379284E+03  0.00000000000E+00 0.  1.
        -13    1    3    3    0    0  0.83445118715E+00  0.34950136137E+02 -0.26469573909E+03  0.26699446177E+03  0.00000000000E+00 0. -1.
          4    1    6    6  502    0  0.68311877160E+02 -0.39199054185E+02  0.12632790139E+03  0.14886845563E+03  0.00000000000E+00 0. -1.
          3    1    5    5  503    0 -0.14775232829E+03  0.44611614511E+02  0.68953952672E+02  0.16904317275E+03  0.00000000000E+00 0. -1.
         -4    1    5    5    0  503 -0.25380639871E+03  0.21262426003E+02  0.21864640553E+03  0.33567250325E+03  0.00000000000E+00 0.  1.
         -3    1    6    6    0  502  0.36442391161E+03 -0.17754232010E+02  0.55662104729E+03  0.66554262853E+03  0.00000000000E+00 0.  1.
<mgrwt>
<rscale>  0 0.16822797E+04</rscale>
<asrwt>0</asrwt>
<pdfrwt beam="1">  1        2 0.17695401E+00 0.16822797E+04</pdfrwt>
<pdfrwt beam="2">  1       -2 0.94634457E-01 0.16822797E+04</pdfrwt>
<totfact> 0.18191544E+01</totfact>
</mgrwt>
</event>
<event>
12    1  0.1518126E-007  0.2518635E+04  0.7818608E-02  0.8396377E-01
          2   -1    0    0  501    0  0.00000000000E+00  0.00000000000E+00  0.86746428086E+03  0.86746428086E+03  0.00000000000E+00 0. -1.
         -2   -1    0    0    0  501 -0.00000000000E+00 -0.00000000000E+00 -0.18281794211E+04  0.18281794211E+04  0.00000000000E+00 0.  1.
         23    2    1    2    0    0  0.27178166512E+03  0.68767576723E+03 -0.12866633175E+04  0.14868754969E+04  0.92374326476E+02 0.  0.
        254    2    1    2    0    0 -0.27178166512E+03 -0.68767576723E+03  0.32594817736E+03  0.12087682050E+04  0.89895223724E+03 0.  0.
        -24    2    4    4    0    0  0.19369201246E+03 -0.20742522090E+03  0.43573515994E+03  0.52629820448E+03  0.81134779667E+02 0.  0.
         24    2    4    4    0    0 -0.46547367758E+03 -0.48025054633E+03 -0.10978698258E+03  0.68247000055E+03  0.80036168957E+02 0.  0.
         13    1    3    3    0    0  0.24603048369E+03  0.59777191309E+03 -0.10583028094E+04  0.12401076951E+04  0.00000000000E+00 0. -1.
        -13    1    3    3    0    0  0.25751181427E+02  0.89903854139E+02 -0.22836050812E+03  0.24676780179E+03  0.00000000000E+00 0.  1.
          4    1    6    6  502    0 -0.12077660496E+03 -0.84596727707E+02 -0.42287164109E+02  0.15340077866E+03  0.00000000000E+00 0. -1.
          3    1    5    5  503    0  0.12754149173E+03 -0.11988274954E+03  0.19684151488E+03  0.26341087247E+03  0.00000000000E+00 0. -1.
         -4    1    5    5    0  503  0.66150520724E+02 -0.87542471362E+02  0.23889364505E+03  0.26288733201E+03  0.00000000000E+00 0.  1.
         -3    1    6    6    0  502 -0.34469707262E+03 -0.39565381862E+03 -0.67499818473E+02  0.52906922189E+03  0.00000000000E+00 0.  1.
<mgrwt>
<rscale>  0 0.25186348E+04</rscale>
<asrwt>0</asrwt>
<pdfrwt beam="1">  1        2 0.13345604E+00 0.25186348E+04</pdfrwt>
<pdfrwt beam="2">  1       -2 0.28125837E+00 0.25186348E+04</pdfrwt>
<totfact> 0.11372051E+00</totfact>
</mgrwt>
</event>
<event>
12    1  0.1518126E-007  0.1403336E+04  0.7818608E-02  0.8951407E-01
         -2   -1    0    0    0  501 -0.00000000000E+00  0.00000000000E+00  0.44100052503E+03  0.44100052503E+03  0.00000000000E+00 0.  1.
          2   -1    0    0  501    0  0.00000000000E+00 -0.00000000000E+00 -0.11164120674E+04  0.11164120674E+04  0.00000000000E+00 0. -1.
         23    2    1    2    0    0  0.36236926192E+03 -0.17934146114E+03 -0.19780570802E+03  0.45938885078E+03  0.91848660456E+02 0.  0.
        254    2    1    2    0    0 -0.36236926192E+03  0.17934146114E+03 -0.47760583431E+03  0.10980237416E+04  0.90226047376E+03 0.  0.
        -24    2    4    4    0    0 -0.60761761448E+03 -0.63381396401E+02 -0.19874910668E+03  0.64718992041E+03  0.78340403662E+02 0.  0.
         24    2    4    4    0    0  0.24524835256E+03  0.24272285754E+03 -0.27885672763E+03  0.45083382120E+03  0.80180544946E+02 0.  0.
         11    1    3    3    0    0  0.34196727482E+03 -0.18514198122E+03 -0.16996881679E+03  0.42439199915E+03  0.00000000000E+00 0. -1.
        -11    1    3    3    0    0  0.20401987097E+02  0.58005200851E+01 -0.27836891227E+02  0.34996851629E+02  0.00000000000E+00 0.  1.
          4    1    6    6  502    0  0.68910152343E+02  0.41963517684E+02 -0.10347373106E+03  0.13121112351E+03  0.00000000000E+00 0. -1.
          1    1    5    5  503    0 -0.55008928750E+03 -0.34179277418E+02 -0.17219491961E+03  0.57742318759E+03  0.00000000000E+00 0. -1.
         -2    1    5    5    0  503 -0.57528326974E+02 -0.29202118982E+02 -0.26554187069E+02  0.69766732820E+02  0.00000000000E+00 0.  1.
         -3    1    6    6    0  502  0.17633820022E+03  0.20075933985E+03 -0.17538299657E+03  0.31962269769E+03  0.00000000000E+00 0.  1.
<mgrwt>
<rscale>  0 0.14033365E+04</rscale>
<asrwt>0</asrwt>
<pdfrwt beam="1">  1        2 0.17175570E+00 0.14033365E+04</pdfrwt>
<pdfrwt beam="2">  1       -2 0.67846237E-01 0.14033365E+04</pdfrwt>
<totfact> 0.41220105E+01</totfact>
</mgrwt>
</event>
<event>
12    1  0.1696070E-007  0.2869295E+04  0.7818608E-02  0.8282072E-01
          2   -1    0    0  501    0  0.00000000000E+00  0.00000000000E+00  0.17974778530E+04  0.17974778530E+04  0.00000000000E+00 0. -1.
         -2   -1    0    0    0  501 -0.00000000000E+00 -0.00000000000E+00 -0.11450566639E+04  0.11450566639E+04  0.00000000000E+00 0.  1.
         23    2    1    2    0    0  0.47372936310E+01 -0.22798971474E+03 -0.10074802104E+04  0.10367622463E+04  0.88644396474E+02 0.  0.
        254    2    1    2    0    0 -0.47372936310E+01  0.22798971474E+03  0.16599013995E+04  0.19057722707E+04  0.90812638967E+03 0.  0.
        -24    2    4    4    0    0  0.23776725156E+02  0.28071299650E+03  0.17485950172E+04  0.17729395857E+04  0.79781712049E+02 0.  0.
         24    2    4    4    0    0 -0.28514018787E+02 -0.52723281759E+02 -0.88693617651E+02  0.13283268494E+03  0.78645856019E+02 0.  0.
         11    1    3    3    0    0 -0.26485144662E+02 -0.19148842600E+02 -0.16646016197E+03  0.16963822265E+03  0.00000000000E+00 0. -1.
        -11    1    3    3    0    0  0.31222438293E+02 -0.20884087214E+03 -0.84102004839E+03  0.86712402362E+03  0.00000000000E+00 0.  1.
          4    1    6    6  502    0 -0.40445419871E+02 -0.65922735535E+02 -0.84503037453E+02  0.11455305490E+03  0.00000000000E+00 0. -1.
          3    1    5    5  503    0 -0.11349060352E+02  0.23355595338E+03  0.14204515526E+04  0.14395693099E+04  0.00000000000E+00 0. -1.
         -4    1    5    5    0  503  0.35125785509E+02  0.47157043121E+02  0.32814346453E+03  0.33337027588E+03  0.00000000000E+00 0.  1.
         -3    1    6    6    0  502  0.11931401083E+02  0.13199453776E+02 -0.41905801980E+01  0.18279630035E+02  0.00000000000E+00 0.  1.
<mgrwt>
<rscale>  0 0.28692954E+04</rscale>
<asrwt>0</asrwt>
<pdfrwt beam="1">  1        2 0.27653505E+00 0.28692954E+04</pdfrwt>
<pdfrwt beam="2">  1       -2 0.17616256E+00 0.28692954E+04</pdfrwt>
<totfact> 0.14444676E+00</totfact>
</mgrwt>
</event>
<event>
12    1  0.1518126E-007  0.2633817E+04  0.7818608E-02  0.8356804E-01
         -1   -1    0    0    0  501 -0.00000000000E+00  0.00000000000E+00  0.85695250631E+03  0.85695250631E+03  0.00000000000E+00 0.  1.
          1   -1    0    0  501    0  0.00000000000E+00 -0.00000000000E+00 -0.20237395052E+04  0.20237395052E+04  0.00000000000E+00 0. -1.
         23    2    1    2    0    0 -0.15757680673E+03 -0.85016402427E+03  0.33216754459E+03  0.93065024079E+03  0.90361910227E+02 0.  0.
        254    2    1    2    0    0  0.15757680673E+03  0.85016402427E+03 -0.14989545435E+04  0.19500417708E+04  0.89899325137E+03 0.  0.
        -24    2    4    4    0    0 -0.19322092539E+02 -0.77867131477E+02 -0.70373914432E+03  0.71259861512E+03  0.78175249325E+02 0.  0.
         24    2    4    4    0    0  0.17689889927E+03  0.92803115575E+03 -0.79521539920E+03  0.12374431556E+04  0.79768325253E+02 0.  0.
         11    1    3    3    0    0 -0.14853378556E+03 -0.60682634202E+03  0.21772588725E+03  0.66159281798E+03  0.00000000000E+00 0.  1.
        -11    1    3    3    0    0 -0.90430211698E+01 -0.24333768225E+03  0.11444165734E+03  0.26905742281E+03  0.00000000000E+00 0. -1.
          4    1    6    6  502    0  0.66028784385E+02  0.37308716882E+03 -0.37006215288E+03  0.52962234932E+03  0.00000000000E+00 0. -1.
          3    1    5    5  503    0 -0.29535970725E+01 -0.22884417144E+02 -0.38461005606E+02  0.44851635822E+02  0.00000000000E+00 0. -1.
         -4    1    5    5    0  503 -0.16368495467E+02 -0.54982714333E+02 -0.66527813871E+03  0.66774697930E+03  0.00000000000E+00 0.  1.
         -3    1    6    6    0  502  0.11087011488E+03  0.55494398693E+03 -0.42515324632E+03  0.70782080632E+03  0.00000000000E+00 0.  1.
<mgrwt>
<rscale>  0 0.26338175E+04</rscale>
<asrwt>0</asrwt>
<pdfrwt beam="1">  1        1 0.31134454E+00 0.26338175E+04</pdfrwt>
<pdfrwt beam="2">  1       -1 0.13183885E+00 0.26338175E+04</pdfrwt>
<totfact> 0.12338415E+00</totfact>
</mgrwt>
</event>
<event>
12    1  0.1518126E-007  0.1433533E+04  0.7818608E-02  0.8929897E-01
         -1   -1    0    0    0  501 -0.00000000000E+00  0.00000000000E+00  0.45444096167E+03  0.45444096167E+03  0.00000000000E+00 0.  1.
          1   -1    0    0  501    0  0.00000000000E+00 -0.00000000000E+00 -0.11305197008E+04  0.11305197008E+04  0.00000000000E+00 0. -1.
         23    2    1    2    0    0  0.39725153526E+02 -0.15318924993E+03  0.23236532490E+03  0.29603745138E+03  0.92733458302E+02 0.  0.
        254    2    1    2    0    0 -0.39725153526E+02  0.15318924993E+03 -0.90844406406E+03  0.12889232111E+04  0.90055948861E+03 0.  0.
        -24    2    4    4    0    0 -0.22123412157E+03 -0.22197802498E+03 -0.45779182532E+02  0.32770791838E+03  0.84130648922E+02 0.  0.
         24    2    4    4    0    0  0.18150896805E+03  0.37516727492E+03 -0.86266488153E+03  0.96121529275E+03  0.77769862695E+02 0.  0.
         13    1    3    3    0    0 -0.16002180680E+01 -0.36212316805E+02  0.13072150488E+03  0.13565398787E+03  0.00000000000E+00 0.  1.
        -13    1    3    3    0    0  0.41325371594E+02 -0.11697693313E+03  0.10164382002E+03  0.16038346352E+03  0.00000000000E+00 0. -1.
          4    1    6    6  502    0  0.11189428355E+03  0.30549702685E+03 -0.67207684165E+03  0.74668336341E+03  0.00000000000E+00 0. -1.
          3    1    5    5  503    0 -0.13859438565E+03 -0.18464972481E+03 -0.52532580540E+02  0.23677752559E+03  0.00000000000E+00 0. -1.
         -4    1    5    5    0  503 -0.82639735928E+02 -0.37328300177E+02  0.67533980077E+01  0.90930392790E+02  0.00000000000E+00 0.  1.
         -3    1    6    6    0  502  0.69614684496E+02  0.69670248069E+02 -0.19058803987E+03  0.21453192934E+03  0.00000000000E+00 0.  1.
<mgrwt>
<rscale>  0 0.14335333E+04</rscale>
<asrwt>0</asrwt>
<pdfrwt beam="1">  1        1 0.17392611E+00 0.14335333E+04</pdfrwt>
<pdfrwt beam="2">  1       -1 0.69913995E-01 0.14335333E+04</pdfrwt>
<totfact> 0.24196168E+01</totfact>
</mgrwt>
</event>
<event>
12    1  0.1518126E-007  0.1233949E+04  0.7818608E-02  0.9083650E-01
          1   -1    0    0  501    0  0.00000000000E+00  0.00000000000E+00  0.22257374805E+04  0.22257374805E+04  0.00000000000E+00 0. -1.
         -1   -1    0    0    0  501 -0.00000000000E+00 -0.00000000000E+00 -0.17102522115E+03  0.17102522115E+03  0.00000000000E+00 0.  1.
         23    2    1    2    0    0 -0.88625760825E+02 -0.22308717420E+03  0.23639186705E+03  0.34867532029E+03  0.89838473925E+02 0.  0.
        254    2    1    2    0    0  0.88625760825E+02  0.22308717420E+03  0.18183203923E+04  0.20480873814E+04  0.91145513319E+03 0.  0.
        -24    2    4    4    0    0  0.73328065700E+02 -0.75894942666E+02  0.17173133975E+04  0.17224182051E+04  0.80138132908E+02 0.  0.
         24    2    4    4    0    0  0.15297695125E+02  0.29898211687E+03  0.10100699478E+03  0.32566917627E+03  0.78953617358E+02 0.  0.
         11    1    3    3    0    0 -0.18991236968E+02 -0.76240709654E+01  0.54549665735E+02  0.58261990796E+02  0.00000000000E+00 0. -1.
        -11    1    3    3    0    0 -0.69634523857E+02 -0.21546310324E+03  0.18184220131E+03  0.29041332949E+03  0.00000000000E+00 0.  1.
          2    1    6    6  502    0 -0.16462156869E+02  0.11261223021E+03  0.71283558927E+02  0.13429021846E+03  0.00000000000E+00 0. -1.
          3    1    5    5  503    0  0.18074021982E+02 -0.37267554183E+01  0.63978778932E+02  0.66587109340E+02  0.00000000000E+00 0. -1.
         -4    1    5    5    0  503  0.55254043718E+02 -0.72168187248E+02  0.16533346186E+04  0.16558310958E+04  0.00000000000E+00 0.  1.
         -1    1    6    6    0  502  0.31759851994E+02  0.18636988666E+03  0.29723435852E+02  0.19137895781E+03  0.00000000000E+00 0.  1.
<mgrwt>
<rscale>  0 0.12339485E+04</rscale>
<asrwt>0</asrwt>
<pdfrwt beam="1">  1        1 0.34242113E+00 0.12339485E+04</pdfrwt>
<pdfrwt beam="2">  1       -1 0.26311574E-01 0.12339485E+04</pdfrwt>
<totfact> 0.26578073E+01</totfact>
</mgrwt>
</event>
<event>
12    1  0.1518126E-007  0.1707794E+04  0.7818608E-02  0.8756931E-01
          2   -1    0    0  501    0  0.00000000000E+00  0.00000000000E+00  0.18369278399E+04  0.18369278399E+04  0.00000000000E+00 0. -1.
         -2   -1    0    0    0  501 -0.00000000000E+00 -0.00000000000E+00 -0.39693462222E+03  0.39693462222E+03  0.00000000000E+00 0.  1.
         23    2    1    2    0    0  0.43196736778E+03 -0.23720896268E+03  0.89405455459E+03  0.10250953395E+04  0.92860161834E+02 0.  0.
        254    2    1    2    0    0 -0.43196736778E+03  0.23720896268E+03  0.54593866313E+03  0.12087671227E+04  0.95927318016E+03 0.  0.
        -24    2    4    4    0    0 -0.67618954617E+03 -0.60077325915E+02  0.38357747847E+03  0.78382259685E+03  0.80028706836E+02 0.  0.
         24    2    4    4    0    0  0.24422217839E+03  0.29728628859E+03  0.16236118466E+03  0.42494452583E+03  0.78696162181E+02 0.  0.
         13    1    3    3    0    0  0.11788465295E+03 -0.10227285927E+03  0.33936987514E+03  0.37353506033E+03  0.00000000000E+00 0.  1.
        -13    1    3    3    0    0  0.31408271483E+03 -0.13493610341E+03  0.55468467945E+03  0.65156027916E+03  0.00000000000E+00 0. -1.
          2    1    6    6  502    0  0.15903679802E+02 -0.12972791086E+01  0.12608922171E+02  0.20337032297E+02  0.00000000000E+00 0. -1.
          1    1    5    5  503    0 -0.66348249289E+01  0.25538010074E+01  0.15846631910E+02  0.17368320135E+02  0.00000000000E+00 0. -1.
         -2    1    5    5    0  503 -0.66955472124E+03 -0.62631126923E+02  0.36773084656E+03  0.76645427672E+03  0.00000000000E+00 0.  1.
         -1    1    6    6    0  502  0.22831849859E+03  0.29858356770E+03  0.14975226249E+03  0.40460749353E+03  0.00000000000E+00 0.  1.
<mgrwt>
<rscale>  0 0.17077942E+04</rscale>
<asrwt>0</asrwt>
<pdfrwt beam="1">  1        2 0.28260428E+00 0.17077942E+04</pdfrwt>
<pdfrwt beam="2">  1       -2 0.61066866E-01 0.17077942E+04</pdfrwt>
<totfact> 0.19527298E+01</totfact>
</mgrwt>
</event>
<event>
12    1  0.1518126E-007  0.1268855E+04  0.7818608E-02  0.9054635E-01
          1   -1    0    0  501    0  0.00000000000E+00  0.00000000000E+00  0.14941393403E+04  0.14941393403E+04  0.00000000000E+00 0. -1.
         -1   -1    0    0    0  501 -0.00000000000E+00 -0.00000000000E+00 -0.26938456934E+03  0.26938456934E+03  0.00000000000E+00 0.  1.
         23    2    1    2    0    0  0.79666159487E+02 -0.26347759428E+03  0.47133676092E+03  0.55327436701E+03  0.90482281921E+02 0.  0.
        254    2    1    2    0    0 -0.79666159487E+02  0.26347759428E+03  0.75341801007E+03  0.12102495427E+04  0.90625499609E+03 0.  0.
        -24    2    4    4    0    0  0.34245099571E+03 -0.11874584910E+03  0.30654342226E+03  0.48209776365E+03  0.84119693549E+02 0.  0.
         24    2    4    4    0    0 -0.42211715520E+03  0.38222344339E+03  0.44687458781E+03  0.72815177900E+03  0.78933279692E+02 0.  0.
         13    1    3    3    0    0  0.19136204644E+02 -0.16009537670E+03  0.33500133788E+03  0.37178302859E+03  0.00000000000E+00 0. -1.
        -13    1    3    3    0    0  0.60529954843E+02 -0.10338221758E+03  0.13633542304E+03  0.18149133842E+03  0.00000000000E+00 0.  1.
          2    1    6    6  502    0 -0.24111386727E+03  0.22761340192E+03  0.21091072308E+03  0.39297212475E+03  0.00000000000E+00 0. -1.
          3    1    5    5  503    0  0.29307744216E+02 -0.11790311411E+02  0.85016332445E+00  0.31601868487E+02  0.00000000000E+00 0. -1.
         -4    1    5    5    0  503  0.31314325150E+03 -0.10695553769E+03  0.30569325894E+03  0.45049589517E+03  0.00000000000E+00 0.  1.
         -1    1    6    6    0  502 -0.18100328793E+03  0.15461004147E+03  0.23596386472E+03  0.33517965425E+03  0.00000000000E+00 0.  1.
<mgrwt>
<rscale>  0 0.12688547E+04</rscale>
<asrwt>0</asrwt>
<pdfrwt beam="1">  1        1 0.22986759E+00 0.12688547E+04</pdfrwt>
<pdfrwt beam="2">  1       -1 0.41443781E-01 0.12688547E+04</pdfrwt>
<totfact> 0.37100988E+01</totfact>
</mgrwt>
</event>
<event>
12    1  0.1518126E-007  0.2094154E+04  0.7818608E-02  0.8563823E-01
         -2   -1    0    0    0  501 -0.00000000000E+00  0.00000000000E+00  0.37209751093E+03  0.37209751093E+03  0.00000000000E+00 0. -1.
          2   -1    0    0  501    0  0.00000000000E+00 -0.00000000000E+00 -0.29464588486E+04  0.29464588486E+04  0.00000000000E+00 0.  1.
         23    2    1    2    0    0  0.76614851148E+03  0.24511121296E+03 -0.59228138409E+03  0.10032755481E+04  0.93282041108E+02 0.  0.
        254    2    1    2    0    0 -0.76614851148E+03 -0.24511121296E+03 -0.19820799536E+04  0.23152808114E+04  0.88590137420E+03 0.  0.
        -24    2    4    4    0    0  0.76472488425E+02 -0.28031977027E+03 -0.84072135592E+03  0.89384988182E+03  0.87909031548E+02 0.  0.
         24    2    4    4    0    0 -0.84262099991E+03  0.35208557314E+02 -0.11413585976E+04  0.14214309295E+04  0.80725752313E+02 0.  0.
         13    1    3    3    0    0  0.17164500991E+03  0.69877625991E+02 -0.18361020188E+03  0.26087851248E+03  0.00000000000E+00 0.  1.
        -13    1    3    3    0    0  0.59450350157E+03  0.17523358697E+03 -0.40867118221E+03  0.74239703566E+03  0.00000000000E+00 0. -1.
          2    1    6    6  502    0 -0.33285688997E+03  0.50301694651E+02 -0.42809405473E+03  0.54459938430E+03  0.00000000000E+00 0. -1.
          1    1    5    5  503    0  0.60863633016E+02 -0.26189111166E+03 -0.67834071923E+03  0.72968312819E+03  0.00000000000E+00 0. -1.
         -2    1    5    5    0  503  0.15608855409E+02 -0.18428658609E+02 -0.16238063669E+03  0.16416675363E+03  0.00000000000E+00 0.  1.
         -1    1    6    6    0  502 -0.50976410994E+03 -0.15093137337E+02 -0.71326454291E+03  0.87683154525E+03  0.00000000000E+00 0.  1.
<mgrwt>
<rscale>  0 0.20941538E+04</rscale>
<asrwt>0</asrwt>
<pdfrwt beam="1">  1        2 0.45330138E+00 0.20941538E+04</pdfrwt>
<pdfrwt beam="2">  1       -2 0.57245769E-01 0.20941538E+04</pdfrwt>
<totfact> 0.49655966E+00</totfact>
</mgrwt>
</event>
<event>
12    1  0.1518126E-007  0.1075195E+04  0.7818608E-02  0.9229711E-01
         -2   -1    0    0    0  501 -0.00000000000E+00  0.00000000000E+00  0.10391352565E+04  0.10391352565E+04  0.00000000000E+00 0.  1.
          2   -1    0    0  501    0  0.00000000000E+00 -0.00000000000E+00 -0.27812668952E+03  0.27812668952E+03  0.00000000000E+00 0. -1.
         23    2    1    2    0    0  0.11559965481E+03  0.29526660006E+02  0.38541331328E+02  0.15752947775E+03  0.95367700485E+02 0.  0.
        254    2    1    2    0    0 -0.11559965481E+03 -0.29526660006E+02  0.72246723568E+03  0.11597324683E+04  0.89932496215E+03 0.  0.
        -24    2    4    4    0    0 -0.97280995535E+02 -0.43176550876E+03  0.19317758795E+03  0.48966887164E+03  0.81073896625E+02 0.  0.
         24    2    4    4    0    0 -0.18318659279E+02  0.40223884875E+03  0.52928964772E+03  0.67006359666E+03  0.81890339202E+02 0.  0.
         13    1    3    3    0    0  0.13101460980E+03  0.24409504239E+02  0.44078600987E+02  0.14036942310E+03  0.00000000000E+00 0. -1.
        -13    1    3    3    0    0 -0.15414954982E+02  0.51171557667E+01 -0.55372696591E+01  0.17160054648E+02  0.00000000000E+00 0.  1.
          2    1    6    6  502    0  0.45243175371E+01  0.28419232328E+03  0.42276113717E+03  0.50942391499E+03  0.00000000000E+00 0. -1.
          1    1    5    5  503    0 -0.10839771482E+03 -0.33181448082E+03  0.15752658244E+03  0.38296937010E+03  0.00000000000E+00 0. -1.
         -2    1    5    5    0  503  0.11116719282E+02 -0.99951027938E+02  0.35651005517E+02  0.10669950154E+03  0.00000000000E+00 0.  1.
         -1    1    6    6    0  502 -0.22842976816E+02  0.11804652547E+03  0.10652851055E+03  0.16063968167E+03  0.00000000000E+00 0.  1.
<mgrwt>
<rscale>  0 0.10751953E+04</rscale>
<asrwt>0</asrwt>
<pdfrwt beam="1">  1        2 0.42788722E-01 0.10751953E+04</pdfrwt>
<pdfrwt beam="2">  1       -2 0.15986696E+00 0.10751953E+04</pdfrwt>
<totfact> 0.29957597E+01</totfact>
</mgrwt>
</event>
<event>
12    1  0.1518126E-007  0.1620484E+04  0.7818608E-02  0.8808062E-01
          1   -1    0    0  501    0  0.00000000000E+00  0.00000000000E+00  0.46760505528E+03  0.46760505528E+03  0.00000000000E+00 0. -1.
         -1   -1    0    0    0  501 -0.00000000000E+00 -0.00000000000E+00 -0.14039464934E+04  0.14039464934E+04  0.00000000000E+00 0.  1.
         23    2    1    2    0    0 -0.22235899293E+03  0.32423836855E+03  0.12336443152E+03  0.42181669944E+03  0.90202569727E+02 0.  0.
        254    2    1    2    0    0  0.22235899293E+03 -0.32423836855E+03 -0.10597058696E+04  0.14497348492E+04  0.90784390815E+03 0.  0.
        -24    2    4    4    0    0  0.17474888625E+03 -0.22035710321E+02  0.12032473387E+03  0.22822934130E+03  0.81165539933E+02 0.  0.
         24    2    4    4    0    0  0.47610106673E+02 -0.30220265823E+03 -0.11800306035E+04  0.12215055079E+04  0.77526200817E+02 0.  0.
         13    1    3    3    0    0 -0.55107290100E+02  0.25370797951E+02  0.13590629975E+02  0.62170700768E+02  0.00000000000E+00 0.  1.
        -13    1    3    3    0    0 -0.16725170283E+03  0.29886757060E+03  0.10977380155E+03  0.35964599867E+03  0.00000000000E+00 0. -1.
          2    1    6    6  502    0  0.54647858884E+02 -0.25626405101E+03 -0.10780154914E+04  0.11094030161E+04  0.00000000000E+00 0. -1.
          1    1    5    5  503    0  0.18339325399E+03 -0.24212720372E+02  0.11385750363E+03  0.21721618856E+03  0.00000000000E+00 0. -1.
         -2    1    5    5    0  503 -0.86443677393E+01  0.21770100507E+01  0.64672302358E+01  0.11013152741E+02  0.00000000000E+00 0.  1.
         -1    1    6    6    0  502 -0.70377522113E+01 -0.45938607217E+02 -0.10201511209E+03  0.11210249187E+03  0.00000000000E+00 0.  1.
<mgrwt>
<rscale>  0 0.16204845E+04</rscale>
<asrwt>0</asrwt>
<pdfrwt beam="1">  1        1 0.71939240E-01 0.16204845E+04</pdfrwt>
<pdfrwt beam="2">  1       -1 0.21599177E+00 0.16204845E+04</pdfrwt>
<totfact> 0.54503683E+00</totfact>
</mgrwt>
</event>
<event>
12    1  0.1518126E-007  0.1329769E+04  0.7818608E-02  0.9006285E-01
          1   -1    0    0  501    0  0.00000000000E+00  0.00000000000E+00  0.71286193859E+03  0.71286193859E+03  0.00000000000E+00 0. -1.
         -1   -1    0    0    0  501 -0.00000000000E+00 -0.00000000000E+00 -0.62013633751E+03  0.62013633751E+03  0.00000000000E+00 0.  1.
         23    2    1    2    0    0  0.14737289082E+03  0.30575780955E+03  0.14575855858E+03  0.38022239092E+03  0.90093851635E+02 0.  0.
        254    2    1    2    0    0 -0.14737289082E+03 -0.30575780955E+03 -0.53032957494E+02  0.95277588518E+03  0.88868598827E+03 0.  0.
        -24    2    4    4    0    0 -0.26257183869E+03 -0.55395332534E+03  0.10554505799E+03  0.62672301649E+03  0.76378812492E+02 0.  0.
         24    2    4    4    0    0  0.11519894787E+03  0.24819551579E+03 -0.15857801548E+03  0.32605286869E+03  0.79320076534E+02 0.  0.
         13    1    3    3    0    0  0.88428133552E+02  0.11130806477E+03  0.94392086359E+02  0.17064256812E+03  0.00000000000E+00 0.  1.
        -13    1    3    3    0    0  0.58944757269E+02  0.19444974478E+03  0.51366472217E+02  0.20957982280E+03  0.00000000000E+00 0. -1.
          4    1    6    6  502    0  0.93856380040E+02  0.13733914239E+03 -0.62127473322E+02  0.17756937531E+03  0.00000000000E+00 0. -1.
          1    1    5    5  503    0 -0.23982689317E+03 -0.49123370196E+03  0.69960094057E+02  0.55110970178E+03  0.00000000000E+00 0. -1.
         -2    1    5    5    0  503 -0.22744945518E+02 -0.62719623383E+02  0.35584963929E+02  0.75613314712E+02  0.00000000000E+00 0.  1.
         -3    1    6    6    0  502  0.21342567832E+02  0.11085637339E+03 -0.96450542159E+02  0.14848349338E+03  0.00000000000E+00 0.  1.
<mgrwt>
<rscale>  0 0.13297693E+04</rscale>
<asrwt>0</asrwt>
<pdfrwt beam="1">  1        1 0.10967107E+00 0.13297693E+04</pdfrwt>
<pdfrwt beam="2">  1       -1 0.95405591E-01 0.13297693E+04</pdfrwt>
<totfact> 0.27561153E+01</totfact>
</mgrwt>
</event>
<event>
12    1  0.1518126E-007  0.2390018E+04  0.7818608E-02  0.8443250E-01
         -2   -1    0    0    0  501 -0.00000000000E+00  0.00000000000E+00  0.67343975570E+03  0.67343975570E+03  0.00000000000E+00 0.  1.
          2   -1    0    0  501    0  0.00000000000E+00 -0.00000000000E+00 -0.21205263447E+04  0.21205263447E+04  0.00000000000E+00 0. -1.
         23    2    1    2    0    0 -0.27797337696E+03  0.10815973569E+03  0.52252339910E+03  0.60889441457E+03  0.93562699649E+02 0.  0.
        254    2    1    2    0    0  0.27797337696E+03 -0.10815973569E+03 -0.19696099881E+04  0.21850716858E+04  0.89789032753E+03 0.  0.
        -24    2    4    4    0    0  0.29367186934E+03 -0.32518931259E+03 -0.18875793674E+04  0.19393983645E+04  0.79491459621E+02 0.  0.
         24    2    4    4    0    0 -0.15698492384E+02  0.21702957690E+03 -0.82030620687E+02  0.24567332131E+03  0.79234324390E+02 0.  0.
         13    1    3    3    0    0 -0.76878698565E+02  0.27364267379E+02  0.71460993070E+02  0.10847032291E+03  0.00000000000E+00 0. -1.
        -13    1    3    3    0    0 -0.20109467839E+03  0.80795468314E+02  0.45106240603E+03  0.50042409166E+03  0.00000000000E+00 0.  1.
          2    1    6    6  502    0  0.12963476332E+02  0.59641106422E+00 -0.19283566628E+01  0.13119679271E+02  0.00000000000E+00 0. -1.
          3    1    5    5  503    0  0.34835493160E+02 -0.20348672308E+02 -0.10433327836E+03  0.11186157973E+03  0.00000000000E+00 0. -1.
         -2    1    5    5    0  503  0.25883637618E+03 -0.30484064029E+03 -0.17832460890E+04  0.18275367848E+04  0.00000000000E+00 0.  1.
         -1    1    6    6    0  502 -0.28661968716E+02  0.21643316584E+03 -0.80102264024E+02  0.23255364204E+03  0.00000000000E+00 0.  1.
<mgrwt>
<rscale>  0 0.23900182E+04</rscale>
<asrwt>0</asrwt>
<pdfrwt beam="1">  1        2 0.32623482E+00 0.23900182E+04</pdfrwt>
<pdfrwt beam="2">  1       -2 0.10360612E+00 0.23900182E+04</pdfrwt>
<totfact> 0.39087037E+00</totfact>
</mgrwt>
</event>
<event>
12    1  0.1518126E-007  0.1727453E+04  0.7818608E-02  0.8745860E-01
          2   -1    0    0  501    0  0.00000000000E+00  0.00000000000E+00  0.38525869904E+04  0.38525869904E+04  0.00000000000E+00 0. -1.
         -2   -1    0    0    0  501 -0.00000000000E+00 -0.00000000000E+00 -0.19364230293E+03  0.19364230293E+03  0.00000000000E+00 0.  1.
         23    2    1    2    0    0 -0.33543615421E+03  0.74116728421E+02  0.24760515678E+04  0.25014422368E+04  0.91494233559E+02 0.  0.
        254    2    1    2    0    0  0.33543615421E+03 -0.74116728421E+02  0.11828931197E+04  0.15447870566E+04  0.93226617146E+03 0.  0.
        -24    2    4    4    0    0  0.47366150217E+02 -0.10691071937E+03 -0.13297875796E+03  0.19504812435E+03  0.81773875055E+02 0.  0.
         24    2    4    4    0    0  0.28807000399E+03  0.32793990947E+02  0.13158718777E+04  0.13497389322E+04  0.78845504609E+02 0.  0.
         11    1    3    3    0    0 -0.31424566633E+03  0.59100392365E+02  0.20689590317E+04  0.20935220730E+04  0.00000000000E+00 0. -1.
        -11    1    3    3    0    0 -0.21190487884E+02  0.15016336056E+02  0.40709253608E+03  0.40792016383E+03  0.00000000000E+00 0.  1.
          2    1    6    6  502    0  0.18309679882E+03  0.53570338449E+02  0.75338130014E+03  0.77715995927E+03  0.00000000000E+00 0. -1.
          3    1    5    5  503    0 -0.11268542131E+02 -0.66210484949E+02 -0.87926035739E+02  0.11064265055E+03  0.00000000000E+00 0. -1.
         -4    1    5    5    0  503  0.58634692349E+02 -0.40700234419E+02 -0.45052722221E+02  0.84405473804E+02  0.00000000000E+00 0.  1.
         -1    1    6    6    0  502  0.10497320518E+03 -0.20776347502E+02  0.56249057757E+03  0.57257897296E+03  0.00000000000E+00 0.  1.
<mgrwt>
<rscale>  0 0.17274534E+04</rscale>
<asrwt>0</asrwt>
<pdfrwt beam="1">  1        2 0.59270564E+00 0.17274534E+04</pdfrwt>
<pdfrwt beam="2">  1       -2 0.29791126E-01 0.17274534E+04</pdfrwt>
<totfact> 0.44781161E+00</totfact>
</mgrwt>
</event>
<event>
12    1  0.1518126E-007  0.3187368E+04  0.7818608E-02  0.8192161E-01
          2   -1    0    0  501    0  0.00000000000E+00  0.00000000000E+00  0.11716931243E+04  0.11716931243E+04  0.00000000000E+00 0. -1.
         -2   -1    0    0    0  501 -0.00000000000E+00 -0.00000000000E+00 -0.21676570312E+04  0.21676570312E+04  0.00000000000E+00 0.  1.
         23    2    1    2    0    0  0.31515883738E+03 -0.58768462762E+03  0.91302130754E+03  0.11341887692E+04  0.89877371580E+02 0.  0.
        254    2    1    2    0    0 -0.31515883738E+03  0.58768462762E+03 -0.19089852145E+04  0.22051613863E+04  0.87966691202E+03 0.  0.
        -24    2    4    4    0    0  0.12948041000E+03 -0.83347826876E+02 -0.54745254660E+02  0.18210073692E+03  0.80321844231E+02 0.  0.
         24    2    4    4    0    0 -0.44463924738E+03  0.67103245450E+03 -0.18542399598E+04  0.20230606494E+04  0.81116873071E+02 0.  0.
         11    1    3    3    0    0  0.31449245469E+03 -0.57562476698E+03  0.90995879070E+03  0.11217282992E+04  0.00000000000E+00 0. -1.
        -11    1    3    3    0    0  0.66638268746E+00 -0.12059860642E+02  0.30625168424E+01  0.12460470056E+02  0.00000000000E+00 0.  1.
          4    1    6    6  502    0 -0.17189093480E+03  0.30106552262E+03 -0.88042161656E+03  0.94621834969E+03  0.00000000000E+00 0. -1.
          3    1    5    5  503    0 -0.72148105777E+01  0.53802654116E+01  0.25515406129E+01  0.93547371460E+01  0.00000000000E+00 0. -1.
         -4    1    5    5    0  503  0.13669522057E+03 -0.88728092288E+02 -0.57296795273E+02  0.17274599977E+03  0.00000000000E+00 0.  1.
         -3    1    6    6    0  502 -0.27274831257E+03  0.36996693187E+03 -0.97381834326E+03  0.10768422997E+04  0.00000000000E+00 0.  1.
<mgrwt>
<rscale>  0 0.31873681E+04</rscale>
<asrwt>0</asrwt>
<pdfrwt beam="1">  1        2 0.18026048E+00 0.31873681E+04</pdfrwt>
<pdfrwt beam="2">  1       -2 0.33348570E+00 0.31873681E+04</pdfrwt>
<totfact> 0.32778327E-01</totfact>
</mgrwt>
</event>
<event>
12    1  0.1518126E-007  0.2389540E+04  0.7818608E-02  0.8443430E-01
          2   -1    0    0  501    0  0.00000000000E+00  0.00000000000E+00  0.31518768103E+04  0.31518768103E+04  0.00000000000E+00 0. -1.
         -2   -1    0    0    0  501 -0.00000000000E+00 -0.00000000000E+00 -0.45289710570E+03  0.45289710570E+03  0.00000000000E+00 0.  1.
         23    2    1    2    0    0 -0.47369448983E+03  0.90365255135E+03  0.10341682725E+04  0.14556872395E+04  0.92449554593E+02 0.  0.
        254    2    1    2    0    0  0.47369448983E+03 -0.90365255135E+03  0.16648114321E+04  0.21490866765E+04  0.89777616108E+03 0.  0.
        -24    2    4    4    0    0  0.12031562090E+03 -0.53918543278E+03  0.19515118882E+03  0.59202626891E+03  0.84937253454E+02 0.  0.
         24    2    4    4    0    0  0.35337886893E+03 -0.36446711856E+03  0.14696602433E+04  0.15570604076E+04  0.82601311664E+02 0.  0.
         11    1    3    3    0    0 -0.43991194166E+03  0.80504283441E+03  0.95926101090E+03  0.13273274534E+04  0.00000000000E+00 0. -1.
        -11    1    3    3    0    0 -0.33782548168E+02  0.98609716937E+02  0.74907261635E+02  0.12835978607E+03  0.00000000000E+00 0.  1.
          2    1    6    6  502    0  0.19630910368E+02 -0.36232003465E+02  0.19133562016E+03  0.19572289150E+03  0.00000000000E+00 0. -1.
          3    1    5    5  503    0  0.24804899891E+02 -0.20881952588E+03  0.37038454728E+02  0.21352452922E+03  0.00000000000E+00 0. -1.
         -4    1    5    5    0  503  0.95510721006E+02 -0.33036590690E+03  0.15811273409E+03  0.37850173969E+03  0.00000000000E+00 0.  1.
         -1    1    6    6    0  502  0.33374795857E+03 -0.32823511510E+03  0.12783246231E+04  0.13613375161E+04  0.00000000000E+00 0.  1.
<mgrwt>
<rscale>  0 0.23895404E+04</rscale>
<asrwt>0</asrwt>
<pdfrwt beam="1">  1        2 0.48490411E+00 0.23895404E+04</pdfrwt>
<pdfrwt beam="2">  1       -2 0.69676480E-01 0.23895404E+04</pdfrwt>
<totfact> 0.23572433E+00</totfact>
</mgrwt>
</event>
<event>
12    1  0.1518126E-007  0.1946950E+04  0.7818608E-02  0.8631833E-01
         -1   -1    0    0    0  501 -0.00000000000E+00  0.00000000000E+00  0.35400382092E+03  0.35400382092E+03  0.00000000000E+00 0.  1.
          1   -1    0    0  501    0  0.00000000000E+00 -0.00000000000E+00 -0.26769590348E+04  0.26769590348E+04  0.00000000000E+00 0. -1.
         23    2    1    2    0    0  0.29888218957E+03 -0.68654607369E+03 -0.11660073529E+04  0.13886834609E+04  0.90512612315E+02 0.  0.
        254    2    1    2    0    0 -0.29888218957E+03  0.68654607369E+03 -0.11569478610E+04  0.16422793949E+04  0.89323971204E+03 0.  0.
        -24    2    4    4    0    0 -0.29642706874E+02  0.77209809316E+03 -0.10937611196E+04  0.13414712117E+04  0.78850933228E+02 0.  0.
         24    2    4    4    0    0 -0.26923948269E+03 -0.85552019476E+02 -0.63186741441E+02  0.30080818314E+03  0.81755438179E+02 0.  0.
         13    1    3    3    0    0  0.26328517654E+03 -0.60920104011E+03 -0.97360140114E+03  0.11782803910E+04  0.00000000000E+00 0.  1.
        -13    1    3    3    0    0  0.35597013031E+02 -0.77345033572E+02 -0.19240595175E+03  0.21040306990E+03  0.00000000000E+00 0. -1.
          4    1    6    6  502    0 -0.12388226959E+03 -0.41007906624E+02 -0.71038386190E+02  0.14857630174E+03  0.00000000000E+00 0. -1.
          1    1    5    5  503    0  0.20139604840E+02  0.26590270827E+03 -0.33885208805E+03  0.43119669702E+03  0.00000000000E+00 0. -1.
         -2    1    5    5    0  503 -0.49782311714E+02  0.50619538489E+03 -0.75490903154E+03  0.91027451472E+03  0.00000000000E+00 0.  1.
         -3    1    6    6    0  502 -0.14535721310E+03 -0.44544112852E+02  0.78516447488E+01  0.15223188140E+03  0.00000000000E+00 0.  1.
<mgrwt>
<rscale>  0 0.19469502E+04</rscale>
<asrwt>0</asrwt>
<pdfrwt beam="1">  1        1 0.41183983E+00 0.19469502E+04</pdfrwt>
<pdfrwt beam="2">  1       -1 0.54462129E-01 0.19469502E+04</pdfrwt>
<totfact> 0.32366104E+00</totfact>
</mgrwt>
</event>
<event>
12    1  0.1518126E-007  0.1255497E+04  0.7818608E-02  0.9065620E-01
         -2   -1    0    0    0  501 -0.00000000000E+00  0.00000000000E+00  0.42075042946E+03  0.42075042946E+03  0.00000000000E+00 0.  1.
          2   -1    0    0  501    0  0.00000000000E+00 -0.00000000000E+00 -0.93658479588E+03  0.93658479588E+03  0.00000000000E+00 0. -1.
         23    2    1    2    0    0  0.85265687985E+02 -0.18788644741E+03 -0.34501607462E+03  0.41207347604E+03  0.90536750785E+02 0.  0.
        254    2    1    2    0    0 -0.85265687985E+02  0.18788644741E+03 -0.17081829181E+03  0.94526174930E+03  0.90651493712E+03 0.  0.
        -24    2    4    4    0    0 -0.57081158518E+02 -0.35986650476E+03 -0.49909849361E+02  0.37759415558E+03  0.85581501285E+02 0.  0.
         24    2    4    4    0    0 -0.28184529467E+02  0.54775295216E+03 -0.12090844245E+03  0.56766759372E+03  0.82461998544E+02 0.  0.
         13    1    3    3    0    0  0.47750566851E+02 -0.10434313419E+03 -0.10640526599E+03  0.15649181103E+03  0.00000000000E+00 0. -1.
        -13    1    3    3    0    0  0.37515121134E+02 -0.83543313214E+02 -0.23861080863E+03  0.25558166501E+03  0.00000000000E+00 0.  1.
          2    1    6    6  502    0 -0.29451429438E+01  0.56381209408E+01  0.76474145725E+01  0.99471214101E+01  0.00000000000E+00 0. -1.
          1    1    5    5  503    0 -0.51209776778E+02 -0.11590037111E+03  0.73748182068E+01  0.12692409230E+03  0.00000000000E+00 0. -1.
         -2    1    5    5    0  503 -0.58713817405E+01 -0.24396613364E+03 -0.57284667567E+02  0.25067006329E+03  0.00000000000E+00 0.  1.
         -3    1    6    6    0  502 -0.25239386523E+02  0.54211483122E+03 -0.12855585702E+03  0.55772047231E+03  0.00000000000E+00 0.  1.
<mgrwt>
<rscale>  0 0.12554974E+04</rscale>
<asrwt>0</asrwt>
<pdfrwt beam="1">  1        2 0.14408997E+00 0.12554974E+04</pdfrwt>
<pdfrwt beam="2">  1       -2 0.64730836E-01 0.12554974E+04</pdfrwt>
<totfact> 0.60024948E+01</totfact>
</mgrwt>
</event>
<event>
12    1  0.1518126E-007  0.2892792E+04  0.7818608E-02  0.8275025E-01
          2   -1    0    0  501    0  0.00000000000E+00  0.00000000000E+00  0.27347971584E+04  0.27347971584E+04  0.00000000000E+00 0. -1.
         -2   -1    0    0    0  501 -0.00000000000E+00 -0.00000000000E+00 -0.76497878393E+03  0.76497878393E+03  0.00000000000E+00 0.  1.
         23    2    1    2    0    0 -0.59075117598E+03 -0.62881623713E+03  0.20569653877E+04  0.22325130842E+04  0.92796836566E+02 0.  0.
        254    2    1    2    0    0  0.59075117598E+03  0.62881623713E+03 -0.87147013199E+02  0.12672628582E+04  0.92410158414E+03 0.  0.
        -24    2    4    4    0    0  0.66080416714E+03  0.84985192368E+02 -0.20305672234E+03  0.70122574438E+03  0.81245811339E+02 0.  0.
         24    2    4    4    0    0 -0.70052991159E+02  0.54383104476E+03  0.11590970914E+03  0.56603711380E+03  0.79393492843E+02 0.  0.
         11    1    3    3    0    0 -0.16908343744E+03 -0.12615077234E+03  0.53966678957E+03  0.57943374940E+03  0.00000000000E+00 0.  1.
        -11    1    3    3    0    0 -0.42166773854E+03 -0.50266546479E+03  0.15172985981E+04  0.16530793348E+04  0.00000000000E+00 0. -1.
          2    1    6    6  502    0 -0.48345058705E+02  0.13466344848E+03  0.13663141413E+02  0.14372950460E+03  0.00000000000E+00 0. -1.
          3    1    5    5  503    0  0.53861685501E+03  0.60231773055E+02 -0.13234546598E+03  0.55789901000E+03  0.00000000000E+00 0. -1.
         -4    1    5    5    0  503  0.12218731213E+03  0.24753419313E+02 -0.70711256361E+02  0.14332673438E+03  0.00000000000E+00 0.  1.
         -1    1    6    6    0  502 -0.21707932454E+02  0.40916759628E+03  0.10224656773E+03  0.42230760920E+03  0.00000000000E+00 0.  1.
<mgrwt>
<rscale>  0 0.28927923E+04</rscale>
<asrwt>0</asrwt>
<pdfrwt beam="1">  1        2 0.42073802E+00 0.28927923E+04</pdfrwt>
<pdfrwt beam="2">  1       -2 0.11768905E+00 0.28927923E+04</pdfrwt>
<totfact> 0.12175592E+00</totfact>
</mgrwt>
</event>
<event>
12    1  0.1518126E-007  0.2522888E+04  0.7818608E-02  0.8394877E-01
          1   -1    0    0  501    0  0.00000000000E+00  0.00000000000E+00  0.66453343925E+03  0.66453343925E+03  0.00000000000E+00 0. -1.
         -1   -1    0    0    0  501 -0.00000000000E+00 -0.00000000000E+00 -0.23945231026E+04  0.23945231026E+04  0.00000000000E+00 0.  1.
         23    2    1    2    0    0 -0.18665148740E+02 -0.19527079360E+03  0.55506634111E+03  0.59709377613E+03  0.99715915733E+02 0.  0.
        254    2    1    2    0    0  0.18665148740E+02  0.19527079360E+03 -0.22850560045E+04  0.24619627658E+04  0.89515397876E+03 0.  0.
        -24    2    4    4    0    0  0.17066840925E+03  0.10673525382E+03 -0.22534569152E+04  0.22637784404E+04  0.78132184083E+02 0.  0.
         24    2    4    4    0    0 -0.15200326051E+03  0.88535539780E+02 -0.31599089255E+02  0.19818432533E+03  0.85644564071E+02 0.  0.
         11    1    3    3    0    0  0.37630876577E+02 -0.42601687165E+02  0.12682161641E+03  0.13897736870E+03  0.00000000000E+00 0.  1.
        -11    1    3    3    0    0 -0.56296025317E+02 -0.15266910644E+03  0.42824472470E+03  0.45811640743E+03  0.00000000000E+00 0. -1.
          2    1    6    6  502    0 -0.86081844300E+02  0.17068252542E+01 -0.21209601293E+02  0.88672681011E+02  0.00000000000E+00 0. -1.
          1    1    5    5  503    0  0.10757696678E+03  0.92257321185E+02 -0.12009586656E+04  0.12092915007E+04  0.00000000000E+00 0. -1.
         -2    1    5    5    0  503  0.63091442462E+02  0.14477932635E+02 -0.10524982496E+04  0.10544869397E+04  0.00000000000E+00 0.  1.
         -1    1    6    6    0  502 -0.65921416206E+02  0.86828714526E+02 -0.10389487962E+02  0.10951164432E+03  0.00000000000E+00 0.  1.
<mgrwt>
<rscale>  0 0.25228878E+04</rscale>
<asrwt>0</asrwt>
<pdfrwt beam="1">  1        1 0.10223591E+00 0.25228878E+04</pdfrwt>
<pdfrwt beam="2">  1       -1 0.36838817E+00 0.25228878E+04</pdfrwt>
<totfact> 0.30614501E-01</totfact>
</mgrwt>
</event>
<event>
12    1  0.1518126E-007  0.1033438E+04  0.7818608E-02  0.9272613E-01
         -1   -1    0    0    0  501 -0.00000000000E+00  0.00000000000E+00  0.19813701153E+03  0.19813701153E+03  0.00000000000E+00 0.  1.
          1   -1    0    0  501    0  0.00000000000E+00 -0.00000000000E+00 -0.13475441861E+04  0.13475441861E+04  0.00000000000E+00 0. -1.
         23    2    1    2    0    0  0.51793148572E+02 -0.64819930802E+01 -0.15744789238E+02  0.10145602352E+03  0.85562140266E+02 0.  0.
        254    2    1    2    0    0 -0.51793148572E+02  0.64819930802E+01 -0.11336623853E+04  0.14442251741E+04  0.89323647661E+03 0.  0.
        -24    2    4    4    0    0 -0.39754030851E+03  0.23903806961E+03 -0.59479961361E+03  0.75856449098E+03  0.80349306230E+02 0.  0.
         24    2    4    4    0    0  0.34574715994E+03 -0.23255607653E+03 -0.53886277172E+03  0.68566068312E+03  0.78320229174E+02 0.  0.
         11    1    3    3    0    0  0.19276238566E+02 -0.44998551659E+02 -0.14413780527E+02  0.51031363824E+02  0.00000000000E+00 0. -1.
        -11    1    3    3    0    0  0.32516910006E+02  0.38516558579E+02 -0.13310087114E+01  0.50424659695E+02  0.00000000000E+00 0.  1.
          4    1    6    6  502    0  0.28665738495E+03 -0.15756764680E+03 -0.43944465587E+03  0.54782444747E+03  0.00000000000E+00 0. -1.
          1    1    5    5  503    0 -0.29519943550E+03  0.21589335440E+03 -0.46958681193E+03  0.59520116022E+03  0.00000000000E+00 0. -1.
         -2    1    5    5    0  503 -0.10234087302E+03  0.23144715209E+02 -0.12521280168E+03  0.16336333076E+03  0.00000000000E+00 0.  1.
         -3    1    6    6    0  502  0.59089774989E+02 -0.74988429734E+02 -0.99418115844E+02  0.13783623566E+03  0.00000000000E+00 0.  1.
<mgrwt>
<rscale>  0 0.10334377E+04</rscale>
<asrwt>0</asrwt>
<pdfrwt beam="1">  1        1 0.20731449E+00 0.10334377E+04</pdfrwt>
<pdfrwt beam="2">  1       -1 0.30482617E-01 0.10334377E+04</pdfrwt>
<totfact> 0.83003966E+01</totfact>
</mgrwt>
</event>
<event>
12    1  0.1518126E-007  0.1166408E+04  0.7818608E-02  0.9142778E-01
         -2   -1    0    0    0  501 -0.00000000000E+00  0.00000000000E+00  0.18301725566E+03  0.18301725566E+03  0.00000000000E+00 0.  1.
          2   -1    0    0  501    0  0.00000000000E+00 -0.00000000000E+00 -0.18584418265E+04  0.18584418265E+04  0.00000000000E+00 0. -1.
         23    2    1    2    0    0 -0.70982091229E+02  0.21929834195E+03 -0.34326956411E+03  0.42332874619E+03  0.90791043883E+02 0.  0.
        254    2    1    2    0    0  0.70982091229E+02 -0.21929834195E+03 -0.13321550067E+04  0.16181303360E+04  0.88914487130E+03 0.  0.
        -24    2    4    4    0    0  0.44691625079E+03  0.29534551739E+02 -0.75159760372E+03  0.87875123751E+03  0.81843475862E+02 0.  0.
         24    2    4    4    0    0 -0.37593415956E+03 -0.24883289369E+03 -0.58055740301E+03  0.73937909846E+03  0.79939050152E+02 0.  0.
         11    1    3    3    0    0 -0.81833813657E+02  0.18670263140E+03 -0.24213567198E+03  0.31651908201E+03  0.00000000000E+00 0. -1.
        -11    1    3    3    0    0  0.10851722428E+02  0.32595710555E+02 -0.10113389213E+03  0.10680966418E+03  0.00000000000E+00 0.  1.
          4    1    6    6  502    0 -0.33108690607E+03 -0.21326805790E+03 -0.45750450721E+03  0.60366561771E+03  0.00000000000E+00 0. -1.
          1    1    5    5  503    0  0.22668656994E+03  0.25979731971E+02 -0.45830429253E+03  0.51196149466E+03  0.00000000000E+00 0. -1.
         -2    1    5    5    0  503  0.22022968085E+03  0.35548197673E+01 -0.29329331120E+03  0.36678974285E+03  0.00000000000E+00 0.  1.
         -3    1    6    6    0  502 -0.44847253485E+02 -0.35564835793E+02 -0.12305289581E+03  0.13571348075E+03  0.00000000000E+00 0.  1.
<mgrwt>
<rscale>  0 0.11664080E+04</rscale>
<asrwt>0</asrwt>
<pdfrwt beam="1">  1        2 0.28591412E+00 0.11664080E+04</pdfrwt>
<pdfrwt beam="2">  1       -2 0.28156502E-01 0.11664080E+04</pdfrwt>
<totfact> 0.91417747E+01</totfact>
</mgrwt>
</event>
<event>
12    1  0.1518126E-007  0.1642914E+04  0.7818608E-02  0.8794610E-01
          1   -1    0    0  501    0  0.00000000000E+00  0.00000000000E+00  0.15967003084E+04  0.15967003084E+04  0.00000000000E+00 0. -1.
         -1   -1    0    0    0  501 -0.00000000000E+00 -0.00000000000E+00 -0.42261633241E+03  0.42261633241E+03  0.00000000000E+00 0.  1.
         23    2    1    2    0    0  0.37437846241E+03  0.35223619757E+03  0.11254226118E+03  0.53392981224E+03  0.90474923847E+02 0.  0.
        254    2    1    2    0    0 -0.37437846241E+03 -0.35223619757E+03  0.10615417148E+04  0.14853868285E+04  0.90292505016E+03 0.  0.
        -24    2    4    4    0    0  0.14045156795E+03  0.19348708665E+03  0.12134036891E+03  0.27990004093E+03  0.80353295770E+02 0.  0.
         24    2    4    4    0    0 -0.51483003036E+03 -0.54572328423E+03  0.94020134586E+03  0.12054867876E+04  0.79724282636E+02 0.  0.
         13    1    3    3    0    0  0.35160688309E+03  0.31891170825E+03  0.78520205603E+02  0.48114187158E+03  0.00000000000E+00 0.  1.
        -13    1    3    3    0    0  0.22771579323E+02  0.33324489320E+02  0.34022055581E+02  0.52787940661E+02  0.00000000000E+00 0. -1.
          4    1    6    6  502    0 -0.34043089926E+03 -0.41084951225E+03  0.68369361944E+03  0.86725283750E+03  0.00000000000E+00 0. -1.
          1    1    5    5  503    0  0.11804197784E+03  0.18389238949E+03  0.12972188269E+03  0.25412218772E+03  0.00000000000E+00 0. -1.
         -2    1    5    5    0  503  0.22409590117E+02  0.95946971669E+01 -0.83815137744E+01  0.25777853210E+02  0.00000000000E+00 0.  1.
         -3    1    6    6    0  502 -0.17439913110E+03 -0.13487377198E+03  0.25650772642E+03  0.33823395011E+03  0.00000000000E+00 0.  1.
<mgrwt>
<rscale>  0 0.16429140E+04</rscale>
<asrwt>0</asrwt>
<pdfrwt beam="1">  1        1 0.24564620E+00 0.16429140E+04</pdfrwt>
<pdfrwt beam="2">  1       -1 0.65017898E-01 0.16429140E+04</pdfrwt>
<totfact> 0.12862686E+01</totfact>
</mgrwt>
</event>
<event>
12    1  0.1518126E-007  0.1426578E+04  0.7818608E-02  0.8934801E-01
         -1   -1    0    0    0  501 -0.00000000000E+00  0.00000000000E+00  0.19873979667E+04  0.19873979667E+04  0.00000000000E+00 0.  1.
          1   -1    0    0  501    0  0.00000000000E+00 -0.00000000000E+00 -0.25600380449E+03  0.25600380449E+03  0.00000000000E+00 0. -1.
         23    2    1    2    0    0 -0.44995652224E+02  0.32486917845E+03  0.11288596174E+03  0.36068945292E+03  0.98939624337E+02 0.  0.
        254    2    1    2    0    0  0.44995652224E+02 -0.32486917845E+03  0.16185082005E+04  0.18827123183E+04  0.90414174032E+03 0.  0.
        -24    2    4    4    0    0 -0.15632158469E+03 -0.14796929062E+03  0.15851445763E+04  0.16016441765E+04  0.79053092415E+02 0.  0.
         24    2    4    4    0    0  0.20131723691E+03 -0.17689988783E+03  0.33363624147E+02  0.28106814179E+03  0.77871488498E+02 0.  0.
         11    1    3    3    0    0 -0.44218397321E+02  0.27325684467E+03  0.53373305110E+02  0.28191005572E+03  0.00000000000E+00 0. -1.
        -11    1    3    3    0    0 -0.77725490313E+00  0.51612333780E+02  0.59512656627E+02  0.78779397194E+02  0.00000000000E+00 0.  1.
          2    1    6    6  502    0  0.31912109832E+02 -0.71379074387E+01  0.24882011079E+02  0.41090716128E+02  0.00000000000E+00 0. -1.
          1    1    5    5  503    0 -0.32223447143E+02 -0.30985766198E+02  0.61505920351E+03  0.61668167808E+03  0.00000000000E+00 0. -1.
         -2    1    5    5    0  503 -0.12409813755E+03 -0.11698352442E+03  0.97008537282E+03  0.98496249842E+03  0.00000000000E+00 0.  1.
         -1    1    6    6    0  502  0.16940512708E+03 -0.16976198039E+03  0.84816130680E+01  0.23997742566E+03  0.00000000000E+00 0.  1.
<mgrwt>
<rscale>  0 0.14265783E+04</rscale>
<asrwt>0</asrwt>
<pdfrwt beam="1">  1        1 0.39385202E-01 0.14265783E+04</pdfrwt>
<pdfrwt beam="2">  1       -1 0.30575352E+00 0.14265783E+04</pdfrwt>
<totfact> 0.31905839E+00</totfact>
</mgrwt>
</event>
<event>
12    1  0.1518126E-007  0.1804945E+04  0.7818608E-02  0.8703674E-01
         -1   -1    0    0    0  501 -0.00000000000E+00  0.00000000000E+00  0.50274613602E+03  0.50274613602E+03  0.00000000000E+00 0.  1.
          1   -1    0    0  501    0  0.00000000000E+00 -0.00000000000E+00 -0.16200148871E+04  0.16200148871E+04  0.00000000000E+00 0. -1.
         23    2    1    2    0    0 -0.53130878405E+03  0.38882498781E+03 -0.63437910957E+03  0.91819721540E+03  0.84707594424E+02 0.  0.
        254    2    1    2    0    0  0.53130878405E+03 -0.38882498781E+03 -0.48288964156E+03  0.12045638078E+04  0.88561711021E+03 0.  0.
        -24    2    4    4    0    0  0.68046547579E+03 -0.20759199141E+03 -0.59675065712E+03  0.93197647112E+03  0.79631007121E+02 0.  0.
         24    2    4    4    0    0 -0.14915669174E+03 -0.18123299640E+03  0.11386101557E+03  0.27258733664E+03  0.79034217640E+02 0.  0.
         13    1    3    3    0    0 -0.45511190469E+03  0.35626036619E+03 -0.58165309724E+03  0.81998086553E+03  0.00000000000E+00 0. -1.
        -13    1    3    3    0    0 -0.76196879356E+02  0.32564621619E+02 -0.52726012335E+02  0.98216349869E+02  0.00000000000E+00 0.  1.
          4    1    6    6  502    0 -0.10667081137E+03 -0.73408202147E+02  0.41580080227E+02  0.13600121034E+03  0.00000000000E+00 0. -1.
          1    1    5    5  503    0  0.55717932412E+03 -0.19358817680E+03 -0.51800844439E+03  0.78502097417E+03  0.00000000000E+00 0. -1.
         -2    1    5    5    0  503  0.12328615167E+03 -0.14003814615E+02 -0.78742212732E+02  0.14695549695E+03  0.00000000000E+00 0.  1.
         -1    1    6    6    0  502 -0.42485880369E+02 -0.10782479425E+03  0.72280935341E+02  0.13658612631E+03  0.00000000000E+00 0.  1.
<mgrwt>
<rscale>  0 0.18049446E+04</rscale>
<asrwt>0</asrwt>
<pdfrwt beam="1">  1        1 0.24923305E+00 0.18049446E+04</pdfrwt>
<pdfrwt beam="2">  1       -1 0.77345562E-01 0.18049446E+04</pdfrwt>
<totfact> 0.85444095E+00</totfact>
</mgrwt>
</event>
<event>
12    1  0.1518126E-007  0.2283504E+04  0.7818608E-02  0.8484454E-01
          2   -1    0    0  501    0  0.00000000000E+00  0.00000000000E+00  0.14478177634E+04  0.14478177634E+04  0.00000000000E+00 0. -1.
         -2   -1    0    0    0  501 -0.00000000000E+00 -0.00000000000E+00 -0.90038820851E+03  0.90038820851E+03  0.00000000000E+00 0.  1.
         23    2    1    2    0    0 -0.45934761194E+03 -0.64168624429E+02 -0.63404922956E+03  0.79100780467E+03  0.92504489486E+02 0.  0.
        254    2    1    2    0    0  0.45934761194E+03  0.64168624429E+02  0.11814787845E+04  0.15571981673E+04  0.90213977468E+03 0.  0.
        -24    2    4    4    0    0  0.64496529889E+03 -0.20298785969E+03  0.78891275770E+03  0.10420398749E+04  0.79243004216E+02 0.  0.
         24    2    4    4    0    0 -0.18561768695E+03  0.26715648412E+03  0.39256602680E+03  0.51515829237E+03  0.73847600405E+02 0.  0.
         11    1    3    3    0    0 -0.10669781088E+02 -0.16916457283E+02 -0.14996502982E+02  0.24998117073E+02  0.00000000000E+00 0. -1.
        -11    1    3    3    0    0 -0.44867783085E+03 -0.47252167146E+02 -0.61905272658E+03  0.76600968759E+03  0.00000000000E+00 0.  1.
          4    1    6    6  502    0 -0.93454165593E+02  0.72848237685E+02  0.14309426839E+03  0.18578621167E+03  0.00000000000E+00 0. -1.
          1    1    5    5  503    0  0.42606106749E+03 -0.11247761685E+03  0.46347826131E+03  0.63952431247E+03  0.00000000000E+00 0. -1.
         -2    1    5    5    0  503  0.21890423140E+03 -0.90510242846E+02  0.32543449639E+03  0.40251556246E+03  0.00000000000E+00 0.  1.
         -1    1    6    6    0  502 -0.92163521359E+02  0.19430824644E+03  0.24947175840E+03  0.32937208070E+03  0.00000000000E+00 0.  1.
<mgrwt>
<rscale>  0 0.22835044E+04</rscale>
<asrwt>0</asrwt>
<pdfrwt beam="1">  1        2 0.22274120E+00 0.22835044E+04</pdfrwt>
<pdfrwt beam="2">  1       -2 0.13852126E+00 0.22835044E+04</pdfrwt>
<totfact> 0.45554718E+00</totfact>
</mgrwt>
</event>
<event>
12    1  0.1518126E-007  0.2015110E+04  0.7818608E-02  0.8599589E-01
         -2   -1    0    0    0  501 -0.00000000000E+00  0.00000000000E+00  0.97400630973E+03  0.97400630973E+03  0.00000000000E+00 0.  1.
          2   -1    0    0  501    0  0.00000000000E+00 -0.00000000000E+00 -0.10422592681E+04  0.10422592681E+04  0.00000000000E+00 0. -1.
         23    2    1    2    0    0  0.14819230144E+03 -0.68822835295E+03  0.35867651081E+03  0.79537170505E+03  0.91367859632E+02 0.  0.
        254    2    1    2    0    0 -0.14819230144E+03  0.68822835295E+03 -0.42692946916E+03  0.12208938728E+04  0.90149534268E+03 0.  0.
        -24    2    4    4    0    0 -0.26327490735E+03  0.19230476735E+03 -0.59083697413E+03  0.68003081530E+03  0.84016542226E+02 0.  0.
         24    2    4    4    0    0  0.11508260590E+03  0.49592358560E+03  0.16390750497E+03  0.54086305746E+03  0.80516879011E+02 0.  0.
         11    1    3    3    0    0  0.15850121133E+03 -0.66287590710E+03  0.33627956031E+03  0.76000726634E+03  0.00000000000E+00 0.  1.
        -11    1    3    3    0    0 -0.10308909887E+02 -0.25352445858E+02  0.22396950495E+02  0.35364438714E+02  0.00000000000E+00 0. -1.
          4    1    6    6  502    0  0.98345332245E+02  0.25892888000E+03  0.72567606117E+02  0.28632503686E+03  0.00000000000E+00 0. -1.
          3    1    5    5  503    0 -0.22494479009E+03  0.15517051022E+03 -0.42021432319E+03  0.50125654434E+03  0.00000000000E+00 0. -1.
         -4    1    5    5    0  503 -0.38330117258E+02  0.37134257134E+02 -0.17062265094E+03  0.17877427096E+03  0.00000000000E+00 0.  1.
         -3    1    6    6    0  502  0.16737273656E+02  0.23699470560E+03  0.91339898851E+02  0.25453802060E+03  0.00000000000E+00 0.  1.
<mgrwt>
<rscale>  0 0.20151100E+04</rscale>
<asrwt>0</asrwt>
<pdfrwt beam="1">  1        2 0.16034758E+00 0.20151100E+04</pdfrwt>
<pdfrwt beam="2">  1       -2 0.14984712E+00 0.20151100E+04</pdfrwt>
<totfact> 0.65991203E+00</totfact>
</mgrwt>
</event>
<event>
12    1  0.1518126E-007  0.1651016E+04  0.7818608E-02  0.8789806E-01
         -1   -1    0    0    0  501 -0.00000000000E+00  0.00000000000E+00  0.88231453985E+03  0.88231453985E+03  0.00000000000E+00 0.  1.
          1   -1    0    0  501    0  0.00000000000E+00 -0.00000000000E+00 -0.77235856150E+03  0.77235856150E+03  0.00000000000E+00 0. -1.
         23    2    1    2    0    0  0.13180625533E+03  0.52452451885E+03  0.22896732868E+03  0.59457967831E+03  0.92736704905E+02 0.  0.
        254    2    1    2    0    0 -0.13180625533E+03 -0.52452451885E+03 -0.11901135032E+03  0.10600934230E+04  0.90395547693E+03 0.  0.
        -24    2    4    4    0    0  0.67376229349E+02 -0.10503359673E+03  0.35891326082E+03  0.38899214236E+03  0.83213852807E+02 0.  0.
         24    2    4    4    0    0 -0.19918248468E+03 -0.41949092211E+03 -0.47792461115E+03  0.67110128068E+03  0.79490245053E+02 0.  0.
         13    1    3    3    0    0  0.66024056952E+02  0.40122867409E+03  0.19395715622E+03  0.45051415456E+03  0.00000000000E+00 0.  1.
        -13    1    3    3    0    0  0.65782198374E+02  0.12329584475E+03  0.35010172466E+02  0.14406552375E+03  0.00000000000E+00 0. -1.
          2    1    6    6  502    0 -0.18493821065E+03 -0.37032595161E+03 -0.38652003934E+03  0.56634017428E+03  0.00000000000E+00 0. -1.
          3    1    5    5  503    0  0.84551987911E+02 -0.78222745791E+02  0.30917844733E+03  0.32993809861E+03  0.00000000000E+00 0. -1.
         -4    1    5    5    0  503 -0.17175758562E+02 -0.26810850942E+02  0.49734813493E+02  0.59054043753E+02  0.00000000000E+00 0.  1.
         -1    1    6    6    0  502 -0.14244274024E+02 -0.49164970499E+02 -0.91404571808E+02  0.10476110640E+03  0.00000000000E+00 0.  1.
<mgrwt>
<rscale>  0 0.16510157E+04</rscale>
<asrwt>0</asrwt>
<pdfrwt beam="1">  1        1 0.11882439E+00 0.16510157E+04</pdfrwt>
<pdfrwt beam="2">  1       -1 0.13574070E+00 0.16510157E+04</pdfrwt>
<totfact> 0.10151325E+01</totfact>
</mgrwt>
</event>
<event>
12    1  0.1518126E-007  0.2861971E+04  0.7818608E-02  0.8284283E-01
         -1   -1    0    0    0  501 -0.00000000000E+00  0.00000000000E+00  0.15746286868E+04  0.15746286868E+04  0.00000000000E+00 0.  1.
          1   -1    0    0  501    0  0.00000000000E+00 -0.00000000000E+00 -0.13004460063E+04  0.13004460063E+04  0.00000000000E+00 0. -1.
         23    2    1    2    0    0 -0.14200381184E+03  0.11653686781E+04 -0.40032862008E+03  0.12442288730E+04  0.97945116355E+02 0.  0.
        254    2    1    2    0    0  0.14200381184E+03 -0.11653686781E+04  0.67451130048E+03  0.16308458201E+04  0.90908930045E+03 0.  0.
        -24    2    4    4    0    0  0.77965539203E+02 -0.12861675551E+04  0.47810977290E+03  0.13767386353E+04  0.80713753126E+02 0.  0.
         24    2    4    4    0    0  0.64038272640E+02  0.12079887703E+03  0.19640152758E+03  0.25410718482E+03  0.85461291148E+02 0.  0.
         13    1    3    3    0    0 -0.90909570232E+02  0.85095543762E+03 -0.33519389027E+03  0.91909991342E+03  0.00000000000E+00 0. -1.
        -13    1    3    3    0    0 -0.51094241611E+02  0.31441324046E+03 -0.65134729811E+02  0.32512895954E+03  0.00000000000E+00 0.  1.
          4    1    6    6  502    0 -0.47452404540E+00  0.13320007884E+02 -0.70955644334E+01  0.15099497268E+02  0.00000000000E+00 0. -1.
          3    1    5    5  503    0  0.85471901449E+01 -0.47900399243E+03  0.21326005225E+03  0.52440225887E+03  0.00000000000E+00 0. -1.
         -4    1    5    5    0  503  0.69418349058E+02 -0.80716356269E+03  0.26484972065E+03  0.85233637646E+03  0.00000000000E+00 0.  1.
         -3    1    6    6    0  502  0.64512796685E+02  0.10747886915E+03  0.20349709201E+03  0.23900768755E+03  0.00000000000E+00 0.  1.
<mgrwt>
<rscale>  0 0.28619711E+04</rscale>
<asrwt>0</asrwt>
<pdfrwt beam="1">  1        1 0.20006862E+00 0.28619711E+04</pdfrwt>
<pdfrwt beam="2">  1       -1 0.24225057E+00 0.28619711E+04</pdfrwt>
<totfact> 0.60994492E-01</totfact>
</mgrwt>
</event>
<event>
12    1  0.1518126E-007  0.1455279E+04  0.7818608E-02  0.8914749E-01
         -2   -1    0    0    0  501 -0.00000000000E+00  0.00000000000E+00  0.36841398558E+03  0.36841398558E+03  0.00000000000E+00 0.  1.
          2   -1    0    0  501    0  0.00000000000E+00 -0.00000000000E+00 -0.14371312319E+04  0.14371312319E+04  0.00000000000E+00 0. -1.
         23    2    1    2    0    0 -0.51879062057E+02 -0.20455288804E+03  0.15705608084E+03  0.28239321434E+03  0.10269368963E+03 0.  0.
        254    2    1    2    0    0  0.51879062057E+02  0.20455288804E+03 -0.12257733271E+04  0.15231520031E+04  0.87916918395E+03 0.  0.
        -24    2    4    4    0    0  0.14224484568E+03 -0.26604528467E+03 -0.16105746157E+03  0.35280846776E+03  0.86721504690E+02 0.  0.
         24    2    4    4    0    0 -0.90365783622E+02  0.47059817271E+03 -0.10647158655E+04  0.11703435354E+04  0.80346134857E+02 0.  0.
         13    1    3    3    0    0 -0.68926023501E+02 -0.10000618079E+03  0.11843899715E+03  0.16964618757E+03  0.00000000000E+00 0.  1.
        -13    1    3    3    0    0  0.17046961444E+02 -0.10454670725E+03  0.38617083690E+02  0.11274702677E+03  0.00000000000E+00 0. -1.
          4    1    6    6  502    0 -0.83265569909E+02  0.46985212938E+03 -0.10337647585E+04  0.11385797094E+04  0.00000000000E+00 0. -1.
          1    1    5    5  503    0  0.10612664833E+03 -0.13813316087E+03 -0.12707520182E+03  0.21561943914E+03  0.00000000000E+00 0. -1.
         -2    1    5    5    0  503  0.36118197348E+02 -0.12791212380E+03 -0.33982259752E+02  0.13718902862E+03  0.00000000000E+00 0.  1.
         -3    1    6    6    0  502 -0.71002137133E+01  0.74604333166E+00 -0.30951107007E+02  0.31763825973E+02  0.00000000000E+00 0.  1.
<mgrwt>
<rscale>  0 0.14552790E+04</rscale>
<asrwt>0</asrwt>
<pdfrwt beam="1">  1        2 0.22109711E+00 0.14552790E+04</pdfrwt>
<pdfrwt beam="2">  1       -2 0.56679076E-01 0.14552790E+04</pdfrwt>
<totfact> 0.38999396E+01</totfact>
</mgrwt>
</event>
<event>
12    1  0.1927251E-007  0.1919808E+04  0.7818608E-02  0.8645059E-01
          1   -1    0    0  501    0  0.00000000000E+00  0.00000000000E+00  0.18693926799E+04  0.18693926799E+04  0.00000000000E+00 0. -1.
         -1   -1    0    0    0  501 -0.00000000000E+00 -0.00000000000E+00 -0.49289589292E+03  0.49289589292E+03  0.00000000000E+00 0.  1.
         23    2    1    2    0    0  0.18232219957E+03  0.11103599852E+02  0.14368048693E+04  0.14511961845E+04  0.90539820326E+02 0.  0.
        254    2    1    2    0    0 -0.18232219957E+03 -0.11103599852E+02 -0.60308082299E+02  0.91109238834E+03  0.89055465914E+03 0.  0.
        -24    2    4    4    0    0 -0.38753445176E+03  0.29544075771E+03  0.95164100888E+02  0.50301285929E+03  0.80607306708E+02 0.  0.
         24    2    4    4    0    0  0.20521225219E+03 -0.30654435756E+03 -0.15547218319E+03  0.40807952905E+03  0.79219888174E+02 0.  0.
         11    1    3    3    0    0  0.15637999273E+03  0.17466955318E+02  0.13735368495E+04  0.13825206233E+04  0.00000000000E+00 0. -1.
        -11    1    3    3    0    0  0.25942206842E+02 -0.63633554662E+01  0.63268019749E+02  0.68675561240E+02  0.00000000000E+00 0.  1.
          2    1    6    6  502    0  0.19363982654E+03 -0.24620869188E+03 -0.11132844523E+03  0.33242912793E+03  0.00000000000E+00 0. -1.
          1    1    5    5  503    0 -0.38999269104E+03  0.28455880223E+03  0.92828126630E+02  0.49161475983E+03  0.00000000000E+00 0. -1.
         -2    1    5    5    0  503  0.24582392817E+01  0.10881955482E+02  0.23359742576E+01  0.11398099456E+02  0.00000000000E+00 0.  1.
         -1    1    6    6    0  502  0.11572425652E+02 -0.60335665681E+02 -0.44143737955E+02  0.75650401118E+02  0.00000000000E+00 0.  1.
<mgrwt>
<rscale>  0 0.19198083E+04</rscale>
<asrwt>0</asrwt>
<pdfrwt beam="1">  1        1 0.28759887E+00 0.19198083E+04</pdfrwt>
<pdfrwt beam="2">  1       -1 0.75830138E-01 0.19198083E+04</pdfrwt>
<totfact> 0.59637211E+00</totfact>
</mgrwt>
</event>
<event>
12    1  0.1518126E-007  0.2163410E+04  0.7818608E-02  0.8533814E-01
          1   -1    0    0  501    0  0.00000000000E+00  0.00000000000E+00  0.26575170227E+04  0.26575170227E+04  0.00000000000E+00 0.  1.
         -1   -1    0    0    0  501 -0.00000000000E+00 -0.00000000000E+00 -0.44029298889E+03  0.44029298889E+03  0.00000000000E+00 0. -1.
         23    2    1    2    0    0 -0.31963661449E+02  0.89471767817E+03  0.82890821774E+03  0.12236417567E+04  0.93107014270E+02 0.  0.
        254    2    1    2    0    0  0.31963661449E+02 -0.89471767817E+03  0.13883158160E+04  0.18741682548E+04  0.88518045791E+03 0.  0.
        -24    2    4    4    0    0  0.13965613605E+03 -0.63858451433E+03  0.14382916115E+04  0.15818959426E+04  0.80112392194E+02 0.  0.
         24    2    4    4    0    0 -0.10769247460E+03 -0.25613316384E+03 -0.49975795461E+02  0.29227231218E+03  0.75654858621E+02 0.  0.
         11    1    3    3    0    0  0.16170944138E+02  0.55505019710E+03  0.54924822046E+03  0.78103510062E+03  0.00000000000E+00 0.  1.
        -11    1    3    3    0    0 -0.48134605587E+02  0.33966748107E+03  0.27965999728E+03  0.44260665611E+03  0.00000000000E+00 0. -1.
          2    1    6    6  502    0  0.54033620478E+01 -0.65544461577E+02 -0.36780976074E+01  0.65869576945E+02  0.00000000000E+00 0. -1.
          3    1    5    5  503    0  0.12036891102E+00 -0.14397037969E+03  0.28589614330E+03  0.32010012414E+03  0.00000000000E+00 0. -1.
         -4    1    5    5    0  503  0.13953576713E+03 -0.49461413464E+03  0.11523954682E+04  0.12617958185E+04  0.00000000000E+00 0.  1.
         -1    1    6    6    0  502 -0.11309583664E+03 -0.19058870226E+03 -0.46297697853E+02  0.22640273524E+03  0.00000000000E+00 0.  1.
<mgrwt>
<rscale>  0 0.21634104E+04</rscale>
<asrwt>0</asrwt>
<pdfrwt beam="1">  1        1 0.40884876E+00 0.21634104E+04</pdfrwt>
<pdfrwt beam="2">  1       -1 0.67737384E-01 0.21634104E+04</pdfrwt>
<totfact> 0.21230397E+00</totfact>
</mgrwt>
</event>
<event>
12    1  0.1518126E-007  0.1074090E+04  0.7818608E-02  0.9230820E-01
         -1   -1    0    0    0  501 -0.00000000000E+00  0.00000000000E+00  0.10381923680E+03  0.10381923680E+03  0.00000000000E+00 0.  1.
          1   -1    0    0  501    0  0.00000000000E+00 -0.00000000000E+00 -0.27780743224E+04  0.27780743224E+04  0.00000000000E+00 0. -1.
         23    2    1    2    0    0  0.73962959775E+02  0.42531303829E+02 -0.12527496869E+03  0.17742533492E+03  0.92230691579E+02 0.  0.
        254    2    1    2    0    0 -0.73962959775E+02 -0.42531303829E+02 -0.25489801169E+04  0.27044682243E+04  0.89976069510E+03 0.  0.
        -24    2    4    4    0    0  0.22110046409E+03  0.33656799235E+03 -0.13218773739E+04  0.13841761511E+04  0.80127378521E+02 0.  0.
         24    2    4    4    0    0 -0.29506342386E+03 -0.37909929617E+03 -0.12271027430E+04  0.13202920732E+04  0.81310000996E+02 0.  0.
         11    1    3    3    0    0  0.38076935492E+02  0.63364009136E+02 -0.11135276126E+03  0.13365735337E+03  0.00000000000E+00 0. -1.
        -11    1    3    3    0    0  0.35886024283E+02 -0.20832705308E+02 -0.13922207425E+02  0.43767981549E+02  0.00000000000E+00 0.  1.
          4    1    6    6  502    0 -0.24877514316E+03 -0.28212853009E+03 -0.88230112127E+03  0.95913546902E+03  0.00000000000E+00 0. -1.
          1    1    5    5  503    0  0.17393249883E+03  0.31245712345E+03 -0.11546382492E+04  0.12087478871E+04  0.00000000000E+00 0. -1.
         -2    1    5    5    0  503  0.47167965258E+02  0.24110868894E+02 -0.16723912478E+03  0.17542826397E+03  0.00000000000E+00 0.  1.
         -3    1    6    6    0  502 -0.46288280705E+02 -0.96970766087E+02 -0.34480162174E+03  0.36115660421E+03  0.00000000000E+00 0.  1.
<mgrwt>
<rscale>  0 0.10740904E+04</rscale>
<asrwt>0</asrwt>
<pdfrwt beam="1">  1        1 0.42739613E+00 0.10740904E+04</pdfrwt>
<pdfrwt beam="2">  1       -1 0.15972187E-01 0.10740904E+04</pdfrwt>
<totfact> 0.25975453E+01</totfact>
</mgrwt>
</event>
<event>
12    1  0.1518126E-007  0.1171558E+04  0.7818608E-02  0.9138122E-01
         -1   -1    0    0    0  501 -0.00000000000E+00  0.00000000000E+00  0.58212083895E+03  0.58212083895E+03  0.00000000000E+00 0. -1.
          1   -1    0    0  501    0  0.00000000000E+00 -0.00000000000E+00 -0.58946046320E+03  0.58946046320E+03  0.00000000000E+00 0.  1.
         23    2    1    2    0    0  0.66187896579E+02  0.15815415642E+03 -0.16736559759E+03  0.25517029690E+03  0.87789875938E+02 0.  0.
        254    2    1    2    0    0 -0.66187896579E+02 -0.15815415642E+03  0.16002597334E+03  0.91641100525E+03  0.88589347190E+03 0.  0.
        -24    2    4    4    0    0 -0.36805924474E+02  0.33529249474E+02 -0.35129281163E+03  0.36359736306E+03  0.79482804894E+02 0.  0.
         24    2    4    4    0    0 -0.29381972106E+02 -0.19168340590E+03  0.51131878497E+03  0.55281364219E+03  0.80933273445E+02 0.  0.
         11    1    3    3    0    0 -0.11235379660E+02 -0.45988310955E+01 -0.76068108680E+01  0.14326429252E+02  0.00000000000E+00 0. -1.
        -11    1    3    3    0    0  0.77423276239E+02  0.16275298752E+03 -0.15975878672E+03  0.24084386765E+03  0.00000000000E+00 0.  1.
          4    1    6    6  502    0 -0.52821598297E+02 -0.11354358022E+03  0.26001836248E+03  0.28860321323E+03  0.00000000000E+00 0. -1.
          1    1    5    5  503    0  0.28419574094E+01  0.37301443836E+01  0.31835774769E+01  0.56679682948E+01  0.00000000000E+00 0. -1.
         -2    1    5    5    0  503 -0.39647881883E+02  0.29799105091E+02 -0.35447638911E+03  0.35792939476E+03  0.00000000000E+00 0.  1.
         -3    1    6    6    0  502  0.23439626191E+02 -0.78139825672E+02  0.25130042249E+03  0.26421042896E+03  0.00000000000E+00 0.  1.
<mgrwt>
<rscale>  0 0.11715583E+04</rscale>
<asrwt>0</asrwt>
<pdfrwt beam="1">  1        1 0.90686226E-01 0.11715583E+04</pdfrwt>
<pdfrwt beam="2">  1       -1 0.89557052E-01 0.11715583E+04</pdfrwt>
<totfact> 0.42576359E+01</totfact>
</mgrwt>
</event>
<event>
12    1  0.1518126E-007  0.2528970E+04  0.7818608E-02  0.8392737E-01
          2   -1    0    0  501    0  0.00000000000E+00  0.00000000000E+00  0.13638127826E+04  0.13638127826E+04  0.00000000000E+00 0. -1.
         -2   -1    0    0    0  501 -0.00000000000E+00 -0.00000000000E+00 -0.11723909879E+04  0.11723909879E+04  0.00000000000E+00 0.  1.
         23    2    1    2    0    0 -0.76459035052E+03 -0.79221249463E+03 -0.62292596146E+01  0.11049144176E+04  0.92725539785E+02 0.  0.
        254    2    1    2    0    0  0.76459035052E+03  0.79221249463E+03  0.19765105426E+03  0.14312893529E+04  0.89293013824E+03 0.  0.
        -24    2    4    4    0    0  0.61915200966E+03  0.26037349357E+03  0.45809143046E+03  0.81676524320E+03  0.78192944762E+02 0.  0.
         24    2    4    4    0    0  0.14543834086E+03  0.53183900106E+03 -0.26044037620E+03  0.61452410973E+03  0.76194867581E+02 0.  0.
         13    1    3    3    0    0 -0.59072092340E+03 -0.65680870997E+03  0.15169144080E+02  0.88350381650E+03  0.00000000000E+00 0. -1.
        -13    1    3    3    0    0 -0.17386942712E+03 -0.13540378466E+03 -0.21398403694E+02  0.22141060108E+03  0.00000000000E+00 0.  1.
          2    1    6    6  502    0  0.94039806771E+02  0.29776065146E+03 -0.10758367313E+03  0.33027130899E+03  0.00000000000E+00 0. -1.
          3    1    5    5  503    0  0.61265040536E+03  0.26099140319E+03  0.44163702841E+03  0.79906213563E+03  0.00000000000E+00 0. -1.
         -4    1    5    5    0  503  0.65016042996E+01 -0.61790961928E+00  0.16454402053E+02  0.17703107571E+02  0.00000000000E+00 0.  1.
         -1    1    6    6    0  502  0.51398534093E+02  0.23407834960E+03 -0.15285670307E+03  0.28425280074E+03  0.00000000000E+00 0.  1.
<mgrwt>
<rscale>  0 0.25289696E+04</rscale>
<asrwt>0</asrwt>
<pdfrwt beam="1">  1        2 0.20981735E+00 0.25289696E+04</pdfrwt>
<pdfrwt beam="2">  1       -2 0.18036784E+00 0.25289696E+04</pdfrwt>
<totfact> 0.24351314E+00</totfact>
</mgrwt>
</event>
<event>
12    1  0.1518126E-007  0.2498007E+04  0.7818608E-02  0.8403696E-01
          2   -1    0    0  501    0  0.00000000000E+00  0.00000000000E+00  0.14164365671E+04  0.14164365671E+04  0.00000000000E+00 0.  1.
         -2   -1    0    0    0  501 -0.00000000000E+00 -0.00000000000E+00 -0.11013619533E+04  0.11013619533E+04  0.00000000000E+00 0. -1.
         23    2    1    2    0    0 -0.19639802571E+03  0.13881943799E+03  0.11984465275E+04  0.12258594147E+04  0.92812738502E+02 0.  0.
        254    2    1    2    0    0  0.19639802571E+03 -0.13881943799E+03 -0.88337191359E+03  0.12919391058E+04  0.91154686900E+03 0.  0.
        -24    2    4    4    0    0  0.19257281878E+03 -0.26671967891E+03  0.54249014902E+02  0.34228038034E+03  0.77390086563E+02 0.  0.
         24    2    4    4    0    0  0.38252069280E+01  0.12790024092E+03 -0.93762092850E+03  0.94965872541E+03  0.79659182570E+02 0.  0.
         13    1    3    3    0    0 -0.70899764879E+01  0.42442625931E+02  0.14700941559E+03  0.15317771553E+03  0.00000000000E+00 0. -1.
        -13    1    3    3    0    0 -0.18930804922E+03  0.96376812054E+02  0.10514371119E+04  0.10726816991E+04  0.00000000000E+00 0.  1.
          2    1    6    6  502    0 -0.11496631356E+02  0.99032488271E+02 -0.85524711232E+03  0.86103845988E+03  0.00000000000E+00 0. -1.
          1    1    5    5  503    0  0.16767222003E+03 -0.25887164849E+03  0.62897669022E+02  0.31477709658E+03  0.00000000000E+00 0. -1.
         -2    1    5    5    0  503  0.24900598750E+02 -0.78480304159E+01 -0.86486541194E+01  0.27503283760E+02  0.00000000000E+00 0.  1.
         -1    1    6    6    0  502  0.15321838284E+02  0.28867752653E+02 -0.82373816173E+02  0.88620265530E+02  0.00000000000E+00 0.  1.
<mgrwt>
<rscale>  0 0.24980067E+04</rscale>
<asrwt>0</asrwt>
<pdfrwt beam="1">  1        2 0.21791332E+00 0.24980067E+04</pdfrwt>
<pdfrwt beam="2">  1       -2 0.16944030E+00 0.24980067E+04</pdfrwt>
<totfact> 0.27174152E+00</totfact>
</mgrwt>
</event>
<event>
12    1  0.1518126E-007  0.2625360E+04  0.7818608E-02  0.8359638E-01
         -2   -1    0    0    0  501 -0.00000000000E+00  0.00000000000E+00  0.45434395490E+03  0.45434395490E+03  0.00000000000E+00 0.  1.
          2   -1    0    0  501    0  0.00000000000E+00 -0.00000000000E+00 -0.37925641535E+04  0.37925641535E+04  0.00000000000E+00 0. -1.
         23    2    1    2    0    0  0.53911833836E+03  0.15637942533E+02  0.17950233643E+03  0.57581335559E+03  0.91906494286E+02 0.  0.
        254    2    1    2    0    0 -0.53911833836E+03 -0.15637942533E+02 -0.35177225350E+04  0.36710947528E+04  0.90092825609E+03 0.  0.
        -24    2    4    4    0    0 -0.26082692907E+03  0.38007629730E+03 -0.97542297047E+03  0.10819251496E+04  0.81384146058E+02 0.  0.
         24    2    4    4    0    0 -0.27829140929E+03 -0.39571423983E+03 -0.25422995646E+04  0.25891696032E+04  0.80475402060E+02 0.  0.
         11    1    3    3    0    0  0.19022927487E+03  0.28486076491E+02  0.24781476859E+02  0.19394008138E+03  0.00000000000E+00 0. -1.
        -11    1    3    3    0    0  0.34888906349E+03 -0.12848133958E+02  0.15472085957E+03  0.38187327421E+03  0.00000000000E+00 0.  1.
          2    1    6    6  502    0 -0.13441860628E+03 -0.25968469101E+03 -0.15241023025E+04  0.15518995873E+04  0.00000000000E+00 0. -1.
          1    1    5    5  503    0 -0.24461453933E+03  0.37541373900E+03 -0.95834072123E+03  0.10579171453E+04  0.00000000000E+00 0. -1.
         -2    1    5    5    0  503 -0.16212389743E+02  0.46625582987E+01 -0.17082249248E+02  0.24008004299E+02  0.00000000000E+00 0.  1.
         -1    1    6    6    0  502 -0.14387280301E+03 -0.13602954882E+03 -0.10181972620E+04  0.10372700160E+04  0.00000000000E+00 0.  1.
<mgrwt>
<rscale>  0 0.26253599E+04</rscale>
<asrwt>0</asrwt>
<pdfrwt beam="1">  1        2 0.58347143E+00 0.26253599E+04</pdfrwt>
<pdfrwt beam="2">  1       -2 0.69899068E-01 0.26253599E+04</pdfrwt>
<totfact> 0.82015663E-01</totfact>
</mgrwt>
</event>
<event>
12    1  0.1518126E-007  0.1494171E+04  0.7818608E-02  0.8888339E-01
         -2   -1    0    0    0  501 -0.00000000000E+00  0.00000000000E+00  0.24299733707E+03  0.24299733707E+03  0.00000000000E+00 0.  1.
          2   -1    0    0  501    0  0.00000000000E+00 -0.00000000000E+00 -0.22968832602E+04  0.22968832602E+04  0.00000000000E+00 0. -1.
         23    2    1    2    0    0  0.39173086253E+03 -0.89421754599E+02 -0.10872991250E+04  0.11629177941E+04  0.93322505114E+02 0.  0.
        254    2    1    2    0    0 -0.39173086253E+03  0.89421754599E+02 -0.96658679819E+03  0.13769628031E+04  0.89458772846E+03 0.  0.
        -24    2    4    4    0    0  0.52642244227E+02 -0.20673579467E+03 -0.76948378717E+03  0.80257401015E+03  0.80677434116E+02 0.  0.
         24    2    4    4    0    0 -0.44437310676E+03  0.29615754927E+03 -0.19710301102E+03  0.57438879298E+03  0.76786304464E+02 0.  0.
         13    1    3    3    0    0  0.11984968585E+03 -0.26736358854E+02 -0.22136556906E+03  0.25314323070E+03  0.00000000000E+00 0.  1.
        -13    1    3    3    0    0  0.27188117668E+03 -0.62685395745E+02 -0.86593355589E+03  0.90977456345E+03  0.00000000000E+00 0. -1.
          4    1    6    6  502    0 -0.27516946763E+03  0.14363594347E+03 -0.93839509313E+02  0.32427669309E+03  0.00000000000E+00 0. -1.
          1    1    5    5  503    0 -0.17264573034E+01  0.18821814468E+01 -0.82890116877E+02  0.82929456393E+02  0.00000000000E+00 0. -1.
         -2    1    5    5    0  503  0.54368701530E+02 -0.20861797611E+03 -0.68659367029E+03  0.71964455376E+03  0.00000000000E+00 0.  1.
         -3    1    6    6    0  502 -0.16920363913E+03  0.15252160580E+03 -0.10326350171E+03  0.25011209990E+03  0.00000000000E+00 0.  1.
<mgrwt>
<rscale>  0 0.14941707E+04</rscale>
<asrwt>0</asrwt>
<pdfrwt beam="1">  1        2 0.35336668E+00 0.14941707E+04</pdfrwt>
<pdfrwt beam="2">  1       -2 0.37384203E-01 0.14941707E+04</pdfrwt>
<totfact> 0.29736813E+01</totfact>
</mgrwt>
</event>
<event>
12    1  0.2185967E-007  0.2081635E+04  0.7818608E-02  0.8569377E-01
         -2   -1    0    0    0  501 -0.00000000000E+00  0.00000000000E+00  0.50041934994E+03  0.50041934994E+03  0.00000000000E+00 0. -1.
          2   -1    0    0  501    0  0.00000000000E+00 -0.00000000000E+00 -0.21647868837E+04  0.21647868837E+04  0.00000000000E+00 0.  1.
         23    2    1    2    0    0  0.60877187892E+03 -0.19030753468E+03  0.28336674156E+02  0.64501532850E+03  0.91769540618E+02 0.  0.
        254    2    1    2    0    0 -0.60877187892E+03  0.19030753468E+03 -0.16927042079E+04  0.20201909051E+04  0.89950186178E+03 0.  0.
        -24    2    4    4    0    0  0.25631260106E+02 -0.21058930153E+03 -0.89200040332E+03  0.91996977309E+03  0.75331590103E+02 0.  0.
         24    2    4    4    0    0 -0.63440313902E+03  0.40089683621E+03 -0.80070380457E+03  0.11002211320E+04  0.78576972443E+02 0.  0.
         11    1    3    3    0    0  0.50700853407E+03 -0.15237974718E+03  0.57610560410E+02  0.53253752698E+03  0.00000000000E+00 0. -1.
        -11    1    3    3    0    0  0.10176334484E+03 -0.37927787504E+02 -0.29273886254E+02  0.11247780152E+03  0.00000000000E+00 0.  1.
          2    1    6    6  502    0 -0.34310974637E+02  0.19113472506E+02 -0.19871195732E+02  0.44016272350E+02  0.00000000000E+00 0. -1.
          3    1    5    5  503    0 -0.21294863121E+02 -0.21387684363E+02 -0.12192102278E+03  0.12560111478E+03  0.00000000000E+00 0. -1.
         -4    1    5    5    0  503  0.46926123227E+02 -0.18920161716E+03 -0.77007938054E+03  0.79436865831E+03  0.00000000000E+00 0.  1.
         -1    1    6    6    0  502 -0.60009216438E+03  0.38178336370E+03 -0.78083260884E+03  0.10562048597E+04  0.00000000000E+00 0.  1.
<mgrwt>
<rscale>  0 0.20816352E+04</rscale>
<asrwt>0</asrwt>
<pdfrwt beam="1">  1        2 0.33304414E+00 0.20816352E+04</pdfrwt>
<pdfrwt beam="2">  1       -2 0.76987591E-01 0.20816352E+04</pdfrwt>
<totfact> 0.75141292E+00</totfact>
</mgrwt>
</event>
<event>
12    1  0.1518126E-007  0.2060406E+04  0.7818608E-02  0.8578888E-01
          2   -1    0    0  501    0  0.00000000000E+00  0.00000000000E+00  0.86957100328E+03  0.86957100328E+03  0.00000000000E+00 0. -1.
         -2   -1    0    0    0  501 -0.00000000000E+00 -0.00000000000E+00 -0.12205078976E+04  0.12205078976E+04  0.00000000000E+00 0.  1.
         23    2    1    2    0    0 -0.33733445479E+03  0.23184148239E+03  0.58306056772E+03  0.71718987165E+03  0.82805066400E+02 0.  0.
        254    2    1    2    0    0  0.33733445479E+03 -0.23184148239E+03 -0.93399746205E+03  0.13728890292E+04  0.91919966282E+03 0.  0.
        -24    2    4    4    0    0 -0.16476440148E+03 -0.19909658196E+03  0.39585886461E+02  0.27398908929E+03  0.81952557609E+02 0.  0.
         24    2    4    4    0    0  0.50209885627E+03 -0.32744900427E+02 -0.97358334851E+03  0.10988999400E+04  0.80876767639E+02 0.  0.
         11    1    3    3    0    0 -0.30348544331E+03  0.23127644719E+03  0.51265013480E+03  0.63906366666E+03  0.00000000000E+00 0. -1.
        -11    1    3    3    0    0 -0.33849011480E+02  0.56503519679E+00  0.70410432923E+02  0.78126204998E+02  0.00000000000E+00 0.  1.
          2    1    6    6  502    0  0.51670860556E+02  0.10857471394E+02 -0.15231685528E+03  0.16120851999E+03  0.00000000000E+00 0. -1.
          3    1    5    5  503    0 -0.15885547903E+01 -0.41815925935E+00  0.15697813456E+02  0.15783526564E+02  0.00000000000E+00 0. -1.
         -4    1    5    5    0  503 -0.16317584669E+03 -0.19867842270E+03  0.23888073004E+02  0.25820556272E+03  0.00000000000E+00 0.  1.
         -1    1    6    6    0  502  0.45042799572E+03 -0.43602371821E+02 -0.82126649324E+03  0.93769141996E+03  0.00000000000E+00 0.  1.
<mgrwt>
<rscale>  0 0.20604061E+04</rscale>
<asrwt>0</asrwt>
<pdfrwt beam="1">  1        2 0.13378015E+00 0.20604061E+04</pdfrwt>
<pdfrwt beam="2">  1       -2 0.18777045E+00 0.20604061E+04</pdfrwt>
<totfact> 0.45613247E+00</totfact>
</mgrwt>
</event>
<event>
12    1  0.1518126E-007  0.3127037E+04  0.7818608E-02  0.8208357E-01
         -2   -1    0    0    0  501 -0.00000000000E+00  0.00000000000E+00  0.73335957847E+03  0.73335957847E+03  0.00000000000E+00 0.  1.
          2   -1    0    0  501    0  0.00000000000E+00 -0.00000000000E+00 -0.33334123991E+04  0.33334123991E+04  0.00000000000E+00 0. -1.
         23    2    1    2    0    0 -0.87903387669E+03  0.11338411291E+04 -0.11545114148E+04  0.18437243533E+04  0.90147776709E+02 0.  0.
        254    2    1    2    0    0  0.87903387669E+03 -0.11338411291E+04 -0.14455414058E+04  0.22230476243E+04  0.89109736927E+03 0.  0.
        -24    2    4    4    0    0  0.61451800621E+03 -0.10584792525E+04 -0.67241645962E+03  0.13986588511E+04  0.78051128355E+02 0.  0.
         24    2    4    4    0    0  0.26451587047E+03 -0.75361876561E+02 -0.77312494620E+03  0.82438877317E+03  0.79035490292E+02 0.  0.
         13    1    3    3    0    0 -0.28018172268E+03  0.40931449313E+03 -0.43922472153E+03  0.66253943884E+03  0.00000000000E+00 0. -1.
        -13    1    3    3    0    0 -0.59885215401E+03  0.72452663596E+03 -0.71528669330E+03  0.11811849145E+04  0.00000000000E+00 0.  1.
          2    1    6    6  502    0  0.24578357205E+03 -0.70057159203E+02 -0.75741590517E+03  0.79937251845E+03  0.00000000000E+00 0. -1.
          1    1    5    5  503    0  0.53352464189E+03 -0.86002732275E+03 -0.55448249994E+03  0.11540131638E+04  0.00000000000E+00 0. -1.
         -2    1    5    5    0  503  0.80993364319E+02 -0.19845192978E+03 -0.11793395968E+03  0.24464568736E+03  0.00000000000E+00 0.  1.
         -1    1    6    6    0  502  0.18732298420E+02 -0.53047173583E+01 -0.15709041030E+02  0.25016254724E+02  0.00000000000E+00 0.  1.
<mgrwt>
<rscale>  0 0.31270369E+04</rscale>
<asrwt>0</asrwt>
<pdfrwt beam="1">  1        2 0.51283266E+00 0.31270369E+04</pdfrwt>
<pdfrwt beam="2">  1       -2 0.11282455E+00 0.31270369E+04</pdfrwt>
<totfact> 0.55306742E-01</totfact>
</mgrwt>
</event>
<event>
12    1  0.1518126E-007  0.2114167E+04  0.7818608E-02  0.8555028E-01
          1   -1    0    0  501    0  0.00000000000E+00  0.00000000000E+00  0.29487090794E+04  0.29487090794E+04  0.00000000000E+00 0. -1.
         -1   -1    0    0    0  501 -0.00000000000E+00 -0.00000000000E+00 -0.37895419807E+03  0.37895419807E+03  0.00000000000E+00 0.  1.
         23    2    1    2    0    0  0.63886917248E+02  0.83658103824E+03  0.73803844963E+03  0.11209901987E+04  0.89268699349E+02 0.  0.
        254    2    1    2    0    0 -0.63886917248E+02 -0.83658103824E+03  0.18317164317E+04  0.22066730788E+04  0.90015088662E+03 0.  0.
        -24    2    4    4    0    0 -0.35706168688E+03 -0.59211907502E+03  0.16193448887E+04  0.17625419375E+04  0.78601309220E+02 0.  0.
         24    2    4    4    0    0  0.29317476963E+03 -0.24446196322E+03  0.21237154305E+03  0.44413114127E+03  0.80235287391E+02 0.  0.
         13    1    3    3    0    0  0.32383414265E+02  0.15327434953E+03  0.17644696974E+03  0.23595602317E+03  0.00000000000E+00 0. -1.
        -13    1    3    3    0    0  0.31503502983E+02  0.68330668871E+03  0.56159147990E+03  0.88503417552E+03  0.00000000000E+00 0.  1.
          4    1    6    6  502    0  0.74293339271E+02 -0.10985686150E+03  0.82892867222E+02  0.15639455782E+03  0.00000000000E+00 0. -1.
          3    1    5    5  503    0 -0.13739392653E+02 -0.32815297830E+02  0.13465438082E+03  0.13927460988E+03  0.00000000000E+00 0. -1.
         -4    1    5    5    0  503 -0.34332229422E+03 -0.55930377719E+03  0.14846905078E+04  0.16232673276E+04  0.00000000000E+00 0.  1.
         -3    1    6    6    0  502  0.21888143036E+03 -0.13460510172E+03  0.12947867582E+03  0.28773658345E+03  0.00000000000E+00 0.  1.
<mgrwt>
<rscale>  0 0.21141671E+04</rscale>
<asrwt>0</asrwt>
<pdfrwt beam="1">  1        1 0.45364754E+00 0.21141671E+04</pdfrwt>
<pdfrwt beam="2">  1       -1 0.58300648E-01 0.21141671E+04</pdfrwt>
<totfact> 0.17858126E+00</totfact>
</mgrwt>
</event>
<event>
12    1  0.1518126E-007  0.1796773E+04  0.7818608E-02  0.8708017E-01
         -2   -1    0    0    0  501 -0.00000000000E+00  0.00000000000E+00  0.36142479178E+03  0.36142479178E+03  0.00000000000E+00 0. -1.
          2   -1    0    0  501    0  0.00000000000E+00 -0.00000000000E+00 -0.22331024874E+04  0.22331024874E+04  0.00000000000E+00 0.  1.
         23    2    1    2    0    0  0.59698640872E+03  0.28736528913E+03 -0.66452190701E+03  0.94237079370E+03  0.86612737716E+02 0.  0.
        254    2    1    2    0    0 -0.59698640872E+03 -0.28736528913E+03 -0.12071557886E+04  0.16521564854E+04  0.91292079222E+03 0.  0.
        -24    2    4    4    0    0 -0.40906005699E+03 -0.22661091762E+02 -0.19460892369E+02  0.41826742944E+03  0.82007688014E+02 0.  0.
         24    2    4    4    0    0 -0.18792635173E+03 -0.26470419737E+03 -0.11876948962E+04  0.12338890560E+04  0.80488572080E+02 0.  0.
         11    1    3    3    0    0  0.30354148089E+03  0.12731956039E+03 -0.27353578948E+03  0.42798309453E+03  0.00000000000E+00 0.  1.
        -11    1    3    3    0    0  0.29344492783E+03  0.16004572874E+03 -0.39098611753E+03  0.51438769917E+03  0.00000000000E+00 0. -1.
          2    1    6    6  502    0 -0.90181431384E+02 -0.64298249299E+02 -0.35663940658E+03  0.37344159082E+03  0.00000000000E+00 0. -1.
          1    1    5    5  503    0 -0.50472858316E+02 -0.39751703909E+01  0.24976016494E+02  0.56454519802E+02  0.00000000000E+00 0. -1.
         -2    1    5    5    0  503 -0.35858719868E+03 -0.18685921371E+02 -0.44436908863E+02  0.36181290964E+03  0.00000000000E+00 0.  1.
         -1    1    6    6    0  502 -0.97744920344E+02 -0.20040594807E+03 -0.83105548964E+03  0.86044746518E+03  0.00000000000E+00 0.  1.
<mgrwt>
<rscale>  0 0.17967733E+04</rscale>
<asrwt>0</asrwt>
<pdfrwt beam="1">  1        2 0.34355423E+00 0.17967733E+04</pdfrwt>
<pdfrwt beam="2">  1       -2 0.55603814E-01 0.17967733E+04</pdfrwt>
<totfact> 0.14201167E+01</totfact>
</mgrwt>
</event>
<event>
12    1  0.1518126E-007  0.1663848E+04  0.7818608E-02  0.8782256E-01
         -1   -1    0    0    0  501 -0.00000000000E+00  0.00000000000E+00  0.19716293344E+03  0.19716293344E+03  0.00000000000E+00 0.  1.
          1   -1    0    0  501    0  0.00000000000E+00 -0.00000000000E+00 -0.35102813077E+04  0.35102813077E+04  0.00000000000E+00 0. -1.
         23    2    1    2    0    0 -0.14458856999E+03  0.20900661521E+02 -0.23924084372E+04  0.23986961283E+04  0.93713891095E+02 0.  0.
        254    2    1    2    0    0  0.14458856999E+03 -0.20900661521E+02 -0.92070993705E+03  0.13087481128E+04  0.91857070625E+03 0.  0.
        -24    2    4    4    0    0 -0.16122274190E+03  0.37170503064E+03 -0.30698107706E+03  0.51460598764E+03  0.80153219124E+02 0.  0.
         24    2    4    4    0    0  0.30581131189E+03 -0.39260569216E+03 -0.61372885999E+03  0.79414212517E+03  0.79616665235E+02 0.  0.
         11    1    3    3    0    0 -0.12516666240E+02  0.16218537045E+02 -0.82331125896E+02  0.84841747795E+02  0.00000000000E+00 0.  1.
        -11    1    3    3    0    0 -0.13207190375E+03  0.46821244765E+01 -0.23100773113E+04  0.23138543805E+04  0.00000000000E+00 0. -1.
          4    1    6    6  502    0  0.12672761759E+03 -0.20492516952E+03 -0.24818959335E+03  0.34590791897E+03  0.00000000000E+00 0. -1.
          1    1    5    5  503    0 -0.12107774744E+03  0.33806653806E+03 -0.28194637322E+03  0.45655510341E+03  0.00000000000E+00 0. -1.
         -2    1    5    5    0  503 -0.40144994465E+02  0.33638492581E+02 -0.25034703843E+02  0.58050884233E+02  0.00000000000E+00 0.  1.
         -3    1    6    6    0  502  0.17908369431E+03 -0.18768052263E+03 -0.36553926665E+03  0.44823420620E+03  0.00000000000E+00 0.  1.
<mgrwt>
<rscale>  0 0.16638478E+04</rscale>
<asrwt>0</asrwt>
<pdfrwt beam="1">  1        1 0.54004325E+00 0.16638478E+04</pdfrwt>
<pdfrwt beam="2">  1       -1 0.30332761E-01 0.16638478E+04</pdfrwt>
<totfact> 0.23633046E+00</totfact>
</mgrwt>
</event>
<event>
12    1  0.1518126E-007  0.1813110E+04  0.7818608E-02  0.8699358E-01
          2   -1    0    0  501    0  0.00000000000E+00  0.00000000000E+00  0.98574982890E+03  0.98574982890E+03  0.00000000000E+00 0. -1.
         -2   -1    0    0    0  501 -0.00000000000E+00 -0.00000000000E+00 -0.83372298288E+03  0.83372298288E+03  0.00000000000E+00 0.  1.
         23    2    1    2    0    0 -0.56134738141E+02  0.22677372385E+03 -0.58121574551E+03  0.63311511203E+03  0.91899791005E+02 0.  0.
        254    2    1    2    0    0  0.56134738141E+02 -0.22677372385E+03  0.73324259154E+03  0.11863576998E+04  0.90289670675E+03 0.  0.
        -24    2    4    4    0    0 -0.40377816452E+03 -0.22384935526E+02  0.24130788938E+03  0.47771635232E+03  0.80284022808E+02 0.  0.
         24    2    4    4    0    0  0.45991290266E+03 -0.20438878832E+03  0.49193470216E+03  0.70864134743E+03  0.82934632553E+02 0.  0.
         11    1    3    3    0    0  0.11961048256E+02  0.16323842969E+02 -0.14886608302E+02  0.25122611954E+02  0.00000000000E+00 0. -1.
        -11    1    3    3    0    0 -0.68095786397E+02  0.21044988088E+03 -0.56632913721E+03  0.60799250007E+03  0.00000000000E+00 0.  1.
          4    1    6    6  502    0  0.26764348267E+03 -0.12575386928E+03  0.23176124176E+03  0.37571311214E+03  0.00000000000E+00 0. -1.
          1    1    5    5  503    0 -0.33713083999E+03 -0.41687785611E+02  0.22159062834E+03  0.40558289080E+03  0.00000000000E+00 0. -1.
         -2    1    5    5    0  503 -0.66647324524E+02  0.19302850085E+02  0.19717261039E+02  0.72133461518E+02  0.00000000000E+00 0.  1.
         -3    1    6    6    0  502  0.19226941999E+03 -0.78634919043E+02  0.26017346040E+03  0.33292823529E+03  0.00000000000E+00 0.  1.
<mgrwt>
<rscale>  0 0.18131104E+04</rscale>
<asrwt>0</asrwt>
<pdfrwt beam="1">  1        2 0.15165382E+00 0.18131104E+04</pdfrwt>
<pdfrwt beam="2">  1       -2 0.12826507E+00 0.18131104E+04</pdfrwt>
<totfact> 0.10902178E+01</totfact>
</mgrwt>
</event>
<event>
12    1  0.1518126E-007  0.1375683E+04  0.7818608E-02  0.8971611E-01
         -1   -1    0    0    0  501 -0.00000000000E+00  0.00000000000E+00  0.14668663939E+04  0.14668663939E+04  0.00000000000E+00 0.  1.
          1   -1    0    0  501    0  0.00000000000E+00 -0.00000000000E+00 -0.32254191677E+03  0.32254191677E+03  0.00000000000E+00 0. -1.
         23    2    1    2    0    0  0.16378987304E+03 -0.33948366380E+03  0.25992413826E+03  0.46703382062E+03  0.92107282275E+02 0.  0.
        254    2    1    2    0    0 -0.16378987304E+03  0.33948366380E+03  0.88440033886E+03  0.13223744900E+04  0.90798350869E+03 0.  0.
        -24    2    4    4    0    0  0.23374009563E+02  0.62422142459E+03  0.59456535940E+03  0.86670721245E+03  0.86456314214E+02 0.  0.
         24    2    4    4    0    0 -0.18716388261E+03 -0.28473776079E+03  0.28983497946E+03  0.45566727760E+03  0.86732007865E+02 0.  0.
         13    1    3    3    0    0  0.11170569325E+03 -0.13184065220E+03  0.98360105053E+02  0.19883367356E+03  0.00000000000E+00 0. -1.
        -13    1    3    3    0    0  0.52084179794E+02 -0.20764301160E+03  0.16156403321E+03  0.26820014705E+03  0.00000000000E+00 0.  1.
          2    1    6    6  502    0 -0.16852598454E+03 -0.26062333856E+03  0.22287626190E+03  0.38209862626E+03  0.00000000000E+00 0. -1.
          3    1    5    5  503    0 -0.83857004883E+01  0.45548639281E+03  0.39054523051E+03  0.60005312355E+03  0.00000000000E+00 0. -1.
         -2    1    5    5    0  503  0.31759710051E+02  0.16873503177E+03  0.20402012889E+03  0.26665408889E+03  0.00000000000E+00 0.  1.
         -1    1    6    6    0  502 -0.18637898067E+02 -0.24114422226E+02  0.66958717561E+02  0.73568651347E+02  0.00000000000E+00 0.  1.
<mgrwt>
<rscale>  0 0.13756830E+04</rscale>
<asrwt>0</asrwt>
<pdfrwt beam="1">  1        1 0.49621834E-01 0.13756830E+04</pdfrwt>
<pdfrwt beam="2">  1       -1 0.22567175E+00 0.13756830E+04</pdfrwt>
<totfact> 0.78594265E+00</totfact>
</mgrwt>
</event>
<event>
12    1  0.1518126E-007  0.2225053E+04  0.7818608E-02  0.8508072E-01
          1   -1    0    0  501    0  0.00000000000E+00  0.00000000000E+00  0.26422042380E+04  0.26422042380E+04  0.00000000000E+00 0. -1.
         -1   -1    0    0    0  501 -0.00000000000E+00 -0.00000000000E+00 -0.46844033844E+03  0.46844033844E+03  0.00000000000E+00 0.  1.
         23    2    1    2    0    0  0.21012020085E+03  0.31442956083E+03 -0.26296800454E+03  0.46963894966E+03  0.91608537251E+02 0.  0.
        254    2    1    2    0    0 -0.21012020085E+03 -0.31442956083E+03  0.24367319041E+04  0.26410056268E+04  0.94563835616E+03 0.  0.
        -24    2    4    4    0    0 -0.30136128462E+03 -0.53067962544E+03  0.93557480623E+03  0.11195380388E+04  0.75004756653E+02 0.  0.
         24    2    4    4    0    0  0.91241083775E+02  0.21625006461E+03  0.15011570979E+04  0.15214675880E+04  0.79384903909E+02 0.  0.
         13    1    3    3    0    0  0.15423819702E+03  0.28471835597E+03 -0.23677342870E+03  0.40114289247E+03  0.00000000000E+00 0.  1.
        -13    1    3    3    0    0  0.55882003832E+02  0.29711204866E+02 -0.26194575838E+02  0.68496057187E+02  0.00000000000E+00 0. -1.
          4    1    6    6  502    0  0.29605439591E+02  0.70319466778E+02  0.28497809241E+03  0.29501495321E+03  0.00000000000E+00 0. -1.
          1    1    5    5  503    0 -0.22683391991E+02 -0.28582269346E+02  0.30006010938E+02  0.47242386536E+02  0.00000000000E+00 0. -1.
         -2    1    5    5    0  503 -0.27867789263E+03 -0.50209735610E+03  0.90556879529E+03  0.10722956523E+04  0.00000000000E+00 0.  1.
         -3    1    6    6    0  502  0.61635644184E+02  0.14593059783E+03  0.12161790054E+04  0.12264526348E+04  0.00000000000E+00 0.  1.
<mgrwt>
<rscale>  0 0.22250529E+04</rscale>
<asrwt>0</asrwt>
<pdfrwt beam="1">  1        1 0.40649295E+00 0.22250529E+04</pdfrwt>
<pdfrwt beam="2">  1       -1 0.72067746E-01 0.22250529E+04</pdfrwt>
<totfact> 0.19053151E+00</totfact>
</mgrwt>
</event>
<event>
12    1  0.1518126E-007  0.1714573E+04  0.7818608E-02  0.8753096E-01
          1   -1    0    0  501    0  0.00000000000E+00  0.00000000000E+00  0.97013807188E+03  0.97013807188E+03  0.00000000000E+00 0. -1.
         -1   -1    0    0    0  501 -0.00000000000E+00 -0.00000000000E+00 -0.75756214608E+03  0.75756214608E+03  0.00000000000E+00 0.  1.
         23    2    1    2    0    0 -0.20402562716E+03  0.56432122969E+03  0.22014339372E+03  0.64492292279E+03  0.85892698877E+02 0.  0.
        254    2    1    2    0    0  0.20402562716E+03 -0.56432122969E+03 -0.75674679227E+01  0.10827772952E+04  0.90125717614E+03 0.  0.
        -24    2    4    4    0    0 -0.25767859652E+03 -0.18336407979E+03  0.26493746156E+03  0.42028916506E+03  0.80190266709E+02 0.  0.
         24    2    4    4    0    0  0.46170422367E+03 -0.38095714991E+03 -0.27250492948E+03  0.66248813010E+03  0.79576665647E+02 0.  0.
         13    1    3    3    0    0  0.81154180927E+01  0.18369619187E+02  0.32951006153E+01  0.20350936292E+02  0.00000000000E+00 0.  1.
        -13    1    3    3    0    0 -0.21214104525E+03  0.54595161051E+03  0.21684829310E+03  0.62457198650E+03  0.00000000000E+00 0. -1.
          4    1    6    6  502    0  0.30376405953E+03 -0.28768077957E+03 -0.21421208315E+03  0.47002090524E+03  0.00000000000E+00 0. -1.
          3    1    5    5  503    0 -0.12028647980E+03 -0.96687701766E+02  0.17957184744E+03  0.23677710465E+03  0.00000000000E+00 0. -1.
         -4    1    5    5    0  503 -0.13739211671E+03 -0.86676378021E+02  0.85365614119E+02  0.18351206041E+03  0.00000000000E+00 0.  1.
         -3    1    6    6    0  502  0.15794016415E+03 -0.93276370338E+02 -0.58292846323E+02  0.19246722486E+03  0.00000000000E+00 0.  1.
<mgrwt>
<rscale>  0 0.17145727E+04</rscale>
<asrwt>0</asrwt>
<pdfrwt beam="1">  1        1 0.14925201E+00 0.17145727E+04</pdfrwt>
<pdfrwt beam="2">  1       -1 0.11654802E+00 0.17145727E+04</pdfrwt>
<totfact> 0.10092763E+01</totfact>
</mgrwt>
</event>
<event>
12    1  0.1518126E-007  0.1961934E+04  0.7818608E-02  0.8624627E-01
          2   -1    0    0  501    0  0.00000000000E+00  0.00000000000E+00  0.10950339493E+04  0.10950339493E+04  0.00000000000E+00 0. -1.
         -2   -1    0    0    0  501 -0.00000000000E+00 -0.00000000000E+00 -0.87878238825E+03  0.87878238825E+03  0.00000000000E+00 0.  1.
         23    2    1    2    0    0 -0.32123005044E+03 -0.38487377190E+03 -0.50484861274E+03  0.71724639079E+03  0.90849863587E+02 0.  0.
        254    2    1    2    0    0  0.32123005044E+03  0.38487377190E+03  0.72110017384E+03  0.12565699468E+04  0.89870240064E+03 0.  0.
        -24    2    4    4    0    0 -0.21678903671E+03  0.34469124054E+03  0.54212460818E+03  0.68264634201E+03  0.79356157405E+02 0.  0.
         24    2    4    4    0    0  0.53801908715E+03  0.40182531360E+02  0.17897556566E+03  0.57392360480E+03  0.79226744719E+02 0.  0.
         11    1    3    3    0    0 -0.12749258699E+03 -0.22363746503E+03 -0.25472430064E+03  0.36214989277E+03  0.00000000000E+00 0. -1.
        -11    1    3    3    0    0 -0.19373746345E+03 -0.16123630687E+03 -0.25012431210E+03  0.35509649801E+03  0.00000000000E+00 0.  1.
          4    1    6    6  502    0  0.37256746112E+02  0.19918085288E+02  0.27310115256E+02  0.50305443520E+02  0.00000000000E+00 0. -1.
          1    1    5    5  503    0 -0.32589968613E+02  0.24183165290E+02  0.27543174691E+02  0.49046488251E+02  0.00000000000E+00 0. -1.
         -2    1    5    5    0  503 -0.18419906810E+03  0.32050807525E+03  0.51458143349E+03  0.63359985376E+03  0.00000000000E+00 0.  1.
         -3    1    6    6    0  502  0.50076234104E+03  0.20264446072E+02  0.15166545040E+03  0.52361816128E+03  0.00000000000E+00 0.  1.
<mgrwt>
<rscale>  0 0.19619343E+04</rscale>
<asrwt>0</asrwt>
<pdfrwt beam="1">  1        2 0.16846676E+00 0.19619343E+04</pdfrwt>
<pdfrwt beam="2">  1       -2 0.13519729E+00 0.19619343E+04</pdfrwt>
<totfact> 0.80370137E+00</totfact>
</mgrwt>
</event>
<event>
12    1  0.1518126E-007  0.2158946E+04  0.7818608E-02  0.8535713E-01
         -1   -1    0    0    0  501 -0.00000000000E+00  0.00000000000E+00  0.12307378577E+04  0.12307378577E+04  0.00000000000E+00 0.  1.
          1   -1    0    0  501    0  0.00000000000E+00 -0.00000000000E+00 -0.94679923834E+03  0.94679923834E+03  0.00000000000E+00 0. -1.
         23    2    1    2    0    0  0.45795477988E+03 -0.53046900388E+03 -0.43352488048E+03  0.82906884480E+03  0.91057031220E+02 0.  0.
        254    2    1    2    0    0 -0.45795477988E+03  0.53046900388E+03  0.71746349985E+03  0.13484682512E+04  0.90138382861E+03 0.  0.
        -24    2    4    4    0    0 -0.18530155552E+03 -0.38969796317E+02  0.68107247028E+03  0.71103686116E+03  0.76540163597E+02 0.  0.
         24    2    4    4    0    0 -0.27265322436E+03  0.56943880019E+03  0.36391029567E+02  0.63743139008E+03  0.79963379770E+02 0.  0.
         13    1    3    3    0    0  0.23249233587E+03 -0.21109377271E+03 -0.22198799228E+03  0.38456720587E+03  0.00000000000E+00 0. -1.
        -13    1    3    3    0    0  0.22546244401E+03 -0.31937523116E+03 -0.21153688820E+03  0.44450163893E+03  0.00000000000E+00 0.  1.
          4    1    6    6  502    0 -0.13440485067E+03  0.19162990944E+03  0.15674363923E+02  0.23458979466E+03  0.00000000000E+00 0. -1.
          1    1    5    5  503    0 -0.41792222476E+02  0.22412457876E+02  0.18545447402E+03  0.19142170739E+03  0.00000000000E+00 0. -1.
         -2    1    5    5    0  503 -0.14350933305E+03 -0.61382254193E+02  0.49561799626E+03  0.51961515376E+03  0.00000000000E+00 0.  1.
         -3    1    6    6    0  502 -0.13824837369E+03  0.37780889076E+03  0.20716665644E+02  0.40284159541E+03  0.00000000000E+00 0.  1.
<mgrwt>
<rscale>  0 0.21589457E+04</rscale>
<asrwt>0</asrwt>
<pdfrwt beam="1">  1        1 0.14566142E+00 0.21589457E+04</pdfrwt>
<pdfrwt beam="2">  1       -1 0.18934429E+00 0.21589457E+04</pdfrwt>
<totfact> 0.27243307E+00</totfact>
</mgrwt>
</event>
<event>
12    1  0.1518126E-007  0.1866955E+04  0.7818608E-02  0.8671482E-01
          1   -1    0    0  501    0  0.00000000000E+00  0.00000000000E+00  0.10951658578E+04  0.10951658578E+04  0.00000000000E+00 0. -1.
         -1   -1    0    0    0  501 -0.00000000000E+00 -0.00000000000E+00 -0.79566026026E+03  0.79566026026E+03  0.00000000000E+00 0.  1.
         23    2    1    2    0    0 -0.48844890996E+02  0.54557182887E+02 -0.62404074595E+03  0.63504181444E+03  0.92135464887E+02 0.  0.
        254    2    1    2    0    0  0.48844890996E+02 -0.54557182887E+02  0.92354634345E+03  0.12557843036E+04  0.84775825507E+03 0.  0.
        -24    2    4    4    0    0  0.26471164994E+03 -0.36830368530E+03  0.46899073353E+03  0.65695246117E+03  0.76904914541E+02 0.  0.
         24    2    4    4    0    0 -0.21586675895E+03  0.31374650241E+03  0.45455560992E+03  0.59883184241E+03  0.83327351963E+02 0.  0.
         11    1    3    3    0    0 -0.40410382787E+02 -0.14544877237E+02 -0.33469907911E+03  0.33744336717E+03  0.00000000000E+00 0. -1.
        -11    1    3    3    0    0 -0.84345082085E+01  0.69102060124E+02 -0.28934166685E+03  0.29759844727E+03  0.00000000000E+00 0.  1.
          2    1    6    6  502    0 -0.11649418200E+03  0.17964773752E+03  0.31706342632E+03  0.38258779430E+03  0.00000000000E+00 0. -1.
          3    1    5    5  503    0  0.26613838227E+03 -0.35713130856E+03  0.44099800001E+03  0.62677878561E+03  0.00000000000E+00 0. -1.
         -4    1    5    5    0  503 -0.14267323295E+01 -0.11172376733E+02  0.27992733518E+02  0.30173675560E+02  0.00000000000E+00 0.  1.
         -1    1    6    6    0  502 -0.99372576945E+02  0.13409876488E+03  0.13749218359E+03  0.21624404811E+03  0.00000000000E+00 0.  1.
<mgrwt>
<rscale>  0 0.18669547E+04</rscale>
<asrwt>0</asrwt>
<pdfrwt beam="1">  1        1 0.16848706E+00 0.18669547E+04</pdfrwt>
<pdfrwt beam="2">  1       -1 0.12240927E+00 0.18669547E+04</pdfrwt>
<totfact> 0.70726276E+00</totfact>
</mgrwt>
</event>
<event>
12    1  0.1518126E-007  0.1804043E+04  0.7818608E-02  0.8704153E-01
         -2   -1    0    0    0  501 -0.00000000000E+00  0.00000000000E+00  0.17040989690E+04  0.17040989690E+04  0.00000000000E+00 0.  1.
          2   -1    0    0  501    0  0.00000000000E+00 -0.00000000000E+00 -0.47746200713E+03  0.47746200713E+03  0.00000000000E+00 0. -1.
         23    2    1    2    0    0  0.44115575180E+03  0.50120686241E+03  0.36385752917E+03  0.76605448766E+03  0.92846433764E+02 0.  0.
        254    2    1    2    0    0 -0.44115575180E+03 -0.50120686241E+03  0.86277943272E+03  0.14155064885E+04  0.90191105613E+03 0.  0.
        -24    2    4    4    0    0 -0.37339953825E+03 -0.53973626119E+03  0.10243235046E+04  0.12192112799E+04  0.80591912002E+02 0.  0.
         24    2    4    4    0    0 -0.67756213551E+02  0.38529398783E+02 -0.16154407184E+03  0.19629520857E+03  0.79748998214E+02 0.  0.
         13    1    3    3    0    0  0.40540441156E+03  0.42424958160E+03  0.33874276835E+03  0.67755967082E+03  0.00000000000E+00 0. -1.
        -13    1    3    3    0    0  0.35751340238E+02  0.76957280803E+02  0.25114760811E+02  0.88494816843E+02  0.00000000000E+00 0.  1.
          4    1    6    6  502    0 -0.10899543916E+02  0.27520491347E+02 -0.58414101643E+01  0.30171171244E+02  0.00000000000E+00 0. -1.
          3    1    5    5  503    0 -0.15272495519E+02 -0.28165008762E+02  0.88918061955E+02  0.94514224219E+02  0.00000000000E+00 0. -1.
         -4    1    5    5    0  503 -0.35812704273E+03 -0.51157125243E+03  0.93540544261E+03  0.11246970557E+04  0.00000000000E+00 0.  1.
         -3    1    6    6    0  502 -0.56856669634E+02  0.11008907436E+02 -0.15570266168E+03  0.16612403733E+03  0.00000000000E+00 0.  1.
<mgrwt>
<rscale>  0 0.18040427E+04</rscale>
<asrwt>0</asrwt>
<pdfrwt beam="1">  1        2 0.73455694E-01 0.18040427E+04</pdfrwt>
<pdfrwt beam="2">  1       -2 0.26216907E+00 0.18040427E+04</pdfrwt>
<totfact> 0.33187709E+00</totfact>
</mgrwt>
</event>
<event>
12    1  0.1518126E-007  0.1308831E+04  0.7818608E-02  0.9022592E-01
         -1   -1    0    0    0  501 -0.00000000000E+00  0.00000000000E+00  0.30518996236E+03  0.30518996236E+03  0.00000000000E+00 0.  1.
          1   -1    0    0  501    0  0.00000000000E+00 -0.00000000000E+00 -0.14032553760E+04  0.14032553760E+04  0.00000000000E+00 0. -1.
         23    2    1    2    0    0  0.16105327007E+03 -0.28249817148E+03 -0.22899405710E+03  0.40779907588E+03  0.90102360743E+02 0.  0.
        254    2    1    2    0    0 -0.16105327007E+03  0.28249817148E+03 -0.86907135650E+03  0.13006462624E+04  0.91140128628E+03 0.  0.
        -24    2    4    4    0    0  0.21195141166E+03 -0.11946353888E+03 -0.66065701836E+03  0.70852608576E+03  0.79665427101E+02 0.  0.
         24    2    4    4    0    0 -0.37300468172E+03  0.40196171036E+03 -0.20841433814E+03  0.59212017668E+03  0.80399366333E+02 0.  0.
         13    1    3    3    0    0  0.97993489110E+02 -0.11285253963E+03 -0.14511908514E+03  0.20832179070E+03  0.00000000000E+00 0. -1.
        -13    1    3    3    0    0  0.63059780958E+02 -0.16964563186E+03 -0.83874971965E+02  0.19947728519E+03  0.00000000000E+00 0.  1.
          2    1    6    6  502    0 -0.95525732821E+02  0.56053093072E+02 -0.43795192190E+02  0.11910135907E+03  0.00000000000E+00 0. -1.
          3    1    5    5  503    0  0.11532486304E+03 -0.48524329976E+02 -0.23399882555E+03  0.26534861031E+03  0.00000000000E+00 0. -1.
         -4    1    5    5    0  503  0.96626548614E+02 -0.70939208899E+02 -0.42665819281E+03  0.44317747545E+03  0.00000000000E+00 0.  1.
         -1    1    6    6    0  502 -0.27747894890E+03  0.34590861729E+03 -0.16461914595E+03  0.47301881761E+03  0.00000000000E+00 0.  1.
<mgrwt>
<rscale>  0 0.13088307E+04</rscale>
<asrwt>0</asrwt>
<pdfrwt beam="1">  1        1 0.21588544E+00 0.13088307E+04</pdfrwt>
<pdfrwt beam="2">  1       -1 0.46952302E-01 0.13088307E+04</pdfrwt>
<totfact> 0.33927052E+01</totfact>
</mgrwt>
</event>
<event>
12    1  0.1518126E-007  0.1249543E+04  0.7818608E-02  0.9070564E-01
          2   -1    0    0  501    0  0.00000000000E+00  0.00000000000E+00  0.15348755456E+04  0.15348755456E+04  0.00000000000E+00 0.  1.
         -2   -1    0    0    0  501 -0.00000000000E+00 -0.00000000000E+00 -0.25431350060E+03  0.25431350060E+03  0.00000000000E+00 0. -1.
         23    2    1    2    0    0 -0.22618870214E+03  0.17326333634E+03  0.38532137323E+03  0.49011385545E+03  0.10274978317E+03 0.  0.
        254    2    1    2    0    0  0.22618870214E+03 -0.17326333634E+03  0.89524067173E+03  0.12990751907E+04  0.89719506136E+03 0.  0.
        -24    2    4    4    0    0 -0.17698807965E+03  0.25488047700E+03  0.17322025821E+03  0.36443578161E+03  0.80742449579E+02 0.  0.
         24    2    4    4    0    0  0.40317678179E+03 -0.42814381334E+03  0.72202041352E+03  0.93463940911E+03  0.79866796934E+02 0.  0.
         13    1    3    3    0    0 -0.16444250893E+03  0.15298473945E+03  0.22870856437E+03  0.32055151952E+03  0.00000000000E+00 0. -1.
        -13    1    3    3    0    0 -0.61746193206E+02  0.20278596882E+02  0.15661280887E+03  0.16956233594E+03  0.00000000000E+00 0.  1.
          2    1    6    6  502    0  0.15655584338E+03 -0.11798289073E+03  0.21148815556E+03  0.28836944107E+03  0.00000000000E+00 0. -1.
          1    1    5    5  503    0 -0.88686972574E+02  0.91082536628E+02  0.10938056287E+03  0.16770663409E+03  0.00000000000E+00 0. -1.
         -2    1    5    5    0  503 -0.88301107079E+02  0.16379794037E+03  0.63839695340E+02  0.19672914752E+03  0.00000000000E+00 0.  1.
         -1    1    6    6    0  502  0.24662093842E+03 -0.31016092261E+03  0.51053225796E+03  0.64626996805E+03  0.00000000000E+00 0.  1.
<mgrwt>
<rscale>  0 0.12495432E+04</rscale>
<asrwt>0</asrwt>
<pdfrwt beam="1">  1        2 0.23613469E+00 0.12495432E+04</pdfrwt>
<pdfrwt beam="2">  1       -2 0.39125155E-01 0.12495432E+04</pdfrwt>
<totfact> 0.73654891E+01</totfact>
</mgrwt>
</event>
<event>
12    1  0.1518126E-007  0.1293587E+04  0.7818608E-02  0.9034666E-01
          2   -1    0    0  501    0  0.00000000000E+00  0.00000000000E+00  0.21140963160E+04  0.21140963160E+04  0.00000000000E+00 0.  1.
         -2   -1    0    0    0  501 -0.00000000000E+00 -0.00000000000E+00 -0.19788203117E+03  0.19788203117E+03  0.00000000000E+00 0. -1.
         23    2    1    2    0    0  0.20141914073E+03 -0.39384262520E+01  0.76360693988E+02  0.23411747902E+03  0.91623451929E+02 0.  0.
        254    2    1    2    0    0 -0.20141914073E+03  0.39384262520E+01  0.18398535908E+04  0.20778608681E+04  0.94438306329E+03 0.  0.
        -24    2    4    4    0    0 -0.30108401798E+03 -0.14567105561E+03  0.14702935123E+03  0.37389086719E+03  0.79404710947E+02 0.  0.
         24    2    4    4    0    0  0.99664877249E+02  0.14960948186E+03  0.16928242396E+04  0.17039700010E+04  0.74456518561E+02 0.  0.
         11    1    3    3    0    0  0.18674549038E+03 -0.30859122790E+02  0.56284578476E+02  0.19746928219E+03  0.00000000000E+00 0. -1.
        -11    1    3    3    0    0  0.14673650353E+02  0.26920696538E+02  0.20076115512E+02  0.36648196829E+02  0.00000000000E+00 0.  1.
          4    1    6    6  502    0  0.95078932974E+02  0.14882352980E+03  0.16881932695E+04  0.16974053616E+04  0.00000000000E+00 0. -1.
          1    1    5    5  503    0 -0.29756129119E+03 -0.12612902686E+03  0.14394509275E+03  0.35379576476E+03  0.00000000000E+00 0. -1.
         -2    1    5    5    0  503 -0.35227267877E+01 -0.19542028744E+02  0.30842584827E+01  0.20095102434E+02  0.00000000000E+00 0.  1.
         -3    1    6    6    0  502  0.45859442757E+01  0.78595205863E+00  0.46309701508E+01  0.65646393713E+01  0.00000000000E+00 0.  1.
<mgrwt>
<rscale>  0 0.12935868E+04</rscale>
<asrwt>0</asrwt>
<pdfrwt beam="1">  1        2 0.32524557E+00 0.12935868E+04</pdfrwt>
<pdfrwt beam="2">  1       -2 0.30443391E-01 0.12935868E+04</pdfrwt>
<totfact> 0.56540110E+01</totfact>
</mgrwt>
</event>
<event>
12    1  0.1518126E-007  0.1555279E+04  0.7818608E-02  0.8848503E-01
         -1   -1    0    0    0  501 -0.00000000000E+00  0.00000000000E+00  0.18527713296E+03  0.18527713296E+03  0.00000000000E+00 0.  1.
          1   -1    0    0  501    0  0.00000000000E+00 -0.00000000000E+00 -0.32638849951E+04  0.32638849951E+04  0.00000000000E+00 0. -1.
         23    2    1    2    0    0  0.47963615514E+03 -0.14806808090E+03 -0.87174951517E+03  0.10116409470E+04  0.10721562613E+03 0.  0.
        254    2    1    2    0    0 -0.47963615514E+03  0.14806808090E+03 -0.22068583469E+04  0.24375211810E+04  0.90515785735E+03 0.  0.
        -24    2    4    4    0    0 -0.26798337064E+03  0.32846618690E+03 -0.20754173921E+04  0.21197647742E+04  0.79625520887E+02 0.  0.
         24    2    4    4    0    0 -0.21165278450E+03 -0.18039810600E+03 -0.13144095487E+03  0.31775640690E+03  0.79699634067E+02 0.  0.
         11    1    3    3    0    0  0.44931279804E+03 -0.13920072398E+03 -0.85507823355E+03  0.97591885806E+03  0.00000000000E+00 0. -1.
        -11    1    3    3    0    0  0.30323357106E+02 -0.88673569195E+01 -0.16671281620E+02  0.35722088905E+02  0.00000000000E+00 0.  1.
          4    1    6    6  502    0 -0.89398246731E+02 -0.12730001580E+03 -0.79640969646E+02  0.17475704446E+03  0.00000000000E+00 0. -1.
          1    1    5    5  503    0 -0.13533783037E+03  0.20935169855E+03 -0.10692530217E+04  0.10979282702E+04  0.00000000000E+00 0. -1.
         -2    1    5    5    0  503 -0.13264554028E+03  0.11911448835E+03 -0.10061643704E+04  0.10218365040E+04  0.00000000000E+00 0.  1.
         -3    1    6    6    0  502 -0.12225453777E+03 -0.53098090199E+02 -0.51799985224E+02  0.14299936244E+03  0.00000000000E+00 0.  1.
<mgrwt>
<rscale>  0 0.15552791E+04</rscale>
<asrwt>0</asrwt>
<pdfrwt beam="1">  1        1 0.50213612E+00 0.15552791E+04</pdfrwt>
<pdfrwt beam="2">  1       -1 0.28504176E-01 0.15552791E+04</pdfrwt>
<totfact> 0.41213241E+00</totfact>
</mgrwt>
</event>
<event>
12    1  0.1518126E-007  0.1408268E+04  0.7818608E-02  0.8947855E-01
          2   -1    0    0  501    0  0.00000000000E+00  0.00000000000E+00  0.18684385979E+04  0.18684385979E+04  0.00000000000E+00 0. -1.
         -2   -1    0    0    0  501 -0.00000000000E+00 -0.00000000000E+00 -0.26535777927E+03  0.26535777927E+03  0.00000000000E+00 0.  1.
         23    2    1    2    0    0 -0.23852200418E+03  0.17941109874E+03  0.45952651841E+02  0.31560596163E+03  0.91729973153E+02 0.  0.
        254    2    1    2    0    0  0.23852200418E+03 -0.17941109874E+03  0.15571281668E+04  0.18181904155E+04  0.88999279240E+03 0.  0.
        -24    2    4    4    0    0 -0.12848479216E+03  0.29198426258E+03  0.65843000646E+03  0.73608728380E+03  0.80816239430E+02 0.  0.
         24    2    4    4    0    0  0.36700679635E+03 -0.47139536132E+03  0.89869816031E+03  0.10821031317E+04  0.79882595788E+02 0.  0.
         13    1    3    3    0    0 -0.10291589180E+03  0.92445070103E+02  0.65981978651E+02  0.15326902256E+03  0.00000000000E+00 0. -1.
        -13    1    3    3    0    0 -0.13560611238E+03  0.86966028635E+02 -0.20029326810E+02  0.16233693906E+03  0.00000000000E+00 0.  1.
          4    1    6    6  502    0  0.34230333158E+03 -0.41658091231E+03  0.76945573438E+03  0.93956019205E+03  0.00000000000E+00 0. -1.
          3    1    5    5  503    0 -0.11538314419E+03  0.18194786563E+03  0.47856800159E+03  0.52482914165E+03  0.00000000000E+00 0. -1.
         -4    1    5    5    0  503 -0.13101647975E+02  0.11003639694E+03  0.17986200486E+03  0.21125814215E+03  0.00000000000E+00 0.  1.
         -3    1    6    6    0  502  0.24703464764E+02 -0.54814449003E+02  0.12924242592E+03  0.14254293967E+03  0.00000000000E+00 0.  1.
<mgrwt>
<rscale>  0 0.14082680E+04</rscale>
<asrwt>0</asrwt>
<pdfrwt beam="1">  1        2 0.28745208E+00 0.14082680E+04</pdfrwt>
<pdfrwt beam="2">  1       -2 0.40824275E-01 0.14082680E+04</pdfrwt>
<totfact> 0.43705159E+01</totfact>
</mgrwt>
</event>
<event>
12    1  0.1518126E-007  0.1848443E+04  0.7818608E-02  0.8680954E-01
          2   -1    0    0  501    0  0.00000000000E+00  0.00000000000E+00  0.17252356604E+04  0.17252356604E+04  0.00000000000E+00 0. -1.
         -2   -1    0    0    0  501 -0.00000000000E+00 -0.00000000000E+00 -0.49511241421E+03  0.49511241421E+03  0.00000000000E+00 0.  1.
         23    2    1    2    0    0 -0.57059978742E+02  0.64835354035E+03  0.74053927785E+03  0.99021498672E+03  0.92245018386E+02 0.  0.
        254    2    1    2    0    0  0.57059978742E+02 -0.64835354035E+03  0.48958396831E+03  0.12301330879E+04  0.92190932166E+03 0.  0.
        -24    2    4    4    0    0 -0.50549013325E+02  0.19529597831E+03  0.27697752847E+03  0.34984448269E+03  0.70561242161E+02 0.  0.
         24    2    4    4    0    0  0.10760899207E+03 -0.84364951867E+03  0.21260643984E+03  0.88028860518E+03  0.79889452482E+02 0.  0.
         11    1    3    3    0    0  0.11888833066E+01  0.41164211004E+03  0.50136215943E+03  0.64870228542E+03  0.00000000000E+00 0.  1.
        -11    1    3    3    0    0 -0.58248862049E+02  0.23671143031E+03  0.23917711842E+03  0.34151270130E+03  0.00000000000E+00 0. -1.
          4    1    6    6  502    0  0.44332332104E+02 -0.62216566613E+03  0.14817690640E+03  0.64110207251E+03  0.00000000000E+00 0. -1.
          3    1    5    5  503    0 -0.63471228526E+02  0.10710731937E+03  0.16625124022E+03  0.20770182856E+03  0.00000000000E+00 0. -1.
         -4    1    5    5    0  503  0.12922215201E+02  0.88188658944E+02  0.11072628825E+03  0.14214265412E+03  0.00000000000E+00 0.  1.
         -3    1    6    6    0  502  0.63276659963E+02 -0.22148385254E+03  0.64429533448E+02  0.23918653267E+03  0.00000000000E+00 0.  1.
<mgrwt>
<rscale>  0 0.18484432E+04</rscale>
<asrwt>0</asrwt>
<pdfrwt beam="1">  1        2 0.26542087E+00 0.18484432E+04</pdfrwt>
<pdfrwt beam="2">  1       -2 0.76171142E-01 0.18484432E+04</pdfrwt>
<totfact> 0.13774157E+01</totfact>
</mgrwt>
</event>
<event>
12    1  0.1518126E-007  0.3598485E+04  0.7818608E-02  0.8090839E-01
         -2   -1    0    0    0  501 -0.00000000000E+00  0.00000000000E+00  0.19375664965E+04  0.19375664965E+04  0.00000000000E+00 0.  1.
          2   -1    0    0  501    0  0.00000000000E+00 -0.00000000000E+00 -0.16707933262E+04  0.16707933262E+04  0.00000000000E+00 0. -1.
         23    2    1    2    0    0  0.12377119038E+04  0.39557618664E+03 -0.96408781574E+03  0.16203968712E+04  0.88370965192E+02 0.  0.
        254    2    1    2    0    0 -0.12377119038E+04 -0.39557618664E+03  0.12308609860E+04  0.19879629515E+04  0.86519746493E+03 0.  0.
        -24    2    4    4    0    0 -0.37540260487E+03  0.22905195922E+03  0.59970256228E+03  0.74792554756E+03  0.79734219265E+02 0.  0.
         24    2    4    4    0    0 -0.86230929892E+03 -0.62462814586E+03  0.63115842373E+03  0.12400374039E+04  0.74794114983E+02 0.  0.
         13    1    3    3    0    0  0.96915296250E+03  0.27317193462E+03 -0.76082433815E+03  0.12620356747E+04  0.00000000000E+00 0. -1.
        -13    1    3    3    0    0  0.26855894129E+03  0.12240425202E+03 -0.20326347759E+03  0.35836119654E+03  0.00000000000E+00 0.  1.
          4    1    6    6  502    0 -0.19358265646E+03 -0.14635670384E+03  0.10864034926E+03  0.26588955438E+03  0.00000000000E+00 0. -1.
          3    1    5    5  503    0 -0.35913582204E+02  0.37018120980E+02  0.37911132757E+02  0.64010785454E+02  0.00000000000E+00 0. -1.
         -4    1    5    5    0  503 -0.33948902266E+03  0.19203383824E+03  0.56179142953E+03  0.68391476211E+03  0.00000000000E+00 0.  1.
         -3    1    6    6    0  502 -0.66872664246E+03 -0.47827144202E+03  0.52251807447E+03  0.97414784953E+03  0.00000000000E+00 0.  1.
<mgrwt>
<rscale>  0 0.35984848E+04</rscale>
<asrwt>0</asrwt>
<pdfrwt beam="1">  1        2 0.25704513E+00 0.35984848E+04</pdfrwt>
<pdfrwt beam="2">  1       -2 0.29808715E+00 0.35984848E+04</pdfrwt>
<totfact> 0.27096614E-01</totfact>
</mgrwt>
</event>
<event>
12    1  0.1518126E-007  0.2098447E+04  0.7818608E-02  0.8561928E-01
          2   -1    0    0  501    0  0.00000000000E+00  0.00000000000E+00  0.17645498399E+04  0.17645498399E+04  0.00000000000E+00 0. -1.
         -2   -1    0    0    0  501 -0.00000000000E+00 -0.00000000000E+00 -0.62388120520E+03  0.62388120520E+03  0.00000000000E+00 0.  1.
         23    2    1    2    0    0  0.45485598003E+03 -0.67688439470E+03  0.70800042423E+03  0.10840916004E+04  0.94464548555E+02 0.  0.
        254    2    1    2    0    0 -0.45485598003E+03  0.67688439470E+03  0.43266821043E+03  0.13043394447E+04  0.92142995408E+03 0.  0.
        -24    2    4    4    0    0 -0.13645524220E+02  0.19226869987E+03  0.58991712672E+03  0.62557614912E+03  0.78675591346E+02 0.  0.
         24    2    4    4    0    0 -0.44121045581E+03  0.48461569483E+03 -0.15724891629E+03  0.67876329556E+03  0.80457142211E+02 0.  0.
         13    1    3    3    0    0  0.74449613996E+02 -0.64689557230E+02  0.64301382273E+02  0.11773763885E+03  0.00000000000E+00 0.  1.
        -13    1    3    3    0    0  0.38040636603E+03 -0.61219483747E+03  0.64369904195E+03  0.96635396152E+03  0.00000000000E+00 0. -1.
          2    1    6    6  502    0 -0.38745925438E+03  0.40653259729E+03 -0.10782132786E+03  0.57185563318E+03  0.00000000000E+00 0. -1.
          3    1    5    5  503    0 -0.11701667721E+02  0.11607426890E+03  0.46352692245E+03  0.47798260718E+03  0.00000000000E+00 0. -1.
         -2    1    5    5    0  503 -0.19438564995E+01  0.76194430966E+02  0.12639020427E+03  0.14759354194E+03  0.00000000000E+00 0.  1.
         -1    1    6    6    0  502 -0.53751201432E+02  0.78083097540E+02 -0.49427588427E+02  0.10690766237E+03  0.00000000000E+00 0.  1.
<mgrwt>
<rscale>  0 0.20984465E+04</rscale>
<asrwt>0</asrwt>
<pdfrwt beam="1">  1        2 0.27146920E+00 0.20984465E+04</pdfrwt>
<pdfrwt beam="2">  1       -2 0.95981725E-01 0.20984465E+04</pdfrwt>
<totfact> 0.75713836E+00</totfact>
</mgrwt>
</event>
<event>
12    1  0.1518126E-007  0.1781025E+04  0.7818608E-02  0.8716456E-01
          2   -1    0    0  501    0  0.00000000000E+00  0.00000000000E+00  0.14983790836E+04  0.14983790836E+04  0.00000000000E+00 0. -1.
         -2   -1    0    0    0  501 -0.00000000000E+00 -0.00000000000E+00 -0.52924712731E+03  0.52924712731E+03  0.00000000000E+00 0.  1.
         23    2    1    2    0    0 -0.17971175814E+03 -0.46783599559E+03 -0.15293225739E+03  0.53184624304E+03  0.91133507072E+02 0.  0.
        254    2    1    2    0    0  0.17971175814E+03  0.46783599559E+03  0.11220642137E+04  0.14957799679E+04  0.85273839942E+03 0.  0.
        -24    2    4    4    0    0  0.22183232964E+02  0.56178786083E+03  0.28533823032E+03  0.63545296114E+03  0.79277132504E+02 0.  0.
         24    2    4    4    0    0  0.15752852518E+03 -0.93951865245E+02  0.83672598335E+03  0.86032700671E+03  0.80062463329E+02 0.  0.
         13    1    3    3    0    0 -0.52866206161E+02 -0.21812140245E+03 -0.31753316504E+02  0.22667169005E+03  0.00000000000E+00 0. -1.
        -13    1    3    3    0    0 -0.12684555198E+03 -0.24971459313E+03 -0.12117894089E+03  0.30517455299E+03  0.00000000000E+00 0.  1.
          4    1    6    6  502    0  0.10244446060E+03 -0.53324870905E+02  0.34399801429E+03  0.36286780403E+03  0.00000000000E+00 0. -1.
          3    1    5    5  503    0 -0.26740465408E+02  0.13772205917E+03  0.57975844612E+02  0.15180124054E+03  0.00000000000E+00 0. -1.
         -4    1    5    5    0  503  0.48923698372E+02  0.42406580166E+03  0.22736238571E+03  0.48365172060E+03  0.00000000000E+00 0.  1.
         -3    1    6    6    0  502  0.55084064577E+02 -0.40626994340E+02  0.49272796906E+03  0.49745920268E+03  0.00000000000E+00 0.  1.
<mgrwt>
<rscale>  0 0.17810254E+04</rscale>
<asrwt>0</asrwt>
<pdfrwt beam="1">  1        2 0.23051986E+00 0.17810254E+04</pdfrwt>
<pdfrwt beam="2">  1       -2 0.81422635E-01 0.17810254E+04</pdfrwt>
<totfact> 0.15977249E+01</totfact>
</mgrwt>
</event>
<event>
12    1  0.1518126E-007  0.1828764E+04  0.7818608E-02  0.8691151E-01
          1   -1    0    0  501    0  0.00000000000E+00  0.00000000000E+00  0.26441071289E+04  0.26441071289E+04  0.00000000000E+00 0. -1.
         -1   -1    0    0    0  501 -0.00000000000E+00 -0.00000000000E+00 -0.31621034704E+03  0.31621034704E+03  0.00000000000E+00 0.  1.
         23    2    1    2    0    0  0.35332951810E+02  0.64668243426E+03  0.62327672975E+03  0.90340430580E+03  0.90657981625E+02 0.  0.
        254    2    1    2    0    0 -0.35332951810E+02 -0.64668243426E+03  0.17046200522E+04  0.20569131702E+04  0.95169095783E+03 0.  0.
        -24    2    4    4    0    0  0.38161305759E+03 -0.27583114954E+03  0.35827014590E+03  0.59733944763E+03  0.82131415886E+02 0.  0.
         24    2    4    4    0    0 -0.41694600940E+03 -0.37085128472E+03  0.13463499063E+04  0.14595737226E+04  0.79515604605E+02 0.  0.
         11    1    3    3    0    0 -0.20672755772E+02  0.20075998724E+03  0.23218485961E+03  0.30763898378E+03  0.00000000000E+00 0. -1.
        -11    1    3    3    0    0  0.56005707582E+02  0.44592244702E+03  0.39109187014E+03  0.59576532203E+03  0.00000000000E+00 0.  1.
          4    1    6    6  502    0 -0.72218062907E+02 -0.10559560507E+03  0.27543010938E+03  0.30369001560E+03  0.00000000000E+00 0. -1.
          1    1    5    5  503    0  0.79550568042E+02 -0.10171102213E+03  0.89371514247E+02  0.15703723271E+03  0.00000000000E+00 0. -1.
         -2    1    5    5    0  503  0.30206248954E+03 -0.17412012741E+03  0.26889863166E+03  0.44030221492E+03  0.00000000000E+00 0.  1.
         -3    1    6    6    0  502 -0.34472794649E+03 -0.26525567965E+03  0.10709197969E+04  0.11558837070E+04  0.00000000000E+00 0.  1.
<mgrwt>
<rscale>  0 0.18287636E+04</rscale>
<asrwt>0</asrwt>
<pdfrwt beam="1">  1        1 0.40678570E+00 0.18287636E+04</pdfrwt>
<pdfrwt beam="2">  1       -1 0.48647747E-01 0.18287636E+04</pdfrwt>
<totfact> 0.42832188E+00</totfact>
</mgrwt>
</event>
<event>
12    1  0.1518126E-007  0.2331890E+04  0.7818608E-02  0.8465452E-01
          3   -1    0    0  501    0  0.00000000000E+00  0.00000000000E+00  0.13120130238E+04  0.13120130238E+04  0.00000000000E+00 0. -1.
         -3   -1    0    0    0  501 -0.00000000000E+00 -0.00000000000E+00 -0.10361388943E+04  0.10361388943E+04  0.00000000000E+00 0.  1.
         23    2    1    2    0    0 -0.60618949749E+03  0.72657716093E+03 -0.17755781651E+03  0.96683713251E+03  0.88697153000E+02 0.  0.
        254    2    1    2    0    0  0.60618949749E+03 -0.72657716093E+03  0.45343194605E+03  0.13813147856E+04  0.89835957702E+03 0.  0.
        -24    2    4    4    0    0 -0.16910220804E+03 -0.42726470147E+03  0.21192685352E+03  0.51216470774E+03  0.79050709813E+02 0.  0.
         24    2    4    4    0    0  0.77529170553E+03 -0.29931245946E+03  0.24150509253E+03  0.86915007788E+03  0.80199570474E+02 0.  0.
         13    1    3    3    0    0 -0.89297021572E+02  0.13746870966E+03 -0.32330325352E+01  0.16395748442E+03  0.00000000000E+00 0. -1.
        -13    1    3    3    0    0 -0.51689247591E+03  0.58910845127E+03 -0.17432478397E+03  0.80287964809E+03  0.00000000000E+00 0.  1.
          2    1    6    6  502    0  0.46443086056E+02 -0.36902767172E+02  0.66909381481E+01  0.59695419596E+02  0.00000000000E+00 0. -1.
          1    1    5    5  503    0 -0.98445608265E+02 -0.29194438860E+03  0.17787617738E+03  0.35575693711E+03  0.00000000000E+00 0. -1.
         -2    1    5    5    0  503 -0.70656599780E+02 -0.13532031287E+03  0.34050676139E+02  0.15640777063E+03  0.00000000000E+00 0.  1.
         -1    1    6    6    0  502  0.72884861947E+03 -0.26240969229E+03  0.23481415438E+03  0.80945465828E+03  0.00000000000E+00 0.  1.
<mgrwt>
<rscale>  0 0.23318900E+04</rscale>
<asrwt>0</asrwt>
<pdfrwt beam="1">  1        3 0.20184816E+00 0.23318900E+04</pdfrwt>
<pdfrwt beam="2">  1       -3 0.15940598E+00 0.23318900E+04</pdfrwt>
<totfact> 0.92952509E-02</totfact>
</mgrwt>
</event>
<event>
12    1  0.1519043E-007  0.1423280E+04  0.7818608E-02  0.8937137E-01
          1   -1    0    0  501    0  0.00000000000E+00  0.00000000000E+00  0.75983655883E+03  0.75983655883E+03  0.00000000000E+00 0. -1.
         -1   -1    0    0    0  501 -0.00000000000E+00 -0.00000000000E+00 -0.66650078919E+03  0.66650078919E+03  0.00000000000E+00 0.  1.
         23    2    1    2    0    0  0.37990992479E+03  0.16955626898E+03  0.54731609737E+02  0.42975840768E+03  0.92821659978E+02 0.  0.
        254    2    1    2    0    0 -0.37990992479E+03 -0.16955626898E+03  0.38604159905E+02  0.99657894033E+03  0.90476429187E+03 0.  0.
        -24    2    4    4    0    0 -0.51022946457E+03 -0.69865603450E+02  0.35536732612E+03  0.63089269340E+03  0.80773417969E+02 0.  0.
         24    2    4    4    0    0  0.13031953978E+03 -0.99690665528E+02 -0.31676316622E+03  0.36568624693E+03  0.80412166249E+02 0.  0.
         13    1    3    3    0    0  0.35597068920E+03  0.16783921897E+03  0.29076798922E+02  0.39462715978E+03  0.00000000000E+00 0.  1.
        -13    1    3    3    0    0  0.23939235591E+02  0.17170500045E+01  0.25654810815E+02  0.35131247905E+02  0.00000000000E+00 0. -1.
          4    1    6    6  502    0  0.11019901464E+03 -0.11352240528E+03 -0.27828688135E+03  0.32011677191E+03  0.00000000000E+00 0. -1.
          1    1    5    5  503    0 -0.46363931775E+03 -0.41609369454E+02  0.33109902559E+03  0.57124366197E+03  0.00000000000E+00 0. -1.
         -2    1    5    5    0  503 -0.46590146820E+02 -0.28256233996E+02  0.24268300533E+02  0.59649031435E+02  0.00000000000E+00 0.  1.
         -3    1    6    6    0  502  0.20120525138E+02  0.13831739749E+02 -0.38476284867E+02  0.45569475019E+02  0.00000000000E+00 0.  1.
<mgrwt>
<rscale>  0 0.14232802E+04</rscale>
<asrwt>0</asrwt>
<pdfrwt beam="1">  1        1 0.11689793E+00 0.14232802E+04</pdfrwt>
<pdfrwt beam="2">  1       -1 0.10253858E+00 0.14232802E+04</pdfrwt>
<totfact> 0.21020114E+01</totfact>
</mgrwt>
</event>
<event>
12    1  0.1518126E-007  0.1252504E+04  0.7818608E-02  0.9068102E-01
         -1   -1    0    0    0  501 -0.00000000000E+00  0.00000000000E+00  0.10176203583E+04  0.10176203583E+04  0.00000000000E+00 0.  1.
          1   -1    0    0  501    0  0.00000000000E+00 -0.00000000000E+00 -0.38540083347E+03  0.38540083347E+03  0.00000000000E+00 0. -1.
         23    2    1    2    0    0 -0.22155979969E+03  0.16487212946E+03  0.25106848703E+03  0.38416822179E+03  0.90985018212E+02 0.  0.
        254    2    1    2    0    0  0.22155979969E+03 -0.16487212946E+03  0.38115103779E+03  0.10188529700E+04  0.90361147453E+03 0.  0.
        -24    2    4    4    0    0  0.80372451020E+02  0.15045652563E+03 -0.23927991874E+03  0.30452556293E+03  0.79900200113E+02 0.  0.
         24    2    4    4    0    0  0.14118734867E+03 -0.31532865509E+03  0.62043095654E+03  0.71432740705E+03  0.77220751649E+02 0.  0.
         11    1    3    3    0    0 -0.16396944678E+03  0.97107121559E+02  0.21734373873E+03  0.28905721458E+03  0.00000000000E+00 0.  1.
        -11    1    3    3    0    0 -0.57590352910E+02  0.67765007905E+02  0.33724748304E+02  0.95111007212E+02  0.00000000000E+00 0. -1.
          2    1    6    6  502    0  0.25810019300E+00 -0.60109567206E+02  0.13995675039E+03  0.15231913427E+03  0.00000000000E+00 0. -1.
          3    1    5    5  503    0 -0.86822745901E+01  0.41628827964E+02 -0.28675443937E+02  0.51289592460E+02  0.00000000000E+00 0. -1.
         -4    1    5    5    0  503  0.89054725610E+02  0.10882769766E+03 -0.21060447481E+03  0.25323597047E+03  0.00000000000E+00 0.  1.
         -1    1    6    6    0  502  0.14092924848E+03 -0.25521908788E+03  0.48047420614E+03  0.56200827277E+03  0.00000000000E+00 0.  1.
<mgrwt>
<rscale>  0 0.12525043E+04</rscale>
<asrwt>0</asrwt>
<pdfrwt beam="1">  1        1 0.59292436E-01 0.12525043E+04</pdfrwt>
<pdfrwt beam="2">  1       -1 0.15655698E+00 0.12525043E+04</pdfrwt>
<totfact> 0.19297707E+01</totfact>
</mgrwt>
</event>
<event>
12    1  0.1518126E-007  0.1940176E+04  0.7818608E-02  0.8635113E-01
          1   -1    0    0  501    0  0.00000000000E+00  0.00000000000E+00  0.11968825895E+04  0.11968825895E+04  0.00000000000E+00 0. -1.
         -1   -1    0    0    0  501 -0.00000000000E+00 -0.00000000000E+00 -0.78626788196E+03  0.78626788196E+03  0.00000000000E+00 0.  1.
         23    2    1    2    0    0 -0.59902136681E+03  0.23219466780E+03  0.52678006635E+03  0.83643147563E+03  0.96847372011E+02 0.  0.
        254    2    1    2    0    0  0.59902136681E+03 -0.23219466780E+03 -0.11616535882E+03  0.11467189958E+04  0.94272429860E+03 0.  0.
        -24    2    4    4    0    0  0.30148255386E+03 -0.54998342473E+03  0.12208573546E+03  0.64430711575E+03  0.82784266873E+02 0.  0.
         24    2    4    4    0    0  0.29753881296E+03  0.31778875693E+03 -0.23825109427E+03  0.50241188009E+03  0.78326713709E+02 0.  0.
         11    1    3    3    0    0 -0.54798924663E+03  0.18130713889E+03  0.45840235120E+03  0.73708697494E+03  0.00000000000E+00 0. -1.
        -11    1    3    3    0    0 -0.51032120178E+02  0.50887528902E+02  0.68377715150E+02  0.99344500687E+02  0.00000000000E+00 0.  1.
          2    1    6    6  502    0  0.32168627104E+02  0.19529419727E+02 -0.26183425078E+00  0.37633593528E+02  0.00000000000E+00 0. -1.
          3    1    5    5  503    0  0.91545124540E+02 -0.14531132865E+03 -0.22870071770E+01  0.17175890796E+03  0.00000000000E+00 0. -1.
         -4    1    5    5    0  503  0.20993742932E+03 -0.40467209608E+03  0.12437274263E+03  0.47254820779E+03  0.00000000000E+00 0.  1.
         -1    1    6    6    0  502  0.26537018585E+03  0.29825933721E+03 -0.23798926002E+03  0.46477828656E+03  0.00000000000E+00 0.  1.
<mgrwt>
<rscale>  0 0.19401756E+04</rscale>
<asrwt>0</asrwt>
<pdfrwt beam="1">  1        1 0.18413578E+00 0.19401756E+04</pdfrwt>
<pdfrwt beam="2">  1       -1 0.12096429E+00 0.19401756E+04</pdfrwt>
<totfact> 0.60805582E+00</totfact>
</mgrwt>
</event>
<event>
12    1  0.1518126E-007  0.1785259E+04  0.7818608E-02  0.8714178E-01
         -2   -1    0    0    0  501 -0.00000000000E+00  0.00000000000E+00  0.30890835541E+03  0.30890835541E+03  0.00000000000E+00 0.  1.
          2   -1    0    0  501    0  0.00000000000E+00 -0.00000000000E+00 -0.25793647722E+04  0.25793647722E+04  0.00000000000E+00 0. -1.
         23    2    1    2    0    0  0.35688872127E+03  0.28213174353E+03 -0.73982864968E+02  0.46946288936E+03  0.89185537505E+02 0.  0.
        254    2    1    2    0    0 -0.35688872127E+03 -0.28213174353E+03 -0.21964735518E+04  0.24188102383E+04  0.90508509253E+03 0.  0.
        -24    2    4    4    0    0 -0.56747974069E+03 -0.29759866335E+03 -0.92838593228E+03  0.11309121082E+04  0.80396123043E+02 0.  0.
         24    2    4    4    0    0  0.21059101943E+03  0.15466919817E+02 -0.12680876196E+04  0.12878981301E+04  0.77766185344E+02 0.  0.
         13    1    3    3    0    0  0.32237126776E+03  0.28307621982E+03 -0.70268816000E+02  0.43473335161E+03  0.00000000000E+00 0.  1.
        -13    1    3    3    0    0  0.34517453506E+02 -0.94447628946E+00 -0.37140489679E+01  0.34729537742E+02  0.00000000000E+00 0. -1.
          4    1    6    6  502    0  0.32247823814E+02  0.18031934844E+02 -0.39837117582E+03  0.40008082501E+03  0.00000000000E+00 0. -1.
          3    1    5    5  503    0 -0.22902062547E+02 -0.99072955673E+01 -0.14500245322E+02  0.28860285667E+02  0.00000000000E+00 0. -1.
         -4    1    5    5    0  503 -0.54457767814E+03 -0.28769136778E+03 -0.91388568696E+03  0.11020518225E+04  0.00000000000E+00 0.  1.
         -3    1    6    6    0  502  0.17834319561E+03 -0.25650150276E+01 -0.86971644374E+03  0.88781730510E+03  0.00000000000E+00 0.  1.
<mgrwt>
<rscale>  0 0.17852589E+04</rscale>
<asrwt>0</asrwt>
<pdfrwt beam="1">  1        2 0.39682535E+00 0.17852589E+04</pdfrwt>
<pdfrwt beam="2">  1       -2 0.47524362E-01 0.17852589E+04</pdfrwt>
<totfact> 0.12429817E+01</totfact>
</mgrwt>
</event>
<event>
12    1  0.1518126E-007  0.2078545E+04  0.7818608E-02  0.8570754E-01
         -1   -1    0    0    0  501 -0.00000000000E+00  0.00000000000E+00  0.91266769900E+03  0.91266769900E+03  0.00000000000E+00 0.  1.
          1   -1    0    0  501    0  0.00000000000E+00 -0.00000000000E+00 -0.11834402070E+04  0.11834402070E+04  0.00000000000E+00 0. -1.
         23    2    1    2    0    0 -0.26177959082E+03 -0.75027989154E+03 -0.21340968971E+03  0.82861324242E+03  0.98019079992E+02 0.  0.
        254    2    1    2    0    0  0.26177959082E+03  0.75027989154E+03 -0.57362818332E+02  0.12674946636E+04  0.98580107504E+03 0.  0.
        -24    2    4    4    0    0 -0.34233603184E+03  0.40708174004E+03  0.10861164347E+03  0.54874960081E+03  0.80125735734E+02 0.  0.
         24    2    4    4    0    0  0.60411562266E+03  0.34319815149E+03 -0.16597446181E+03  0.71874506280E+03  0.79412131286E+02 0.  0.
         11    1    3    3    0    0 -0.16801403687E+03 -0.34574104482E+03 -0.12321586296E+03  0.40366785300E+03  0.00000000000E+00 0.  1.
        -11    1    3    3    0    0 -0.93765553951E+02 -0.40453884672E+03 -0.90193826753E+02  0.42494538943E+03  0.00000000000E+00 0. -1.
          4    1    6    6  502    0  0.38503024072E+03  0.19067874575E+03 -0.71462340636E+02  0.43556117421E+03  0.00000000000E+00 0. -1.
          1    1    5    5  503    0 -0.14171701161E+03  0.13898210163E+03  0.62116838771E+01  0.19859083808E+03  0.00000000000E+00 0. -1.
         -2    1    5    5    0  503 -0.20061902023E+03  0.26809963842E+03  0.10239995960E+03  0.35015876274E+03  0.00000000000E+00 0.  1.
         -3    1    6    6    0  502  0.21908538194E+03  0.15251940575E+03 -0.94512121171E+02  0.28318388859E+03  0.00000000000E+00 0.  1.
<mgrwt>
<rscale>  0 0.20785453E+04</rscale>
<asrwt>0</asrwt>
<pdfrwt beam="1">  1        1 0.18206772E+00 0.20785453E+04</pdfrwt>
<pdfrwt beam="2">  1       -1 0.14041042E+00 0.20785453E+04</pdfrwt>
<totfact> 0.42119612E+00</totfact>
</mgrwt>
</event>
<event>
12    1  0.1518126E-007  0.1525400E+04  0.7818608E-02  0.8867736E-01
          2   -1    0    0  501    0  0.00000000000E+00  0.00000000000E+00  0.18703194721E+04  0.18703194721E+04  0.00000000000E+00 0. -1.
         -2   -1    0    0    0  501 -0.00000000000E+00 -0.00000000000E+00 -0.31102235832E+03  0.31102235832E+03  0.00000000000E+00 0.  1.
         23    2    1    2    0    0 -0.10774950421E+03 -0.16539119174E+03 -0.13904021949E+03  0.25789835614E+03  0.90637616374E+02 0.  0.
        254    2    1    2    0    0  0.10774950421E+03  0.16539119174E+03  0.16983373333E+04  0.19234434743E+04  0.88109074402E+03 0.  0.
        -24    2    4    4    0    0 -0.20940403707E+03 -0.16872437926E+03  0.12294108629E+04  0.12606845111E+04  0.74541262128E+02 0.  0.
         24    2    4    4    0    0  0.31715354128E+03  0.33411557100E+03  0.46892647039E+03  0.66275896321E+03  0.84485650588E+02 0.  0.
         11    1    3    3    0    0 -0.79865493038E+02 -0.16708216501E+03 -0.10173659188E+03  0.21129429943E+03  0.00000000000E+00 0. -1.
        -11    1    3    3    0    0 -0.27884011174E+02  0.16909732678E+01 -0.37303627607E+02  0.46604056716E+02  0.00000000000E+00 0.  1.
          4    1    6    6  502    0  0.23359174203E+03  0.28753656854E+03  0.34523851181E+03  0.50639116326E+03  0.00000000000E+00 0. -1.
          3    1    5    5  503    0 -0.17238432359E+03 -0.12207552721E+03  0.10668042395E+04  0.10875155516E+04  0.00000000000E+00 0. -1.
         -4    1    5    5    0  503 -0.37019713477E+02 -0.46648852047E+02  0.16260662335E+03  0.17316895952E+03  0.00000000000E+00 0.  1.
         -3    1    6    6    0  502  0.83561799256E+02  0.46579002462E+02  0.12368795857E+03  0.15636779995E+03  0.00000000000E+00 0.  1.
<mgrwt>
<rscale>  0 0.15253998E+04</rscale>
<asrwt>0</asrwt>
<pdfrwt beam="1">  1        2 0.28774145E+00 0.15253998E+04</pdfrwt>
<pdfrwt beam="2">  1       -2 0.47849595E-01 0.15253998E+04</pdfrwt>
<totfact> 0.31477532E+01</totfact>
</mgrwt>
</event>
<event>
12    1  0.1518126E-007  0.1319126E+04  0.7818608E-02  0.9014534E-01
         -1   -1    0    0    0  501 -0.00000000000E+00  0.00000000000E+00  0.39744806564E+03  0.39744806564E+03  0.00000000000E+00 0.  1.
          1   -1    0    0  501    0  0.00000000000E+00 -0.00000000000E+00 -0.10945411006E+04  0.10945411006E+04  0.00000000000E+00 0. -1.
         23    2    1    2    0    0 -0.19908687132E+02  0.24787108602E+03  0.81293282819E+02  0.27701324555E+03  0.91056626723E+02 0.  0.
        254    2    1    2    0    0  0.19908687132E+02 -0.24787108602E+03 -0.77838631774E+03  0.12149759207E+04  0.89913558322E+03 0.  0.
        -24    2    4    4    0    0  0.29041187301E+03 -0.42583767940E+03 -0.69923010088E+03  0.87246920397E+03  0.81258800849E+02 0.  0.
         24    2    4    4    0    0 -0.27050318587E+03  0.17796659338E+03 -0.79156216862E+02  0.34250671669E+03  0.78746824568E+02 0.  0.
         13    1    3    3    0    0 -0.74833771604E+01  0.31372753821E+02  0.47687189136E+02  0.57570119191E+02  0.00000000000E+00 0. -1.
        -13    1    3    3    0    0 -0.12425309972E+02  0.21649833220E+03  0.33606093683E+02  0.21944312636E+03  0.00000000000E+00 0.  1.
          4    1    6    6  502    0 -0.24606085220E+03  0.13241484539E+03 -0.52401196496E+02  0.28429829345E+03  0.00000000000E+00 0. -1.
          1    1    5    5  503    0  0.14674591521E+03 -0.14878265889E+03 -0.30339784811E+03  0.36840317243E+03  0.00000000000E+00 0. -1.
         -2    1    5    5    0  503  0.14366595779E+03 -0.27705502051E+03 -0.39583225277E+03  0.50406603154E+03  0.00000000000E+00 0.  1.
         -3    1    6    6    0  502 -0.24442333670E+02  0.45551747993E+02 -0.26755020365E+02  0.58208423232E+02  0.00000000000E+00 0.  1.
<mgrwt>
<rscale>  0 0.13191258E+04</rscale>
<asrwt>0</asrwt>
<pdfrwt beam="1">  1        1 0.16839094E+00 0.13191258E+04</pdfrwt>
<pdfrwt beam="2">  1       -1 0.61145856E-01 0.13191258E+04</pdfrwt>
<totfact> 0.34065046E+01</totfact>
</mgrwt>
</event>
<event>
12    1  0.1518126E-007  0.1930481E+04  0.7818608E-02  0.8639831E-01
          2   -1    0    0  501    0  0.00000000000E+00  0.00000000000E+00  0.54749904507E+03  0.54749904507E+03  0.00000000000E+00 0. -1.
         -2   -1    0    0    0  501 -0.00000000000E+00 -0.00000000000E+00 -0.17017191467E+04  0.17017191467E+04  0.00000000000E+00 0.  1.
         23    2    1    2    0    0 -0.73586598660E+03  0.45881125498E+02 -0.25594672563E+03  0.78574455730E+03  0.91005247403E+02 0.  0.
        254    2    1    2    0    0  0.73586598660E+03 -0.45881125498E+02 -0.89827337600E+03  0.14634736345E+04  0.88952582472E+03 0.  0.
        -24    2    4    4    0    0  0.29335521269E+03 -0.18158961630E+03 -0.92734975007E+03  0.99275761299E+03  0.80981785847E+02 0.  0.
         24    2    4    4    0    0  0.44251077391E+03  0.13570849080E+03  0.29076374073E+02  0.47071602148E+03  0.80595023696E+02 0.  0.
         13    1    3    3    0    0 -0.36462874115E+01  0.56023537016E+01  0.39032922950E+01  0.77406375464E+01  0.00000000000E+00 0. -1.
        -13    1    3    3    0    0 -0.73221969919E+03  0.40278771796E+02 -0.25985001793E+03  0.77800391975E+03  0.00000000000E+00 0.  1.
          4    1    6    6  502    0  0.21910588412E+03  0.40568889988E+02 -0.17326042016E+02  0.22350260630E+03  0.00000000000E+00 0. -1.
          1    1    5    5  503    0  0.71178472006E+02 -0.43818755747E+02 -0.33525777893E+03  0.34552024045E+03  0.00000000000E+00 0. -1.
         -2    1    5    5    0  503  0.22217674068E+03 -0.13777086055E+03 -0.59209197114E+03  0.64723737254E+03  0.00000000000E+00 0.  1.
         -3    1    6    6    0  502  0.22340488979E+03  0.95139600813E+02  0.46402416089E+02  0.24721341517E+03  0.00000000000E+00 0.  1.
<mgrwt>
<rscale>  0 0.19304814E+04</rscale>
<asrwt>0</asrwt>
<pdfrwt beam="1">  1        2 0.84230623E-01 0.19304814E+04</pdfrwt>
<pdfrwt beam="2">  1       -2 0.26180294E+00 0.19304814E+04</pdfrwt>
<totfact> 0.28131313E+00</totfact>
</mgrwt>
</event>
<event>
12    1  0.1518126E-007  0.2744523E+04  0.7818608E-02  0.8320702E-01
          1   -1    0    0  501    0  0.00000000000E+00  0.00000000000E+00  0.27453427442E+04  0.27453427442E+04  0.00000000000E+00 0. -1.
         -1   -1    0    0    0  501 -0.00000000000E+00 -0.00000000000E+00 -0.68592573848E+03  0.68592573848E+03  0.00000000000E+00 0.  1.
         23    2    1    2    0    0  0.52783231129E+03 -0.82235574871E+03 -0.97288317803E+00  0.98196370211E+03  0.96828918701E+02 0.  0.
        254    2    1    2    0    0 -0.52783231129E+03  0.82235574871E+03  0.20603898889E+04  0.24493047805E+04  0.89387442489E+03 0.  0.
        -24    2    4    4    0    0 -0.62388634417E+03  0.39734472535E+03  0.71028215873E+03  0.10283783806E+04  0.77099594278E+02 0.  0.
         24    2    4    4    0    0  0.96054032882E+02  0.42501102336E+03  0.13501077301E+04  0.14209263999E+04  0.79876178318E+02 0.  0.
         11    1    3    3    0    0  0.46974076772E+03 -0.66729576914E+03 -0.10303438246E+02  0.81611653164E+03  0.00000000000E+00 0.  1.
        -11    1    3    3    0    0  0.58091543564E+02 -0.15505997956E+03  0.93305550684E+01  0.16584717047E+03  0.00000000000E+00 0. -1.
          2    1    6    6  502    0 -0.85828209522E+01  0.11553155177E+03  0.32590634045E+03  0.34588458626E+03  0.00000000000E+00 0. -1.
          1    1    5    5  503    0 -0.29204356028E+03  0.17392512760E+03  0.37780095148E+03  0.50820561788E+03  0.00000000000E+00 0. -1.
         -2    1    5    5    0  503 -0.33184278389E+03  0.22341959775E+03  0.33248120725E+03  0.52017276270E+03  0.00000000000E+00 0.  1.
         -1    1    6    6    0  502  0.10463685383E+03  0.30947947159E+03  0.10242013897E+04  0.10750418137E+04  0.00000000000E+00 0.  1.
<mgrwt>
<rscale>  0 0.27445227E+04</rscale>
<asrwt>0</asrwt>
<pdfrwt beam="1">  1        1 0.42236042E+00 0.27445227E+04</pdfrwt>
<pdfrwt beam="2">  1       -1 0.10552704E+00 0.27445227E+04</pdfrwt>
<totfact> 0.66678281E-01</totfact>
</mgrwt>
</event>
<event>
12    1  0.1518126E-007  0.1221487E+04  0.7818608E-02  0.9094254E-01
          2   -1    0    0  501    0  0.00000000000E+00  0.00000000000E+00  0.82765861963E+03  0.82765861963E+03  0.00000000000E+00 0. -1.
         -2   -1    0    0    0  501 -0.00000000000E+00 -0.00000000000E+00 -0.45067799503E+03  0.45067799503E+03  0.00000000000E+00 0.  1.
         23    2    1    2    0    0 -0.82773023387E+02  0.23488248405E+03  0.21994222385E+03  0.34558967440E+03  0.95060436069E+02 0.  0.
        254    2    1    2    0    0  0.82773023387E+02 -0.23488248405E+03  0.15703840075E+03  0.93274694026E+03  0.88506194163E+03 0.  0.
        -24    2    4    4    0    0 -0.37848391916E+03 -0.16609908505E+03  0.18256075916E+03  0.45872140491E+03  0.79106974524E+02 0.  0.
         24    2    4    4    0    0  0.46125694255E+03 -0.68783399002E+02 -0.25522358409E+02  0.47402553535E+03  0.80991940060E+02 0.  0.
         11    1    3    3    0    0 -0.48223338876E+02  0.82491958975E+02  0.31111439236E+02  0.10049047397E+03  0.00000000000E+00 0.  1.
        -11    1    3    3    0    0 -0.34549684511E+02  0.15239052508E+03  0.18883078461E+03  0.24509920043E+03  0.00000000000E+00 0. -1.
          4    1    6    6  502    0  0.13550433661E+03 -0.57789423444E+02 -0.12157792488E+02  0.14781358064E+03  0.00000000000E+00 0. -1.
          1    1    5    5  503    0 -0.65513910847E+02 -0.27851775234E+02  0.66531895432E+02  0.97438632009E+02  0.00000000000E+00 0. -1.
         -2    1    5    5    0  503 -0.31297000831E+03 -0.13824730982E+03  0.11602886373E+03  0.36128277290E+03  0.00000000000E+00 0.  1.
         -3    1    6    6    0  502  0.32575260594E+03 -0.10993975557E+02 -0.13364565921E+02  0.32621195471E+03  0.00000000000E+00 0.  1.
<mgrwt>
<rscale>  0 0.12214868E+04</rscale>
<asrwt>0</asrwt>
<pdfrwt beam="1">  1        2 0.12733210E+00 0.12214868E+04</pdfrwt>
<pdfrwt beam="2">  1       -2 0.69335076E-01 0.12214868E+04</pdfrwt>
<totfact> 0.61575795E+01</totfact>
</mgrwt>
</event>
<event>
12    1  0.1518126E-007  0.2053166E+04  0.7818608E-02  0.8582160E-01
         -2   -1    0    0    0  501 -0.00000000000E+00  0.00000000000E+00  0.74353201202E+03  0.74353201202E+03  0.00000000000E+00 0.  1.
          2   -1    0    0  501    0  0.00000000000E+00 -0.00000000000E+00 -0.14173864539E+04  0.14173864539E+04  0.00000000000E+00 0. -1.
         23    2    1    2    0    0 -0.56398299048E+03 -0.57076452022E+03 -0.54781422978E+03  0.97586573566E+03  0.91457927992E+02 0.  0.
        254    2    1    2    0    0  0.56398299048E+03  0.57076452022E+03 -0.12604021211E+03  0.11850527303E+04  0.86291070648E+03 0.  0.
        -24    2    4    4    0    0 -0.17882789442E+02  0.52206240997E+03  0.12722587310E+03  0.54373467354E+03  0.81191245619E+02 0.  0.
         24    2    4    4    0    0  0.58186577992E+03  0.48702110251E+02 -0.25326608521E+03  0.64131805673E+03  0.78774733152E+02 0.  0.
         13    1    3    3    0    0 -0.53935709134E+03 -0.56020001075E+03 -0.54344315140E+03  0.94871522747E+03  0.00000000000E+00 0. -1.
        -13    1    3    3    0    0 -0.24625899135E+02 -0.10564509463E+02 -0.43710783725E+01  0.27150508182E+02  0.00000000000E+00 0.  1.
          2    1    6    6  502    0  0.41901565765E+03  0.57003126886E+00 -0.17000468317E+03  0.45219026813E+03  0.00000000000E+00 0. -1.
          3    1    5    5  503    0  0.97931332491E+01  0.35031027422E+03  0.52340826150E+02  0.35433424301E+03  0.00000000000E+00 0. -1.
         -4    1    5    5    0  503 -0.27675922691E+02  0.17175213574E+03  0.74885046953E+02  0.18940043053E+03  0.00000000000E+00 0.  1.
         -1    1    6    6    0  502  0.16285012227E+03  0.48132078982E+02 -0.83261402041E+02  0.18912778860E+03  0.00000000000E+00 0.  1.
<mgrwt>
<rscale>  0 0.20531656E+04</rscale>
<asrwt>0</asrwt>
<pdfrwt beam="1">  1        2 0.21805945E+00 0.20531656E+04</pdfrwt>
<pdfrwt beam="2">  1       -2 0.11438954E+00 0.20531656E+04</pdfrwt>
<totfact> 0.78167183E+00</totfact>
</mgrwt>
</event>
<event>
12    1  0.1518126E-007  0.1605936E+04  0.7818608E-02  0.8816910E-01
          2   -1    0    0  501    0  0.00000000000E+00  0.00000000000E+00  0.45371585183E+03  0.45371585183E+03  0.00000000000E+00 0. -1.
         -2   -1    0    0    0  501 -0.00000000000E+00 -0.00000000000E+00 -0.14210599803E+04  0.14210599803E+04  0.00000000000E+00 0.  1.
         23    2    1    2    0    0 -0.38048087515E+03 -0.30177115762E+03 -0.29760578312E+03  0.57678549629E+03  0.90998783799E+02 0.  0.
        254    2    1    2    0    0  0.38048087515E+03  0.30177115762E+03 -0.66973834535E+03  0.12979903359E+04  0.10001989466E+04 0.  0.
        -24    2    4    4    0    0  0.67505334109E+03  0.32305652083E+03 -0.28249229353E+03  0.80441755703E+03  0.84989300510E+02 0.  0.
         24    2    4    4    0    0 -0.29457246594E+03 -0.21285363202E+02 -0.38724605182E+03  0.49357277882E+03  0.80178419542E+02 0.  0.
         11    1    3    3    0    0 -0.33360644979E+03 -0.29202561368E+03 -0.28572330736E+03  0.52745618847E+03  0.00000000000E+00 0. -1.
        -11    1    3    3    0    0 -0.46874425359E+02 -0.97455439426E+01 -0.11882475761E+02  0.49329307817E+02  0.00000000000E+00 0.  1.
          2    1    6    6  502    0 -0.12509884445E+03 -0.24040194422E+02 -0.10846300638E+03  0.16730772721E+03  0.00000000000E+00 0. -1.
          3    1    5    5  503    0  0.63468240415E+03  0.31746383797E+03 -0.28208161618E+03  0.76365900816E+03  0.00000000000E+00 0. -1.
         -4    1    5    5    0  503  0.40370936933E+02  0.55926828571E+01 -0.41067735230E+00  0.40758548874E+02  0.00000000000E+00 0.  1.
         -1    1    6    6    0  502 -0.16947362150E+03  0.27548312200E+01 -0.27878304544E+03  0.32626505161E+03  0.00000000000E+00 0.  1.
<mgrwt>
<rscale>  0 0.16059358E+04</rscale>
<asrwt>0</asrwt>
<pdfrwt beam="1">  1        2 0.69802440E-01 0.16059358E+04</pdfrwt>
<pdfrwt beam="2">  1       -2 0.21862461E+00 0.16059358E+04</pdfrwt>
<totfact> 0.66544712E+00</totfact>
</mgrwt>
</event>
<event>
12    1  0.1518126E-007  0.1929301E+04  0.7818608E-02  0.8640407E-01
          2   -1    0    0  501    0  0.00000000000E+00  0.00000000000E+00  0.28961209339E+04  0.28961209339E+04  0.00000000000E+00 0. -1.
         -2   -1    0    0    0  501 -0.00000000000E+00 -0.00000000000E+00 -0.32130922096E+03  0.32130922096E+03  0.00000000000E+00 0.  1.
         23    2    1    2    0    0  0.10037047963E+03  0.48223049471E+03  0.67681771726E+02  0.51062055880E+03  0.11632733830E+03 0.  0.
        254    2    1    2    0    0 -0.10037047963E+03 -0.48223049471E+03  0.25071299412E+04  0.27068095961E+04  0.89358668522E+03 0.  0.
        -24    2    4    4    0    0 -0.40684971192E+03 -0.54328512773E+03  0.14654788460E+04  0.16169814796E+04  0.79469737820E+02 0.  0.
         24    2    4    4    0    0  0.30647923229E+03  0.61054633020E+02  0.10416510952E+04  0.10898281165E+04  0.70930467436E+02 0.  0.
         11    1    3    3    0    0  0.11020300419E+02  0.11978159795E+01 -0.10362584147E+02  0.15174483011E+02  0.00000000000E+00 0. -1.
        -11    1    3    3    0    0  0.89350179211E+02  0.48103267873E+03  0.78044355873E+02  0.49544607579E+03  0.00000000000E+00 0.  1.
          4    1    6    6  502    0  0.26686068054E+03  0.66239604184E+02  0.82761875859E+03  0.87209811234E+03  0.00000000000E+00 0. -1.
          3    1    5    5  503    0 -0.15773976930E+03 -0.27650781382E+03  0.67437711359E+03  0.74573647977E+03  0.00000000000E+00 0. -1.
         -4    1    5    5    0  503 -0.24910994262E+03 -0.26677731390E+03  0.79110173239E+03  0.87124499982E+03  0.00000000000E+00 0.  1.
         -3    1    6    6    0  502  0.39618551751E+02 -0.51849711642E+01  0.21403233665E+03  0.21773000413E+03  0.00000000000E+00 0.  1.
<mgrwt>
<rscale>  0 0.19293008E+04</rscale>
<asrwt>0</asrwt>
<pdfrwt beam="1">  1        2 0.44555705E+00 0.19293008E+04</pdfrwt>
<pdfrwt beam="2">  1       -2 0.49432190E-01 0.19293008E+04</pdfrwt>
<totfact> 0.73283461E+00</totfact>
</mgrwt>
</event>
<event>
12    1  0.1518126E-007  0.3169371E+04  0.7818608E-02  0.8196953E-01
          2   -1    0    0  501    0  0.00000000000E+00  0.00000000000E+00  0.31643602526E+04  0.31643602526E+04  0.00000000000E+00 0. -1.
         -2   -1    0    0    0  501 -0.00000000000E+00 -0.00000000000E+00 -0.79359763573E+03  0.79359763573E+03  0.00000000000E+00 0.  1.
         23    2    1    2    0    0  0.10060887740E+03  0.67749474420E+02 -0.72096854432E+03  0.73681281393E+03  0.91571520615E+02 0.  0.
        254    2    1    2    0    0 -0.10060887740E+03 -0.67749474420E+02  0.30917311612E+04  0.32211450744E+04  0.89569072775E+03 0.  0.
        -24    2    4    4    0    0 -0.90027356985E+02 -0.31906096019E+03  0.28281832303E+04  0.28484521411E+04  0.71794111172E+02 0.  0.
         24    2    4    4    0    0 -0.10581520412E+02  0.25131148577E+03  0.26354793086E+03  0.37269293332E+03  0.78568945726E+02 0.  0.
         13    1    3    3    0    0  0.11761967477E+03  0.65966101639E+02 -0.63602910425E+03  0.65016839043E+03  0.00000000000E+00 0.  1.
        -13    1    3    3    0    0 -0.17010797375E+02  0.17833727811E+01 -0.84939440064E+02  0.86644423503E+02  0.00000000000E+00 0. -1.
          2    1    6    6  502    0 -0.14732152480E+02  0.25480202543E+03  0.26406085809E+03  0.36724548364E+03  0.00000000000E+00 0. -1.
          1    1    5    5  503    0 -0.95996681310E+02 -0.30114179491E+03  0.27457842721E+04  0.27639162456E+04  0.00000000000E+00 0. -1.
         -2    1    5    5    0  503  0.59693243251E+01 -0.17919165281E+02  0.82398958172E+02  0.84535895483E+02  0.00000000000E+00 0.  1.
         -1    1    6    6    0  502  0.41506320672E+01 -0.34905396591E+01 -0.51292723031E+00  0.54474496796E+01  0.00000000000E+00 0.  1.
<mgrwt>
<rscale>  0 0.31693714E+04</rscale>
<asrwt>0</asrwt>
<pdfrwt beam="1">  1        2 0.48682465E+00 0.31693714E+04</pdfrwt>
<pdfrwt beam="2">  1       -2 0.12209195E+00 0.31693714E+04</pdfrwt>
<totfact> 0.58680175E-01</totfact>
</mgrwt>
</event>
<event>
12    1  0.1518126E-007  0.1333757E+04  0.7818608E-02  0.9003216E-01
         -2   -1    0    0    0  501 -0.00000000000E+00  0.00000000000E+00  0.21079812014E+04  0.21079812014E+04  0.00000000000E+00 0.  1.
          2   -1    0    0  501    0  0.00000000000E+00 -0.00000000000E+00 -0.21097290059E+03  0.21097290059E+03  0.00000000000E+00 0. -1.
         23    2    1    2    0    0 -0.88635512921E+02 -0.23681851539E+03  0.90166329822E+02  0.28340575970E+03  0.90827276847E+02 0.  0.
        254    2    1    2    0    0  0.88635512921E+02  0.23681851539E+03  0.18068419710E+04  0.20355483423E+04  0.90268481893E+03 0.  0.
        -24    2    4    4    0    0  0.29037985119E+03 -0.21118625882E+03  0.39865127379E+03  0.54225714535E+03  0.78739314800E+02 0.  0.
         24    2    4    4    0    0 -0.20174433827E+03  0.44800477421E+03  0.14081906972E+04  0.14932911970E+04  0.74219292955E+02 0.  0.
         11    1    3    3    0    0  0.46603892079E+01  0.60708527386E+01 -0.97160027868E+00  0.77148225932E+01  0.00000000000E+00 0.  1.
        -11    1    3    3    0    0 -0.93295902129E+02 -0.24288936812E+03  0.91137930100E+02  0.27569093711E+03  0.00000000000E+00 0. -1.
          4    1    6    6  502    0 -0.33942279257E+02  0.31702720560E+02  0.10047817000E+03  0.11069328552E+03  0.00000000000E+00 0. -1.
          1    1    5    5  503    0  0.52661512406E+02 -0.49910724883E+01  0.58311898244E+02  0.78730065225E+02  0.00000000000E+00 0. -1.
         -2    1    5    5    0  503  0.23771833879E+03 -0.20619518633E+03  0.34033937554E+03  0.46352708012E+03  0.00000000000E+00 0.  1.
         -3    1    6    6    0  502 -0.16780205902E+03  0.41630205365E+03  0.13077125272E+04  0.13825979115E+04  0.00000000000E+00 0.  1.
<mgrwt>
<rscale>  0 0.13337570E+04</rscale>
<asrwt>0</asrwt>
<pdfrwt beam="1">  1        2 0.32457371E-01 0.13337570E+04</pdfrwt>
<pdfrwt beam="2">  1       -2 0.32430479E+00 0.13337570E+04</pdfrwt>
<totfact> 0.36164663E+00</totfact>
</mgrwt>
</event>
<event>
12    1  0.1518126E-007  0.1140888E+04  0.7818608E-02  0.9166232E-01
         -2   -1    0    0    0  501 -0.00000000000E+00  0.00000000000E+00  0.26365623073E+03  0.26365623073E+03  0.00000000000E+00 0.  1.
          2   -1    0    0  501    0  0.00000000000E+00 -0.00000000000E+00 -0.12342059715E+04  0.12342059715E+04  0.00000000000E+00 0. -1.
         23    2    1    2    0    0  0.14715894597E+03  0.12091172216E+03 -0.93097441098E+02  0.22846904982E+03  0.85179652797E+02 0.  0.
        254    2    1    2    0    0 -0.14715894597E+03 -0.12091172216E+03 -0.87745229965E+03  0.12693931524E+04  0.89730766031E+03 0.  0.
        -24    2    4    4    0    0  0.25210579029E+03 -0.30259028569E+03 -0.17723106074E+03  0.43944827320E+03  0.81152482623E+02 0.  0.
         24    2    4    4    0    0 -0.39926473626E+03  0.18167856353E+03 -0.70022123891E+03  0.82994487919E+03  0.77969795475E+02 0.  0.
         11    1    3    3    0    0  0.15085782289E+02  0.61426086784E+02 -0.20843974560E+02  0.66597419172E+02  0.00000000000E+00 0. -1.
        -11    1    3    3    0    0  0.13207316369E+03  0.59485635378E+02 -0.72253466539E+02  0.16187163065E+03  0.00000000000E+00 0.  1.
          2    1    6    6  502    0 -0.39269970981E+02  0.44211300069E+02 -0.11375885302E+03  0.12821016463E+03  0.00000000000E+00 0. -1.
          1    1    5    5  503    0  0.74519453347E+02 -0.76865433033E+02 -0.88336268762E+02  0.13879747873E+03  0.00000000000E+00 0. -1.
         -2    1    5    5    0  503  0.17758633694E+03 -0.22572485266E+03 -0.88894791980E+02  0.30065079448E+03  0.00000000000E+00 0.  1.
         -1    1    6    6    0  502 -0.35999476528E+03  0.13746726346E+03 -0.58646238589E+03  0.70173471456E+03  0.00000000000E+00 0.  1.
<mgrwt>
<rscale>  0 0.11408875E+04</rscale>
<asrwt>0</asrwt>
<pdfrwt beam="1">  1        2 0.18987784E+00 0.11408875E+04</pdfrwt>
<pdfrwt beam="2">  1       -2 0.40562498E-01 0.11408875E+04</pdfrwt>
<totfact> 0.10292708E+02</totfact>
</mgrwt>
</event>
<event>
12    1  0.1518126E-007  0.1383200E+04  0.7818608E-02  0.8966070E-01
          1   -1    0    0  501    0  0.00000000000E+00  0.00000000000E+00  0.14218242618E+04  0.14218242618E+04  0.00000000000E+00 0. -1.
         -1   -1    0    0    0  501 -0.00000000000E+00 -0.00000000000E+00 -0.33640629675E+03  0.33640629675E+03  0.00000000000E+00 0.  1.
         23    2    1    2    0    0 -0.20068378495E+03 -0.46570386471E+02  0.65206456973E+03  0.68995490661E+03  0.91688535939E+02 0.  0.
        254    2    1    2    0    0  0.20068378495E+03  0.46570386471E+02  0.43335339531E+03  0.10682756519E+04  0.95445006199E+03 0.  0.
        -24    2    4    4    0    0 -0.38283363951E+02 -0.40797689085E+03  0.34415465666E+03  0.54088250905E+03  0.78744532948E+02 0.  0.
         24    2    4    4    0    0  0.23896714890E+03  0.45454727732E+03  0.89198738650E+02  0.52739314287E+03  0.80427523897E+02 0.  0.
         11    1    3    3    0    0 -0.85187198798E+02 -0.41222271460E+02  0.17361022511E+03  0.19772871508E+03  0.00000000000E+00 0. -1.
        -11    1    3    3    0    0 -0.11549658615E+03 -0.53481150111E+01  0.47845434462E+03  0.49222619153E+03  0.00000000000E+00 0.  1.
          4    1    6    6  502    0  0.37095001616E+02  0.26326413886E+02  0.16694586739E+02  0.48454395460E+02  0.00000000000E+00 0. -1.
          3    1    5    5  503    0 -0.24735471488E+02 -0.16740921174E+03  0.19190940426E+03  0.25586501748E+03  0.00000000000E+00 0. -1.
         -4    1    5    5    0  503 -0.13547892463E+02 -0.24056767911E+03  0.15224525240E+03  0.28501749157E+03  0.00000000000E+00 0.  1.
         -3    1    6    6    0  502  0.20187214728E+03  0.42822086344E+03  0.72504151910E+02  0.47893874741E+03  0.00000000000E+00 0.  1.
<mgrwt>
<rscale>  0 0.13832001E+04</rscale>
<asrwt>0</asrwt>
<pdfrwt beam="1">  1        1 0.21874219E+00 0.13832001E+04</pdfrwt>
<pdfrwt beam="2">  1       -1 0.51754815E-01 0.13832001E+04</pdfrwt>
<totfact> 0.27205167E+01</totfact>
</mgrwt>
</event>
<event>
12    1  0.1518126E-007  0.1269498E+04  0.7818608E-02  0.9054109E-01
          2   -1    0    0  501    0  0.00000000000E+00  0.00000000000E+00  0.18731435070E+04  0.18731435070E+04  0.00000000000E+00 0. -1.
         -2   -1    0    0    0  501 -0.00000000000E+00 -0.00000000000E+00 -0.21509645378E+03  0.21509645378E+03  0.00000000000E+00 0.  1.
         23    2    1    2    0    0 -0.77231517860E+01  0.24359888921E+03  0.65178587422E+03  0.70194383535E+03  0.92196834299E+02 0.  0.
        254    2    1    2    0    0  0.77231517860E+01 -0.24359888921E+03  0.10062611790E+04  0.13862961255E+04  0.92187597926E+03 0.  0.
        -24    2    4    4    0    0  0.25343963348E+02  0.34334319191E+03  0.29516354688E+03  0.46060979577E+03  0.80703163808E+02 0.  0.
         24    2    4    4    0    0 -0.17620811562E+02 -0.58694208112E+03  0.71109763215E+03  0.92568632968E+03  0.80148854777E+02 0.  0.
         11    1    3    3    0    0  0.12054006666E+02  0.10641563936E+02  0.11948855110E+03  0.12056556641E+03  0.00000000000E+00 0.  1.
        -11    1    3    3    0    0 -0.19777158452E+02  0.23295732527E+03  0.53229732312E+03  0.58137826894E+03  0.00000000000E+00 0. -1.
          4    1    6    6  502    0  0.86421505858E+01 -0.46084075677E+03  0.59183207194E+03  0.75014271392E+03  0.00000000000E+00 0. -1.
          3    1    5    5  503    0  0.32369649356E+02  0.32707666518E+03  0.29675304349E+03  0.44281972396E+03  0.00000000000E+00 0. -1.
         -4    1    5    5    0  503 -0.70256860072E+01  0.16266526725E+02 -0.15894966155E+01  0.17790071812E+02  0.00000000000E+00 0.  1.
         -3    1    6    6    0  502 -0.26262962148E+02 -0.12610132434E+03  0.11926556020E+03  0.17554361575E+03  0.00000000000E+00 0.  1.
<mgrwt>
<rscale>  0 0.12694984E+04</rscale>
<asrwt>0</asrwt>
<pdfrwt beam="1">  1        2 0.28817591E+00 0.12694984E+04</pdfrwt>
<pdfrwt beam="2">  1       -2 0.33091763E-01 0.12694984E+04</pdfrwt>
<totfact> 0.65829738E+01</totfact>
</mgrwt>
</event>
<event>
12    1  0.1518126E-007  0.1239632E+04  0.7818608E-02  0.9078857E-01
         -1   -1    0    0    0  501 -0.00000000000E+00  0.00000000000E+00  0.39426072616E+03  0.39426072616E+03  0.00000000000E+00 0.  1.
          1   -1    0    0  501    0  0.00000000000E+00 -0.00000000000E+00 -0.97441003736E+03  0.97441003736E+03  0.00000000000E+00 0. -1.
         23    2    1    2    0    0 -0.13950457895E+03 -0.24684551932E+03 -0.20704049976E+03  0.36367037482E+03  0.94847957405E+02 0.  0.
        254    2    1    2    0    0  0.13950457895E+03  0.24684551932E+03 -0.37310881143E+03  0.10050003887E+04  0.88905644262E+03 0.  0.
        -24    2    4    4    0    0  0.25197187104E+03  0.40971647877E+03  0.89232090143E+02  0.49559415250E+03  0.79333355608E+02 0.  0.
         24    2    4    4    0    0 -0.11246729209E+03 -0.16287095945E+03 -0.46234090158E+03  0.50940623620E+03  0.80992363771E+02 0.  0.
         11    1    3    3    0    0 -0.11961380858E+03 -0.24080781581E+03 -0.21187849817E+03  0.34232786236E+03  0.00000000000E+00 0. -1.
        -11    1    3    3    0    0 -0.19890770369E+02 -0.60377035052E+01  0.48379984102E+01  0.21342512460E+02  0.00000000000E+00 0.  1.
          2    1    6    6  502    0  0.49610439255E+01 -0.29437418778E+02 -0.31797077549E+02  0.43614535671E+02  0.00000000000E+00 0. -1.
          3    1    5    5  503    0  0.46939099396E+02  0.32985568230E+02  0.22010513520E+02  0.61447452909E+02  0.00000000000E+00 0. -1.
         -4    1    5    5    0  503  0.20503277164E+03  0.37673091054E+03  0.67221576623E+02  0.43414669959E+03  0.00000000000E+00 0.  1.
         -1    1    6    6    0  502 -0.11742833601E+03 -0.13343354067E+03 -0.43054382403E+03  0.46579170053E+03  0.00000000000E+00 0.  1.
<mgrwt>
<rscale>  0 0.12396316E+04</rscale>
<asrwt>0</asrwt>
<pdfrwt beam="1">  1        1 0.14990924E+00 0.12396316E+04</pdfrwt>
<pdfrwt beam="2">  1       -1 0.60655496E-01 0.12396316E+04</pdfrwt>
<totfact> 0.43116908E+01</totfact>
</mgrwt>
</event>
<event>
12    1  0.1518126E-007  0.1477775E+04  0.7818608E-02  0.8899369E-01
         -2   -1    0    0    0  501 -0.00000000000E+00  0.00000000000E+00  0.24796985632E+03  0.24796985632E+03  0.00000000000E+00 0.  1.
          2   -1    0    0  501    0  0.00000000000E+00 -0.00000000000E+00 -0.22016968256E+04  0.22016968256E+04  0.00000000000E+00 0. -1.
         23    2    1    2    0    0  0.21628197433E+03 -0.67194719760E+02 -0.12953753735E+04  0.13182380007E+04  0.91983941555E+02 0.  0.
        254    2    1    2    0    0 -0.21628197433E+03  0.67194719760E+02 -0.65835159579E+03  0.11314286812E+04  0.89185818053E+03 0.  0.
        -24    2    4    4    0    0  0.10025687256E+03  0.39954262296E+03 -0.16261467659E+03  0.45008054686E+03  0.80269655281E+02 0.  0.
         24    2    4    4    0    0 -0.31653884690E+03 -0.33234790320E+03 -0.49573691920E+03  0.68134813434E+03  0.88477210349E+02 0.  0.
         13    1    3    3    0    0  0.57747160003E+02  0.32877543389E+01 -0.17007378225E+03  0.17964029399E+03  0.00000000000E+00 0.  1.
        -13    1    3    3    0    0  0.15853481433E+03 -0.70482474099E+02 -0.11253015912E+04  0.11385977067E+04  0.00000000000E+00 0. -1.
          4    1    6    6  502    0 -0.10965403505E+03 -0.62542170937E+02 -0.11321682766E+03  0.16956880790E+03  0.00000000000E+00 0. -1.
          3    1    5    5  503    0 -0.33011917952E+01  0.54575145428E+02  0.53172999707E+00  0.54677482592E+02  0.00000000000E+00 0. -1.
         -4    1    5    5    0  503  0.10355806436E+03  0.34496747753E+03 -0.16314640659E+03  0.39540306427E+03  0.00000000000E+00 0.  1.
         -3    1    6    6    0  502 -0.20688481185E+03 -0.26980573227E+03 -0.38252009154E+03  0.51177932644E+03  0.00000000000E+00 0.  1.
<mgrwt>
<rscale>  0 0.14777746E+04</rscale>
<asrwt>0</asrwt>
<pdfrwt beam="1">  1        2 0.33872258E+00 0.14777746E+04</pdfrwt>
<pdfrwt beam="2">  1       -2 0.38149210E-01 0.14777746E+04</pdfrwt>
<totfact> 0.32387794E+01</totfact>
</mgrwt>
</event>
<event>
12    1  0.1518126E-007  0.3391841E+04  0.7818608E-02  0.8139912E-01
          1   -1    0    0  501    0  0.00000000000E+00  0.00000000000E+00  0.14834190403E+04  0.14834190403E+04  0.00000000000E+00 0. -1.
         -1   -1    0    0    0  501 -0.00000000000E+00 -0.00000000000E+00 -0.19388630988E+04  0.19388630988E+04  0.00000000000E+00 0.  1.
         23    2    1    2    0    0 -0.40357350168E+03  0.16054409112E+03 -0.17428579065E+04  0.17982855444E+04  0.87356970781E+02 0.  0.
        254    2    1    2    0    0  0.40357350168E+03 -0.16054409112E+03  0.12874138480E+04  0.16239965947E+04  0.88954176240E+03 0.  0.
        -24    2    4    4    0    0  0.65878836077E+03 -0.19742109037E+03  0.73728681589E+03  0.10113694525E+04  0.79367054334E+02 0.  0.
         24    2    4    4    0    0 -0.25521485908E+03  0.36876999256E+02  0.55012703210E+03  0.61262714219E+03  0.78598514851E+02 0.  0.
         11    1    3    3    0    0 -0.34555661705E+02  0.15853596702E+02 -0.28423309141E+03  0.28676450362E+03  0.00000000000E+00 0. -1.
        -11    1    3    3    0    0 -0.36901783998E+03  0.14469049441E+03 -0.14586248151E+04  0.15115210408E+04  0.00000000000E+00 0.  1.
          4    1    6    6  502    0 -0.23403062719E+02 -0.18733932184E+02  0.44969515013E+02  0.54045544129E+02  0.00000000000E+00 0. -1.
          1    1    5    5  503    0  0.22199243423E+03 -0.62629237973E+02  0.30335202326E+03  0.38108465243E+03  0.00000000000E+00 0. -1.
         -2    1    5    5    0  503  0.43679592653E+03 -0.13479185240E+03  0.43393479263E+03  0.63028480004E+03  0.00000000000E+00 0.  1.
         -3    1    6    6    0  502 -0.23181179636E+03  0.55610931440E+02  0.50515751708E+03  0.55858159806E+03  0.00000000000E+00 0.  1.
<mgrwt>
<rscale>  0 0.33918411E+04</rscale>
<asrwt>0</asrwt>
<pdfrwt beam="1">  1        1 0.22821832E+00 0.33918411E+04</pdfrwt>
<pdfrwt beam="2">  1       -1 0.29828663E+00 0.33918411E+04</pdfrwt>
<totfact> 0.18734259E-01</totfact>
</mgrwt>
</event>
<event>
12    1  0.1518126E-007  0.2069093E+04  0.7818608E-02  0.8574982E-01
          2   -1    0    0  501    0  0.00000000000E+00  0.00000000000E+00  0.11265657218E+04  0.11265657218E+04  0.00000000000E+00 0. -1.
         -2   -1    0    0    0  501 -0.00000000000E+00 -0.00000000000E+00 -0.95004320076E+03  0.95004320076E+03  0.00000000000E+00 0.  1.
         23    2    1    2    0    0  0.87049187791E+02  0.56141535739E+03  0.68154138886E+03  0.89214747817E+03  0.93078963585E+02 0.  0.
        254    2    1    2    0    0 -0.87049187791E+02 -0.56141535739E+03 -0.50501886786E+03  0.11844614443E+04  0.90837222086E+03 0.  0.
        -24    2    4    4    0    0 -0.34613109967E+03  0.21303756511E+01  0.36577514442E+02  0.35712520500E+03  0.79932601754E+02 0.  0.
         24    2    4    4    0    0  0.25908191188E+03 -0.56354573304E+03 -0.54159638231E+03  0.82733623934E+03  0.80320491194E+02 0.  0.
         13    1    3    3    0    0  0.77987815486E+02  0.53828566413E+03  0.67419950162E+03  0.86624391690E+03  0.00000000000E+00 0. -1.
        -13    1    3    3    0    0  0.90613723050E+01  0.23129693260E+02  0.73418872400E+01  0.25903561272E+02  0.00000000000E+00 0.  1.
          2    1    6    6  502    0  0.10830164811E+03 -0.23668309785E+03 -0.17555365809E+03  0.31395417286E+03  0.00000000000E+00 0. -1.
          3    1    5    5  503    0 -0.26405054985E+03 -0.23612121793E+01 -0.68615593333E+01  0.26415023982E+03  0.00000000000E+00 0. -1.
         -4    1    5    5    0  503 -0.82080549823E+02  0.44915878303E+01  0.43439073775E+02  0.92974965183E+02  0.00000000000E+00 0.  1.
         -1    1    6    6    0  502  0.15078026377E+03 -0.32686263520E+03 -0.36604272421E+03  0.51338206648E+03  0.00000000000E+00 0.  1.
<mgrwt>
<rscale>  0 0.20690927E+04</rscale>
<asrwt>0</asrwt>
<pdfrwt beam="1">  1        2 0.17331780E+00 0.20690927E+04</pdfrwt>
<pdfrwt beam="2">  1       -2 0.14616049E+00 0.20690927E+04</pdfrwt>
<totfact> 0.62202385E+00</totfact>
</mgrwt>
</event>
<event>
12    1  0.1518126E-007  0.2222521E+04  0.7818608E-02  0.8509112E-01
         -1   -1    0    0    0  501 -0.00000000000E+00  0.00000000000E+00  0.15846788992E+04  0.15846788992E+04  0.00000000000E+00 0.  1.
          1   -1    0    0  501    0  0.00000000000E+00 -0.00000000000E+00 -0.77927485048E+03  0.77927485048E+03  0.00000000000E+00 0. -1.
         23    2    1    2    0    0  0.34027792900E+03  0.79474898344E+03  0.69527293387E+03  0.11130557560E+04  0.89853479129E+02 0.  0.
        254    2    1    2    0    0 -0.34027792900E+03 -0.79474898344E+03  0.11013111483E+03  0.12508979937E+04  0.89733043662E+03 0.  0.
        -24    2    4    4    0    0 -0.63973648437E+03 -0.47359606404E+03  0.76449286287E+02  0.80357000142E+03  0.79525168933E+02 0.  0.
         24    2    4    4    0    0  0.29945855537E+03 -0.32115291940E+03  0.33681828544E+02  0.44732799226E+03  0.78442609973E+02 0.  0.
         13    1    3    3    0    0  0.48170709294E+02  0.10083067498E+03  0.13093887826E+03  0.17214015247E+03  0.00000000000E+00 0.  1.
        -13    1    3    3    0    0  0.29210721971E+03  0.69391830846E+03  0.56433405561E+03  0.94091560352E+03  0.00000000000E+00 0. -1.
          2    1    6    6  502    0  0.16700918325E+03 -0.21019762862E+03  0.52400534475E+02  0.27353414117E+03  0.00000000000E+00 0. -1.
          3    1    5    5  503    0 -0.54614947189E+03 -0.43266135218E+03  0.53054782857E+02  0.69877743331E+03  0.00000000000E+00 0. -1.
         -4    1    5    5    0  503 -0.93587012481E+02 -0.40934711860E+02  0.23394503430E+02  0.10479256811E+03  0.00000000000E+00 0.  1.
         -1    1    6    6    0  502  0.13244937212E+03 -0.11095529078E+03 -0.18718705931E+02  0.17379385109E+03  0.00000000000E+00 0.  1.
<mgrwt>
<rscale>  0 0.22225215E+04</rscale>
<asrwt>0</asrwt>
<pdfrwt beam="1">  1        1 0.11988844E+00 0.22225215E+04</pdfrwt>
<pdfrwt beam="2">  1       -1 0.24379675E+00 0.22225215E+04</pdfrwt>
<totfact> 0.16060177E+00</totfact>
</mgrwt>
</event>
<event>
12    1  0.1518126E-007  0.4029579E+04  0.7818608E-02  0.7998606E-01
         -2   -1    0    0    0  501 -0.00000000000E+00  0.00000000000E+00  0.17052131262E+04  0.17052131262E+04  0.00000000000E+00 0.  1.
          2   -1    0    0  501    0  0.00000000000E+00 -0.00000000000E+00 -0.23805685092E+04  0.23805685092E+04  0.00000000000E+00 0. -1.
         23    2    1    2    0    0 -0.15646051647E+04 -0.93605195837E+03  0.27543625072E+03  0.18460861634E+04  0.89366685323E+02 0.  0.
        254    2    1    2    0    0  0.15646051647E+04  0.93605195837E+03 -0.95079163370E+03  0.22396954720E+04  0.88772095076E+03 0.  0.
        -24    2    4    4    0    0  0.11839317819E+04  0.10421017614E+04 -0.55260747519E+03  0.16731448674E+04  0.79800879092E+02 0.  0.
         24    2    4    4    0    0  0.38067338280E+03 -0.10604980304E+03 -0.39818415851E+03  0.56655060461E+03  0.79184458088E+02 0.  0.
         13    1    3    3    0    0 -0.75062452123E+03 -0.48396074702E+03  0.10132079515E+03  0.89884430245E+03  0.00000000000E+00 0.  1.
        -13    1    3    3    0    0 -0.81398064349E+03 -0.45209121135E+03  0.17411545558E+03  0.94724186099E+03  0.00000000000E+00 0. -1.
          2    1    6    6  502    0  0.37244021418E+03 -0.10512695505E+03 -0.40148535378E+03  0.55763238708E+03  0.00000000000E+00 0. -1.
          3    1    5    5  503    0  0.10240475049E+04  0.93568275088E+03 -0.48945155451E+03  0.14709651005E+04  0.00000000000E+00 0. -1.
         -4    1    5    5    0  503  0.15988427701E+03  0.10641901053E+03 -0.63155920677E+02  0.20217976692E+03  0.00000000000E+00 0.  1.
         -1    1    6    6    0  502  0.82331686132E+01 -0.92284799590E+00  0.33011952668E+01  0.89182175364E+01  0.00000000000E+00 0.  1.
<mgrwt>
<rscale>  0 0.40295790E+04</rscale>
<asrwt>0</asrwt>
<pdfrwt beam="1">  1        2 0.36624131E+00 0.40295790E+04</pdfrwt>
<pdfrwt beam="2">  1       -2 0.26234048E+00 0.40295790E+04</pdfrwt>
<totfact> 0.17329331E-01</totfact>
</mgrwt>
</event>
<event>
12    1  0.1518126E-007  0.1806286E+04  0.7818608E-02  0.8702964E-01
         -1   -1    0    0    0  501 -0.00000000000E+00  0.00000000000E+00  0.37316275231E+03  0.37316275231E+03  0.00000000000E+00 0.  1.
          1   -1    0    0  501    0  0.00000000000E+00 -0.00000000000E+00 -0.21858219228E+04  0.21858219228E+04  0.00000000000E+00 0. -1.
         23    2    1    2    0    0  0.45296612761E+02  0.46957002250E+03 -0.13985507476E+04  0.14787644173E+04  0.90841725272E+02 0.  0.
        254    2    1    2    0    0 -0.45296612761E+02 -0.46957002250E+03 -0.41410842283E+03  0.10802202578E+04  0.87911445801E+03 0.  0.
        -24    2    4    4    0    0  0.29254859903E+03  0.96078308380E+02 -0.22531510331E+03  0.38997318544E+03  0.80600654143E+02 0.  0.
         24    2    4    4    0    0 -0.33784521179E+03 -0.56564833088E+03 -0.18879331951E+03  0.69024707233E+03  0.81857693646E+02 0.  0.
         11    1    3    3    0    0  0.12116088990E+02  0.19890941162E+02 -0.13899903705E+03  0.14093679950E+03  0.00000000000E+00 0.  1.
        -11    1    3    3    0    0  0.33180523771E+02  0.44967908133E+03 -0.12595517106E+04  0.13378276178E+04  0.00000000000E+00 0. -1.
          4    1    6    6  502    0 -0.40480110420E+02 -0.28450584748E+02 -0.75809731741E+01  0.50055431937E+02  0.00000000000E+00 0. -1.
          1    1    5    5  503    0  0.23352790000E+03  0.49611498818E+02 -0.14192767659E+03  0.27774096974E+03  0.00000000000E+00 0. -1.
         -2    1    5    5    0  503  0.59020699031E+02  0.46466809563E+02 -0.83387426724E+02  0.11223221570E+03  0.00000000000E+00 0.  1.
         -3    1    6    6    0  502 -0.29736510137E+03 -0.53719774613E+03 -0.18121234634E+03  0.64019164039E+03  0.00000000000E+00 0.  1.
<mgrwt>
<rscale>  0 0.18062861E+04</rscale>
<asrwt>0</asrwt>
<pdfrwt beam="1">  1        1 0.33628029E+00 0.18062861E+04</pdfrwt>
<pdfrwt beam="2">  1       -1 0.57409655E-01 0.18062861E+04</pdfrwt>
<totfact> 0.64576936E+00</totfact>
</mgrwt>
</event>
<event>
12    1  0.1518126E-007  0.2352308E+04  0.7818608E-02  0.8457578E-01
         -1   -1    0    0    0  501 -0.00000000000E+00  0.00000000000E+00  0.32805354339E+04  0.32805354339E+04  0.00000000000E+00 0.  1.
          1   -1    0    0  501    0  0.00000000000E+00 -0.00000000000E+00 -0.42168071784E+03  0.42168071784E+03  0.00000000000E+00 0. -1.
         23    2    1    2    0    0  0.43730740762E+03  0.63937910344E+03  0.22185568146E+04  0.23517216308E+04  0.92503417091E+02 0.  0.
        254    2    1    2    0    0 -0.43730740762E+03 -0.63937910344E+03  0.64029790141E+03  0.13504945210E+04  0.90211453924E+03 0.  0.
        -24    2    4    4    0    0 -0.42547674279E+03 -0.55929479545E+03  0.85401756117E+03  0.11087847184E+04  0.78844340587E+02 0.  0.
         24    2    4    4    0    0 -0.11830664835E+02 -0.80084307992E+02 -0.21371965976E+03  0.24170980258E+03  0.78702443914E+02 0.  0.
         13    1    3    3    0    0  0.39988365914E+03  0.56966879044E+03  0.20621712763E+04  0.21764603935E+04  0.00000000000E+00 0.  1.
        -13    1    3    3    0    0  0.37423748484E+02  0.69710313001E+02  0.15638553828E+03  0.17526123722E+03  0.00000000000E+00 0. -1.
          4    1    6    6  502    0 -0.16566249180E+02 -0.71262434472E+02 -0.21863802619E+03  0.23055446575E+03  0.00000000000E+00 0. -1.
          1    1    5    5  503    0 -0.25082948406E+03 -0.31111368048E+03  0.54337916255E+03  0.67451320710E+03  0.00000000000E+00 0. -1.
         -2    1    5    5    0  503 -0.17464725873E+03 -0.24818111498E+03  0.31063839862E+03  0.43427151128E+03  0.00000000000E+00 0.  1.
         -3    1    6    6    0  502  0.47355843450E+01 -0.88218735199E+01  0.49183664316E+01  0.11155336832E+02  0.00000000000E+00 0.  1.
<mgrwt>
<rscale>  0 0.23523083E+04</rscale>
<asrwt>0</asrwt>
<pdfrwt beam="1">  1        1 0.64873959E-01 0.23523083E+04</pdfrwt>
<pdfrwt beam="2">  1       -1 0.50469774E+00 0.23523083E+04</pdfrwt>
<totfact> 0.69590560E-02</totfact>
</mgrwt>
</event>
<event>
12    1  0.1518126E-007  0.1378749E+04  0.7818608E-02  0.8969347E-01
         -3   -1    0    0    0  501 -0.00000000000E+00  0.00000000000E+00  0.12240875255E+04  0.12240875255E+04  0.00000000000E+00 0. -1.
          3   -1    0    0  501    0  0.00000000000E+00 -0.00000000000E+00 -0.38823779091E+03  0.38823779091E+03  0.00000000000E+00 0.  1.
         23    2    1    2    0    0 -0.33400381844E+03  0.14699400656E+03  0.82650817345E+02  0.38518417579E+03  0.91487173827E+02 0.  0.
        254    2    1    2    0    0  0.33400381844E+03 -0.14699400656E+03  0.75319891721E+03  0.12271411406E+04  0.89744135258E+03 0.  0.
        -24    2    4    4    0    0 -0.28530402056E+03 -0.16011321896E+03  0.33747336027E+03  0.47680301054E+03  0.80113762450E+02 0.  0.
         24    2    4    4    0    0  0.61930783899E+03  0.13119212400E+02  0.41572555693E+03  0.75033813004E+03  0.80406825175E+02 0.  0.
         11    1    3    3    0    0 -0.33223542371E+03  0.12731962258E+03  0.83310934723E+02  0.36541945064E+03  0.00000000000E+00 0.  1.
        -11    1    3    3    0    0 -0.17683947222E+01  0.19674383987E+02 -0.66011737741E+00  0.19764725147E+02  0.00000000000E+00 0. -1.
          2    1    6    6  502    0  0.19514304056E+03  0.20760559201E+02  0.17277220662E+03  0.26146135944E+03  0.00000000000E+00 0. -1.
          3    1    5    5  503    0 -0.18675768612E+03 -0.12576209862E+03  0.18181877727E+03  0.28940042596E+03  0.00000000000E+00 0. -1.
         -4    1    5    5    0  503 -0.98546334432E+02 -0.34351120343E+02  0.15565458300E+03  0.18740258458E+03  0.00000000000E+00 0.  1.
         -1    1    6    6    0  502  0.42416479843E+03 -0.76413468004E+01  0.24295335031E+03  0.48887677060E+03  0.00000000000E+00 0.  1.
<mgrwt>
<rscale>  0 0.13787488E+04</rscale>
<asrwt>0</asrwt>
<pdfrwt beam="1">  1        3 0.59728891E-01 0.13787488E+04</pdfrwt>
<pdfrwt beam="2">  1       -3 0.18832116E+00 0.13787488E+04</pdfrwt>
<totfact> 0.12194679E+00</totfact>
</mgrwt>
</event>
<event>
12    1  0.1518126E-007  0.2126387E+04  0.7818608E-02  0.8549708E-01
          1   -1    0    0  501    0  0.00000000000E+00  0.00000000000E+00  0.12268844424E+04  0.12268844424E+04  0.00000000000E+00 0. -1.
         -1   -1    0    0    0  501 -0.00000000000E+00 -0.00000000000E+00 -0.92134182077E+03  0.92134182077E+03  0.00000000000E+00 0.  1.
         23    2    1    2    0    0 -0.32502290090E+03 -0.79587850605E+03 -0.21970860876E+01  0.86460307198E+03  0.92038917752E+02 0.  0.
        254    2    1    2    0    0  0.32502290090E+03  0.79587850605E+03  0.30773970770E+03  0.12836231912E+04  0.90217641664E+03 0.  0.
        -24    2    4    4    0    0  0.11227009587E+03  0.95582512224E+03  0.27279810504E+03  0.10034285076E+04  0.79017245406E+02 0.  0.
         24    2    4    4    0    0  0.21275280503E+03 -0.15994661619E+03  0.34941602658E+02  0.28019468356E+03  0.80258762869E+02 0.  0.
         13    1    3    3    0    0 -0.74882194620E+02 -0.14788342643E+03 -0.34257624993E+02  0.16926439600E+03  0.00000000000E+00 0. -1.
        -13    1    3    3    0    0 -0.25014070628E+03 -0.64799507962E+03  0.32060538906E+02  0.69533867597E+03  0.00000000000E+00 0.  1.
          4    1    6    6  502    0 -0.67959122740E+01 -0.12580152061E+01  0.25671238205E+01  0.73727302002E+01  0.00000000000E+00 0. -1.
          3    1    5    5  503    0 -0.50113168535E+01  0.37248929262E+01  0.66433546873E+00  0.62792886168E+01  0.00000000000E+00 0. -1.
         -4    1    5    5    0  503  0.11728141272E+03  0.95210022931E+03  0.27213376957E+03  0.99714921901E+03  0.00000000000E+00 0.  1.
         -3    1    6    6    0  502  0.21954871731E+03 -0.15868860098E+03  0.32374478838E+02  0.27282195335E+03  0.00000000000E+00 0.  1.
<mgrwt>
<rscale>  0 0.21263866E+04</rscale>
<asrwt>0</asrwt>
<pdfrwt beam="1">  1        1 0.18875145E+00 0.21263866E+04</pdfrwt>
<pdfrwt beam="2">  1       -1 0.14174490E+00 0.21263866E+04</pdfrwt>
<totfact> 0.38028693E+00</totfact>
</mgrwt>
</event>
<event>
12    1  0.1518126E-007  0.1591646E+04  0.7818608E-02  0.8825697E-01
         -1   -1    0    0    0  501 -0.00000000000E+00  0.00000000000E+00  0.38300890492E+03  0.38300890492E+03  0.00000000000E+00 0.  1.
          1   -1    0    0  501    0  0.00000000000E+00 -0.00000000000E+00 -0.16535753211E+04  0.16535753211E+04  0.00000000000E+00 0. -1.
         23    2    1    2    0    0  0.27642016036E+03  0.31129474893E+03 -0.88382586494E+03  0.98143900651E+03  0.93604691091E+02 0.  0.
        254    2    1    2    0    0 -0.27642016036E+03 -0.31129474893E+03 -0.38674055120E+03  0.10551452195E+04  0.88907291854E+03 0.  0.
        -24    2    4    4    0    0  0.20857834565E+03 -0.12580097714E+03 -0.45811872685E+03  0.52480545187E+03  0.78849110984E+02 0.  0.
         24    2    4    4    0    0 -0.48499850600E+03 -0.18549377179E+03  0.71378175643E+02  0.53033976761E+03  0.80832759167E+02 0.  0.
         13    1    3    3    0    0  0.60223780778E+01  0.37801885276E+02 -0.48154249921E+02  0.61514903508E+02  0.00000000000E+00 0.  1.
        -13    1    3    3    0    0  0.27039778228E+03  0.27349286366E+03 -0.83567161502E+03  0.91992410300E+03  0.00000000000E+00 0. -1.
          2    1    6    6  502    0 -0.27862272120E+03 -0.63463514152E+02  0.39217469046E+02  0.28843759859E+03  0.00000000000E+00 0. -1.
          1    1    5    5  503    0  0.19607413269E+03 -0.12173530683E+03 -0.45654354724E+03  0.51156286120E+03  0.00000000000E+00 0. -1.
         -2    1    5    5    0  503  0.12504212959E+02 -0.40656703130E+01 -0.15751796109E+01  0.13242590669E+02  0.00000000000E+00 0.  1.
         -1    1    6    6    0  502 -0.20637578480E+03 -0.12203025764E+03  0.32160706596E+02  0.24190216903E+03  0.00000000000E+00 0.  1.
<mgrwt>
<rscale>  0 0.15916458E+04</rscale>
<asrwt>0</asrwt>
<pdfrwt beam="1">  1        1 0.25439620E+00 0.15916458E+04</pdfrwt>
<pdfrwt beam="2">  1       -1 0.58924447E-01 0.15916458E+04</pdfrwt>
<totfact> 0.14371567E+01</totfact>
</mgrwt>
</event>
<event>
12    1  0.1518126E-007  0.2668243E+04  0.7818608E-02  0.8345383E-01
          1   -1    0    0  501    0  0.00000000000E+00  0.00000000000E+00  0.87504623039E+03  0.87504623039E+03  0.00000000000E+00 0. -1.
         -1   -1    0    0    0  501 -0.00000000000E+00 -0.00000000000E+00 -0.20340414361E+04  0.20340414361E+04  0.00000000000E+00 0.  1.
         23    2    1    2    0    0  0.93112681590E+03  0.70113057748E+03 -0.68225217728E+03  0.13535955079E+04  0.90396524960E+02 0.  0.
        254    2    1    2    0    0 -0.93112681590E+03 -0.70113057748E+03 -0.47674302840E+03  0.15554921585E+04  0.91306664938E+03 0.  0.
        -24    2    4    4    0    0 -0.86296316150E+03 -0.54010023640E+03 -0.71734636049E+03  0.12478827047E+04  0.78814721629E+02 0.  0.
         24    2    4    4    0    0 -0.68163654393E+02 -0.16103034108E+03  0.24060333209E+03  0.30760945383E+03  0.78463737779E+02 0.  0.
         11    1    3    3    0    0  0.28686060210E+03  0.18222953557E+03 -0.23500401723E+03  0.41318699978E+03  0.00000000000E+00 0. -1.
        -11    1    3    3    0    0  0.64426621380E+03  0.51890104191E+03 -0.44724816005E+03  0.94040850815E+03  0.00000000000E+00 0.  1.
          4    1    6    6  502    0 -0.27026034804E+01 -0.69452024958E+02  0.14142948812E+03  0.15758549409E+03  0.00000000000E+00 0. -1.
          3    1    5    5  503    0 -0.83519035253E+03 -0.51436608166E+03 -0.67292157251E+03  0.11895120149E+04  0.00000000000E+00 0. -1.
         -4    1    5    5    0  503 -0.27772808976E+02 -0.25734154740E+02 -0.44424787983E+02  0.58370689785E+02  0.00000000000E+00 0.  1.
         -3    1    6    6    0  502 -0.65461050913E+02 -0.91578316121E+02  0.99173843965E+02  0.15002395974E+03  0.00000000000E+00 0.  1.
<mgrwt>
<rscale>  0 0.26682431E+04</rscale>
<asrwt>0</asrwt>
<pdfrwt beam="1">  1        1 0.13462250E+00 0.26682431E+04</pdfrwt>
<pdfrwt beam="2">  1       -1 0.31292945E+00 0.26682431E+04</pdfrwt>
<totfact> 0.45469329E-01</totfact>
</mgrwt>
</event>
<event>
12    1  0.1518126E-007  0.1475997E+04  0.7818608E-02  0.8900573E-01
         -1   -1    0    0    0  501 -0.00000000000E+00  0.00000000000E+00  0.37221628171E+03  0.37221628171E+03  0.00000000000E+00 0.  1.
          1   -1    0    0  501    0  0.00000000000E+00 -0.00000000000E+00 -0.14632398697E+04  0.14632398697E+04  0.00000000000E+00 0. -1.
         23    2    1    2    0    0 -0.88008454192E+02 -0.25355565857E+03  0.99755241603E+02  0.29952879125E+03  0.87922855704E+02 0.  0.
        254    2    1    2    0    0  0.88008454192E+02  0.25355565857E+03 -0.11907788296E+04  0.15359273601E+04  0.93224603763E+03 0.  0.
        -24    2    4    4    0    0 -0.12357107854E+03 -0.30702661958E+03 -0.60462443630E+03  0.69382551556E+03  0.79296787328E+02 0.  0.
         24    2    4    4    0    0  0.21157953273E+03  0.56058227816E+03 -0.58615439325E+03  0.84210184457E+03  0.80871222661E+02 0.  0.
         13    1    3    3    0    0  0.54931786559E+01 -0.16769792775E+02 -0.12166550118E+02  0.21434222711E+02  0.00000000000E+00 0. -1.
        -13    1    3    3    0    0 -0.93501632848E+02 -0.23678586580E+03  0.11192179172E+03  0.27809456854E+03  0.00000000000E+00 0.  1.
          2    1    6    6  502    0  0.13316458556E+03  0.24124361483E+03 -0.27890202940E+03  0.39206840034E+03  0.00000000000E+00 0. -1.
          1    1    5    5  503    0 -0.10701199076E+03 -0.19530065185E+03 -0.34416364936E+03  0.40992990660E+03  0.00000000000E+00 0. -1.
         -2    1    5    5    0  503 -0.16559087777E+02 -0.11172596773E+03 -0.26046078694E+03  0.28389560896E+03  0.00000000000E+00 0.  1.
         -1    1    6    6    0  502  0.78414947163E+02  0.31933866332E+03 -0.30725236385E+03  0.45003344423E+03  0.00000000000E+00 0.  1.
<mgrwt>
<rscale>  0 0.14759969E+04</rscale>
<asrwt>0</asrwt>
<pdfrwt beam="1">  1        1 0.22511382E+00 0.14759969E+04</pdfrwt>
<pdfrwt beam="2">  1       -1 0.57264044E-01 0.14759969E+04</pdfrwt>
<totfact> 0.20765301E+01</totfact>
</mgrwt>
</event>
<event>
12    1  0.1518126E-007  0.2278783E+04  0.7818608E-02  0.8486334E-01
          1   -1    0    0  501    0  0.00000000000E+00  0.00000000000E+00  0.71725809670E+03  0.71725809670E+03  0.00000000000E+00 0. -1.
         -1   -1    0    0    0  501 -0.00000000000E+00 -0.00000000000E+00 -0.18099657239E+04  0.18099657239E+04  0.00000000000E+00 0.  1.
         23    2    1    2    0    0  0.11003786435E+03  0.77961792681E+03 -0.10633043494E+04  0.13263770836E+04  0.93528525025E+02 0.  0.
        254    2    1    2    0    0 -0.11003786435E+03 -0.77961792681E+03 -0.29403277858E+02  0.12008467371E+04  0.90623169764E+03 0.  0.
        -24    2    4    4    0    0 -0.34148312719E+03 -0.59462753118E+03  0.29723694165E+03  0.75244448853E+03  0.87351484458E+02 0.  0.
         24    2    4    4    0    0  0.23144526284E+03 -0.18499039563E+03 -0.32664021951E+03  0.44840224855E+03  0.81131913173E+02 0.  0.
         13    1    3    3    0    0  0.10030618457E+02  0.24902973961E+02 -0.69327575102E+02  0.74344361509E+02  0.00000000000E+00 0.  1.
        -13    1    3    3    0    0  0.10000724589E+03  0.75471495285E+03 -0.99397677427E+03  0.12520327220E+04  0.00000000000E+00 0. -1.
          4    1    6    6  502    0  0.85580687174E+02 -0.11693211757E+03 -0.13398314718E+03  0.19735414327E+03  0.00000000000E+00 0. -1.
          1    1    5    5  503    0 -0.74640490098E+02 -0.10227928340E+03  0.89885011118E+02  0.15527900631E+03  0.00000000000E+00 0. -1.
         -2    1    5    5    0  503 -0.26684263709E+03 -0.49234824778E+03  0.20735193054E+03  0.59716548222E+03  0.00000000000E+00 0.  1.
         -3    1    6    6    0  502  0.14586457567E+03 -0.68058278062E+02 -0.19265707233E+03  0.25104810528E+03  0.00000000000E+00 0.  1.
<mgrwt>
<rscale>  0 0.22787826E+04</rscale>
<asrwt>0</asrwt>
<pdfrwt beam="1">  1        1 0.11034740E+00 0.22787826E+04</pdfrwt>
<pdfrwt beam="2">  1       -1 0.27845626E+00 0.22787826E+04</pdfrwt>
<totfact> 0.10825800E+00</totfact>
</mgrwt>
</event>
<event>
12    1  0.1518126E-007  0.1492240E+04  0.7818608E-02  0.8889630E-01
         -2   -1    0    0    0  501 -0.00000000000E+00  0.00000000000E+00  0.23186741488E+03  0.23186741488E+03  0.00000000000E+00 0. -1.
          2   -1    0    0  501    0  0.00000000000E+00 -0.00000000000E+00 -0.24009194145E+04  0.24009194145E+04  0.00000000000E+00 0.  1.
         23    2    1    2    0    0 -0.34913541182E+03  0.12801955124E+03 -0.12103261697E+04  0.12690693563E+04  0.85808232545E+02 0.  0.
        254    2    1    2    0    0  0.34913541182E+03 -0.12801955124E+03 -0.95872582987E+03  0.13637174730E+04  0.89570396230E+03 0.  0.
        -24    2    4    4    0    0  0.16901527578E+03  0.16326615371E+03 -0.98055492962E+03  0.10115086119E+04  0.80247751045E+02 0.  0.
         24    2    4    4    0    0  0.18012013604E+03 -0.29128570495E+03  0.21829099748E+02  0.35220886112E+03  0.79271350090E+02 0.  0.
         11    1    3    3    0    0 -0.17512550561E+03  0.10891243615E+03 -0.62738966282E+03  0.66041551350E+03  0.00000000000E+00 0. -1.
        -11    1    3    3    0    0 -0.17400990621E+03  0.19107115087E+02 -0.58293650689E+03  0.60865384281E+03  0.00000000000E+00 0.  1.
          4    1    6    6  502    0  0.68590653236E+02 -0.17973190389E+03  0.27681492311E+02  0.19435663097E+03  0.00000000000E+00 0. -1.
          1    1    5    5  503    0  0.31009330315E+02  0.10167283503E+02 -0.61478178080E+02  0.69602576105E+02  0.00000000000E+00 0. -1.
         -2    1    5    5    0  503  0.13800594547E+03  0.15309887021E+03 -0.91907675154E+03  0.94190603579E+03  0.00000000000E+00 0.  1.
         -3    1    6    6    0  502  0.11152948280E+03 -0.11155380106E+03 -0.58523925625E+01  0.15785223015E+03  0.00000000000E+00 0.  1.
<mgrwt>
<rscale>  0 0.14922399E+04</rscale>
<asrwt>0</asrwt>
<pdfrwt beam="1">  1        2 0.36937224E+00 0.14922399E+04</pdfrwt>
<pdfrwt beam="2">  1       -2 0.35671908E-01 0.14922399E+04</pdfrwt>
<totfact> 0.28415984E+01</totfact>
</mgrwt>
</event>
<event>
12    1  0.1518126E-007  0.2947530E+04  0.7818608E-02  0.8258875E-01
          1   -1    0    0  501    0  0.00000000000E+00  0.00000000000E+00  0.12915760524E+04  0.12915760524E+04  0.00000000000E+00 0. -1.
         -1   -1    0    0    0  501 -0.00000000000E+00 -0.00000000000E+00 -0.16816529331E+04  0.16816529331E+04  0.00000000000E+00 0.  1.
         23    2    1    2    0    0  0.37656124743E+01 -0.22605656336E+03 -0.15023396486E+04  0.15219937780E+04  0.91240841091E+02 0.  0.
        254    2    1    2    0    0 -0.37656124743E+01  0.22605656336E+03  0.11122627679E+04  0.14512352074E+04  0.90434474217E+03 0.  0.
        -24    2    4    4    0    0 -0.24110888240E+03 -0.14919001299E+02 -0.31258953446E+02  0.25638237423E+03  0.79992061323E+02 0.  0.
         24    2    4    4    0    0  0.23734326992E+03  0.24097556465E+03  0.11435217213E+04  0.11948528332E+04  0.75035426646E+02 0.  0.
         13    1    3    3    0    0 -0.29891659820E+02 -0.58157181466E+02 -0.59973338274E+03  0.60328757608E+03  0.00000000000E+00 0. -1.
        -13    1    3    3    0    0  0.33657272294E+02 -0.16789938189E+03 -0.90260626582E+03  0.91870620196E+03  0.00000000000E+00 0.  1.
          2    1    6    6  502    0  0.10818731569E+03  0.11878089870E+03  0.67154501993E+03  0.69049700286E+03  0.00000000000E+00 0. -1.
          3    1    5    5  503    0 -0.89956075214E+02 -0.30434907230E+02 -0.42455554989E+02  0.10402333005E+03  0.00000000000E+00 0. -1.
         -2    1    5    5    0  503 -0.15115280718E+03  0.15515905931E+02  0.11196601543E+02  0.15235904418E+03  0.00000000000E+00 0.  1.
         -1    1    6    6    0  502  0.12915595423E+03  0.12219466596E+03  0.47197670137E+03  0.50435583029E+03  0.00000000000E+00 0.  1.
<mgrwt>
<rscale>  0 0.29475296E+04</rscale>
<asrwt>0</asrwt>
<pdfrwt beam="1">  1        1 0.19870401E+00 0.29475296E+04</pdfrwt>
<pdfrwt beam="2">  1       -1 0.25871583E+00 0.29475296E+04</pdfrwt>
<totfact> 0.47959696E-01</totfact>
</mgrwt>
</event>
<event>
12    1  0.1518126E-007  0.2389599E+04  0.7818608E-02  0.8443408E-01
          2   -1    0    0  501    0  0.00000000000E+00  0.00000000000E+00  0.43437897871E+04  0.43437897871E+04  0.00000000000E+00 0. -1.
         -2   -1    0    0    0  501 -0.00000000000E+00 -0.00000000000E+00 -0.32864068773E+03  0.32864068773E+03  0.00000000000E+00 0.  1.
         23    2    1    2    0    0  0.66344418765E+03  0.78110680579E+03  0.17487271545E+04  0.20290163853E+04  0.92600210000E+02 0.  0.
        254    2    1    2    0    0 -0.66344418765E+03 -0.78110680579E+03  0.22664219449E+04  0.26434140895E+04  0.89480924455E+03 0.  0.
        -24    2    4    4    0    0 -0.67391529105E+03 -0.11539791422E+03  0.10904503817E+04  0.12896536149E+04  0.81522472518E+02 0.  0.
         24    2    4    4    0    0  0.10471103397E+02 -0.66570889157E+03  0.11759715633E+04  0.13537604746E+04  0.80500513464E+02 0.  0.
         13    1    3    3    0    0  0.65147200500E+03  0.76545090165E+03  0.16821319670E+04  0.19595659750E+04  0.00000000000E+00 0. -1.
        -13    1    3    3    0    0  0.11972182653E+02  0.15655904142E+02  0.66595187499E+02  0.69450410294E+02  0.00000000000E+00 0.  1.
          2    1    6    6  502    0 -0.33350196846E+02 -0.30369695328E+03  0.56122805247E+03  0.63900000152E+03  0.00000000000E+00 0. -1.
          1    1    5    5  503    0 -0.22301963526E+02 -0.96352690866E+01  0.71835364450E+02  0.75832285823E+02  0.00000000000E+00 0. -1.
         -2    1    5    5    0  503 -0.65161332752E+03 -0.10576264514E+03  0.10186150172E+04  0.12138213291E+04  0.00000000000E+00 0.  1.
         -1    1    6    6    0  502  0.43821300243E+02 -0.36201193829E+03  0.61474351078E+03  0.71476047307E+03  0.00000000000E+00 0.  1.
<mgrwt>
<rscale>  0 0.23895992E+04</rscale>
<asrwt>0</asrwt>
<pdfrwt beam="1">  1        2 0.66827531E+00 0.23895992E+04</pdfrwt>
<pdfrwt beam="2">  1       -2 0.50560109E-01 0.23895992E+04</pdfrwt>
<totfact> 0.58007763E-01</totfact>
</mgrwt>
</event>
<event>
12    1  0.1518126E-007  0.1038824E+04  0.7818608E-02  0.9266960E-01
          2   -1    0    0  501    0  0.00000000000E+00  0.00000000000E+00  0.14787308800E+04  0.14787308800E+04  0.00000000000E+00 0. -1.
         -2   -1    0    0    0  501 -0.00000000000E+00 -0.00000000000E+00 -0.18244602179E+03  0.18244602179E+03  0.00000000000E+00 0.  1.
         23    2    1    2    0    0  0.84041077043E+02 -0.51286294972E+02  0.38752428885E+03  0.40945987297E+03  0.88256027771E+02 0.  0.
        254    2    1    2    0    0 -0.84041077043E+02  0.51286294972E+02  0.90876056934E+03  0.12517170288E+04  0.85513540514E+03 0.  0.
        -24    2    4    4    0    0 -0.30662940009E+03  0.16783070135E+03  0.60804178270E+02  0.36373254165E+03  0.80096694339E+02 0.  0.
         24    2    4    4    0    0  0.22258832304E+03 -0.11654440638E+03  0.84795639107E+03  0.88798448716E+03  0.79738623382E+02 0.  0.
         13    1    3    3    0    0  0.21374737745E+02  0.12949277326E+02  0.20015040618E+03  0.20170460652E+03  0.00000000000E+00 0.  1.
        -13    1    3    3    0    0  0.62666339299E+02 -0.64235572299E+02  0.18737388267E+03  0.20775526645E+03  0.00000000000E+00 0. -1.
          2    1    6    6  502    0  0.22495168310E+03 -0.11194101986E+03  0.77218859671E+03  0.81204019638E+03  0.00000000000E+00 0. -1.
          1    1    5    5  503    0 -0.29623889410E+03  0.14123156117E+03  0.45464762802E+02  0.33131688895E+03  0.00000000000E+00 0. -1.
         -2    1    5    5    0  503 -0.10390505992E+02  0.26599140177E+02  0.15339415468E+02  0.32415652698E+02  0.00000000000E+00 0.  1.
         -1    1    6    6    0  502 -0.23633600589E+01 -0.46033865173E+01  0.75767794367E+02  0.75944290775E+02  0.00000000000E+00 0.  1.
<mgrwt>
<rscale>  0 0.10388235E+04</rscale>
<asrwt>0</asrwt>
<pdfrwt beam="1">  1        2 0.22749705E+00 0.10388235E+04</pdfrwt>
<pdfrwt beam="2">  1       -2 0.28068620E-01 0.10388235E+04</pdfrwt>
<totfact> 0.15074904E+02</totfact>
</mgrwt>
</event>
<event>
12    1  0.1518126E-007  0.1524086E+04  0.7818608E-02  0.8868592E-01
          2   -1    0    0  501    0  0.00000000000E+00  0.00000000000E+00  0.16990861341E+04  0.16990861341E+04  0.00000000000E+00 0.  1.
         -2   -1    0    0    0  501 -0.00000000000E+00 -0.00000000000E+00 -0.34177775184E+03  0.34177775184E+03  0.00000000000E+00 0. -1.
         23    2    1    2    0    0 -0.41945001491E+03  0.14131959974E+03  0.20952301006E+03  0.49882425089E+03  0.94953658449E+02 0.  0.
        254    2    1    2    0    0  0.41945001491E+03 -0.14131959974E+03  0.11477853722E+04  0.15420396351E+04  0.92982010687E+03 0.  0.
        -24    2    4    4    0    0  0.36559054567E+03  0.50172436448E+02  0.12499419200E+04  0.13053349962E+04  0.73286618603E+02 0.  0.
         24    2    4    4    0    0  0.53859469237E+02 -0.19149203619E+03 -0.10215654779E+03  0.23670463885E+03  0.77608526901E+02 0.  0.
         13    1    3    3    0    0 -0.25373799045E+02 -0.10402984352E+02 -0.69450168440E-02  0.27423563037E+02  0.00000000000E+00 0.  1.
        -13    1    3    3    0    0 -0.39407621586E+03  0.15172258409E+03  0.20952995508E+03  0.47140068785E+03  0.00000000000E+00 0. -1.
          4    1    6    6  502    0  0.19451074262E+01  0.39902149632E+01  0.59061457652E+01  0.73883567964E+01  0.00000000000E+00 0. -1.
          3    1    5    5  503    0  0.86548125261E+02 -0.18589779337E+02  0.27232332598E+03  0.28634970186E+03  0.00000000000E+00 0. -1.
         -4    1    5    5    0  503  0.27904242041E+03  0.68762215785E+02  0.97761859403E+03  0.10189852944E+04  0.00000000000E+00 0.  1.
         -3    1    6    6    0  502  0.51914361811E+02 -0.19548225115E+03 -0.10806269355E+03  0.22931628206E+03  0.00000000000E+00 0.  1.
<mgrwt>
<rscale>  0 0.15240864E+04</rscale>
<asrwt>0</asrwt>
<pdfrwt beam="1">  1        2 0.26139786E+00 0.15240864E+04</pdfrwt>
<pdfrwt beam="2">  1       -2 0.52581194E-01 0.15240864E+04</pdfrwt>
<totfact> 0.32311741E+01</totfact>
</mgrwt>
</event>
<event>
12    1  0.1518126E-007  0.1935617E+04  0.7818608E-02  0.8637328E-01
         -2   -1    0    0    0  501 -0.00000000000E+00  0.00000000000E+00  0.72266029619E+03  0.72266029619E+03  0.00000000000E+00 0.  1.
          2   -1    0    0  501    0  0.00000000000E+00 -0.00000000000E+00 -0.12961184722E+04  0.12961184722E+04  0.00000000000E+00 0. -1.
         23    2    1    2    0    0  0.63093166520E+03 -0.15008841026E+03 -0.63567959983E+03  0.91243768931E+03  0.88615383563E+02 0.  0.
        254    2    1    2    0    0 -0.63093166520E+03  0.15008841026E+03  0.62221423839E+02  0.11063410790E+04  0.89415758150E+03 0.  0.
        -24    2    4    4    0    0 -0.76194245007E+03  0.11198966973E+03 -0.19989374210E+03  0.79986496563E+03  0.82027262340E+02 0.  0.
         24    2    4    4    0    0  0.13101078487E+03  0.38098740527E+02  0.26211516593E+03  0.30647611342E+03  0.81289040481E+02 0.  0.
         13    1    3    3    0    0  0.21362742248E+03 -0.44278559499E+02 -0.27340372172E+03  0.34978116232E+03  0.00000000000E+00 0.  1.
        -13    1    3    3    0    0  0.41730424271E+03 -0.10580985076E+03 -0.36227587811E+03  0.56265652699E+03  0.00000000000E+00 0. -1.
          4    1    6    6  502    0  0.10667294397E+03  0.54969395451E+02  0.15906068665E+03  0.19925123199E+03  0.00000000000E+00 0. -1.
          1    1    5    5  503    0 -0.23502427835E+03 -0.35072126108E+01 -0.62168348178E+02  0.24313291729E+03  0.00000000000E+00 0. -1.
         -2    1    5    5    0  503 -0.52691817172E+03  0.11549688234E+03 -0.13772539392E+03  0.55673204834E+03  0.00000000000E+00 0.  1.
         -3    1    6    6    0  502  0.24337840898E+02 -0.16870654924E+02  0.10305447928E+03  0.10722488143E+03  0.00000000000E+00 0.  1.
<mgrwt>
<rscale>  0 0.19356171E+04</rscale>
<asrwt>0</asrwt>
<pdfrwt beam="1">  1        2 0.19940284E+00 0.19356171E+04</pdfrwt>
<pdfrwt beam="2">  1       -2 0.11117851E+00 0.19356171E+04</pdfrwt>
<totfact> 0.99380419E+00</totfact>
</mgrwt>
</event>
<event>
12    1  0.1518126E-007  0.2070941E+04  0.7818608E-02  0.8574153E-01
         -2   -1    0    0    0  501 -0.00000000000E+00  0.00000000000E+00  0.50706187795E+03  0.50706187795E+03  0.00000000000E+00 0. -1.
          2   -1    0    0  501    0  0.00000000000E+00 -0.00000000000E+00 -0.21145339246E+04  0.21145339246E+04  0.00000000000E+00 0.  1.
         23    2    1    2    0    0  0.53363917571E+03 -0.54291933433E+03 -0.20946223735E+03  0.79485355315E+03  0.91572750484E+02 0.  0.
        254    2    1    2    0    0 -0.53363917571E+03  0.54291933433E+03 -0.13980098093E+04  0.18267422494E+04  0.89611586606E+03 0.  0.
        -24    2    4    4    0    0 -0.14314788619E+03  0.67667139508E+03 -0.57899999536E+03  0.90556079834E+03  0.80149052506E+02 0.  0.
         24    2    4    4    0    0 -0.39049128952E+03 -0.13375206076E+03 -0.81900981391E+03  0.92118145103E+03  0.86169191147E+02 0.  0.
         11    1    3    3    0    0  0.19612656454E+03 -0.15029838632E+03 -0.41600874374E+02  0.25057108172E+03  0.00000000000E+00 0.  1.
        -11    1    3    3    0    0  0.33751261118E+03 -0.39262094801E+03 -0.16786136298E+03  0.54428247142E+03  0.00000000000E+00 0. -1.
          4    1    6    6  502    0 -0.71726365000E+02 -0.25572111877E+02 -0.23586424502E+03  0.24785186387E+03  0.00000000000E+00 0. -1.
          3    1    5    5  503    0 -0.56174968185E+02  0.16545840122E+03 -0.11075318265E+03  0.20687768621E+03  0.00000000000E+00 0. -1.
         -4    1    5    5    0  503 -0.86972918009E+02  0.51121299387E+03 -0.46824681271E+03  0.69868311213E+03  0.00000000000E+00 0.  1.
         -3    1    6    6    0  502 -0.31876492452E+03 -0.10817994888E+03 -0.58314556888E+03  0.67332958717E+03  0.00000000000E+00 0.  1.
<mgrwt>
<rscale>  0 0.20709414E+04</rscale>
<asrwt>0</asrwt>
<pdfrwt beam="1">  1        2 0.32531291E+00 0.20709414E+04</pdfrwt>
<pdfrwt beam="2">  1       -2 0.78009521E-01 0.20709414E+04</pdfrwt>
<totfact> 0.77914756E+00</totfact>
</mgrwt>
</event>
<event>
12    1  0.1518126E-007  0.1818951E+04  0.7818608E-02  0.8696286E-01
         -2   -1    0    0    0  501 -0.00000000000E+00  0.00000000000E+00  0.52524213292E+03  0.52524213292E+03  0.00000000000E+00 0.  1.
          2   -1    0    0  501    0  0.00000000000E+00 -0.00000000000E+00 -0.15747889412E+04  0.15747889412E+04  0.00000000000E+00 0. -1.
         23    2    1    2    0    0 -0.53491089198E+03 -0.18784747391E+03 -0.84979693049E+03  0.10254738747E+04  0.89585204019E+02 0.  0.
        254    2    1    2    0    0  0.53491089198E+03  0.18784747391E+03 -0.19974987779E+03  0.10745571994E+04  0.89070580180E+03 0.  0.
        -24    2    4    4    0    0  0.58473513389E+03 -0.45038346674E+02 -0.43109488261E+03  0.73229432106E+03  0.80427267576E+02 0.  0.
         24    2    4    4    0    0 -0.49824241916E+02  0.23288582059E+03  0.23134500481E+03  0.34226287837E+03  0.83096968333E+02 0.  0.
         11    1    3    3    0    0 -0.34925836335E+01  0.58078291386E+01 -0.21056545300E+02  0.22120287514E+02  0.00000000000E+00 0.  1.
        -11    1    3    3    0    0 -0.53141830834E+03 -0.19365530305E+03 -0.82874038519E+03  0.10033535872E+04  0.00000000000E+00 0. -1.
          4    1    6    6  502    0  0.47586406563E+01  0.26374209538E+01 -0.53083165185E+01  0.76012416383E+01  0.00000000000E+00 0. -1.
          3    1    5    5  503    0  0.19205464485E+03  0.18549305823E+02 -0.16308346191E+03  0.25263665392E+03  0.00000000000E+00 0. -1.
         -4    1    5    5    0  503  0.39268048904E+03 -0.63587652496E+02 -0.26801142070E+03  0.47965766714E+03  0.00000000000E+00 0.  1.
         -3    1    6    6    0  502 -0.54582882572E+02  0.23024839963E+03  0.23665332133E+03  0.33466163673E+03  0.00000000000E+00 0.  1.
<mgrwt>
<rscale>  0 0.18189508E+04</rscale>
<asrwt>0</asrwt>
<pdfrwt beam="1">  1        2 0.24227522E+00 0.18189508E+04</pdfrwt>
<pdfrwt beam="2">  1       -2 0.80806483E-01 0.18189508E+04</pdfrwt>
<totfact> 0.14675666E+01</totfact>
</mgrwt>
</event>
<event>
12    1  0.1518126E-007  0.4665588E+04  0.7818608E-02  0.7882272E-01
         -2   -1    0    0    0  501 -0.00000000000E+00  0.00000000000E+00  0.16892742133E+04  0.16892742133E+04  0.00000000000E+00 0.  1.
          2   -1    0    0  501    0  0.00000000000E+00 -0.00000000000E+00 -0.32214590121E+04  0.32214590121E+04  0.00000000000E+00 0. -1.
         23    2    1    2    0    0  0.33991368840E+03  0.18375918547E+04  0.56975686591E+03  0.19558341209E+04  0.91537325900E+02 0.  0.
        254    2    1    2    0    0 -0.33991368840E+03 -0.18375918547E+04 -0.21019416646E+04  0.29548991045E+04  0.90608212442E+03 0.  0.
        -24    2    4    4    0    0  0.12473342833E+03 -0.14114374142E+04 -0.12438404514E+04  0.18871305349E+04  0.80053638073E+02 0.  0.
         24    2    4    4    0    0 -0.46464711673E+03 -0.42615444053E+03 -0.85810121323E+03  0.10677685696E+04  0.79293604922E+02 0.  0.
         13    1    3    3    0    0  0.31068727349E+03  0.17403753135E+04  0.55678113117E+03  0.18534934696E+04  0.00000000000E+00 0.  1.
        -13    1    3    3    0    0  0.29226414908E+02  0.97216541199E+02  0.12975734732E+02  0.10234065127E+03  0.00000000000E+00 0. -1.
          4    1    6    6  502    0 -0.47440506193E+02 -0.15198364662E+02 -0.69235117604E+02  0.85294158217E+02  0.00000000000E+00 0. -1.
          3    1    5    5  503    0  0.10096321313E+03 -0.11135600364E+04 -0.10237140557E+04  0.15159815279E+04  0.00000000000E+00 0. -1.
         -4    1    5    5    0  503  0.23770215198E+02 -0.29787737782E+03 -0.22012639566E+03  0.37114900703E+03  0.00000000000E+00 0.  1.
         -3    1    6    6    0  502 -0.41720661054E+03 -0.41095607587E+03 -0.78886609563E+03  0.98247441137E+03  0.00000000000E+00 0.  1.
<mgrwt>
<rscale>  0 0.46655879E+04</rscale>
<asrwt>0</asrwt>
<pdfrwt beam="1">  1        2 0.49560907E+00 0.46655879E+04</pdfrwt>
<pdfrwt beam="2">  1       -2 0.25988835E+00 0.46655879E+04</pdfrwt>
<totfact> 0.52399164E-02</totfact>
</mgrwt>
</event>
<event>
12    1  0.1518126E-007  0.2929717E+04  0.7818608E-02  0.8264090E-01
         -2   -1    0    0    0  501 -0.00000000000E+00  0.00000000000E+00  0.67064047421E+03  0.67064047421E+03  0.00000000000E+00 0. -1.
          2   -1    0    0  501    0  0.00000000000E+00 -0.00000000000E+00 -0.31996439275E+04  0.31996439275E+04  0.00000000000E+00 0.  1.
         23    2    1    2    0    0 -0.11225742701E+04  0.62868575752E+03 -0.15512040723E+04  0.20174862868E+04  0.92725778763E+02 0.  0.
        254    2    1    2    0    0  0.11225742701E+04 -0.62868575752E+03 -0.97779938097E+03  0.18527981149E+04  0.90628386911E+03 0.  0.
        -24    2    4    4    0    0  0.29957184885E+03 -0.67309988075E+03 -0.53308177238E+03  0.91294966007E+03  0.80586374056E+02 0.  0.
         24    2    4    4    0    0  0.82300242124E+03  0.44414123228E+02 -0.44471760859E+03  0.93984845479E+03  0.78966872004E+02 0.  0.
         11    1    3    3    0    0 -0.10938541255E+04  0.60193397170E+03 -0.14810440438E+04  0.19370939094E+04  0.00000000000E+00 0. -1.
        -11    1    3    3    0    0 -0.28720144600E+02  0.26751785826E+02 -0.70160028501E+02  0.80392377437E+02  0.00000000000E+00 0.  1.
          2    1    6    6  502    0  0.71365044096E+03  0.22817424441E+02 -0.35868938246E+03  0.79904671943E+03  0.00000000000E+00 0. -1.
          1    1    5    5  503    0  0.27707242359E+03 -0.56657925443E+03 -0.43266248200E+03  0.76483854688E+03  0.00000000000E+00 0. -1.
         -2    1    5    5    0  503  0.22499425259E+02 -0.10652062632E+03 -0.10041929038E+03  0.14811111319E+03  0.00000000000E+00 0.  1.
         -1    1    6    6    0  502  0.10935198028E+03  0.21596698787E+02 -0.86028226132E+02  0.14080173536E+03  0.00000000000E+00 0.  1.
<mgrwt>
<rscale>  0 0.29297172E+04</rscale>
<asrwt>0</asrwt>
<pdfrwt beam="1">  1        2 0.49225291E+00 0.29297172E+04</pdfrwt>
<pdfrwt beam="2">  1       -2 0.10317546E+00 0.29297172E+04</pdfrwt>
<totfact> 0.85587129E-01</totfact>
</mgrwt>
</event>
<event>
12    1  0.1518126E-007  0.2303040E+04  0.7818608E-02  0.8476724E-01
          1   -1    0    0  501    0  0.00000000000E+00  0.00000000000E+00  0.20798168518E+04  0.20798168518E+04  0.00000000000E+00 0. -1.
         -1   -1    0    0    0  501 -0.00000000000E+00 -0.00000000000E+00 -0.63755522676E+03  0.63755522676E+03  0.00000000000E+00 0.  1.
         23    2    1    2    0    0 -0.68093225531E+02  0.96883751167E+03  0.54067089003E+03  0.11152621888E+04  0.90564490933E+02 0.  0.
        254    2    1    2    0    0  0.68093225531E+02 -0.96883751167E+03  0.90159073506E+03  0.16021098898E+04  0.90033740016E+03 0.  0.
        -24    2    4    4    0    0 -0.52143848398E+02 -0.35700035768E+03  0.90052543150E+03  0.97348917728E+03  0.81036344954E+02 0.  0.
         24    2    4    4    0    0  0.12023707393E+03 -0.61183715399E+03  0.10653035587E+01  0.62862071254E+03  0.79757184060E+02 0.  0.
         13    1    3    3    0    0 -0.62365386929E+02  0.86860096115E+03  0.51465294782E+03  0.10115457122E+04  0.00000000000E+00 0.  1.
        -13    1    3    3    0    0 -0.57278386019E+01  0.10023655052E+03  0.26017942217E+02  0.10371647657E+03  0.00000000000E+00 0. -1.
          4    1    6    6  502    0 -0.88300750316E+01 -0.52483731039E+02  0.11609473740E+02  0.54472856813E+02  0.00000000000E+00 0. -1.
          1    1    5    5  503    0 -0.61300668919E+02 -0.14414580243E+03  0.37117251980E+03  0.40287072843E+03  0.00000000000E+00 0. -1.
         -2    1    5    5    0  503  0.91568205213E+01 -0.21285455525E+03  0.52935291170E+03  0.57061844885E+03  0.00000000000E+00 0.  1.
         -3    1    6    6    0  502  0.12906714896E+03 -0.55935342295E+03 -0.10544170181E+02  0.57414785572E+03  0.00000000000E+00 0.  1.
<mgrwt>
<rscale>  0 0.23030398E+04</rscale>
<asrwt>0</asrwt>
<pdfrwt beam="1">  1        1 0.31997182E+00 0.23030398E+04</pdfrwt>
<pdfrwt beam="2">  1       -1 0.98085420E-01 0.23030398E+04</pdfrwt>
<totfact> 0.23670879E+00</totfact>
</mgrwt>
</event>
<event>
12    1  0.1518126E-007  0.1312135E+04  0.7818608E-02  0.9019997E-01
          2   -1    0    0  501    0  0.00000000000E+00  0.00000000000E+00  0.73723137524E+03  0.73723137524E+03  0.00000000000E+00 0. -1.
         -2   -1    0    0    0  501 -0.00000000000E+00 -0.00000000000E+00 -0.58383947160E+03  0.58383947160E+03  0.00000000000E+00 0.  1.
         23    2    1    2    0    0 -0.13768473973E+03  0.13134401841E+03 -0.24061680919E+03  0.32017507690E+03  0.91691287891E+02 0.  0.
        254    2    1    2    0    0  0.13768473973E+03 -0.13134401841E+03  0.39400871283E+03  0.10008957699E+04  0.90018950103E+03 0.  0.
        -24    2    4    4    0    0  0.16748053063E+03 -0.22362547021E+02 -0.26629160895E+03  0.32549799329E+03  0.80547569724E+02 0.  0.
         24    2    4    4    0    0 -0.29795790904E+02 -0.10898147138E+03  0.66030032178E+03  0.67539777665E+03  0.86028434251E+02 0.  0.
         13    1    3    3    0    0 -0.79781761100E+02  0.12945418450E+03 -0.18903094566E+03  0.24260299608E+03  0.00000000000E+00 0.  1.
        -13    1    3    3    0    0 -0.57902978629E+02  0.18898339055E+01 -0.51585863531E+02  0.77572080819E+02  0.00000000000E+00 0. -1.
          4    1    6    6  502    0 -0.21070465843E+02 -0.56339528748E+00  0.36193219631E+02  0.41883542022E+02  0.00000000000E+00 0. -1.
          1    1    5    5  503    0  0.16051860792E+02 -0.24508874494E+02 -0.17176616042E+02  0.33961497354E+02  0.00000000000E+00 0. -1.
         -2    1    5    5    0  503  0.15142866984E+03  0.21463274734E+01 -0.24911499291E+03  0.29153649594E+03  0.00000000000E+00 0.  1.
         -3    1    6    6    0  502 -0.87253250608E+01 -0.10841807610E+03  0.62410710215E+03  0.63351423463E+03  0.00000000000E+00 0.  1.
<mgrwt>
<rscale>  0 0.13121353E+04</rscale>
<asrwt>0</asrwt>
<pdfrwt beam="1">  1        2 0.11342021E+00 0.13121353E+04</pdfrwt>
<pdfrwt beam="2">  1       -2 0.89821458E-01 0.13121353E+04</pdfrwt>
<totfact> 0.39882774E+01</totfact>
</mgrwt>
</event>
<event>
12    1  0.1518126E-007  0.1595377E+04  0.7818608E-02  0.8823393E-01
          1   -1    0    0  501    0  0.00000000000E+00  0.00000000000E+00  0.29365971757E+03  0.29365971757E+03  0.00000000000E+00 0.  1.
         -1   -1    0    0    0  501 -0.00000000000E+00 -0.00000000000E+00 -0.21668171571E+04  0.21668171571E+04  0.00000000000E+00 0. -1.
         23    2    1    2    0    0  0.45914844083E+02  0.10166175701E+03 -0.14580417618E+04  0.14650994236E+04  0.90483458169E+02 0.  0.
        254    2    1    2    0    0 -0.45914844083E+02 -0.10166175701E+03 -0.41511567770E+03  0.99537745103E+03  0.89778168749E+03 0.  0.
        -24    2    4    4    0    0 -0.25405214113E+03 -0.16631080757E+03  0.17632573295E+03  0.36035709445E+03  0.81022813416E+02 0.  0.
         24    2    4    4    0    0  0.20813729705E+03  0.64649050557E+02 -0.59144141066E+03  0.63502035658E+03  0.77118589664E+02 0.  0.
         11    1    3    3    0    0 -0.16006686780E+02  0.63668426640E+02 -0.49724866552E+03  0.50156367286E+03  0.00000000000E+00 0.  1.
        -11    1    3    3    0    0  0.61921530862E+02  0.37993330368E+02 -0.96079309629E+03  0.96353575077E+03  0.00000000000E+00 0. -1.
          4    1    6    6  502    0  0.19588910718E+03  0.70284800391E+02 -0.58319372790E+03  0.61921516433E+03  0.00000000000E+00 0. -1.
          3    1    5    5  503    0 -0.17876312551E+03 -0.11801914535E+03  0.79355796298E+02  0.22843405201E+03  0.00000000000E+00 0. -1.
         -4    1    5    5    0  503 -0.75289015622E+02 -0.48291662219E+02  0.96969936654E+02  0.13192304244E+03  0.00000000000E+00 0.  1.
         -3    1    6    6    0  502  0.12248189864E+02 -0.56357498335E+01 -0.82476827593E+01  0.15805192249E+02  0.00000000000E+00 0.  1.
<mgrwt>
<rscale>  0 0.15953770E+04</rscale>
<asrwt>0</asrwt>
<pdfrwt beam="1">  1        1 0.45178418E-01 0.15953770E+04</pdfrwt>
<pdfrwt beam="2">  1       -1 0.33335649E+00 0.15953770E+04</pdfrwt>
<totfact> 0.17375435E+00</totfact>
</mgrwt>
</event>
<event>
12    1  0.1518126E-007  0.1239793E+04  0.7818608E-02  0.9078722E-01
          1   -1    0    0  501    0  0.00000000000E+00  0.00000000000E+00  0.14215348640E+04  0.14215348640E+04  0.00000000000E+00 0. -1.
         -1   -1    0    0    0  501 -0.00000000000E+00 -0.00000000000E+00 -0.27032164297E+03  0.27032164297E+03  0.00000000000E+00 0.  1.
         23    2    1    2    0    0 -0.75786623027E+02 -0.14631279582E+03 -0.40171315441E+02  0.19256621544E+03  0.91197402895E+02 0.  0.
        254    2    1    2    0    0  0.75786623027E+02  0.14631279582E+03  0.11913845365E+04  0.14992902916E+04  0.89516658681E+03 0.  0.
        -24    2    4    4    0    0  0.19765221650E+03 -0.24009347859E+03  0.98799464045E+03  0.10388184251E+04  0.79366450909E+02 0.  0.
         24    2    4    4    0    0 -0.12186559347E+03  0.38640627440E+03  0.20338989606E+03  0.46047186652E+03  0.80658900746E+02 0.  0.
         11    1    3    3    0    0 -0.84942204276E+02 -0.10035284916E+03 -0.98647581278E+00  0.13147944910E+03  0.00000000000E+00 0. -1.
        -11    1    3    3    0    0  0.91555812496E+01 -0.45959946655E+02 -0.39184839628E+02  0.61086766335E+02  0.00000000000E+00 0.  1.
          4    1    6    6  502    0 -0.13146038344E+03  0.33034702608E+03  0.18435334611E+03  0.40049612517E+03  0.00000000000E+00 0. -1.
          3    1    5    5  503    0  0.13955640396E+03 -0.16229974533E+03  0.78718480389E+03  0.81576780562E+03  0.00000000000E+00 0. -1.
         -4    1    5    5    0  503  0.58095812536E+02 -0.77793733260E+02  0.20080983656E+03  0.22305061943E+03  0.00000000000E+00 0.  1.
         -3    1    6    6    0  502  0.95947899652E+01  0.56059248321E+02  0.19036549951E+02  0.59975741353E+02  0.00000000000E+00 0.  1.
<mgrwt>
<rscale>  0 0.12397930E+04</rscale>
<asrwt>0</asrwt>
<pdfrwt beam="1">  1        1 0.21869767E+00 0.12397930E+04</pdfrwt>
<pdfrwt beam="2">  1       -1 0.41587946E-01 0.12397930E+04</pdfrwt>
<totfact> 0.41508104E+01</totfact>
</mgrwt>
</event>
<event>
12    1  0.1518126E-007  0.1702273E+04  0.7818608E-02  0.8760069E-01
         -1   -1    0    0    0  501 -0.00000000000E+00  0.00000000000E+00  0.71740561571E+03  0.71740561571E+03  0.00000000000E+00 0.  1.
          1   -1    0    0  501    0  0.00000000000E+00 -0.00000000000E+00 -0.10097960860E+04  0.10097960860E+04  0.00000000000E+00 0. -1.
         23    2    1    2    0    0  0.15648312921E+03  0.44953708959E+03 -0.48742869818E+03  0.68732896772E+03  0.90905497155E+02 0.  0.
        254    2    1    2    0    0 -0.15648312921E+03 -0.44953708959E+03  0.19503822788E+03  0.10398727340E+04  0.90372829321E+03 0.  0.
        -24    2    4    4    0    0  0.34675406561E+03 -0.39758550694E+02 -0.23314430024E+00  0.35708107844E+03  0.75416960023E+02 0.  0.
         24    2    4    4    0    0 -0.50323719481E+03 -0.40977853890E+03  0.19527137218E+03  0.68279165556E+03  0.83110835205E+02 0.  0.
         13    1    3    3    0    0  0.16349631669E+03  0.37686584184E+03 -0.42734711099E+03  0.59277690710E+03  0.00000000000E+00 0. -1.
        -13    1    3    3    0    0 -0.70131874873E+01  0.72671247746E+02 -0.60081587186E+02  0.94552060615E+02  0.00000000000E+00 0.  1.
          2    1    6    6  502    0 -0.27453581702E+03 -0.25779922359E+03  0.80129427273E+02  0.38503386816E+03  0.00000000000E+00 0. -1.
          1    1    5    5  503    0  0.12181484306E+03  0.20955911793E+02 -0.89607688787E+01  0.12392861496E+03  0.00000000000E+00 0. -1.
         -2    1    5    5    0  503  0.22493922255E+03 -0.60714462487E+02  0.87276245785E+01  0.23315246348E+03  0.00000000000E+00 0.  1.
         -1    1    6    6    0  502 -0.22870137779E+03 -0.15197931530E+03  0.11514194490E+03  0.29775778740E+03  0.00000000000E+00 0.  1.
<mgrwt>
<rscale>  0 0.17022730E+04</rscale>
<asrwt>0</asrwt>
<pdfrwt beam="1">  1        1 0.15535324E+00 0.17022730E+04</pdfrwt>
<pdfrwt beam="2">  1       -1 0.11037009E+00 0.17022730E+04</pdfrwt>
<totfact> 0.10711521E+01</totfact>
</mgrwt>
</event>
<event>
12    1  0.1635247E-007  0.1431677E+04  0.7818608E-02  0.8931203E-01
          2   -1    0    0  501    0  0.00000000000E+00  0.00000000000E+00  0.11331233252E+04  0.11331233252E+04  0.00000000000E+00 0. -1.
         -2   -1    0    0    0  501 -0.00000000000E+00 -0.00000000000E+00 -0.45222347461E+03  0.45222347461E+03  0.00000000000E+00 0.  1.
         23    2    1    2    0    0  0.16510378140E+03 -0.17632916871E+03 -0.14112972237E+03  0.29400016127E+03  0.90372904783E+02 0.  0.
        254    2    1    2    0    0 -0.16510378140E+03  0.17632916871E+03  0.82202957294E+03  0.12913466385E+04  0.96617404627E+03 0.  0.
        -24    2    4    4    0    0 -0.38640103080E+03  0.43563635275E+03  0.71422058143E+03  0.92508156840E+03  0.81117697249E+02 0.  0.
         24    2    4    4    0    0  0.22129724940E+03 -0.25930718404E+03  0.10780899151E+03  0.36626507013E+03  0.79464675570E+02 0.  0.
         13    1    3    3    0    0  0.15214216529E+03 -0.17968238286E+03 -0.14884689167E+03  0.27854693380E+03  0.00000000000E+00 0.  1.
        -13    1    3    3    0    0  0.12961616106E+02  0.33532141521E+01  0.77171692953E+01  0.15453227468E+02  0.00000000000E+00 0. -1.
          2    1    6    6  502    0 -0.49562436815E+01 -0.13154515194E+02  0.11967338487E+02  0.18461387052E+02  0.00000000000E+00 0. -1.
          1    1    5    5  503    0 -0.21194329460E+02  0.14884903935E+02  0.62625549039E+02  0.67769604978E+02  0.00000000000E+00 0. -1.
         -2    1    5    5    0  503 -0.36520670134E+03  0.42075144881E+03  0.65159503240E+03  0.85731196342E+03  0.00000000000E+00 0.  1.
         -1    1    6    6    0  502  0.22625349308E+03 -0.24615266884E+03  0.95841653018E+02  0.34780368308E+03  0.00000000000E+00 0.  1.
<mgrwt>
<rscale>  0 0.14316773E+04</rscale>
<asrwt>0</asrwt>
<pdfrwt beam="1">  1        2 0.17432666E+00 0.14316773E+04</pdfrwt>
<pdfrwt beam="2">  1       -2 0.69572843E-01 0.14316773E+04</pdfrwt>
<totfact> 0.38037285E+01</totfact>
</mgrwt>
</event>
<event>
12    1  0.1518126E-007  0.1569549E+04  0.7818608E-02  0.8839477E-01
         -2   -1    0    0    0  501 -0.00000000000E+00  0.00000000000E+00  0.60989075038E+03  0.60989075038E+03  0.00000000000E+00 0.  1.
          2   -1    0    0  501    0  0.00000000000E+00 -0.00000000000E+00 -0.10098054278E+04  0.10098054278E+04  0.00000000000E+00 0. -1.
         23    2    1    2    0    0 -0.30346289463E+03  0.21886496614E+02  0.30885067904E+03  0.44373631692E+03  0.94574995963E+02 0.  0.
        254    2    1    2    0    0  0.30346289463E+03 -0.21886496614E+02 -0.70876535648E+03  0.11759598613E+04  0.88767365492E+03 0.  0.
        -24    2    4    4    0    0  0.89018532595E+02  0.15953937388E+03  0.16242440808E+03  0.25712816955E+03  0.79725129524E+02 0.  0.
         24    2    4    4    0    0  0.21444436204E+03 -0.18142587049E+03 -0.87118976456E+03  0.91883169173E+03  0.79864516283E+02 0.  0.
         13    1    3    3    0    0 -0.21303329135E+03  0.53911435431E+02  0.24154322734E+03  0.32654671452E+03  0.00000000000E+00 0.  1.
        -13    1    3    3    0    0 -0.90429603283E+02 -0.32024938817E+02  0.67307451702E+02  0.11718960240E+03  0.00000000000E+00 0. -1.
          4    1    6    6  502    0  0.22077448853E+03 -0.17834327765E+03 -0.85991250167E+03  0.90553697329E+03  0.00000000000E+00 0. -1.
          3    1    5    5  503    0  0.77081254007E+02  0.13244219378E+03  0.16757144052E+03  0.22707408943E+03  0.00000000000E+00 0. -1.
         -4    1    5    5    0  503  0.11937278588E+02  0.27097180095E+02 -0.51470324427E+01  0.30054080125E+02  0.00000000000E+00 0.  1.
         -3    1    6    6    0  502 -0.63301264952E+01 -0.30825928424E+01 -0.11277262887E+02  0.13294718436E+02  0.00000000000E+00 0.  1.
<mgrwt>
<rscale>  0 0.15695490E+04</rscale>
<asrwt>0</asrwt>
<pdfrwt beam="1">  1        2 0.15535468E+00 0.15695490E+04</pdfrwt>
<pdfrwt beam="2">  1       -2 0.93829347E-01 0.15695490E+04</pdfrwt>
<totfact> 0.22897590E+01</totfact>
</mgrwt>
</event>
<event>
12    1  0.1518126E-007  0.1790739E+04  0.7818608E-02  0.8711240E-01
         -2   -1    0    0    0  501 -0.00000000000E+00  0.00000000000E+00  0.18281538190E+04  0.18281538190E+04  0.00000000000E+00 0.  1.
          2   -1    0    0  501    0  0.00000000000E+00 -0.00000000000E+00 -0.43852259140E+03  0.43852259140E+03  0.00000000000E+00 0. -1.
         23    2    1    2    0    0  0.59737665590E+03 -0.94314093922E+02  0.86577757204E+03  0.10609231721E+04  0.10115906074E+03 0.  0.
        254    2    1    2    0    0 -0.59737665590E+03  0.94314093922E+02  0.52385365554E+03  0.12057532383E+04  0.90203337069E+03 0.  0.
        -24    2    4    4    0    0 -0.32243749481E+03 -0.23967215417E+03 -0.11905164208E+03  0.42664021530E+03  0.80248989315E+02 0.  0.
         24    2    4    4    0    0 -0.27493916109E+03  0.33398624809E+03  0.64290529763E+03  0.77911302297E+03  0.80941488908E+02 0.  0.
         13    1    3    3    0    0  0.25876091563E+03 -0.38479510158E+01  0.42759359398E+03  0.49980826304E+03  0.00000000000E+00 0.  1.
        -13    1    3    3    0    0  0.33861574027E+03 -0.90466142906E+02  0.43818397806E+03  0.56111490909E+03  0.00000000000E+00 0. -1.
          2    1    6    6  502    0 -0.27841959096E+02  0.74344174417E+02  0.88027561849E+02  0.11853726250E+03  0.00000000000E+00 0. -1.
          3    1    5    5  503    0  0.38536247702E+01 -0.18267065680E+01  0.25253914101E+01  0.49562972600E+01  0.00000000000E+00 0. -1.
         -4    1    5    5    0  503 -0.32629111958E+03 -0.23784544760E+03 -0.12157703349E+03  0.42168391804E+03  0.00000000000E+00 0.  1.
         -1    1    6    6    0  502 -0.24709720199E+03  0.25964207367E+03  0.55487773578E+03  0.66057576047E+03  0.00000000000E+00 0.  1.
<mgrwt>
<rscale>  0 0.17907392E+04</rscale>
<asrwt>0</asrwt>
<pdfrwt beam="1">  1        2 0.67465015E-01 0.17907392E+04</pdfrwt>
<pdfrwt beam="2">  1       -2 0.28125443E+00 0.17907392E+04</pdfrwt>
<totfact> 0.28030828E+00</totfact>
</mgrwt>
</event>
<event>
12    1  0.1518126E-007  0.2311356E+04  0.7818608E-02  0.8473457E-01
          2   -1    0    0  501    0  0.00000000000E+00  0.00000000000E+00  0.15544707834E+04  0.15544707834E+04  0.00000000000E+00 0. -1.
         -2   -1    0    0    0  501 -0.00000000000E+00 -0.00000000000E+00 -0.85919382094E+03  0.85919382094E+03  0.00000000000E+00 0.  1.
         23    2    1    2    0    0  0.29691864305E+03 -0.80460833443E+03 -0.18630864489E+03  0.88267763363E+03  0.94093790073E+02 0.  0.
        254    2    1    2    0    0 -0.29691864305E+03  0.80460833443E+03  0.88158560739E+03  0.15309869708E+04  0.91168671650E+03 0.  0.
        -24    2    4    4    0    0 -0.17597349542E+02  0.14533914643E+03  0.78645808409E+03  0.80439347217E+03  0.84257971921E+02 0.  0.
         24    2    4    4    0    0 -0.27932129351E+03  0.65926918800E+03  0.95127523300E+02  0.72659349859E+03  0.78946939431E+02 0.  0.
         13    1    3    3    0    0  0.62914872752E+00  0.11639518833E+01 -0.50649548327E+01  0.52349192510E+01  0.00000000000E+00 0.  1.
        -13    1    3    3    0    0  0.29628949432E+03 -0.80577228631E+03 -0.18124369006E+03  0.87744271438E+03  0.00000000000E+00 0. -1.
          4    1    6    6  502    0 -0.86666564800E+02  0.22167673199E+03 -0.51267658753E+01  0.23807131429E+03  0.00000000000E+00 0. -1.
          1    1    5    5  503    0 -0.41816329020E+02  0.10912818855E+03  0.44188944958E+03  0.45708188824E+03  0.00000000000E+00 0. -1.
         -2    1    5    5    0  503  0.24218979478E+02  0.36210957878E+02  0.34456863451E+03  0.34731158392E+03  0.00000000000E+00 0.  1.
         -3    1    6    6    0  502 -0.19265472871E+03  0.43759245601E+03  0.10025428918E+03  0.48852218430E+03  0.00000000000E+00 0.  1.
<mgrwt>
<rscale>  0 0.23113560E+04</rscale>
<asrwt>0</asrwt>
<pdfrwt beam="1">  1        2 0.23914935E+00 0.23113560E+04</pdfrwt>
<pdfrwt beam="2">  1       -2 0.13218367E+00 0.23113560E+04</pdfrwt>
<totfact> 0.44607120E+00</totfact>
</mgrwt>
</event>
<event>
12    1  0.1518126E-007  0.2032595E+04  0.7818608E-02  0.8591531E-01
         -1   -1    0    0    0  501 -0.00000000000E+00  0.00000000000E+00  0.51841243228E+03  0.51841243228E+03  0.00000000000E+00 0.  1.
          1   -1    0    0  501    0  0.00000000000E+00 -0.00000000000E+00 -0.19923528628E+04  0.19923528628E+04  0.00000000000E+00 0. -1.
         23    2    1    2    0    0 -0.29820063541E+03 -0.70831582115E+03 -0.94557677261E+03  0.12220311284E+04  0.92788600282E+02 0.  0.
        254    2    1    2    0    0  0.29820063541E+03  0.70831582115E+03 -0.52836365786E+03  0.12887341667E+04  0.88940017761E+03 0.  0.
        -24    2    4    4    0    0  0.39659998542E+03  0.54469215339E+02 -0.46721445930E+03  0.61991118813E+03  0.75776555261E+02 0.  0.
         24    2    4    4    0    0 -0.98399350014E+02  0.65384660581E+03 -0.61149198554E+02  0.66882297854E+03  0.79919560330E+02 0.  0.
         11    1    3    3    0    0  0.67407690886E+00 -0.45629480537E+02 -0.39375473555E+02  0.60273806844E+02  0.00000000000E+00 0.  1.
        -11    1    3    3    0    0 -0.29887471232E+03 -0.66268634061E+03 -0.90620129906E+03  0.11617573215E+04  0.00000000000E+00 0. -1.
          2    1    6    6  502    0 -0.42635136060E+02  0.47482381368E+03 -0.65830112311E+02  0.48125774025E+03  0.00000000000E+00 0. -1.
          3    1    5    5  503    0  0.37485836516E+03  0.32650596318E+02 -0.42468946816E+03  0.56740285489E+03  0.00000000000E+00 0. -1.
         -2    1    5    5    0  503  0.21741620257E+02  0.21818619022E+02 -0.42524991141E+02  0.52508333234E+02  0.00000000000E+00 0.  1.
         -1    1    6    6    0  502 -0.55764213954E+02  0.17902279213E+03  0.46809137564E+01  0.18756523829E+03  0.00000000000E+00 0.  1.
<mgrwt>
<rscale>  0 0.20325949E+04</rscale>
<asrwt>0</asrwt>
<pdfrwt beam="1">  1        1 0.30651583E+00 0.20325949E+04</pdfrwt>
<pdfrwt beam="2">  1       -1 0.79755758E-01 0.20325949E+04</pdfrwt>
<totfact> 0.43798558E+00</totfact>
</mgrwt>
</event>
<event>
12    1  0.1518126E-007  0.2716247E+04  0.7818608E-02  0.8329753E-01
          2   -1    0    0  501    0  0.00000000000E+00  0.00000000000E+00  0.99294119215E+03  0.99294119215E+03  0.00000000000E+00 0. -1.
         -2   -1    0    0    0  501 -0.00000000000E+00 -0.00000000000E+00 -0.18576113126E+04  0.18576113126E+04  0.00000000000E+00 0.  1.
         23    2    1    2    0    0 -0.41772583321E+03  0.15367813958E+03  0.79627168530E+03  0.91700900280E+03  0.93515090216E+02 0.  0.
        254    2    1    2    0    0  0.41772583321E+03 -0.15367813958E+03 -0.16609418057E+04  0.19335435019E+04  0.88416681092E+03 0.  0.
        -24    2    4    4    0    0 -0.10144670486E+02 -0.35066638799E+03 -0.23611178760E+03  0.43071762871E+03  0.81847843155E+02 0.  0.
         24    2    4    4    0    0  0.42787050369E+03  0.19698824841E+03 -0.14248300181E+04  0.15028258732E+04  0.80420686056E+02 0.  0.
         13    1    3    3    0    0 -0.40445990926E+02 -0.29730540242E+01  0.12283173536E+03  0.12935359463E+03  0.00000000000E+00 0.  1.
        -13    1    3    3    0    0 -0.37727984228E+03  0.15665119360E+03  0.67343994994E+03  0.78765540817E+03  0.00000000000E+00 0. -1.
          4    1    6    6  502    0  0.10697823027E+03  0.67440480005E+02 -0.28922022365E+03  0.31565946503E+03  0.00000000000E+00 0. -1.
          1    1    5    5  503    0 -0.85066395207E+01 -0.32643734424E+01 -0.18938763772E+02  0.21016560687E+02  0.00000000000E+00 0. -1.
         -2    1    5    5    0  503 -0.16380309651E+01 -0.34740201455E+03 -0.21717302383E+03  0.40970106802E+03  0.00000000000E+00 0.  1.
         -3    1    6    6    0  502  0.32089227342E+03  0.12954776841E+03 -0.11356097945E+04  0.11871664082E+04  0.00000000000E+00 0.  1.
<mgrwt>
<rscale>  0 0.27162465E+04</rscale>
<asrwt>0</asrwt>
<pdfrwt beam="1">  1        2 0.15276018E+00 0.27162465E+04</pdfrwt>
<pdfrwt beam="2">  1       -2 0.28578635E+00 0.27162465E+04</pdfrwt>
<totfact> 0.86579845E-01</totfact>
</mgrwt>
</event>
<event>
12    1  0.1518126E-007  0.1361959E+04  0.7818608E-02  0.8981824E-01
          2   -1    0    0  501    0  0.00000000000E+00  0.00000000000E+00  0.77303062236E+03  0.77303062236E+03  0.00000000000E+00 0. -1.
         -2   -1    0    0    0  501 -0.00000000000E+00 -0.00000000000E+00 -0.59989000694E+03  0.59989000694E+03  0.00000000000E+00 0.  1.
         23    2    1    2    0    0  0.23294107836E+03 -0.25583493301E+03 -0.11270685906E+03  0.37447071942E+03  0.88387921606E+02 0.  0.
        254    2    1    2    0    0 -0.23294107836E+03  0.25583493301E+03  0.28584747447E+03  0.99844990988E+03  0.89189707082E+03 0.  0.
        -24    2    4    4    0    0 -0.51384542052E+03  0.19321558973E+02  0.33593574007E+03  0.61924985597E+03  0.78785302159E+02 0.  0.
         24    2    4    4    0    0  0.28090434215E+03  0.23651337404E+03 -0.50088265599E+02  0.37920005391E+03  0.80237279305E+02 0.  0.
         13    1    3    3    0    0  0.19794473400E+03 -0.24637786283E+03 -0.80878046889E+02  0.32622910275E+03  0.00000000000E+00 0.  1.
        -13    1    3    3    0    0  0.34996344365E+02 -0.94570701862E+01 -0.31828812169E+02  0.48241616676E+02  0.00000000000E+00 0. -1.
          2    1    6    6  502    0  0.11503711462E+03  0.13823394916E+03 -0.49017669248E+02  0.18639982387E+03  0.00000000000E+00 0. -1.
          1    1    5    5  503    0 -0.42736242091E+03 -0.49625923536E+01  0.30155858897E+03  0.52306868451E+03  0.00000000000E+00 0. -1.
         -2    1    5    5    0  503 -0.86482999607E+02  0.24284151326E+02  0.34377151100E+02  0.96181171465E+02  0.00000000000E+00 0.  1.
         -1    1    6    6    0  502  0.16586722753E+03  0.98279424877E+02 -0.10705963507E+01  0.19280023003E+03  0.00000000000E+00 0.  1.
<mgrwt>
<rscale>  0 0.13619594E+04</rscale>
<asrwt>0</asrwt>
<pdfrwt beam="1">  1        2 0.11892779E+00 0.13619594E+04</pdfrwt>
<pdfrwt beam="2">  1       -2 0.92290770E-01 0.13619594E+04</pdfrwt>
<totfact> 0.35086707E+01</totfact>
</mgrwt>
</event>
<event>
12    1  0.1518126E-007  0.1766174E+04  0.7818608E-02  0.8724497E-01
         -2   -1    0    0    0  501 -0.00000000000E+00  0.00000000000E+00  0.34094827512E+03  0.34094827512E+03  0.00000000000E+00 0.  1.
          2   -1    0    0  501    0  0.00000000000E+00 -0.00000000000E+00 -0.22872759360E+04  0.22872759360E+04  0.00000000000E+00 0. -1.
         23    2    1    2    0    0  0.65718374171E+03  0.85625519646E+02 -0.66789644922E+03  0.94540744814E+03  0.92126956648E+02 0.  0.
        254    2    1    2    0    0 -0.65718374171E+03 -0.85625519646E+02 -0.12784312116E+04  0.16828167630E+04  0.87078337996E+03 0.  0.
        -24    2    4    4    0    0 -0.19697383824E+03 -0.44751387227E+03 -0.68420963448E+03  0.84472546607E+03  0.79692724151E+02 0.  0.
         24    2    4    4    0    0 -0.46020990347E+03  0.36188835262E+03 -0.59422157716E+03  0.83809129689E+03  0.80878947483E+02 0.  0.
         13    1    3    3    0    0  0.64879641350E+03  0.73505711242E+02 -0.64253226987E+03  0.91607182774E+03  0.00000000000E+00 0. -1.
        -13    1    3    3    0    0  0.83873282049E+01  0.12119808404E+02 -0.25364179343E+02  0.29335620394E+02  0.00000000000E+00 0.  1.
          4    1    6    6  502    0 -0.45429763475E+03  0.34723621196E+03 -0.59025062262E+03  0.82179993024E+03  0.00000000000E+00 0. -1.
          3    1    5    5  503    0 -0.17599803844E+02 -0.12602539990E+03 -0.17411523804E+03  0.21565776275E+03  0.00000000000E+00 0. -1.
         -4    1    5    5    0  503 -0.17937403439E+03 -0.32148847237E+03 -0.51009439644E+03  0.62906770332E+03  0.00000000000E+00 0.  1.
         -3    1    6    6    0  502 -0.59122687191E+01  0.14652140663E+02 -0.39709545375E+01  0.16291366651E+02  0.00000000000E+00 0.  1.
<mgrwt>
<rscale>  0 0.17661742E+04</rscale>
<asrwt>0</asrwt>
<pdfrwt beam="1">  1        2 0.35188859E+00 0.17661742E+04</pdfrwt>
<pdfrwt beam="2">  1       -2 0.52453583E-01 0.17661742E+04</pdfrwt>
<totfact> 0.14974855E+01</totfact>
</mgrwt>
</event>
<event>
12    1  0.1518126E-007  0.2451865E+04  0.7818608E-02  0.8420337E-01
         -2   -1    0    0    0  501 -0.00000000000E+00  0.00000000000E+00  0.43902427330E+03  0.43902427330E+03  0.00000000000E+00 0. -1.
          2   -1    0    0  501    0  0.00000000000E+00 -0.00000000000E+00 -0.34232965981E+04  0.34232965981E+04  0.00000000000E+00 0.  1.
         23    2    1    2    0    0  0.17522345618E+03 -0.20156412259E+03  0.31907337182E+03  0.42567049737E+03  0.89756340262E+02 0.  0.
        254    2    1    2    0    0 -0.17522345618E+03  0.20156412259E+03 -0.33033456966E+04  0.34366503740E+04  0.90947327985E+03 0.  0.
        -24    2    4    4    0    0 -0.54061221140E+03  0.16982246728E+03 -0.19989536738E+04  0.20792674226E+04  0.80224629676E+02 0.  0.
         24    2    4    4    0    0  0.36538875522E+03  0.31741655319E+02 -0.13043920228E+04  0.13573829514E+04  0.80829774666E+02 0.  0.
         11    1    3    3    0    0 -0.24598593821E+01  0.49862270178E+01 -0.65487040711E+00  0.55984125699E+01  0.00000000000E+00 0.  1.
        -11    1    3    3    0    0  0.17768331557E+03 -0.20655034961E+03  0.31972824222E+03  0.42007208480E+03  0.00000000000E+00 0. -1.
          4    1    6    6  502    0  0.17830549188E+03  0.22068634362E+02 -0.49508103574E+03  0.52667362285E+03  0.00000000000E+00 0. -1.
          3    1    5    5  503    0 -0.27525433268E+03  0.10870100839E+03 -0.11639975554E+04  0.12010292111E+04  0.00000000000E+00 0. -1.
         -4    1    5    5    0  503 -0.26535787873E+03  0.61121458884E+02 -0.83495611841E+03  0.87823821154E+03  0.00000000000E+00 0.  1.
         -3    1    6    6    0  502  0.18708326333E+03  0.96730209567E+01 -0.80931098703E+03  0.83070932852E+03  0.00000000000E+00 0.  1.
<mgrwt>
<rscale>  0 0.24518648E+04</rscale>
<asrwt>0</asrwt>
<pdfrwt beam="1">  1        2 0.52666103E+00 0.24518648E+04</pdfrwt>
<pdfrwt beam="2">  1       -2 0.67542194E-01 0.24518648E+04</pdfrwt>
<totfact> 0.16557309E+00</totfact>
</mgrwt>
</event>
<event>
12    1  0.1518126E-007  0.1424843E+04  0.7818608E-02  0.8936030E-01
          2   -1    0    0  501    0  0.00000000000E+00  0.00000000000E+00  0.20339771048E+04  0.20339771048E+04  0.00000000000E+00 0. -1.
         -2   -1    0    0    0  501 -0.00000000000E+00 -0.00000000000E+00 -0.24953282181E+03  0.24953282181E+03  0.00000000000E+00 0.  1.
         23    2    1    2    0    0 -0.12496464230E+03 -0.27550722430E+03  0.10005539262E+04  0.10491764392E+04  0.90236626248E+02 0.  0.
        254    2    1    2    0    0  0.12496464230E+03  0.27550722430E+03  0.78389035674E+03  0.12343334874E+04  0.90419836007E+03 0.  0.
        -24    2    4    4    0    0 -0.76782065088E+02 -0.27433508911E+03  0.49374784989E+03  0.57587740910E+03  0.81808461670E+02 0.  0.
         24    2    4    4    0    0  0.20174670738E+03  0.54984231341E+03  0.29014250686E+03  0.65845607834E+03  0.79708401430E+02 0.  0.
         13    1    3    3    0    0 -0.89385325173E+01 -0.12386152729E+03  0.36388478596E+03  0.38449149894E+03  0.00000000000E+00 0.  1.
        -13    1    3    3    0    0 -0.11602610978E+03 -0.15164569701E+03  0.63666914027E+03  0.66468494021E+03  0.00000000000E+00 0. -1.
          4    1    6    6  502    0  0.17202131799E+03  0.41351193459E+03  0.18895238147E+03  0.48609305319E+03  0.00000000000E+00 0. -1.
          3    1    5    5  503    0 -0.62065213416E+02 -0.26619039577E+03  0.42658295052E+03  0.50663836332E+03  0.00000000000E+00 0. -1.
         -4    1    5    5    0  503 -0.14716851672E+02 -0.81446933487E+01  0.67164899367E+02  0.69239045775E+02  0.00000000000E+00 0.  1.
         -3    1    6    6    0  502  0.29725389390E+02  0.13633037882E+03  0.10119012539E+03  0.17236302515E+03  0.00000000000E+00 0.  1.
<mgrwt>
<rscale>  0 0.14248425E+04</rscale>
<asrwt>0</asrwt>
<pdfrwt beam="1">  1        2 0.31291954E+00 0.14248425E+04</pdfrwt>
<pdfrwt beam="2">  1       -2 0.38389666E-01 0.14248425E+04</pdfrwt>
<totfact> 0.39852149E+01</totfact>
</mgrwt>
</event>
<event>
12    1  0.1518126E-007  0.2163442E+04  0.7818608E-02  0.8533800E-01
         -2   -1    0    0    0  501 -0.00000000000E+00  0.00000000000E+00  0.45208957541E+03  0.45208957541E+03  0.00000000000E+00 0.  1.
          2   -1    0    0  501    0  0.00000000000E+00 -0.00000000000E+00 -0.25882480315E+04  0.25882480315E+04  0.00000000000E+00 0. -1.
         23    2    1    2    0    0  0.35967296060E+03  0.80111640228E+03 -0.11340237402E+04  0.14370537769E+04  0.89227719357E+02 0.  0.
        254    2    1    2    0    0 -0.35967296060E+03 -0.80111640228E+03 -0.10021347159E+04  0.16032838300E+04  0.89167983159E+03 0.  0.
        -24    2    4    4    0    0  0.16952018669E+03 -0.52506614295E+03 -0.18287208921E+03  0.58694770649E+03  0.81448517347E+02 0.  0.
         24    2    4    4    0    0 -0.52919314729E+03 -0.27605025934E+03 -0.81926262671E+03  0.10163361235E+04  0.74153432804E+02 0.  0.
         13    1    3    3    0    0  0.62039918494E+02  0.92461782549E+02 -0.10855468431E+03  0.15550643783E+03  0.00000000000E+00 0.  1.
        -13    1    3    3    0    0  0.29763304211E+03  0.70865461974E+03 -0.10254690559E+04  0.12815473391E+04  0.00000000000E+00 0. -1.
          4    1    6    6  502    0 -0.46178469114E+03 -0.23562705081E+03 -0.74896443844E+03  0.91088579860E+03  0.00000000000E+00 0. -1.
          1    1    5    5  503    0  0.17189503040E+03 -0.45686938303E+03 -0.14663940675E+03  0.50968681584E+03  0.00000000000E+00 0. -1.
         -2    1    5    5    0  503 -0.23748437170E+01 -0.68196759920E+02 -0.36232682464E+02  0.77260890655E+02  0.00000000000E+00 0.  1.
         -3    1    6    6    0  502 -0.67408456148E+02 -0.40423208525E+02 -0.70298188265E+02  0.10545032490E+03  0.00000000000E+00 0.  1.
<mgrwt>
<rscale>  0 0.21634417E+04</rscale>
<asrwt>0</asrwt>
<pdfrwt beam="1">  1        2 0.39819200E+00 0.21634417E+04</pdfrwt>
<pdfrwt beam="2">  1       -2 0.69552244E-01 0.21634417E+04</pdfrwt>
<totfact> 0.53455344E+00</totfact>
</mgrwt>
</event>
<event>
12    1  0.1518126E-007  0.2090198E+04  0.7818608E-02  0.8565574E-01
          1   -1    0    0  501    0  0.00000000000E+00  0.00000000000E+00  0.95520104340E+03  0.95520104340E+03  0.00000000000E+00 0. -1.
         -1   -1    0    0    0  501 -0.00000000000E+00 -0.00000000000E+00 -0.11434577147E+04  0.11434577147E+04  0.00000000000E+00 0.  1.
         23    2    1    2    0    0 -0.92200045099E+02 -0.27971557694E+03 -0.89265740807E+03  0.94432351942E+03  0.90377037199E+02 0.  0.
        254    2    1    2    0    0  0.92200045099E+02  0.27971557694E+03  0.70440073678E+03  0.11543352387E+04  0.86577583298E+03 0.  0.
        -24    2    4    4    0    0 -0.18036048186E+03  0.48758078867E+03  0.25742632621E+03  0.58528141644E+03  0.77595709319E+02 0.  0.
         24    2    4    4    0    0  0.27256052696E+03 -0.20786521173E+03  0.44697441057E+03  0.56905382224E+03  0.80863723619E+02 0.  0.
         13    1    3    3    0    0 -0.48670443857E+02 -0.14646139848E+03 -0.32756758601E+03  0.36210533931E+03  0.00000000000E+00 0. -1.
        -13    1    3    3    0    0 -0.43529601242E+02 -0.13325417846E+03 -0.56508982206E+03  0.58221818011E+03  0.00000000000E+00 0.  1.
          4    1    6    6  502    0  0.77868738178E+02 -0.17777751632E+02  0.93235800358E+02  0.12277012384E+03  0.00000000000E+00 0. -1.
          1    1    5    5  503    0 -0.48348223510E+02  0.12487387297E+03  0.10550135490E+03  0.17047454576E+03  0.00000000000E+00 0. -1.
         -2    1    5    5    0  503 -0.13201225835E+03  0.36270691570E+03  0.15192497131E+03  0.41480687067E+03  0.00000000000E+00 0.  1.
         -3    1    6    6    0  502  0.19469178878E+03 -0.19008746010E+03  0.35373861021E+03  0.44628369840E+03  0.00000000000E+00 0.  1.
<mgrwt>
<rscale>  0 0.20901981E+04</rscale>
<asrwt>0</asrwt>
<pdfrwt beam="1">  1        1 0.14695401E+00 0.20901981E+04</pdfrwt>
<pdfrwt beam="2">  1       -1 0.17591657E+00 0.20901981E+04</pdfrwt>
<totfact> 0.33658774E+00</totfact>
</mgrwt>
</event>
<event>
12    1  0.1518126E-007  0.1093251E+04  0.7818608E-02  0.9211795E-01
          1   -1    0    0  501    0  0.00000000000E+00  0.00000000000E+00  0.78555607499E+03  0.78555607499E+03  0.00000000000E+00 0. -1.
         -1   -1    0    0    0  501 -0.00000000000E+00 -0.00000000000E+00 -0.38036701284E+03  0.38036701284E+03  0.00000000000E+00 0.  1.
         23    2    1    2    0    0 -0.36852894139E+02 -0.13479607535E+03  0.53129177545E+01  0.16551427589E+03  0.88536041766E+02 0.  0.
        254    2    1    2    0    0  0.36852894139E+02  0.13479607535E+03  0.39987614439E+03  0.10004088119E+04  0.90630499416E+03 0.  0.
        -24    2    4    4    0    0 -0.81090923871E+01  0.22592894538E+02 -0.28669111082E+03  0.29881898552E+03  0.80776214435E+02 0.  0.
         24    2    4    4    0    0  0.44961986526E+02  0.11220318081E+03  0.68656725521E+03  0.70158982643E+03  0.79009838630E+02 0.  0.
         11    1    3    3    0    0 -0.29803217992E+02 -0.14674361490E+03  0.11792776625E+02  0.15020316207E+03  0.00000000000E+00 0.  1.
        -11    1    3    3    0    0 -0.70496761469E+01  0.11947539553E+02 -0.64798588709E+01  0.15311113811E+02  0.00000000000E+00 0. -1.
          2    1    6    6  502    0  0.20586823688E+02  0.98413495396E+02  0.35858416746E+03  0.37241326311E+03  0.00000000000E+00 0. -1.
          3    1    5    5  503    0  0.25718742768E+02  0.26692013354E+02 -0.22766959273E+03  0.23066720782E+03  0.00000000000E+00 0. -1.
         -4    1    5    5    0  503 -0.33827835155E+02 -0.40991188160E+01 -0.59021518089E+02  0.68151777701E+02  0.00000000000E+00 0.  1.
         -1    1    6    6    0  502  0.24375162838E+02  0.13789685413E+02  0.32798308775E+03  0.32917656332E+03  0.00000000000E+00 0.  1.
<mgrwt>
<rscale>  0 0.10932513E+04</rscale>
<asrwt>0</asrwt>
<pdfrwt beam="1">  1        1 0.12085478E+00 0.10932513E+04</pdfrwt>
<pdfrwt beam="2">  1       -1 0.58518002E-01 0.10932513E+04</pdfrwt>
<totfact> 0.67161415E+01</totfact>
</mgrwt>
</event>
<event>
12    1  0.1518126E-007  0.1325605E+04  0.7818608E-02  0.9009503E-01
          2   -1    0    0  501    0  0.00000000000E+00  0.00000000000E+00  0.69193954634E+03  0.69193954634E+03  0.00000000000E+00 0. -1.
         -2   -1    0    0    0  501 -0.00000000000E+00 -0.00000000000E+00 -0.63489275487E+03  0.63489275487E+03  0.00000000000E+00 0.  1.
         23    2    1    2    0    0 -0.10617865642E+03 -0.16047281988E+03 -0.25407222109E+03  0.33249231216E+03  0.94725979129E+02 0.  0.
        254    2    1    2    0    0  0.10617865642E+03  0.16047281988E+03  0.31111901256E+03  0.99433998904E+03  0.92460345059E+03 0.  0.
        -24    2    4    4    0    0 -0.26686814827E+03  0.21095599977E+03  0.46415805902E+03  0.58008906074E+03  0.73072376718E+02 0.  0.
         24    2    4    4    0    0  0.37304680469E+03 -0.50483179892E+02 -0.15303904646E+03  0.41425092830E+03  0.80438870706E+02 0.  0.
         13    1    3    3    0    0 -0.11936943282E+03 -0.15752710161E+03 -0.24933728243E+03  0.31817122693E+03  0.00000000000E+00 0.  1.
        -13    1    3    3    0    0  0.13190776406E+02 -0.29457182652E+01 -0.47349386592E+01  0.14321085238E+02  0.00000000000E+00 0. -1.
          4    1    6    6  502    0  0.39157971335E+02 -0.41282644292E+00 -0.45244786397E+02  0.59838180461E+02  0.00000000000E+00 0. -1.
          1    1    5    5  503    0 -0.59589183997E+02  0.29245434642E+02  0.13738200294E+03  0.15257778681E+03  0.00000000000E+00 0. -1.
         -2    1    5    5    0  503 -0.20727896427E+03  0.18171056513E+03  0.32677605608E+03  0.42751127393E+03  0.00000000000E+00 0.  1.
         -3    1    6    6    0  502  0.33388883335E+03 -0.50070353449E+02 -0.10779426006E+03  0.35441274784E+03  0.00000000000E+00 0.  1.
<mgrwt>
<rscale>  0 0.13256054E+04</rscale>
<asrwt>0</asrwt>
<pdfrwt beam="1">  1        2 0.10645224E+00 0.13256054E+04</pdfrwt>
<pdfrwt beam="2">  1       -2 0.97675808E-01 0.13256054E+04</pdfrwt>
<totfact> 0.35532869E+01</totfact>
</mgrwt>
</event>
<event>
12    1  0.1518126E-007  0.1671965E+04  0.7818608E-02  0.8777518E-01
          2   -1    0    0  501    0  0.00000000000E+00  0.00000000000E+00  0.18364265311E+04  0.18364265311E+04  0.00000000000E+00 0.  1.
         -2   -1    0    0    0  501 -0.00000000000E+00 -0.00000000000E+00 -0.38055776321E+03  0.38055776321E+03  0.00000000000E+00 0. -1.
         23    2    1    2    0    0 -0.45225025934E+02 -0.37127968937E+03 -0.99457626053E+02  0.39769286802E+03  0.91508945918E+02 0.  0.
        254    2    1    2    0    0  0.45225025934E+02  0.37127968937E+03  0.15553263940E+04  0.18192914263E+04  0.86653747256E+03 0.  0.
        -24    2    4    4    0    0  0.19403567103E+03  0.39261447628E+03  0.15858992952E+04  0.16471547898E+04  0.79033906351E+02 0.  0.
         24    2    4    4    0    0 -0.14881064510E+03 -0.21334786915E+02 -0.30572901250E+02  0.17213663651E+03  0.78080331154E+02 0.  0.
         11    1    3    3    0    0 -0.18117146235E+02 -0.34907446724E+03 -0.95961609604E+02  0.36247737196E+03  0.00000000000E+00 0. -1.
        -11    1    3    3    0    0 -0.27107879698E+02 -0.22205222134E+02 -0.34960164492E+01  0.35215496060E+02  0.00000000000E+00 0.  1.
          4    1    6    6  502    0 -0.13273053327E+01 -0.20956320545E+02 -0.98858350167E+01  0.23209025059E+02  0.00000000000E+00 0. -1.
          1    1    5    5  503    0  0.68975592293E+01 -0.26959089705E+00  0.91966218985E+01  0.11498993735E+02  0.00000000000E+00 0. -1.
         -2    1    5    5    0  503  0.18713811180E+03  0.39288406718E+03  0.15767026733E+04  0.16356557960E+04  0.00000000000E+00 0.  1.
         -3    1    6    6    0  502 -0.14748333976E+03 -0.37846637053E+00 -0.20687066233E+02  0.14892761145E+03  0.00000000000E+00 0.  1.
<mgrwt>
<rscale>  0 0.16719646E+04</rscale>
<asrwt>0</asrwt>
<pdfrwt beam="1">  1        2 0.28252715E+00 0.16719646E+04</pdfrwt>
<pdfrwt beam="2">  1       -2 0.58547349E-01 0.16719646E+04</pdfrwt>
<totfact> 0.21421714E+01</totfact>
</mgrwt>
</event>
<event>
12    1  0.1518126E-007  0.1294408E+04  0.7818608E-02  0.9034012E-01
         -2   -1    0    0    0  501 -0.00000000000E+00  0.00000000000E+00  0.48570100318E+03  0.48570100318E+03  0.00000000000E+00 0.  1.
          2   -1    0    0  501    0  0.00000000000E+00 -0.00000000000E+00 -0.86240883288E+03  0.86240883288E+03  0.00000000000E+00 0. -1.
         23    2    1    2    0    0 -0.22007470517E+03  0.21147649473E+03 -0.21643608026E+03  0.38503065576E+03  0.90823154287E+02 0.  0.
        254    2    1    2    0    0  0.22007470517E+03 -0.21147649473E+03 -0.16027174944E+03  0.96307918031E+03  0.89926597300E+03 0.  0.
        -24    2    4    4    0    0 -0.13343737061E+03  0.10562303241E+03 -0.38750975856E+03  0.43060325121E+03  0.79332150635E+02 0.  0.
         24    2    4    4    0    0  0.35351207578E+03 -0.31709952714E+03  0.22723800913E+03  0.53247592909E+03  0.79816066268E+02 0.  0.
         11    1    3    3    0    0 -0.14237862759E+03  0.10680881472E+03 -0.17144913462E+03  0.24713276242E+03  0.00000000000E+00 0. -1.
        -11    1    3    3    0    0 -0.77696077577E+02  0.10466768001E+03 -0.44986945641E+02  0.13789789334E+03  0.00000000000E+00 0.  1.
          2    1    6    6  502    0  0.41306854290E+02 -0.78031463318E+02  0.39078294938E+02  0.96551947749E+02  0.00000000000E+00 0. -1.
          1    1    5    5  503    0 -0.65405429588E+00 -0.62594933225E+01 -0.36561073380E+00  0.63041823328E+01  0.00000000000E+00 0. -1.
         -2    1    5    5    0  503 -0.13278331632E+03  0.11188252573E+03 -0.38714414783E+03  0.42429906888E+03  0.00000000000E+00 0.  1.
         -1    1    6    6    0  502  0.31220522149E+03 -0.23906806382E+03  0.18815971419E+03  0.43592398135E+03  0.00000000000E+00 0.  1.
<mgrwt>
<rscale>  0 0.12944077E+04</rscale>
<asrwt>0</asrwt>
<pdfrwt beam="1">  1        2 0.13267828E+00 0.12944077E+04</pdfrwt>
<pdfrwt beam="2">  1       -2 0.74723233E-01 0.12944077E+04</pdfrwt>
<totfact> 0.49136236E+01</totfact>
</mgrwt>
</event>
<event>
12    1  0.1518126E-007  0.2000896E+04  0.7818608E-02  0.8606202E-01
         -2   -1    0    0    0  501 -0.00000000000E+00  0.00000000000E+00  0.80464134600E+03  0.80464134600E+03  0.00000000000E+00 0.  1.
          2   -1    0    0  501    0  0.00000000000E+00 -0.00000000000E+00 -0.12439030568E+04  0.12439030568E+04  0.00000000000E+00 0. -1.
         23    2    1    2    0    0  0.54977331890E+03 -0.52926947971E+03  0.53495516634E+02  0.77035781022E+03  0.90622851086E+02 0.  0.
        254    2    1    2    0    0 -0.54977331890E+03  0.52926947971E+03 -0.49275722741E+03  0.12781865926E+04  0.89920764893E+03 0.  0.
        -24    2    4    4    0    0 -0.26372966097E+03 -0.23074809473E+03 -0.20152296947E+03  0.41185952324E+03  0.78859003094E+02 0.  0.
         24    2    4    4    0    0 -0.28604365793E+03  0.76001757444E+03 -0.29123425794E+03  0.86632706931E+03  0.79104426711E+02 0.  0.
         13    1    3    3    0    0  0.36153670278E+02 -0.13320380947E+02 -0.93053548738E+01  0.39637230635E+02  0.00000000000E+00 0.  1.
        -13    1    3    3    0    0  0.51361964862E+03 -0.51594909877E+03  0.62800871508E+02  0.73072057959E+03  0.00000000000E+00 0. -1.
          2    1    6    6  502    0 -0.19365167271E+03  0.43614913447E+03 -0.14143402124E+03  0.49772544661E+03  0.00000000000E+00 0. -1.
          3    1    5    5  503    0 -0.13584806169E+03 -0.85220006968E+02 -0.57133988747E+02  0.17023935539E+03  0.00000000000E+00 0. -1.
         -4    1    5    5    0  503 -0.12788159927E+03 -0.14552808776E+03 -0.14438898072E+03  0.24162016785E+03  0.00000000000E+00 0.  1.
         -1    1    6    6    0  502 -0.92391985228E+02  0.32386843997E+03 -0.14980023670E+03  0.36860162270E+03  0.00000000000E+00 0.  1.
<mgrwt>
<rscale>  0 0.20008956E+04</rscale>
<asrwt>0</asrwt>
<pdfrwt beam="1">  1        2 0.19136970E+00 0.20008956E+04</pdfrwt>
<pdfrwt beam="2">  1       -2 0.12379098E+00 0.20008956E+04</pdfrwt>
<totfact> 0.81418558E+00</totfact>
</mgrwt>
</event>
<event>
12    1  0.1518126E-007  0.1512745E+04  0.7818608E-02  0.8876021E-01
         -1   -1    0    0    0  501 -0.00000000000E+00  0.00000000000E+00  0.22135616570E+03  0.22135616570E+03  0.00000000000E+00 0.  1.
          1   -1    0    0  501    0  0.00000000000E+00 -0.00000000000E+00 -0.25845211936E+04  0.25845211936E+04  0.00000000000E+00 0. -1.
         23    2    1    2    0    0 -0.41566806769E+03 -0.31544160006E+03 -0.85292979290E+03  0.10041095612E+04  0.91996921814E+02 0.  0.
        254    2    1    2    0    0  0.41566806769E+03  0.31544160006E+03 -0.15102352350E+04  0.18017677981E+04  0.83263040290E+03 0.  0.
        -24    2    4    4    0    0  0.15675419784E+03 -0.27803627854E+03 -0.47094511128E+03  0.57456789010E+03  0.80392237016E+02 0.  0.
         24    2    4    4    0    0  0.25891386985E+03  0.59347787860E+03 -0.10392901237E+04  0.12271999080E+04  0.81506249092E+02 0.  0.
         13    1    3    3    0    0 -0.19294322633E+02 -0.46040520494E+02 -0.96207754385E+02  0.10838787947E+03  0.00000000000E+00 0. -1.
        -13    1    3    3    0    0 -0.39637374506E+03 -0.26940107957E+03 -0.75672203852E+03  0.89572168168E+03  0.00000000000E+00 0.  1.
          4    1    6    6  502    0  0.18582098805E+03  0.45947392453E+03 -0.85102490454E+03  0.98482948528E+03  0.00000000000E+00 0. -1.
          3    1    5    5  503    0  0.15842394827E+03 -0.24940608525E+03 -0.45265373388E+03  0.54055244476E+03  0.00000000000E+00 0. -1.
         -4    1    5    5    0  503 -0.16697504325E+01 -0.28630193290E+02 -0.18291377405E+02  0.34015445340E+02  0.00000000000E+00 0.  1.
         -1    1    6    6    0  502  0.73092881798E+02  0.13400395407E+03 -0.18826521914E+03  0.24237042273E+03  0.00000000000E+00 0.  1.
<mgrwt>
<rscale>  0 0.15127455E+04</rscale>
<asrwt>0</asrwt>
<pdfrwt beam="1">  1        1 0.39761865E+00 0.15127455E+04</pdfrwt>
<pdfrwt beam="2">  1       -1 0.34054795E-01 0.15127455E+04</pdfrwt>
<totfact> 0.93449811E+00</totfact>
</mgrwt>
</event>
<event>
12    1  0.1518126E-007  0.1768498E+04  0.7818608E-02  0.8723234E-01
          1   -1    0    0  501    0  0.00000000000E+00  0.00000000000E+00  0.13083895954E+04  0.13083895954E+04  0.00000000000E+00 0. -1.
         -1   -1    0    0    0  501 -0.00000000000E+00 -0.00000000000E+00 -0.59760181946E+03  0.59760181946E+03  0.00000000000E+00 0.  1.
         23    2    1    2    0    0  0.23523740910E+02  0.95646166618E+02  0.95929059059E+03  0.96874218949E+03  0.92311629487E+02 0.  0.
        254    2    1    2    0    0 -0.23523740910E+02 -0.95646166618E+02 -0.24850281466E+03  0.93724922535E+03  0.89832115970E+03 0.  0.
        -24    2    4    4    0    0 -0.38674019158E+03 -0.16395157121E+03 -0.34215816771E+03  0.54767389050E+03  0.80164737406E+02 0.  0.
         24    2    4    4    0    0  0.36321645067E+03  0.68305404595E+02  0.93655353045E+02  0.38957533485E+03  0.80036229560E+02 0.  0.
         13    1    3    3    0    0  0.48693931578E+02  0.15678284330E+02  0.36558411896E+03  0.36914584599E+03  0.00000000000E+00 0. -1.
        -13    1    3    3    0    0 -0.25170190668E+02  0.79967882287E+02  0.59370647163E+03  0.59959634351E+03  0.00000000000E+00 0.  1.
          2    1    6    6  502    0  0.23430376376E+03  0.55404697565E+02  0.97999753559E+02  0.25994592884E+03  0.00000000000E+00 0. -1.
          3    1    5    5  503    0 -0.33982790535E+03 -0.13065060213E+03 -0.26003460320E+03  0.44740426903E+03  0.00000000000E+00 0. -1.
         -4    1    5    5    0  503 -0.46912286227E+02 -0.33300969085E+02 -0.82123564510E+02  0.10026962147E+03  0.00000000000E+00 0.  1.
         -1    1    6    6    0  502  0.12891268691E+03  0.12900707030E+02 -0.43444005139E+01  0.12962940601E+03  0.00000000000E+00 0.  1.
<mgrwt>
<rscale>  0 0.17684977E+04</rscale>
<asrwt>0</asrwt>
<pdfrwt beam="1">  1        1 0.20129071E+00 0.17684977E+04</pdfrwt>
<pdfrwt beam="2">  1       -1 0.91938741E-01 0.17684977E+04</pdfrwt>
<totfact> 0.97259296E+00</totfact>
</mgrwt>
</event>
<event>
12    1  0.1518126E-007  0.1624027E+04  0.7818608E-02  0.8805922E-01
          2   -1    0    0  501    0  0.00000000000E+00  0.00000000000E+00  0.30596927484E+04  0.30596927484E+04  0.00000000000E+00 0. -1.
         -2   -1    0    0    0  501 -0.00000000000E+00 -0.00000000000E+00 -0.21550063499E+03  0.21550063499E+03  0.00000000000E+00 0.  1.
         23    2    1    2    0    0 -0.30638194916E+03 -0.28894910943E+03  0.17472572056E+04  0.17996438104E+04  0.91916349003E+02 0.  0.
        254    2    1    2    0    0  0.30638194916E+03  0.28894910943E+03  0.10969349079E+04  0.14755495730E+04  0.89253507707E+03 0.  0.
        -24    2    4    4    0    0  0.54714654454E+03  0.41061688333E+03  0.64672567966E+03  0.94480029991E+03  0.80112020939E+02 0.  0.
         24    2    4    4    0    0 -0.24076459538E+03 -0.12166777390E+03  0.45020922819E+03  0.53074927312E+03  0.78967108206E+02 0.  0.
         11    1    3    3    0    0 -0.24746295521E+03 -0.26950988469E+03  0.15617037687E+04  0.16039925665E+04  0.00000000000E+00 0. -1.
        -11    1    3    3    0    0 -0.58918993948E+02 -0.19439224743E+02  0.18555343690E+03  0.19565124393E+03  0.00000000000E+00 0.  1.
          4    1    6    6  502    0 -0.15844404381E+03 -0.73852566679E+02  0.35707460358E+03  0.39756884830E+03  0.00000000000E+00 0. -1.
          3    1    5    5  503    0  0.17719983844E+03  0.15115691738E+03  0.17304124327E+03  0.29015766109E+03  0.00000000000E+00 0. -1.
         -4    1    5    5    0  503  0.36994670610E+03  0.25945996594E+03  0.47368443639E+03  0.65464263882E+03  0.00000000000E+00 0.  1.
         -3    1    6    6    0  502 -0.82320551575E+02 -0.47815207217E+02  0.93134624613E+02  0.13318042482E+03  0.00000000000E+00 0.  1.
<mgrwt>
<rscale>  0 0.16240268E+04</rscale>
<asrwt>0</asrwt>
<pdfrwt beam="1">  1        2 0.47072193E+00 0.16240268E+04</pdfrwt>
<pdfrwt beam="2">  1       -2 0.33153946E-01 0.16240268E+04</pdfrwt>
<totfact> 0.13062754E+01</totfact>
</mgrwt>
</event>
<event>
12    1  0.1518126E-007  0.1492515E+04  0.7818608E-02  0.8889446E-01
         -1   -1    0    0    0  501 -0.00000000000E+00  0.00000000000E+00  0.79298440090E+03  0.79298440090E+03  0.00000000000E+00 0.  1.
          1   -1    0    0  501    0  0.00000000000E+00 -0.00000000000E+00 -0.70228400648E+03  0.70228400648E+03  0.00000000000E+00 0. -1.
         23    2    1    2    0    0 -0.34883285123E+03 -0.20499295764E+03  0.26009444824E+03  0.48841591189E+03  0.84820458651E+02 0.  0.
        254    2    1    2    0    0  0.34883285123E+03  0.20499295764E+03 -0.16939405382E+03  0.10068524955E+04  0.90628424429E+03 0.  0.
        -24    2    4    4    0    0  0.64332045770E+03  0.52322026150E+02 -0.90987241489E+02  0.65644560688E+03  0.77738992603E+02 0.  0.
         24    2    4    4    0    0 -0.29448760647E+03  0.15267093149E+03 -0.78406812326E+02  0.35040688861E+03  0.81277276542E+02 0.  0.
         13    1    3    3    0    0 -0.12967157656E+03 -0.86024519487E+02  0.53392753404E+02  0.16451663088E+03  0.00000000000E+00 0. -1.
        -13    1    3    3    0    0 -0.21916127466E+03 -0.11896843815E+03  0.20670169483E+03  0.32389928100E+03  0.00000000000E+00 0.  1.
          4    1    6    6  502    0 -0.28862650962E+03  0.12746466199E+03 -0.69938109312E+02  0.32317772394E+03  0.00000000000E+00 0. -1.
          1    1    5    5  503    0  0.41982474997E+03  0.65440441509E+02 -0.39541417396E+02  0.42673035487E+03  0.00000000000E+00 0. -1.
         -2    1    5    5    0  503  0.22349570772E+03 -0.13118415359E+02 -0.51445824093E+02  0.22971525202E+03  0.00000000000E+00 0.  1.
         -3    1    6    6    0  502 -0.58610968466E+01  0.25206269499E+02 -0.84687030145E+01  0.27229164678E+02  0.00000000000E+00 0.  1.
<mgrwt>
<rscale>  0 0.14925150E+04</rscale>
<asrwt>0</asrwt>
<pdfrwt beam="1">  1        1 0.10804369E+00 0.14925150E+04</pdfrwt>
<pdfrwt beam="2">  1       -1 0.12199760E+00 0.14925150E+04</pdfrwt>
<totfact> 0.15602408E+01</totfact>
</mgrwt>
</event>
<event>
12    1  0.1518126E-007  0.1616143E+04  0.7818608E-02  0.8810691E-01
          2   -1    0    0  501    0  0.00000000000E+00  0.00000000000E+00  0.23973557378E+03  0.23973557378E+03  0.00000000000E+00 0. -1.
         -2   -1    0    0    0  501 -0.00000000000E+00 -0.00000000000E+00 -0.27237503238E+04  0.27237503238E+04  0.00000000000E+00 0.  1.
         23    2    1    2    0    0 -0.15871679040E+03  0.26476536387E+03 -0.17078449905E+04  0.17378972964E+04  0.90888854900E+02 0.  0.
        254    2    1    2    0    0  0.15871679040E+03 -0.26476536387E+03 -0.77616975949E+03  0.12255886011E+04  0.89684792812E+03 0.  0.
        -24    2    4    4    0    0 -0.17405819508E+03 -0.15838043581E+03 -0.82715363447E+03  0.86365184916E+03  0.79566097159E+02 0.  0.
         24    2    4    4    0    0  0.33277498547E+03 -0.10638492806E+03  0.50983874978E+02  0.36193675195E+03  0.79636128928E+02 0.  0.
         11    1    3    3    0    0  0.10593889339E+02  0.23655948931E+02 -0.18592161416E+03  0.18771968736E+03  0.00000000000E+00 0. -1.
        -11    1    3    3    0    0 -0.16931067974E+03  0.24110941494E+03 -0.15219233763E+04  0.15501776091E+04  0.00000000000E+00 0.  1.
          4    1    6    6  502    0  0.32574109995E+03 -0.87647201542E+02  0.41768915503E+02  0.33990283676E+03  0.00000000000E+00 0. -1.
          1    1    5    5  503    0 -0.52109623929E+02 -0.35182311442E+02 -0.35838747075E+03  0.36386094478E+03  0.00000000000E+00 0. -1.
         -2    1    5    5    0  503 -0.12194857115E+03 -0.12319812437E+03 -0.46876616372E+03  0.49979090438E+03  0.00000000000E+00 0.  1.
         -3    1    6    6    0  502  0.70338855275E+01 -0.18737726521E+02  0.92149594754E+01  0.22033915198E+02  0.00000000000E+00 0.  1.
<mgrwt>
<rscale>  0 0.16161434E+04</rscale>
<asrwt>0</asrwt>
<pdfrwt beam="1">  1        2 0.36882397E-01 0.16161434E+04</pdfrwt>
<pdfrwt beam="2">  1       -2 0.41903850E+00 0.16161434E+04</pdfrwt>
<totfact> 0.75726445E-01</totfact>
</mgrwt>
</event>
<event>
12    1  0.1518126E-007  0.2285566E+04  0.7818608E-02  0.8483634E-01
         -2   -1    0    0    0  501 -0.00000000000E+00  0.00000000000E+00  0.71482651598E+03  0.71482651598E+03  0.00000000000E+00 0.  1.
          2   -1    0    0  501    0  0.00000000000E+00 -0.00000000000E+00 -0.18269511794E+04  0.18269511794E+04  0.00000000000E+00 0. -1.
         23    2    1    2    0    0  0.16141823286E+03 -0.93333009450E+03 -0.68661506335E+03  0.11733787004E+04  0.90644459724E+02 0.  0.
        254    2    1    2    0    0 -0.16141823286E+03  0.93333009450E+03 -0.42550960003E+03  0.13683989950E+04  0.89123312243E+03 0.  0.
        -24    2    4    4    0    0 -0.47671974941E+03  0.82232219156E+03 -0.26848010578E+03  0.99095413617E+03  0.80206150645E+02 0.  0.
         24    2    4    4    0    0  0.31530151654E+03  0.11100790294E+03 -0.15702949425E+03  0.37744485879E+03  0.77900953232E+02 0.  0.
         13    1    3    3    0    0  0.12799127611E+03 -0.70015555716E+03 -0.56201629572E+03  0.90689684509E+03  0.00000000000E+00 0. -1.
        -13    1    3    3    0    0  0.33426956749E+02 -0.23317453734E+03 -0.12459876763E+03  0.26648185529E+03  0.00000000000E+00 0.  1.
          2    1    6    6  502    0  0.22678687578E+03  0.41214590350E+02 -0.10660284667E+03  0.25395884785E+03  0.00000000000E+00 0. -1.
          1    1    5    5  503    0 -0.28524203142E+03  0.56046055634E+03 -0.19398993609E+03  0.65811180433E+03  0.00000000000E+00 0. -1.
         -2    1    5    5    0  503 -0.19147771799E+03  0.26186163522E+03 -0.74490169688E+02  0.33284233184E+03  0.00000000000E+00 0.  1.
         -1    1    6    6    0  502  0.88514640765E+02  0.69793312594E+02 -0.50426647588E+02  0.12348601095E+03  0.00000000000E+00 0.  1.
<mgrwt>
<rscale>  0 0.22855661E+04</rscale>
<asrwt>0</asrwt>
<pdfrwt beam="1">  1        2 0.28106941E+00 0.22855661E+04</pdfrwt>
<pdfrwt beam="2">  1       -2 0.10997331E+00 0.22855661E+04</pdfrwt>
<totfact> 0.49747181E+00</totfact>
</mgrwt>
</event>
<event>
12    1  0.1518126E-007  0.2019172E+04  0.7818608E-02  0.8597709E-01
          2   -1    0    0  501    0  0.00000000000E+00  0.00000000000E+00  0.57930541693E+03  0.57930541693E+03  0.00000000000E+00 0. -1.
         -2   -1    0    0    0  501 -0.00000000000E+00 -0.00000000000E+00 -0.17594591548E+04  0.17594591548E+04  0.00000000000E+00 0.  1.
         23    2    1    2    0    0 -0.20188245370E+03 -0.52185345437E+03 -0.11467685312E+04  0.12793595665E+04  0.92710750581E+02 0.  0.
        254    2    1    2    0    0  0.20188245370E+03  0.52185345437E+03 -0.33385206709E+02  0.10594050053E+04  0.89896431534E+03 0.  0.
        -24    2    4    4    0    0 -0.36097731817E+02  0.31467974098E+02 -0.39117826418E+03  0.40257529461E+03  0.82177574934E+02 0.  0.
         24    2    4    4    0    0  0.23798018552E+03  0.49038548027E+03  0.35779305747E+03  0.65682971068E+03  0.79353064809E+02 0.  0.
         11    1    3    3    0    0 -0.50405985208E+00 -0.26609493423E+02 -0.10623181743E+03  0.10951492250E+03  0.00000000000E+00 0. -1.
        -11    1    3    3    0    0 -0.20137839385E+03 -0.49524396095E+03 -0.10405367138E+04  0.11698446440E+04  0.00000000000E+00 0.  1.
          2    1    6    6  502    0  0.16473565268E+03  0.41114310901E+03  0.28759043049E+03  0.52809539579E+03  0.00000000000E+00 0. -1.
          3    1    5    5  503    0 -0.25986169136E+02  0.31953895919E+02 -0.39024138109E+03  0.39240880210E+03  0.00000000000E+00 0. -1.
         -4    1    5    5    0  503 -0.10111562681E+02 -0.48592182012E+00 -0.93688308850E+00  0.10166492502E+02  0.00000000000E+00 0.  1.
         -1    1    6    6    0  502  0.73244532834E+02  0.79242371265E+02  0.70202626982E+02  0.12873431489E+03  0.00000000000E+00 0.  1.
<mgrwt>
<rscale>  0 0.20191723E+04</rscale>
<asrwt>0</asrwt>
<pdfrwt beam="1">  1        2 0.89123913E-01 0.20191723E+04</pdfrwt>
<pdfrwt beam="2">  1       -2 0.27068602E+00 0.20191723E+04</pdfrwt>
<totfact> 0.23044585E+00</totfact>
</mgrwt>
</event>
<event>
12    1  0.1518126E-007  0.1447926E+04  0.7818608E-02  0.8919840E-01
         -2   -1    0    0    0  501 -0.00000000000E+00  0.00000000000E+00  0.13785359751E+03  0.13785359751E+03  0.00000000000E+00 0. -1.
          2   -1    0    0  501    0  0.00000000000E+00 -0.00000000000E+00 -0.38020212764E+04  0.38020212764E+04  0.00000000000E+00 0.  1.
         23    2    1    2    0    0  0.99116534414E+02 -0.37024689252E+03 -0.55388880861E+03  0.67978436860E+03  0.91690384891E+02 0.  0.
        254    2    1    2    0    0 -0.99116534414E+02  0.37024689252E+03 -0.31102788703E+04  0.32600905053E+04  0.89858143928E+03 0.  0.
        -24    2    4    4    0    0  0.87108891429E+02  0.31020537714E+03 -0.30057974452E+04  0.30242437246E+04  0.86119038063E+02 0.  0.
         24    2    4    4    0    0 -0.18622542584E+03  0.60041515372E+02 -0.10448142508E+03  0.23584678078E+03  0.80140146125E+02 0.  0.
         11    1    3    3    0    0  0.73755130672E+02 -0.23892647243E+03 -0.43030213284E+03  0.49768022268E+03  0.00000000000E+00 0.  1.
        -11    1    3    3    0    0  0.25361403741E+02 -0.13132042009E+03 -0.12358667577E+03  0.18210414592E+03  0.00000000000E+00 0. -1.
          2    1    6    6  502    0 -0.28850351133E+02 -0.10792715611E+02  0.53731244285E+01  0.31268129731E+02  0.00000000000E+00 0. -1.
          3    1    5    5  503    0  0.44616287275E+01  0.83785707105E+02 -0.51249753540E+03  0.51932039690E+03  0.00000000000E+00 0. -1.
         -4    1    5    5    0  503  0.82647262701E+02  0.22641967004E+03 -0.24932999098E+04  0.25049233277E+04  0.00000000000E+00 0.  1.
         -1    1    6    6    0  502 -0.15737507471E+03  0.70834230983E+02 -0.10985454951E+03  0.20457865105E+03  0.00000000000E+00 0.  1.
<mgrwt>
<rscale>  0 0.14479258E+04</rscale>
<asrwt>0</asrwt>
<pdfrwt beam="1">  1        2 0.58492640E+00 0.14479258E+04</pdfrwt>
<pdfrwt beam="2">  1       -2 0.21208244E-01 0.14479258E+04</pdfrwt>
<totfact> 0.93468873E+00</totfact>
</mgrwt>
</event>
<event>
12    1  0.1518126E-007  0.1467397E+04  0.7818608E-02  0.8906428E-01
         -1   -1    0    0    0  501 -0.00000000000E+00  0.00000000000E+00  0.20521928292E+03  0.20521928292E+03  0.00000000000E+00 0.  1.
          1   -1    0    0  501    0  0.00000000000E+00 -0.00000000000E+00 -0.26231126355E+04  0.26231126355E+04  0.00000000000E+00 0. -1.
         23    2    1    2    0    0 -0.33395212415E+03  0.24795617084E+03 -0.46178711524E+03  0.62805568997E+03  0.90555651479E+02 0.  0.
        254    2    1    2    0    0  0.33395212415E+03 -0.24795617084E+03 -0.19561062373E+04  0.22002762285E+04  0.91752797552E+03 0.  0.
        -24    2    4    4    0    0  0.95969497287E+01  0.32250391763E+03 -0.83596616162E+03  0.89967283632E+03  0.80441971050E+02 0.  0.
         24    2    4    4    0    0  0.32435517442E+03 -0.57046008847E+03 -0.11201400757E+04  0.13006033921E+04  0.78894883800E+02 0.  0.
         11    1    3    3    0    0 -0.26205039070E+03  0.18582796028E+03 -0.29527375313E+03  0.43633591117E+03  0.00000000000E+00 0.  1.
        -11    1    3    3    0    0 -0.71901733447E+02  0.62128210563E+02 -0.16651336211E+03  0.19171977880E+03  0.00000000000E+00 0. -1.
          2    1    6    6  502    0  0.23235797329E+03 -0.45978990225E+03 -0.91420086837E+03  0.10493618107E+04  0.00000000000E+00 0. -1.
          3    1    5    5  503    0  0.44008627401E+02  0.20032783012E+03 -0.53980275191E+03  0.57745563446E+03  0.00000000000E+00 0. -1.
         -4    1    5    5    0  503 -0.34411677672E+02  0.12217608751E+03 -0.29616340971E+03  0.32221720186E+03  0.00000000000E+00 0.  1.
         -1    1    6    6    0  502  0.91997201131E+02 -0.11067018622E+03 -0.20593920736E+03  0.25124158147E+03  0.00000000000E+00 0.  1.
<mgrwt>
<rscale>  0 0.14673967E+04</rscale>
<asrwt>0</asrwt>
<pdfrwt beam="1">  1        1 0.40355576E+00 0.14673967E+04</pdfrwt>
<pdfrwt beam="2">  1       -1 0.31572200E-01 0.14673967E+04</pdfrwt>
<totfact> 0.10090523E+01</totfact>
</mgrwt>
</event>
<event>
12    1  0.1518126E-007  0.1988859E+04  0.7818608E-02  0.8611847E-01
          2   -1    0    0  501    0  0.00000000000E+00  0.00000000000E+00  0.14828062371E+04  0.14828062371E+04  0.00000000000E+00 0. -1.
         -2   -1    0    0    0  501 -0.00000000000E+00 -0.00000000000E+00 -0.66690421455E+03  0.66690421455E+03  0.00000000000E+00 0.  1.
         23    2    1    2    0    0  0.46038289262E+03  0.48595390132E+03 -0.12430785930E+03  0.68625549873E+03  0.85968387330E+02 0.  0.
        254    2    1    2    0    0 -0.46038289262E+03 -0.48595390132E+03  0.94020988180E+03  0.14634549529E+04  0.89977895910E+03 0.  0.
        -24    2    4    4    0    0  0.13917691425E+03 -0.37279785943E+03  0.68726545546E+03  0.79818654538E+03  0.80121766779E+02 0.  0.
         24    2    4    4    0    0 -0.59955980687E+03 -0.11315604189E+03  0.25294442635E+03  0.66526840749E+03  0.79529361633E+02 0.  0.
         13    1    3    3    0    0  0.24928149721E+03  0.31510436184E+03 -0.51376850582E+02  0.40505753231E+03  0.00000000000E+00 0. -1.
        -13    1    3    3    0    0  0.21110139542E+03  0.17084953948E+03 -0.72931008717E+02  0.28119796642E+03  0.00000000000E+00 0.  1.
          2    1    6    6  502    0 -0.57466545788E+03 -0.96811738318E+02  0.25343088604E+03  0.63548415807E+03  0.00000000000E+00 0. -1.
          3    1    5    5  503    0  0.85184818070E+02 -0.31535295853E+03  0.56766524817E+03  0.65494104747E+03  0.00000000000E+00 0. -1.
         -4    1    5    5    0  503  0.53992096176E+02 -0.57444900900E+02  0.11960020729E+03  0.14324549791E+03  0.00000000000E+00 0.  1.
         -1    1    6    6    0  502 -0.24894348993E+02 -0.16344303568E+02 -0.48645969879E+00  0.29784249428E+02  0.00000000000E+00 0.  1.
<mgrwt>
<rscale>  0 0.19888587E+04</rscale>
<asrwt>0</asrwt>
<pdfrwt beam="1">  1        2 0.22812404E+00 0.19888587E+04</pdfrwt>
<pdfrwt beam="2">  1       -2 0.10260065E+00 0.19888587E+04</pdfrwt>
<totfact> 0.93801722E+00</totfact>
</mgrwt>
</event>
<event>
12    1  0.1518126E-007  0.2741176E+04  0.7818608E-02  0.8321767E-01
          1   -1    0    0  501    0  0.00000000000E+00  0.00000000000E+00  0.19782661890E+04  0.19782661890E+04  0.00000000000E+00 0. -1.
         -1   -1    0    0    0  501 -0.00000000000E+00 -0.00000000000E+00 -0.94957460982E+03  0.94957460982E+03  0.00000000000E+00 0.  1.
         23    2    1    2    0    0  0.88953664693E+03 -0.49988203000E+03 -0.26857896324E+03  0.10590718599E+04  0.91329375595E+02 0.  0.
        254    2    1    2    0    0 -0.88953664693E+03  0.49988203000E+03  0.12972705424E+04  0.18687689389E+04  0.87648673495E+03 0.  0.
        -24    2    4    4    0    0 -0.95993300208E+03  0.56387861795E+03  0.13337525825E+04  0.17391580232E+04  0.79650574994E+02 0.  0.
         24    2    4    4    0    0  0.70396355145E+02 -0.63996587955E+02 -0.36482040076E+02  0.12961091568E+03  0.80105181650E+02 0.  0.
         11    1    3    3    0    0  0.66299543946E+03 -0.36855468778E+03 -0.15801255755E+03  0.77483125839E+03  0.00000000000E+00 0.  1.
        -11    1    3    3    0    0  0.22654120747E+03 -0.13132734222E+03 -0.11056640570E+03  0.28424060154E+03  0.00000000000E+00 0. -1.
          2    1    6    6  502    0  0.76913220771E+02 -0.40194730605E+02 -0.14942542144E+01  0.86795695132E+02  0.00000000000E+00 0. -1.
          1    1    5    5  503    0 -0.86728512955E+03  0.49088641131E+03  0.11621455895E+04  0.15309263000E+04  0.00000000000E+00 0. -1.
         -2    1    5    5    0  503 -0.92647872529E+02  0.72992206640E+02  0.17160699304E+03  0.20823172327E+03  0.00000000000E+00 0.  1.
         -1    1    6    6    0  502 -0.65168656262E+01 -0.23801857350E+02 -0.34987785861E+02  0.42815220545E+02  0.00000000000E+00 0.  1.
<mgrwt>
<rscale>  0 0.27411759E+04</rscale>
<asrwt>0</asrwt>
<pdfrwt beam="1">  1        1 0.30434864E+00 0.27411759E+04</pdfrwt>
<pdfrwt beam="2">  1       -1 0.14608840E+00 0.27411759E+04</pdfrwt>
<totfact> 0.10045922E+00</totfact>
</mgrwt>
</event>
<event>
12    1  0.1518126E-007  0.2122800E+04  0.7818608E-02  0.8551266E-01
         -2   -1    0    0    0  501 -0.00000000000E+00  0.00000000000E+00  0.69005880983E+03  0.69005880983E+03  0.00000000000E+00 0.  1.
          2   -1    0    0  501    0  0.00000000000E+00 -0.00000000000E+00 -0.16325711224E+04  0.16325711224E+04  0.00000000000E+00 0. -1.
         23    2    1    2    0    0  0.74457971545E+03  0.34597855544E+03 -0.86131662063E+02  0.83087858544E+03  0.94023651575E+02 0.  0.
        254    2    1    2    0    0 -0.74457971545E+03 -0.34597855544E+03 -0.85638065055E+03  0.14917513468E+04  0.90434183173E+03 0.  0.
        -24    2    4    4    0    0 -0.90370421962E+03 -0.21716154461E+03 -0.46374451977E+03  0.10417542538E+04  0.79702525952E+02 0.  0.
         24    2    4    4    0    0  0.15912450417E+03 -0.12881701083E+03 -0.39263613078E+03  0.44999709304E+03  0.80123794489E+02 0.  0.
         13    1    3    3    0    0  0.22263020683E+03  0.10227410376E+03  0.17368796581E+02  0.24561326590E+03  0.00000000000E+00 0.  1.
        -13    1    3    3    0    0  0.52194950862E+03  0.24370445169E+03 -0.10350045864E+03  0.58526531954E+03  0.00000000000E+00 0. -1.
          2    1    6    6  502    0  0.10621136678E+03 -0.12876171346E+03 -0.29532903085E+03  0.33923394546E+03  0.00000000000E+00 0. -1.
          3    1    5    5  503    0 -0.33949125298E+03 -0.46807599850E+02 -0.15022128644E+03  0.37418136933E+03  0.00000000000E+00 0. -1.
         -4    1    5    5    0  503 -0.56421296664E+03 -0.17035394476E+03 -0.31352323334E+03  0.66757288445E+03  0.00000000000E+00 0.  1.
         -1    1    6    6    0  502  0.52913137386E+02 -0.55297372884E-01 -0.97307099929E+02  0.11076314758E+03  0.00000000000E+00 0.  1.
<mgrwt>
<rscale>  0 0.21228001E+04</rscale>
<asrwt>0</asrwt>
<pdfrwt beam="1">  1        2 0.25116478E+00 0.21228001E+04</pdfrwt>
<pdfrwt beam="2">  1       -2 0.10616290E+00 0.21228001E+04</pdfrwt>
<totfact> 0.70422814E+00</totfact>
</mgrwt>
</event>
<event>
12    1  0.1518126E-007  0.1550276E+04  0.7818608E-02  0.8851692E-01
          2   -1    0    0  501    0  0.00000000000E+00  0.00000000000E+00  0.16140729661E+04  0.16140729661E+04  0.00000000000E+00 0. -1.
         -2   -1    0    0    0  501 -0.00000000000E+00 -0.00000000000E+00 -0.37224999373E+03  0.37224999373E+03  0.00000000000E+00 0.  1.
         23    2    1    2    0    0  0.23671055928E+01 -0.81652275226E+02  0.10363838344E+04  0.10437073917E+04  0.92525509643E+02 0.  0.
        254    2    1    2    0    0 -0.23671055928E+01  0.81652275226E+02  0.20543913794E+03  0.94261556814E+03  0.91632209002E+03 0.  0.
        -24    2    4    4    0    0 -0.13182086019E+03 -0.39140108642E+03  0.74208673080E+02  0.42700646738E+03  0.79095173008E+02 0.  0.
         24    2    4    4    0    0  0.12945375460E+03  0.47305336164E+03  0.13123046486E+03  0.51560910076E+03  0.89964172508E+02 0.  0.
         13    1    3    3    0    0  0.69000946070E+01  0.18891789070E+02  0.10562802942E+03  0.10752577179E+03  0.00000000000E+00 0.  1.
        -13    1    3    3    0    0 -0.45329890142E+01 -0.10054406430E+03  0.93075580499E+03  0.93618161987E+03  0.00000000000E+00 0. -1.
          2    1    6    6  502    0  0.67500422007E+02  0.15915724940E+03  0.83944406976E+02  0.19218220643E+03  0.00000000000E+00 0. -1.
          1    1    5    5  503    0 -0.13274307053E+01 -0.13310772727E+02  0.19002368260E+02  0.23238518506E+02  0.00000000000E+00 0. -1.
         -2    1    5    5    0  503 -0.13049342949E+03 -0.37809031369E+03  0.55206304820E+02  0.40376794888E+03  0.00000000000E+00 0.  1.
         -1    1    6    6    0  502  0.61953332594E+02  0.31389611225E+03  0.47286057880E+02  0.32342689432E+03  0.00000000000E+00 0.  1.
<mgrwt>
<rscale>  0 0.15502757E+04</rscale>
<asrwt>0</asrwt>
<pdfrwt beam="1">  1        2 0.24831891E+00 0.15502757E+04</pdfrwt>
<pdfrwt beam="2">  1       -2 0.57269231E-01 0.15502757E+04</pdfrwt>
<totfact> 0.30113001E+01</totfact>
</mgrwt>
</event>
<event>
12    1  0.2420426E-007  0.2474083E+04  0.7818608E-02  0.8412277E-01
          2   -1    0    0  501    0  0.00000000000E+00  0.00000000000E+00  0.30351677791E+04  0.30351677791E+04  0.00000000000E+00 0. -1.
         -2   -1    0    0    0  501 -0.00000000000E+00 -0.00000000000E+00 -0.50418039044E+03  0.50418039044E+03  0.00000000000E+00 0.  1.
         23    2    1    2    0    0  0.54826422803E+03 -0.55305837528E+03  0.21477472164E+04  0.22862815823E+04  0.88307065827E+02 0.  0.
        254    2    1    2    0    0 -0.54826422803E+03  0.55305837528E+03  0.38324017230E+03  0.12530665873E+04  0.90378958406E+03 0.  0.
        -24    2    4    4    0    0 -0.14423846040E+03  0.23684855516E+03 -0.28564880864E+03  0.40597948942E+03  0.79511838188E+02 0.  0.
         24    2    4    4    0    0 -0.40402576763E+03  0.31620982012E+03  0.66888898095E+03  0.84708709784E+03  0.83178189772E+02 0.  0.
         11    1    3    3    0    0  0.54854860669E+03 -0.53731604349E+03  0.20980855804E+04  0.22341837899E+04  0.00000000000E+00 0. -1.
        -11    1    3    3    0    0 -0.28437866339E+00 -0.15742331786E+02  0.49661635988E+02  0.52097792374E+02  0.00000000000E+00 0.  1.
          4    1    6    6  502    0 -0.19690656123E+02 -0.30579626960E+01  0.21557131589E+02  0.29356140699E+02  0.00000000000E+00 0. -1.
          3    1    5    5  503    0 -0.35892847887E+01 -0.62104337978E+01 -0.11332876017E+02  0.13412178498E+02  0.00000000000E+00 0. -1.
         -4    1    5    5    0  503 -0.14064917561E+03  0.24305898896E+03 -0.27431593263E+03  0.39256731092E+03  0.00000000000E+00 0.  1.
         -3    1    6    6    0  502 -0.38433511151E+03  0.31926778281E+03  0.64733184936E+03  0.81773095715E+03  0.00000000000E+00 0.  1.
<mgrwt>
<rscale>  0 0.24740833E+04</rscale>
<asrwt>0</asrwt>
<pdfrwt beam="1">  1        2 0.46694888E+00 0.24740833E+04</pdfrwt>
<pdfrwt beam="2">  1       -2 0.77566216E-01 0.24740833E+04</pdfrwt>
<totfact> 0.21916120E+00</totfact>
</mgrwt>
</event>
<event>
12    1  0.1518126E-007  0.1845587E+04  0.7818608E-02  0.8682425E-01
          2   -1    0    0  501    0  0.00000000000E+00  0.00000000000E+00  0.37332415529E+03  0.37332415529E+03  0.00000000000E+00 0. -1.
         -2   -1    0    0    0  501 -0.00000000000E+00 -0.00000000000E+00 -0.22809885369E+04  0.22809885369E+04  0.00000000000E+00 0.  1.
         23    2    1    2    0    0 -0.30034348979E+03 -0.58186619592E+02  0.17502034553E+03  0.36436950500E+03  0.92418181480E+02 0.  0.
        254    2    1    2    0    0  0.30034348979E+03  0.58186619592E+02 -0.20826847271E+04  0.22899431872E+04  0.90148335167E+03 0.  0.
        -24    2    4    4    0    0 -0.22335169612E+03 -0.21776477418E+02 -0.14115027037E+04  0.14314534830E+04  0.79743315650E+02 0.  0.
         24    2    4    4    0    0  0.52369518591E+03  0.79963097010E+02 -0.67118202347E+03  0.85848970420E+03  0.76606259206E+02 0.  0.
         13    1    3    3    0    0 -0.13458265729E+03 -0.70521668152E+02  0.66459651285E+02  0.16583932758E+03  0.00000000000E+00 0.  1.
        -13    1    3    3    0    0 -0.16576083249E+03  0.12335048560E+02  0.10856069424E+03  0.19853017742E+03  0.00000000000E+00 0. -1.
          4    1    6    6  502    0  0.12001106613E+03  0.98616168267E+01 -0.20584544986E+03  0.23847904878E+03  0.00000000000E+00 0. -1.
          3    1    5    5  503    0 -0.47723245579E+02 -0.38950245881E+02 -0.38284424659E+03  0.38776841925E+03  0.00000000000E+00 0. -1.
         -4    1    5    5    0  503 -0.17562845054E+03  0.17173768462E+02 -0.10286584571E+04  0.10436850638E+04  0.00000000000E+00 0.  1.
         -3    1    6    6    0  502  0.40368411977E+03  0.70101480183E+02 -0.46533657362E+03  0.62001065542E+03  0.00000000000E+00 0.  1.
<mgrwt>
<rscale>  0 0.18455873E+04</rscale>
<asrwt>0</asrwt>
<pdfrwt beam="1">  1        2 0.57434485E-01 0.18455873E+04</pdfrwt>
<pdfrwt beam="2">  1       -2 0.35092132E+00 0.18455873E+04</pdfrwt>
<totfact> 0.12453225E+00</totfact>
</mgrwt>
</event>
<event>
12    1  0.1518126E-007  0.1577783E+04  0.7818608E-02  0.8834314E-01
          2   -1    0    0  501    0  0.00000000000E+00  0.00000000000E+00  0.28729861895E+04  0.28729861895E+04  0.00000000000E+00 0. -1.
         -2   -1    0    0    0  501 -0.00000000000E+00 -0.00000000000E+00 -0.21662119595E+03  0.21662119595E+03  0.00000000000E+00 0.  1.
         23    2    1    2    0    0  0.77134497783E+02 -0.51180769674E+03  0.84819911977E+03  0.99773159694E+03  0.90165090684E+02 0.  0.
        254    2    1    2    0    0 -0.77134497783E+02  0.51180769674E+03  0.18081658738E+04  0.20918757885E+04  0.91574212434E+03 0.  0.
        -24    2    4    4    0    0 -0.40453674659E+02  0.36788892103E+02 -0.90690752100E+02  0.13269459429E+03  0.79956991332E+02 0.  0.
         24    2    4    4    0    0 -0.36680823123E+02  0.47501880463E+03  0.18988566259E+04  0.19591811942E+04  0.75803156845E+02 0.  0.
         13    1    3    3    0    0 -0.67891074563E+01 -0.11646023100E+03  0.13910385409E+03  0.18154602614E+03  0.00000000000E+00 0.  1.
        -13    1    3    3    0    0  0.83923605239E+02 -0.39534746574E+03  0.70909526568E+03  0.81618557080E+03  0.00000000000E+00 0. -1.
          4    1    6    6  502    0 -0.50672641124E+02  0.40886148054E+03  0.15491954952E+04  0.16030415182E+04  0.00000000000E+00 0. -1.
          1    1    5    5  503    0  0.84816355140E+01  0.42800822657E+02 -0.61472881495E+02  0.75384107877E+02  0.00000000000E+00 0. -1.
         -2    1    5    5    0  503 -0.48935310173E+02 -0.60119305542E+01 -0.29217870606E+02  0.57310486418E+02  0.00000000000E+00 0.  1.
         -3    1    6    6    0  502  0.13991818000E+02  0.66157324092E+02  0.34966113073E+03  0.35613967603E+03  0.00000000000E+00 0.  1.
<mgrwt>
<rscale>  0 0.15777829E+04</rscale>
<asrwt>0</asrwt>
<pdfrwt beam="1">  1        2 0.44199785E+00 0.15777829E+04</pdfrwt>
<pdfrwt beam="2">  1       -2 0.33326340E-01 0.15777829E+04</pdfrwt>
<totfact> 0.16950607E+01</totfact>
</mgrwt>
</event>
<event>
12    1  0.1518126E-007  0.1144422E+04  0.7818608E-02  0.9162945E-01
         -2   -1    0    0    0  501 -0.00000000000E+00  0.00000000000E+00  0.27280723206E+03  0.27280723206E+03  0.00000000000E+00 0.  1.
          2   -1    0    0  501    0  0.00000000000E+00 -0.00000000000E+00 -0.12002089537E+04  0.12002089537E+04  0.00000000000E+00 0. -1.
         23    2    1    2    0    0  0.34124716291E+01 -0.52992972639E+01 -0.43759293334E+03  0.44763429521E+03  0.94069970887E+02 0.  0.
        254    2    1    2    0    0 -0.34124716291E+01  0.52992972639E+01 -0.48980878827E+03  0.10253818905E+04  0.90080832857E+03 0.  0.
        -24    2    4    4    0    0  0.83132214438E+02  0.42540579932E+02 -0.73840861159E+03  0.74817260546E+03  0.76120324949E+02 0.  0.
         24    2    4    4    0    0 -0.86544686067E+02 -0.37241282668E+02  0.24859982332E+03  0.27720928505E+03  0.78525280912E+02 0.  0.
         13    1    3    3    0    0  0.48677219258E+02 -0.39198204627E+00 -0.21735074550E+03  0.22273520578E+03  0.00000000000E+00 0.  1.
        -13    1    3    3    0    0 -0.45264747629E+02 -0.49073152176E+01 -0.22024218785E+03  0.22489908943E+03  0.00000000000E+00 0. -1.
          2    1    6    6  502    0 -0.98251490629E+02 -0.22191075528E+02  0.18293867881E+03  0.20883572359E+03  0.00000000000E+00 0. -1.
          3    1    5    5  503    0  0.27163833799E+02  0.25817393876E+02 -0.95101462080E+02  0.10221888173E+03  0.00000000000E+00 0. -1.
         -4    1    5    5    0  503  0.55968380640E+02  0.16723186056E+02 -0.64330714951E+03  0.64595372372E+03  0.00000000000E+00 0.  1.
         -1    1    6    6    0  502  0.11706804562E+02 -0.15050207140E+02  0.65661144513E+02  0.68373561460E+02  0.00000000000E+00 0.  1.
<mgrwt>
<rscale>  0 0.11444224E+04</rscale>
<asrwt>0</asrwt>
<pdfrwt beam="1">  1        2 0.18464753E+00 0.11444224E+04</pdfrwt>
<pdfrwt beam="2">  1       -2 0.41970343E-01 0.11444224E+04</pdfrwt>
<totfact> 0.10081041E+02</totfact>
</mgrwt>
</event>
<event>
12    1  0.1518126E-007  0.2143306E+04  0.7818608E-02  0.8542403E-01
          2   -1    0    0  501    0  0.00000000000E+00  0.00000000000E+00  0.12089039327E+04  0.12089039327E+04  0.00000000000E+00 0. -1.
         -2   -1    0    0    0  501 -0.00000000000E+00 -0.00000000000E+00 -0.94998465301E+03  0.94998465301E+03  0.00000000000E+00 0.  1.
         23    2    1    2    0    0 -0.65271180813E+03 -0.25819664687E+03 -0.42035273012E+03  0.82699653071E+03  0.12053477158E+03 0.  0.
        254    2    1    2    0    0  0.65271180813E+03  0.25819664687E+03  0.67927200981E+03  0.13318920550E+04  0.90544341068E+03 0.  0.
        -24    2    4    4    0    0  0.65900892753E+03  0.19615099137E+03  0.48991887911E+02  0.69401724018E+03  0.80571375790E+02 0.  0.
         24    2    4    4    0    0 -0.62971194002E+01  0.62045655495E+02  0.63028012190E+03  0.63787481482E+03  0.75775525408E+02 0.  0.
         13    1    3    3    0    0 -0.95918279862E+02 -0.40989750601E+02 -0.16313732029E+02  0.10557752563E+03  0.00000000000E+00 0. -1.
        -13    1    3    3    0    0 -0.55679352827E+03 -0.21720689627E+03 -0.40403899809E+03  0.72141900508E+03  0.00000000000E+00 0.  1.
          4    1    6    6  502    0 -0.21919084143E+02  0.11096930360E+02  0.42762837707E+03  0.42833353475E+03  0.00000000000E+00 0. -1.
          1    1    5    5  503    0  0.68690485895E+02  0.46776306504E+02  0.12045755035E+02  0.83973245245E+02  0.00000000000E+00 0. -1.
         -2    1    5    5    0  503  0.59031844164E+03  0.14937468487E+03  0.36946132876E+02  0.61004399493E+03  0.00000000000E+00 0.  1.
         -3    1    6    6    0  502  0.15621964743E+02  0.50948725135E+02  0.20265174482E+03  0.20954128007E+03  0.00000000000E+00 0.  1.
<mgrwt>
<rscale>  0 0.21433060E+04</rscale>
<asrwt>0</asrwt>
<pdfrwt beam="1">  1        2 0.18598522E+00 0.21433060E+04</pdfrwt>
<pdfrwt beam="2">  1       -2 0.14615149E+00 0.21433060E+04</pdfrwt>
<totfact> 0.55145702E+00</totfact>
</mgrwt>
</event>
<event>
12    1  0.1518126E-007  0.1431939E+04  0.7818608E-02  0.8931018E-01
          2   -1    0    0  501    0  0.00000000000E+00  0.00000000000E+00  0.73976556179E+03  0.73976556179E+03  0.00000000000E+00 0. -1.
         -2   -1    0    0    0  501 -0.00000000000E+00 -0.00000000000E+00 -0.69293900264E+03  0.69293900264E+03  0.00000000000E+00 0.  1.
         23    2    1    2    0    0  0.20768622599E+03 -0.35703901286E+03 -0.84338592069E+02  0.43203609383E+03  0.94508005412E+02 0.  0.
        254    2    1    2    0    0 -0.20768622599E+03  0.35703901286E+03  0.13116515122E+03  0.10006684706E+04  0.90195491350E+03 0.  0.
        -24    2    4    4    0    0  0.49439276763E+02  0.87157170136E+02  0.47213922330E+03  0.48904416300E+03  0.78791705070E+02 0.  0.
         24    2    4    4    0    0 -0.25712550275E+03  0.26988184273E+03 -0.34097407208E+03  0.51162430760E+03  0.80909709561E+02 0.  0.
         11    1    3    3    0    0  0.12238387264E+03 -0.27390262732E+03 -0.31240257575E+02  0.30162296867E+03  0.00000000000E+00 0.  1.
        -11    1    3    3    0    0  0.85302353348E+02 -0.83136385543E+02 -0.53098334494E+02  0.13041312516E+03  0.00000000000E+00 0. -1.
          4    1    6    6  502    0 -0.26755578884E+02  0.50828402123E+02 -0.89253739180E+02  0.10613961288E+03  0.00000000000E+00 0. -1.
          1    1    5    5  503    0 -0.18021892710E+02  0.59669495487E+01  0.11765475317E+03  0.11917648278E+03  0.00000000000E+00 0. -1.
         -2    1    5    5    0  503  0.67461169473E+02  0.81190220588E+02  0.35448447013E+03  0.36986768022E+03  0.00000000000E+00 0.  1.
         -3    1    6    6    0  502 -0.23036992387E+03  0.21905344060E+03 -0.25172033290E+03  0.40548469473E+03  0.00000000000E+00 0.  1.
<mgrwt>
<rscale>  0 0.14319391E+04</rscale>
<asrwt>0</asrwt>
<pdfrwt beam="1">  1        2 0.11381009E+00 0.14319391E+04</pdfrwt>
<pdfrwt beam="2">  1       -2 0.10660600E+00 0.14319391E+04</pdfrwt>
<totfact> 0.26275006E+01</totfact>
</mgrwt>
</event>
<event>
12    1  0.1518126E-007  0.2752478E+04  0.7818608E-02  0.8318176E-01
         -2   -1    0    0    0  501 -0.00000000000E+00  0.00000000000E+00  0.28834212238E+04  0.28834212238E+04  0.00000000000E+00 0. -1.
          2   -1    0    0  501    0  0.00000000000E+00 -0.00000000000E+00 -0.65687051891E+03  0.65687051891E+03  0.00000000000E+00 0.  1.
         23    2    1    2    0    0  0.18082061138E+03 -0.92236791804E+03 -0.17044357488E+02  0.94436744317E+03  0.89892646337E+02 0.  0.
        254    2    1    2    0    0 -0.18082061138E+03  0.92236791804E+03  0.22435950623E+04  0.25959242995E+04  0.90644663122E+03 0.  0.
        -24    2    4    4    0    0  0.21886997932E+03  0.53898968499E+03  0.17632394541E+04  0.18584395571E+04  0.79813947718E+02 0.  0.
         24    2    4    4    0    0 -0.39969059069E+03  0.38337823305E+03  0.48035560822E+03  0.73748474246E+03  0.80067453691E+02 0.  0.
         13    1    3    3    0    0  0.48737682879E+02 -0.37259666385E+03  0.30197344144E+02  0.37698211527E+03  0.00000000000E+00 0. -1.
        -13    1    3    3    0    0  0.13208292850E+03 -0.54977125419E+03 -0.47241701632E+02  0.56738532789E+03  0.00000000000E+00 0.  1.
          2    1    6    6  502    0 -0.80591006657E+02  0.66994431229E+02  0.13411322188E+03  0.17020434910E+03  0.00000000000E+00 0. -1.
          1    1    5    5  503    0 -0.29909031264E+01  0.13559714777E+02  0.80001753274E+02  0.81197856458E+02  0.00000000000E+00 0. -1.
         -2    1    5    5    0  503  0.22186088245E+03  0.52542997021E+03  0.16832377009E+04  0.17772417006E+04  0.00000000000E+00 0.  1.
         -3    1    6    6    0  502 -0.31909958404E+03  0.31638380182E+03  0.34624238634E+03  0.56728039336E+03  0.00000000000E+00 0.  1.
<mgrwt>
<rscale>  0 0.27524784E+04</rscale>
<asrwt>0</asrwt>
<pdfrwt beam="1">  1        2 0.10105700E+00 0.27524784E+04</pdfrwt>
<pdfrwt beam="2">  1       -2 0.44360326E+00 0.27524784E+04</pdfrwt>
<totfact> 0.14815433E-01</totfact>
</mgrwt>
</event>
<event>
12    1  0.1518126E-007  0.2748332E+04  0.7818608E-02  0.8319491E-01
         -4   -1    0    0    0  501 -0.00000000000E+00  0.00000000000E+00  0.14181681806E+04  0.14181681806E+04  0.00000000000E+00 0.  1.
          4   -1    0    0  501    0  0.00000000000E+00 -0.00000000000E+00 -0.13315292929E+04  0.13315292929E+04  0.00000000000E+00 0. -1.
         23    2    1    2    0    0  0.61655153441E+03 -0.48598171396E+03  0.97637810947E+03  0.12560455945E+04  0.89567303806E+02 0.  0.
        254    2    1    2    0    0 -0.61655153441E+03  0.48598171396E+03 -0.88973922170E+03  0.14936518790E+04  0.90721884465E+03 0.  0.
        -24    2    4    4    0    0 -0.63971401053E+03  0.52099889724E+03 -0.27674987508E+03  0.87389582103E+03  0.80184452761E+02 0.  0.
         24    2    4    4    0    0  0.23162476121E+02 -0.35017183280E+02 -0.61298934662E+03  0.61975605796E+03  0.81110596634E+02 0.  0.
         11    1    3    3    0    0  0.91595898824E+02 -0.10596119710E+03  0.14077096598E+03  0.19858008166E+03  0.00000000000E+00 0. -1.
        -11    1    3    3    0    0  0.52495563558E+03 -0.38002051686E+03  0.83560714349E+03  0.10574655128E+04  0.00000000000E+00 0.  1.
          4    1    6    6  502    0  0.33300822229E+02 -0.45110653416E+02 -0.59013939926E+03  0.59279712075E+03  0.00000000000E+00 0. -1.
          1    1    5    5  503    0 -0.53809684659E+03  0.46092601103E+03 -0.21358598917E+03  0.74001349902E+03  0.00000000000E+00 0. -1.
         -2    1    5    5    0  503 -0.10161716394E+03  0.60072886204E+02 -0.63163885914E+02  0.13388232201E+03  0.00000000000E+00 0.  1.
         -3    1    6    6    0  502 -0.10138346107E+02  0.10093470136E+02 -0.22849947362E+02  0.26958937212E+02  0.00000000000E+00 0.  1.
<mgrwt>
<rscale>  0 0.27483322E+04</rscale>
<asrwt>0</asrwt>
<pdfrwt beam="1">  1        4 0.20485066E+00 0.27483322E+04</pdfrwt>
<pdfrwt beam="2">  1       -4 0.21817972E+00 0.27483322E+04</pdfrwt>
<totfact> 0.21300732E-02</totfact>
</mgrwt>
</event>
<event>
12    1  0.1518126E-007  0.1607934E+04  0.7818608E-02  0.8815688E-01
         -2   -1    0    0    0  501 -0.00000000000E+00  0.00000000000E+00  0.76392286543E+03  0.76392286543E+03  0.00000000000E+00 0.  1.
          2   -1    0    0  501    0  0.00000000000E+00 -0.00000000000E+00 -0.84611058929E+03  0.84611058929E+03  0.00000000000E+00 0. -1.
         23    2    1    2    0    0 -0.19825354032E+03 -0.36709794955E+03  0.31830220653E+03  0.53268944745E+03  0.91522576072E+02 0.  0.
        254    2    1    2    0    0  0.19825354032E+03  0.36709794955E+03 -0.40048993039E+03  0.10773440073E+04  0.90896235061E+03 0.  0.
        -24    2    4    4    0    0  0.13493119799E+03  0.65292983833E+03 -0.16033681180E+03  0.69035220451E+03  0.79714936371E+02 0.  0.
         24    2    4    4    0    0  0.63322342335E+02 -0.28583188878E+03 -0.24015311859E+03  0.38699180275E+03  0.79872068629E+02 0.  0.
         13    1    3    3    0    0 -0.15588832761E+03 -0.28134935683E+03  0.28965145387E+03  0.43284708155E+03  0.00000000000E+00 0. -1.
        -13    1    3    3    0    0 -0.42365212706E+02 -0.85748592723E+02  0.28650752658E+02  0.99842365905E+02  0.00000000000E+00 0.  1.
          4    1    6    6  502    0  0.25471108313E+02 -0.52283901837E+02 -0.14272120019E+02  0.59883863936E+02  0.00000000000E+00 0. -1.
          1    1    5    5  503    0  0.77811231515E+02  0.29496233091E+03 -0.11048328531E+03  0.32444401788E+03  0.00000000000E+00 0. -1.
         -2    1    5    5    0  503  0.57119966471E+02  0.35796750742E+03 -0.49853526491E+02  0.36590818663E+03  0.00000000000E+00 0.  1.
         -3    1    6    6    0  502  0.37851234022E+02 -0.23354798694E+03 -0.22588099857E+03  0.32710793882E+03  0.00000000000E+00 0.  1.
<mgrwt>
<rscale>  0 0.16079344E+04</rscale>
<asrwt>0</asrwt>
<pdfrwt beam="1">  1        2 0.13017086E+00 0.16079344E+04</pdfrwt>
<pdfrwt beam="2">  1       -2 0.11752660E+00 0.16079344E+04</pdfrwt>
<totfact> 0.17112488E+01</totfact>
</mgrwt>
</event>
<event>
12    1  0.1518126E-007  0.1358309E+04  0.7818608E-02  0.8984562E-01
         -2   -1    0    0    0  501 -0.00000000000E+00  0.00000000000E+00  0.13729381570E+04  0.13729381570E+04  0.00000000000E+00 0.  1.
          2   -1    0    0  501    0  0.00000000000E+00 -0.00000000000E+00 -0.33595895894E+03  0.33595895894E+03  0.00000000000E+00 0. -1.
         23    2    1    2    0    0 -0.36060760200E+03  0.85273524134E+02  0.25708534401E+03  0.46035925859E+03  0.92349100261E+02 0.  0.
        254    2    1    2    0    0  0.36060760200E+03 -0.85273524134E+02  0.77989385408E+03  0.12485378574E+04  0.90183310050E+03 0.  0.
        -24    2    4    4    0    0 -0.10844107794E+03 -0.38655396084E+03  0.37624604886E+03  0.55599615736E+03  0.79919995576E+02 0.  0.
         24    2    4    4    0    0  0.46904867994E+03  0.30128043671E+03  0.40364780522E+03  0.69254170003E+03  0.76849788046E+02 0.  0.
         13    1    3    3    0    0 -0.31475466108E+03  0.10019720780E+03  0.20216219231E+03  0.38727190592E+03  0.00000000000E+00 0. -1.
        -13    1    3    3    0    0 -0.45852940928E+02 -0.14923683665E+02  0.54923151707E+02  0.73087352663E+02  0.00000000000E+00 0.  1.
          4    1    6    6  502    0  0.20005390380E+03  0.91066830370E+02  0.13327728203E+03  0.25705556972E+03  0.00000000000E+00 0. -1.
          1    1    5    5  503    0 -0.11509491905E+03 -0.37981955065E+03  0.37572405727E+03  0.54651468293E+03  0.00000000000E+00 0. -1.
         -2    1    5    5    0  503  0.66538411122E+01 -0.67344101928E+01  0.52199158848E+00  0.94814744323E+01  0.00000000000E+00 0.  1.
         -3    1    6    6    0  502  0.26899477614E+03  0.21021360634E+03  0.27037052320E+03  0.43548613031E+03  0.00000000000E+00 0.  1.
<mgrwt>
<rscale>  0 0.13583091E+04</rscale>
<asrwt>0</asrwt>
<pdfrwt beam="1">  1        2 0.51685994E-01 0.13583091E+04</pdfrwt>
<pdfrwt beam="2">  1       -2 0.21122125E+00 0.13583091E+04</pdfrwt>
<totfact> 0.10614187E+01</totfact>
</mgrwt>
</event>
<event>
12    1  0.1518126E-007  0.1592255E+04  0.7818608E-02  0.8825320E-01
          1   -1    0    0  501    0  0.00000000000E+00  0.00000000000E+00  0.38222079408E+03  0.38222079408E+03  0.00000000000E+00 0.  1.
         -1   -1    0    0    0  501 -0.00000000000E+00 -0.00000000000E+00 -0.16582536756E+04  0.16582536756E+04  0.00000000000E+00 0. -1.
         23    2    1    2    0    0  0.23956962327E+03 -0.24789317623E+03  0.84376569325E+02  0.36644724727E+03  0.91211558279E+02 0.  0.
        254    2    1    2    0    0 -0.23956962327E+03  0.24789317623E+03 -0.13604094508E+04  0.16740272224E+04  0.91258349548E+03 0.  0.
        -24    2    4    4    0    0 -0.42146355234E+03 -0.13731233705E+03 -0.10454139091E+04  0.11382565321E+04  0.79066349415E+02 0.  0.
         24    2    4    4    0    0  0.18189392907E+03  0.38520551329E+03 -0.31499554173E+03  0.53577069033E+03  0.79745547895E+02 0.  0.
         13    1    3    3    0    0  0.11640541038E+03 -0.16680864365E+03  0.81017291758E+02  0.21895009643E+03  0.00000000000E+00 0.  1.
        -13    1    3    3    0    0  0.12316421288E+03 -0.81084532584E+02  0.33592775665E+01  0.14749715084E+03  0.00000000000E+00 0. -1.
          4    1    6    6  502    0  0.17977052583E+03  0.36864519962E+03 -0.27885652026E+03  0.49596137355E+03  0.00000000000E+00 0. -1.
          1    1    5    5  503    0 -0.32993123014E+03 -0.13658141723E+03 -0.79060661161E+03  0.86750672301E+03  0.00000000000E+00 0. -1.
         -2    1    5    5    0  503 -0.91532322200E+02 -0.73091982478E+00 -0.25480729750E+03  0.27074980907E+03  0.00000000000E+00 0.  1.
         -3    1    6    6    0  502  0.21234032442E+01  0.16560313666E+02 -0.36139021469E+02  0.39809316784E+02  0.00000000000E+00 0.  1.
<mgrwt>
<rscale>  0 0.15922551E+04</rscale>
<asrwt>0</asrwt>
<pdfrwt beam="1">  1        1 0.58803198E-01 0.15922551E+04</pdfrwt>
<pdfrwt beam="2">  1       -1 0.25511595E+00 0.15922551E+04</pdfrwt>
<totfact> 0.39531499E+00</totfact>
</mgrwt>
</event>
<event>
12    1  0.1518126E-007  0.2863019E+04  0.7818608E-02  0.8283966E-01
         -2   -1    0    0    0  501 -0.00000000000E+00  0.00000000000E+00  0.48625912659E+03  0.48625912659E+03  0.00000000000E+00 0.  1.
          2   -1    0    0  501    0  0.00000000000E+00 -0.00000000000E+00 -0.42142534492E+04  0.42142534492E+04  0.00000000000E+00 0. -1.
         23    2    1    2    0    0 -0.69798854345E+03  0.72794825642E+03 -0.30120940685E+04  0.31777273723E+04  0.90243582249E+02 0.  0.
        254    2    1    2    0    0  0.69798854345E+03 -0.72794825642E+03 -0.71590025411E+03  0.15227852035E+04  0.88840583713E+03 0.  0.
        -24    2    4    4    0    0  0.56368702301E+03 -0.39785452342E+03  0.27120300515E+02  0.69496963061E+03  0.78841582060E+02 0.  0.
         24    2    4    4    0    0  0.13430152044E+03 -0.33009373300E+03 -0.74302055463E+03  0.82781557292E+03  0.78742029512E+02 0.  0.
         13    1    3    3    0    0 -0.24364664187E+03  0.26660851374E+03 -0.12148673013E+04  0.12674171947E+04  0.00000000000E+00 0. -1.
        -13    1    3    3    0    0 -0.45434190158E+03  0.46133974268E+03 -0.17972267672E+04  0.19103101776E+04  0.00000000000E+00 0.  1.
          2    1    6    6  502    0  0.13697860926E+03 -0.25199609884E+03 -0.58282461734E+03  0.64957656039E+03  0.00000000000E+00 0. -1.
          3    1    5    5  503    0  0.28239750834E+03 -0.22760947125E+03  0.46118961912E+02  0.36562464737E+03  0.00000000000E+00 0. -1.
         -4    1    5    5    0  503  0.28128951467E+03 -0.17024505217E+03 -0.18998661397E+02  0.32934498324E+03  0.00000000000E+00 0.  1.
         -1    1    6    6    0  502 -0.26770888177E+01 -0.78097634156E+02 -0.16019593729E+03  0.17823901253E+03  0.00000000000E+00 0.  1.
<mgrwt>
<rscale>  0 0.28630188E+04</rscale>
<asrwt>0</asrwt>
<pdfrwt beam="1">  1        2 0.64834666E+00 0.28630188E+04</pdfrwt>
<pdfrwt beam="2">  1       -2 0.74809099E-01 0.28630188E+04</pdfrwt>
<totfact> 0.31431476E-01</totfact>
</mgrwt>
</event>
<event>
12    1  0.1518126E-007  0.1043283E+04  0.7818608E-02  0.9262307E-01
         -1   -1    0    0    0  501 -0.00000000000E+00  0.00000000000E+00  0.24569621323E+03  0.24569621323E+03  0.00000000000E+00 0.  1.
          1   -1    0    0  501    0  0.00000000000E+00 -0.00000000000E+00 -0.11075046162E+04  0.11075046162E+04  0.00000000000E+00 0. -1.
         23    2    1    2    0    0  0.30843680335E+02  0.80587046578E+02 -0.60445843489E+02  0.13942317930E+03  0.91320962758E+02 0.  0.
        254    2    1    2    0    0 -0.30843680335E+02 -0.80587046578E+02 -0.80136255943E+03  0.12137776501E+04  0.90753987652E+03 0.  0.
        -24    2    4    4    0    0  0.23834200083E+02  0.35760814931E+03 -0.63681023798E+03  0.73515049377E+03  0.80419598029E+02 0.  0.
         24    2    4    4    0    0 -0.54677880418E+02 -0.43819519589E+03 -0.16455232146E+03  0.47862715631E+03  0.83676687027E+02 0.  0.
         13    1    3    3    0    0  0.18065834051E+02  0.68613502638E+02 -0.84075005727E+02  0.11001269787E+03  0.00000000000E+00 0. -1.
        -13    1    3    3    0    0  0.12777846283E+02  0.11973543940E+02  0.23629162238E+02  0.29410481435E+02  0.00000000000E+00 0.  1.
          4    1    6    6  502    0 -0.59313430569E+02 -0.35373751676E+03 -0.10038902080E+03  0.37245975528E+03  0.00000000000E+00 0. -1.
          1    1    5    5  503    0  0.16945134872E+02  0.22303494615E+03 -0.31565577524E+03  0.38687245087E+03  0.00000000000E+00 0. -1.
         -2    1    5    5    0  503  0.68890652112E+01  0.13457320316E+03 -0.32115446273E+03  0.34827804289E+03  0.00000000000E+00 0.  1.
         -3    1    6    6    0  502  0.46355501517E+01 -0.84457679128E+02 -0.64163300655E+02  0.10616740102E+03  0.00000000000E+00 0.  1.
<mgrwt>
<rscale>  0 0.10432827E+04</rscale>
<asrwt>0</asrwt>
<pdfrwt beam="1">  1        1 0.17038533E+00 0.10432827E+04</pdfrwt>
<pdfrwt beam="2">  1       -1 0.37799417E-01 0.10432827E+04</pdfrwt>
<totfact> 0.84441606E+01</totfact>
</mgrwt>
</event>
<event>
12    1  0.1518126E-007  0.1241341E+04  0.7818608E-02  0.9077421E-01
         -1   -1    0    0    0  501 -0.00000000000E+00  0.00000000000E+00  0.60037243027E+03  0.60037243027E+03  0.00000000000E+00 0.  1.
          1   -1    0    0  501    0  0.00000000000E+00 -0.00000000000E+00 -0.64165506164E+03  0.64165506164E+03  0.00000000000E+00 0. -1.
         23    2    1    2    0    0 -0.23666340400E+02 -0.16872598787E+03  0.18745455777E+03  0.26928899390E+03  0.91371748125E+02 0.  0.
        254    2    1    2    0    0  0.23666340400E+02  0.16872598787E+03 -0.22873718914E+03  0.97273849802E+03  0.92998437040E+03 0.  0.
        -24    2    4    4    0    0 -0.22362218778E+03 -0.35887931154E+02  0.27804206221E+03  0.36752623478E+03  0.80456935217E+02 0.  0.
         24    2    4    4    0    0  0.24728852818E+03  0.20461391902E+03 -0.50677925135E+03  0.60521226323E+03  0.80238406930E+02 0.  0.
         11    1    3    3    0    0 -0.45452749777E+02 -0.72417217065E+02  0.46903745526E+02  0.97520085798E+02  0.00000000000E+00 0. -1.
        -11    1    3    3    0    0  0.21786409377E+02 -0.96308770803E+02  0.14055081224E+03  0.17176890810E+03  0.00000000000E+00 0.  1.
          2    1    6    6  502    0  0.16282831951E+03  0.17951175277E+03 -0.38409376313E+03  0.45416467266E+03  0.00000000000E+00 0. -1.
          1    1    5    5  503    0 -0.19698523881E+02 -0.40937861411E+01  0.76331460909E+02  0.78938475109E+02  0.00000000000E+00 0. -1.
         -2    1    5    5    0  503 -0.20392366390E+03 -0.31794145013E+02  0.20171060130E+03  0.28858775967E+03  0.00000000000E+00 0.  1.
         -1    1    6    6    0  502  0.84460208673E+02  0.25102166251E+02 -0.12268548821E+03  0.15104759057E+03  0.00000000000E+00 0.  1.
<mgrwt>
<rscale>  0 0.12413412E+04</rscale>
<asrwt>0</asrwt>
<pdfrwt beam="1">  1        1 0.98716163E-01 0.12413412E+04</pdfrwt>
<pdfrwt beam="2">  1       -1 0.92364989E-01 0.12413412E+04</pdfrwt>
<totfact> 0.34953893E+01</totfact>
</mgrwt>
</event>
<event>
12    1  0.1518126E-007  0.2465404E+04  0.7818608E-02  0.8415415E-01
         -2   -1    0    0    0  501 -0.00000000000E+00  0.00000000000E+00  0.96238998034E+03  0.96238998034E+03  0.00000000000E+00 0.  1.
          2   -1    0    0  501    0  0.00000000000E+00 -0.00000000000E+00 -0.15789378213E+04  0.15789378213E+04  0.00000000000E+00 0. -1.
         23    2    1    2    0    0  0.30258077429E+03  0.78683856622E+03 -0.95241835294E+03  0.12751277715E+04  0.90443686908E+02 0.  0.
        254    2    1    2    0    0 -0.30258077429E+03 -0.78683856622E+03  0.33587051195E+03  0.12662000301E+04  0.88305348718E+03 0.  0.
        -24    2    4    4    0    0 -0.12510315029E+03 -0.76186985000E+03 -0.10513005088E+03  0.78331467804E+03  0.80206550078E+02 0.  0.
         24    2    4    4    0    0 -0.17747762400E+03 -0.24968716220E+02  0.44100056283E+03  0.48288535208E+03  0.81086515730E+02 0.  0.
         13    1    3    3    0    0  0.16598331785E+03  0.33457201175E+03 -0.37812208772E+03  0.53147455826E+03  0.00000000000E+00 0. -1.
        -13    1    3    3    0    0  0.13659745643E+03  0.45226655447E+03 -0.57429626522E+03  0.74365321329E+03  0.00000000000E+00 0.  1.
          2    1    6    6  502    0 -0.77138784655E+02 -0.34516509866E+02  0.12253938662E+03  0.14885456938E+03  0.00000000000E+00 0. -1.
          1    1    5    5  503    0  0.57035546801E+01 -0.63572373595E+02  0.64879170690E+01  0.64156607519E+02  0.00000000000E+00 0. -1.
         -2    1    5    5    0  503 -0.13080670497E+03 -0.69829747641E+03 -0.11161796795E+03  0.71915807052E+03  0.00000000000E+00 0.  1.
         -1    1    6    6    0  502 -0.10033883934E+03  0.95477936451E+01  0.31846117620E+03  0.33403078270E+03  0.00000000000E+00 0.  1.
<mgrwt>
<rscale>  0 0.24654038E+04</rscale>
<asrwt>0</asrwt>
<pdfrwt beam="1">  1        2 0.24291351E+00 0.24654038E+04</pdfrwt>
<pdfrwt beam="2">  1       -2 0.14806000E+00 0.24654038E+04</pdfrwt>
<totfact> 0.31791442E+00</totfact>
</mgrwt>
</event>
<event>
12    1  0.1518126E-007  0.1109681E+04  0.7818608E-02  0.9195808E-01
         -1   -1    0    0    0  501 -0.00000000000E+00  0.00000000000E+00  0.46274475160E+03  0.46274475160E+03  0.00000000000E+00 0. -1.
          1   -1    0    0  501    0  0.00000000000E+00 -0.00000000000E+00 -0.66526468987E+03  0.66526468987E+03  0.00000000000E+00 0.  1.
         23    2    1    2    0    0  0.17998603514E+02 -0.12236072915E+02 -0.19719714787E+03  0.21852519750E+03  0.91612638879E+02 0.  0.
        254    2    1    2    0    0 -0.17998603514E+02  0.12236072915E+02 -0.53227903996E+01  0.90948424398E+03  0.90920821968E+03 0.  0.
        -24    2    4    4    0    0  0.27866610405E+03  0.23639921625E+03 -0.25590060309E+03  0.45407604840E+03  0.84620045384E+02 0.  0.
         24    2    4    4    0    0 -0.29666470756E+03 -0.22416314333E+03  0.25057781269E+03  0.45540819557E+03  0.79676350572E+02 0.  0.
         11    1    3    3    0    0  0.80004831678E+01  0.38800480189E+02 -0.11095724802E+03  0.11781763825E+03  0.00000000000E+00 0. -1.
        -11    1    3    3    0    0  0.99981203458E+01 -0.51036553104E+02 -0.86239899851E+02  0.10070755925E+03  0.00000000000E+00 0.  1.
          4    1    6    6  502    0 -0.29971195133E+03 -0.22684141772E+03  0.24969622228E+03  0.45125656337E+03  0.00000000000E+00 0. -1.
          3    1    5    5  503    0  0.20106098911E+03  0.20797744623E+03 -0.17321995415E+03  0.33717249591E+03  0.00000000000E+00 0. -1.
         -4    1    5    5    0  503  0.77605114942E+02  0.28421770015E+02 -0.82680648940E+02  0.11690355249E+03  0.00000000000E+00 0.  1.
         -3    1    6    6    0  502  0.30472437716E+01  0.26782743855E+01  0.88159041109E+00  0.41516322020E+01  0.00000000000E+00 0.  1.
<mgrwt>
<rscale>  0 0.11096806E+04</rscale>
<asrwt>0</asrwt>
<pdfrwt beam="1">  1        1 0.10234841E+00 0.11096806E+04</pdfrwt>
<pdfrwt beam="2">  1       -1 0.71191501E-01 0.11096806E+04</pdfrwt>
<totfact> 0.58405906E+01</totfact>
</mgrwt>
</event>
<event>
12    1  0.1518126E-007  0.1603300E+04  0.7818608E-02  0.8818523E-01
          2   -1    0    0  501    0  0.00000000000E+00  0.00000000000E+00  0.19911002819E+04  0.19911002819E+04  0.00000000000E+00 0. -1.
         -2   -1    0    0    0  501 -0.00000000000E+00 -0.00000000000E+00 -0.32275778065E+03  0.32275778065E+03  0.00000000000E+00 0.  1.
         23    2    1    2    0    0 -0.53395454443E+03  0.55077964131E+02  0.53894658480E+03  0.76634385161E+03  0.93158144983E+02 0.  0.
        254    2    1    2    0    0  0.53395454443E+03 -0.55077964131E+02  0.11293959164E+04  0.15475142109E+04  0.91166005688E+03 0.  0.
        -24    2    4    4    0    0  0.70058998424E+03 -0.87150987547E+02  0.44591395034E+03  0.83883597914E+03  0.79905745381E+02 0.  0.
         24    2    4    4    0    0 -0.16663543982E+03  0.32073023417E+02  0.68348196610E+03  0.70867823179E+03  0.79253956299E+02 0.  0.
         11    1    3    3    0    0 -0.47016687924E+03  0.60672954851E+02  0.43029768705E+03  0.64022980348E+03  0.00000000000E+00 0.  1.
        -11    1    3    3    0    0 -0.63787665182E+02 -0.55949907206E+01  0.10864889776E+03  0.12611404812E+03  0.00000000000E+00 0. -1.
          2    1    6    6  502    0 -0.10379167501E+03  0.44853781161E+02  0.31547844361E+03  0.33512866465E+03  0.00000000000E+00 0. -1.
          1    1    5    5  503    0  0.59454911494E+03 -0.10142454014E+03  0.36898519760E+03  0.70705421537E+03  0.00000000000E+00 0. -1.
         -2    1    5    5    0  503  0.10604086930E+03  0.14273552593E+02  0.76928752735E+02  0.13178176377E+03  0.00000000000E+00 0.  1.
         -1    1    6    6    0  502 -0.62843764802E+02 -0.12780757744E+02  0.36800352249E+03  0.37354956714E+03  0.00000000000E+00 0.  1.
<mgrwt>
<rscale>  0 0.16033005E+04</rscale>
<asrwt>0</asrwt>
<pdfrwt beam="1">  1        2 0.30632311E+00 0.16033005E+04</pdfrwt>
<pdfrwt beam="2">  1       -2 0.49655044E-01 0.16033005E+04</pdfrwt>
<totfact> 0.24871079E+01</totfact>
</mgrwt>
</event>
<event>
12    1  0.1518126E-007  0.2026297E+04  0.7818608E-02  0.8594424E-01
         -1   -1    0    0    0  501 -0.00000000000E+00  0.00000000000E+00  0.10352698306E+04  0.10352698306E+04  0.00000000000E+00 0.  1.
          1   -1    0    0  501    0  0.00000000000E+00 -0.00000000000E+00 -0.99150013342E+03  0.99150013342E+03  0.00000000000E+00 0. -1.
         23    2    1    2    0    0  0.50906198910E+03  0.20651099618E+02  0.64552206468E+03  0.82738413405E+03  0.91077948107E+02 0.  0.
        254    2    1    2    0    0 -0.50906198910E+03 -0.20651099618E+02 -0.60175236753E+03  0.11993858299E+04  0.90379747762E+03 0.  0.
        -24    2    4    4    0    0 -0.42394020721E+02 -0.65308012494E+02  0.22189169056E+03  0.24831569783E+03  0.79764490588E+02 0.  0.
         24    2    4    4    0    0 -0.46666796838E+03  0.44656912875E+02 -0.82364405809E+03  0.95107013210E+03  0.79822485356E+02 0.  0.
         13    1    3    3    0    0  0.24342031557E+03  0.54755220747E+02  0.29894047395E+03  0.38938026555E+03  0.00000000000E+00 0. -1.
        -13    1    3    3    0    0  0.26564167353E+03 -0.34104121128E+02  0.34658159073E+03  0.43800386850E+03  0.00000000000E+00 0.  1.
          4    1    6    6  502    0 -0.40923132383E+03  0.55027643368E+02 -0.75846463551E+03  0.86357797636E+03  0.00000000000E+00 0. -1.
          3    1    5    5  503    0 -0.40208144101E+02 -0.70095320070E+02  0.22701646933E+03  0.24096996928E+03  0.00000000000E+00 0. -1.
         -4    1    5    5    0  503 -0.21858766194E+01  0.47873075760E+01 -0.51247787705E+01  0.73457285459E+01  0.00000000000E+00 0.  1.
         -3    1    6    6    0  502 -0.57436644546E+02 -0.10370730492E+02 -0.65179422579E+02  0.87492155736E+02  0.00000000000E+00 0.  1.
<mgrwt>
<rscale>  0 0.20262973E+04</rscale>
<asrwt>0</asrwt>
<pdfrwt beam="1">  1        1 0.15253848E+00 0.20262973E+04</pdfrwt>
<pdfrwt beam="2">  1       -1 0.15927228E+00 0.20262973E+04</pdfrwt>
<totfact> 0.42094429E+00</totfact>
</mgrwt>
</event>
<event>
12    1  0.1518126E-007  0.1624511E+04  0.7818608E-02  0.8805630E-01
          1   -1    0    0  501    0  0.00000000000E+00  0.00000000000E+00  0.20464626880E+04  0.20464626880E+04  0.00000000000E+00 0. -1.
         -1   -1    0    0    0  501 -0.00000000000E+00 -0.00000000000E+00 -0.32238978778E+03  0.32238978778E+03  0.00000000000E+00 0.  1.
         23    2    1    2    0    0 -0.33907002509E+03 -0.14777390540E+03  0.28038797657E+02  0.37970782738E+03  0.81155720500E+02 0.  0.
        254    2    1    2    0    0  0.33907002509E+03  0.14777390540E+03  0.16960341026E+04  0.19891446484E+04  0.97126677395E+03 0.  0.
        -24    2    4    4    0    0 -0.30358966642E+02  0.49630433418E+03  0.10455950038E+04  0.11602311520E+04  0.75018365402E+02 0.  0.
         24    2    4    4    0    0  0.36942899173E+03 -0.34853042878E+03  0.65043909882E+03  0.82891349644E+03  0.77944362130E+02 0.  0.
         13    1    3    3    0    0 -0.48466548742E+01 -0.13004257046E+02 -0.10327521914E+02  0.17299088811E+02  0.00000000000E+00 0. -1.
        -13    1    3    3    0    0 -0.33422337022E+03 -0.13476964835E+03  0.38366319571E+02  0.36240873857E+03  0.00000000000E+00 0.  1.
          2    1    6    6  502    0  0.15547806811E+02 -0.44267472826E+02  0.52683787459E+02  0.70547323890E+02  0.00000000000E+00 0. -1.
          3    1    5    5  503    0  0.52623771608E+01  0.27889110365E+03  0.51443345187E+03  0.58519203405E+03  0.00000000000E+00 0. -1.
         -4    1    5    5    0  503 -0.35621343803E+02  0.21741323053E+03  0.53116155188E+03  0.57503911792E+03  0.00000000000E+00 0.  1.
         -1    1    6    6    0  502  0.35388118492E+03 -0.30426295596E+03  0.59775531136E+03  0.75836617255E+03  0.00000000000E+00 0.  1.
<mgrwt>
<rscale>  0 0.16245106E+04</rscale>
<asrwt>0</asrwt>
<pdfrwt beam="1">  1        1 0.31484041E+00 0.16245106E+04</pdfrwt>
<pdfrwt beam="2">  1       -1 0.49598430E-01 0.16245106E+04</pdfrwt>
<totfact> 0.10821686E+01</totfact>
</mgrwt>
</event>
<event>
12    1  0.1518126E-007  0.1582778E+04  0.7818608E-02  0.8831198E-01
         -2   -1    0    0    0  501 -0.00000000000E+00  0.00000000000E+00  0.16361672150E+04  0.16361672150E+04  0.00000000000E+00 0.  1.
          2   -1    0    0  501    0  0.00000000000E+00 -0.00000000000E+00 -0.38278278158E+03  0.38278278158E+03  0.00000000000E+00 0. -1.
         23    2    1    2    0    0 -0.11727391483E+03  0.43718532458E+03  0.74262942357E+02  0.47022843246E+03  0.10351625454E+03 0.  0.
        254    2    1    2    0    0  0.11727391483E+03 -0.43718532458E+03  0.11791214911E+04  0.15487215641E+04  0.89628500678E+03 0.  0.
        -24    2    4    4    0    0  0.26621101922E+03 -0.90506292473E+02 -0.16091964840E+02  0.29266589024E+03  0.79590679417E+02 0.  0.
         24    2    4    4    0    0 -0.14893710439E+03 -0.34667903211E+03  0.11952134559E+04  0.12560556739E+04  0.82292395491E+02 0.  0.
         13    1    3    3    0    0 -0.97167155935E+02  0.16564869850E+03  0.29871944983E+02  0.19435349393E+03  0.00000000000E+00 0.  1.
        -13    1    3    3    0    0 -0.20106758896E+02  0.27153662609E+03  0.44390997374E+02  0.27587493853E+03  0.00000000000E+00 0. -1.
          4    1    6    6  502    0 -0.39264664823E+02 -0.18484439757E+03  0.52829929863E+03  0.56107870584E+03  0.00000000000E+00 0. -1.
          1    1    5    5  503    0  0.13388944693E+03 -0.82259578899E+01  0.10675708428E+02  0.13456604747E+03  0.00000000000E+00 0. -1.
         -2    1    5    5    0  503  0.13232157229E+03 -0.82280334583E+02 -0.26767673268E+02  0.15809984277E+03  0.00000000000E+00 0.  1.
         -3    1    6    6    0  502 -0.10967243956E+03 -0.16183463454E+03  0.66691415728E+03  0.69497696804E+03  0.00000000000E+00 0.  1.
<mgrwt>
<rscale>  0 0.15827781E+04</rscale>
<asrwt>0</asrwt>
<pdfrwt beam="1">  1        2 0.58889659E-01 0.15827781E+04</pdfrwt>
<pdfrwt beam="2">  1       -2 0.25171803E+00 0.15827781E+04</pdfrwt>
<totfact> 0.50343827E+00</totfact>
</mgrwt>
</event>
<event>
12    1  0.1518126E-007  0.2096066E+04  0.7818608E-02  0.8562978E-01
         -2   -1    0    0    0  501 -0.00000000000E+00  0.00000000000E+00  0.26048759052E+03  0.26048759052E+03  0.00000000000E+00 0.  1.
          2   -1    0    0  501    0  0.00000000000E+00 -0.00000000000E+00 -0.42166055996E+04  0.42166055996E+04  0.00000000000E+00 0. -1.
         23    2    1    2    0    0  0.48597983274E+03 -0.14410434434E+03 -0.15473881971E+03  0.53781600274E+03  0.91430249872E+02 0.  0.
        254    2    1    2    0    0 -0.48597983274E+03  0.14410434434E+03 -0.38013791894E+04  0.39392771874E+04  0.90026582620E+03 0.  0.
        -24    2    4    4    0    0 -0.52604140423E+03  0.42837635844E+03 -0.31537714572E+04  0.32268411663E+04  0.77483192846E+02 0.  0.
         24    2    4    4    0    0  0.40061571491E+02 -0.28427201410E+03 -0.64760773220E+03  0.71243602107E+03  0.75853818621E+02 0.  0.
         11    1    3    3    0    0  0.44552187447E+03 -0.12475255834E+03 -0.16606618792E+03  0.49155968124E+03  0.00000000000E+00 0.  1.
        -11    1    3    3    0    0  0.40457958265E+02 -0.19351785997E+02  0.11327368213E+02  0.46256321502E+02  0.00000000000E+00 0. -1.
          4    1    6    6  502    0  0.11417936592E+02 -0.16120970474E+03 -0.27482601052E+03  0.31882326489E+03  0.00000000000E+00 0. -1.
          1    1    5    5  503    0 -0.25103233654E+03  0.17606873326E+03 -0.15734417028E+04  0.16030396829E+04  0.00000000000E+00 0. -1.
         -2    1    5    5    0  503 -0.27500906769E+03  0.25230762518E+03 -0.15803297543E+04  0.16238014834E+04  0.00000000000E+00 0.  1.
         -3    1    6    6    0  502  0.28643634899E+02 -0.12306230936E+03 -0.37278172168E+03  0.39361275617E+03  0.00000000000E+00 0.  1.
<mgrwt>
<rscale>  0 0.20960663E+04</rscale>
<asrwt>0</asrwt>
<pdfrwt beam="1">  1        2 0.64870854E+00 0.20960663E+04</pdfrwt>
<pdfrwt beam="2">  1       -2 0.40075015E-01 0.20960663E+04</pdfrwt>
<totfact> 0.12353018E+00</totfact>
</mgrwt>
</event>
<event>
12    1  0.1518126E-007  0.1220523E+04  0.7818608E-02  0.9095080E-01
         -2   -1    0    0    0  501 -0.00000000000E+00  0.00000000000E+00  0.25470161419E+03  0.25470161419E+03  0.00000000000E+00 0.  1.
          2   -1    0    0  501    0  0.00000000000E+00 -0.00000000000E+00 -0.14621775510E+04  0.14621775510E+04  0.00000000000E+00 0. -1.
         23    2    1    2    0    0  0.28963155659E+03 -0.25644633243E+03 -0.49677626748E+03  0.63588366655E+03  0.88939403317E+02 0.  0.
        254    2    1    2    0    0 -0.28963155659E+03  0.25644633243E+03 -0.71069966932E+03  0.10809954986E+04  0.71680268421E+03 0.  0.
        -24    2    4    4    0    0  0.18354694709E+03  0.21870269423E+03 -0.12197565473E+03  0.32044313159E+03  0.79280451498E+02 0.  0.
         24    2    4    4    0    0 -0.47317850368E+03  0.37743638198E+02 -0.58872401459E+03  0.76055236704E+03  0.80755551405E+02 0.  0.
         11    1    3    3    0    0  0.28153444534E+02 -0.44890600886E+02 -0.11786098164E+03  0.12922458544E+03  0.00000000000E+00 0.  1.
        -11    1    3    3    0    0  0.26147811206E+03 -0.21155573154E+03 -0.37891528584E+03  0.50665908111E+03  0.00000000000E+00 0. -1.
          2    1    6    6  502    0 -0.28687409517E+02  0.22072845336E+02 -0.35354292066E+02  0.50597469635E+02  0.00000000000E+00 0. -1.
          3    1    5    5  503    0  0.61171862929E+02  0.66111682658E+02 -0.27299901741E+00  0.90071226962E+02  0.00000000000E+00 0. -1.
         -4    1    5    5    0  503  0.12237508416E+03  0.15259101157E+03 -0.12170265572E+03  0.23037190463E+03  0.00000000000E+00 0.  1.
         -1    1    6    6    0  502 -0.44449109416E+03  0.15670792861E+02 -0.55336972252E+03  0.70995489740E+03  0.00000000000E+00 0.  1.
<mgrwt>
<rscale>  0 0.12205228E+04</rscale>
<asrwt>0</asrwt>
<pdfrwt beam="1">  1        2 0.22495039E+00 0.12205228E+04</pdfrwt>
<pdfrwt beam="2">  1       -2 0.39184863E-01 0.12205228E+04</pdfrwt>
<totfact> 0.80873369E+01</totfact>
</mgrwt>
</event>
<event>
12    1  0.1630014E-007  0.1680081E+04  0.7818608E-02  0.8772807E-01
         -1   -1    0    0    0  501 -0.00000000000E+00  0.00000000000E+00  0.35119109909E+03  0.35119109909E+03  0.00000000000E+00 0.  1.
          1   -1    0    0  501    0  0.00000000000E+00 -0.00000000000E+00 -0.20093558131E+04  0.20093558131E+04  0.00000000000E+00 0. -1.
         23    2    1    2    0    0 -0.40397898818E+03  0.38417878639E+03 -0.86817589962E+03  0.10358476345E+04  0.91970464486E+02 0.  0.
        254    2    1    2    0    0  0.40397898818E+03 -0.38417878639E+03 -0.78998881443E+03  0.13246992778E+04  0.90551283081E+03 0.  0.
        -24    2    4    4    0    0  0.19941744186E+03 -0.53360231415E+03 -0.87371534922E+03  0.10459844383E+04  0.78779361728E+02 0.  0.
         24    2    4    4    0    0  0.20456154632E+03  0.14942352776E+03  0.83726534796E+02  0.27871483949E+03  0.80616451448E+02 0.  0.
         11    1    3    3    0    0 -0.13679728017E+03  0.12697640945E+03 -0.21485289667E+03  0.28460195296E+03  0.00000000000E+00 0.  1.
        -11    1    3    3    0    0 -0.26718170801E+03  0.25720237694E+03 -0.65332300295E+03  0.75124568150E+03  0.00000000000E+00 0. -1.
          2    1    6    6  502    0  0.17173132189E+03  0.80847687268E+02  0.60259173865E+02  0.19914608580E+03  0.00000000000E+00 0. -1.
          1    1    5    5  503    0  0.96085697869E+02 -0.29947374472E+03 -0.54697818365E+03  0.63095334098E+03  0.00000000000E+00 0. -1.
         -2    1    5    5    0  503  0.10333174399E+03 -0.23412856943E+03 -0.32673716557E+03  0.41503109728E+03  0.00000000000E+00 0.  1.
         -1    1    6    6    0  502  0.32830224429E+02  0.68575840490E+02  0.23467360931E+02  0.79568753692E+02  0.00000000000E+00 0.  1.
<mgrwt>
<rscale>  0 0.16800808E+04</rscale>
<asrwt>0</asrwt>
<pdfrwt beam="1">  1        1 0.30913166E+00 0.16800808E+04</pdfrwt>
<pdfrwt beam="2">  1       -1 0.54029400E-01 0.16800808E+04</pdfrwt>
<totfact> 0.96843659E+00</totfact>
</mgrwt>
</event>
<event>
12    1  0.1518126E-007  0.1785322E+04  0.7818608E-02  0.8714144E-01
          2   -1    0    0  501    0  0.00000000000E+00  0.00000000000E+00  0.24554935419E+04  0.24554935419E+04  0.00000000000E+00 0. -1.
         -2   -1    0    0    0  501 -0.00000000000E+00 -0.00000000000E+00 -0.32451478225E+03  0.32451478225E+03  0.00000000000E+00 0.  1.
         23    2    1    2    0    0 -0.15377767217E+03  0.21600471996E+03 -0.14199896296E+03  0.31419919556E+03  0.90839515140E+02 0.  0.
        254    2    1    2    0    0  0.15377767217E+03 -0.21600471996E+03  0.22729777226E+04  0.24658091286E+04  0.91841239082E+03 0.  0.
        -24    2    4    4    0    0  0.67715776441E+01  0.35335209225E+03  0.88837822922E+03  0.95941245379E+03  0.79704598188E+02 0.  0.
         24    2    4    4    0    0  0.14700609452E+03 -0.56935681220E+03  0.13845994934E+04  0.15063966748E+04  0.79606615982E+02 0.  0.
         11    1    3    3    0    0 -0.56924419436E+02  0.97466076893E+02 -0.12252060674E+02  0.11353474650E+03  0.00000000000E+00 0. -1.
        -11    1    3    3    0    0 -0.96853252732E+02  0.11853864306E+03 -0.12974690228E+03  0.20066444906E+03  0.00000000000E+00 0.  1.
          4    1    6    6  502    0 -0.71053605846E+01 -0.67064394999E+02  0.13787315591E+03  0.15348330966E+03  0.00000000000E+00 0. -1.
          1    1    5    5  503    0 -0.32941403092E+02  0.87910059334E+02  0.22608601104E+03  0.24480236714E+03  0.00000000000E+00 0. -1.
         -2    1    5    5    0  503  0.39712980736E+02  0.26544203291E+03  0.66229221819E+03  0.71461008665E+03  0.00000000000E+00 0.  1.
         -3    1    6    6    0  502  0.15411145511E+03 -0.50229241720E+03  0.12467263375E+04  0.13529133651E+04  0.00000000000E+00 0.  1.
<mgrwt>
<rscale>  0 0.17853223E+04</rscale>
<asrwt>0</asrwt>
<pdfrwt beam="1">  1        2 0.37776823E+00 0.17853223E+04</pdfrwt>
<pdfrwt beam="2">  1       -2 0.49925353E-01 0.17853223E+04</pdfrwt>
<totfact> 0.13266343E+01</totfact>
</mgrwt>
</event>
<event>
12    1  0.1518126E-007  0.2522719E+04  0.7818608E-02  0.8394936E-01
         -1   -1    0    0    0  501 -0.00000000000E+00  0.00000000000E+00  0.68227181315E+03  0.68227181315E+03  0.00000000000E+00 0.  1.
          1   -1    0    0  501    0  0.00000000000E+00 -0.00000000000E+00 -0.23319564883E+04  0.23319564883E+04  0.00000000000E+00 0. -1.
         23    2    1    2    0    0  0.83584807340E+03 -0.41680129440E+03 -0.14994686149E+04  0.17688966087E+04  0.90684973414E+02 0.  0.
        254    2    1    2    0    0 -0.83584807340E+03  0.41680129440E+03 -0.15021606027E+03  0.12453316928E+04  0.80988939952E+03 0.  0.
        -24    2    4    4    0    0 -0.73314496896E+03  0.11331660716E+03  0.19031368968E+03  0.76979646791E+03  0.77621534118E+02 0.  0.
         24    2    4    4    0    0 -0.10270310444E+03  0.30348468724E+03 -0.34052974995E+03  0.47553522486E+03  0.86731519264E+02 0.  0.
         13    1    3    3    0    0  0.24134987814E+03 -0.85362347511E+02 -0.36295729280E+03  0.44415593033E+03  0.00000000000E+00 0. -1.
        -13    1    3    3    0    0  0.59449819525E+03 -0.33143894689E+03 -0.11365113221E+04  0.13247406784E+04  0.00000000000E+00 0.  1.
          2    1    6    6  502    0 -0.68341942574E+02  0.20893183706E+03 -0.17141088404E+03  0.27875585163E+03  0.00000000000E+00 0. -1.
          3    1    5    5  503    0 -0.20212033690E+03  0.18407484712E+01  0.32597654317E+02  0.20474038686E+03  0.00000000000E+00 0. -1.
         -4    1    5    5    0  503 -0.53102463206E+03  0.11147585869E+03  0.15771603537E+03  0.56505608106E+03  0.00000000000E+00 0.  1.
         -1    1    6    6    0  502 -0.34361161864E+02  0.94552850179E+02 -0.16911886591E+03  0.19677937323E+03  0.00000000000E+00 0.  1.
<mgrwt>
<rscale>  0 0.25227193E+04</rscale>
<asrwt>0</asrwt>
<pdfrwt beam="1">  1        1 0.35876253E+00 0.25227193E+04</pdfrwt>
<pdfrwt beam="2">  1       -1 0.10496490E+00 0.25227193E+04</pdfrwt>
<totfact> 0.13363774E+00</totfact>
</mgrwt>
</event>
<event>
12    1  0.1518126E-007  0.1236785E+04  0.7818608E-02  0.9081254E-01
         -2   -1    0    0    0  501 -0.00000000000E+00  0.00000000000E+00  0.27842835214E+03  0.27842835214E+03  0.00000000000E+00 0.  1.
          2   -1    0    0  501    0  0.00000000000E+00 -0.00000000000E+00 -0.13734567660E+04  0.13734567660E+04  0.00000000000E+00 0. -1.
         23    2    1    2    0    0  0.13925136881E+03 -0.23761976311E+03 -0.21706440269E+03  0.36236317495E+03  0.91301807773E+02 0.  0.
        254    2    1    2    0    0 -0.13925136881E+03  0.23761976311E+03 -0.87796401115E+03  0.12895219432E+04  0.90343341842E+03 0.  0.
        -24    2    4    4    0    0 -0.50541892922E+03  0.36378019711E+02 -0.41407397189E+03  0.66015130150E+03  0.87010530090E+02 0.  0.
         24    2    4    4    0    0  0.36616756041E+03  0.20124174340E+03 -0.46389003926E+03  0.62937064167E+03  0.79602226671E+02 0.  0.
         11    1    3    3    0    0  0.12682528277E+03 -0.14925332785E+03 -0.11638970078E+03  0.22783276909E+03  0.00000000000E+00 0.  1.
        -11    1    3    3    0    0  0.12426086048E+02 -0.88366435263E+02 -0.10067470190E+03  0.13453040585E+03  0.00000000000E+00 0. -1.
          2    1    6    6  502    0  0.80108197915E+01  0.24802128223E+02 -0.29799645833E+02  0.39589615935E+02  0.00000000000E+00 0. -1.
          3    1    5    5  503    0 -0.23310209600E+03  0.57922216073E+02 -0.17559356989E+03  0.29753095983E+03  0.00000000000E+00 0. -1.
         -4    1    5    5    0  503 -0.27231683322E+03 -0.21544196362E+02 -0.23848040200E+03  0.36262034167E+03  0.00000000000E+00 0.  1.
         -1    1    6    6    0  502  0.35815674061E+03  0.17643961518E+03 -0.43409039343E+03  0.58978102574E+03  0.00000000000E+00 0.  1.
<mgrwt>
<rscale>  0 0.12367850E+04</rscale>
<asrwt>0</asrwt>
<pdfrwt beam="1">  1        2 0.21130104E+00 0.12367850E+04</pdfrwt>
<pdfrwt beam="2">  1       -2 0.42835131E-01 0.12367850E+04</pdfrwt>
<totfact> 0.76191504E+01</totfact>
</mgrwt>
</event>
<event>
12    1  0.1518126E-007  0.1791800E+04  0.7818608E-02  0.8710672E-01
         -1   -1    0    0    0  501 -0.00000000000E+00  0.00000000000E+00  0.49053089293E+03  0.49053089293E+03  0.00000000000E+00 0.  1.
          1   -1    0    0  501    0  0.00000000000E+00 -0.00000000000E+00 -0.16362615631E+04  0.16362615631E+04  0.00000000000E+00 0. -1.
         23    2    1    2    0    0 -0.28552442835E+03 -0.53308635923E+03 -0.76688512818E+03  0.98105573466E+03  0.93017681725E+02 0.  0.
        254    2    1    2    0    0  0.28552442835E+03  0.53308635923E+03 -0.37884554200E+03  0.11457367214E+04  0.89637236929E+03 0.  0.
        -24    2    4    4    0    0 -0.15411352834E+03  0.17804882253E+03  0.21001470838E+03  0.32566186215E+03  0.80604639452E+02 0.  0.
         24    2    4    4    0    0  0.43963795669E+03  0.35503753669E+03 -0.58886025037E+03  0.82007485922E+03  0.80207199393E+02 0.  0.
         11    1    3    3    0    0 -0.46559705500E+02 -0.88708513647E+02 -0.77020111095E+02  0.12636892056E+03  0.00000000000E+00 0. -1.
        -11    1    3    3    0    0 -0.23896472285E+03 -0.44437784558E+03 -0.68986501708E+03  0.85468681410E+03  0.00000000000E+00 0.  1.
          4    1    6    6  502    0  0.58172751896E+01  0.23506126044E+02 -0.32793716776E+02  0.40765261096E+02  0.00000000000E+00 0. -1.
          1    1    5    5  503    0 -0.69016792031E+02  0.38980478795E+02  0.10566074601E+03  0.13208704917E+03  0.00000000000E+00 0. -1.
         -2    1    5    5    0  503 -0.85096736308E+02  0.13906834374E+03  0.10435396236E+03  0.19357481298E+03  0.00000000000E+00 0.  1.
         -3    1    6    6    0  502  0.43382068150E+03  0.33153141065E+03 -0.55606653360E+03  0.77930959813E+03  0.00000000000E+00 0.  1.
<mgrwt>
<rscale>  0 0.17918000E+04</rscale>
<asrwt>0</asrwt>
<pdfrwt beam="1">  1        1 0.25173254E+00 0.17918000E+04</pdfrwt>
<pdfrwt beam="2">  1       -1 0.75466292E-01 0.17918000E+04</pdfrwt>
<totfact> 0.87805206E+00</totfact>
</mgrwt>
</event>
<event>
12    1  0.1518126E-007  0.2273594E+04  0.7818608E-02  0.8488406E-01
          2   -1    0    0  501    0  0.00000000000E+00  0.00000000000E+00  0.11333536107E+04  0.11333536107E+04  0.00000000000E+00 0.  1.
         -2   -1    0    0    0  501 -0.00000000000E+00 -0.00000000000E+00 -0.11402511167E+04  0.11402511167E+04  0.00000000000E+00 0. -1.
         23    2    1    2    0    0 -0.40829325258E+03  0.72062717295E+02 -0.86735919513E+03  0.96582951425E+03  0.92834594238E+02 0.  0.
        254    2    1    2    0    0  0.40829325258E+03 -0.72062717295E+02  0.86046168913E+03  0.13077752131E+04  0.89330021503E+03 0.  0.
        -24    2    4    4    0    0 -0.74205448365E+02 -0.32351665840E+03  0.62008179800E+03  0.70779963289E+03  0.79431777481E+02 0.  0.
         24    2    4    4    0    0  0.48249870094E+03  0.25145394110E+03  0.24037989113E+03  0.59997558020E+03  0.78448224154E+02 0.  0.
         13    1    3    3    0    0 -0.17740727555E+02 -0.16530636675E+02 -0.55682667701E+02  0.60733473845E+02  0.00000000000E+00 0.  1.
        -13    1    3    3    0    0 -0.39055252502E+03  0.88593353969E+02 -0.81167652743E+03  0.90509604040E+03  0.00000000000E+00 0. -1.
          2    1    6    6  502    0  0.10615310592E+03  0.93890265738E+02  0.61473099538E+02  0.15447590706E+03  0.00000000000E+00 0. -1.
          1    1    5    5  503    0  0.16496411914E+02 -0.68836035799E+02  0.12017782438E+03  0.13947487553E+03  0.00000000000E+00 0. -1.
         -2    1    5    5    0  503 -0.90701860279E+02 -0.25468062260E+03  0.49990397362E+03  0.56832475736E+03  0.00000000000E+00 0.  1.
         -1    1    6    6    0  502  0.37634559503E+03  0.15756367536E+03  0.17890679159E+03  0.44549967314E+03  0.00000000000E+00 0.  1.
<mgrwt>
<rscale>  0 0.22735943E+04</rscale>
<asrwt>0</asrwt>
<pdfrwt beam="1">  1        2 0.17436209E+00 0.22735943E+04</pdfrwt>
<pdfrwt beam="2">  1       -2 0.17542325E+00 0.22735943E+04</pdfrwt>
<totfact> 0.36844287E+00</totfact>
</mgrwt>
</event>
<event>
12    1  0.1518126E-007  0.2051077E+04  0.7818608E-02  0.8583106E-01
          2   -1    0    0  501    0  0.00000000000E+00  0.00000000000E+00  0.21880560091E+04  0.21880560091E+04  0.00000000000E+00 0. -1.
         -2   -1    0    0    0  501 -0.00000000000E+00 -0.00000000000E+00 -0.48066851990E+03  0.48066851990E+03  0.00000000000E+00 0.  1.
         23    2    1    2    0    0 -0.46203245645E+01  0.69336771142E+03  0.13014238294E+04  0.14774610991E+04  0.91690703710E+02 0.  0.
        254    2    1    2    0    0  0.46203245645E+01 -0.69336771142E+03  0.40596365981E+03  0.11912634298E+04  0.87950095825E+03 0.  0.
        -24    2    4    4    0    0  0.34214262222E+03 -0.65849266207E+02  0.29965043228E+03  0.46656126560E+03  0.80568810294E+02 0.  0.
         24    2    4    4    0    0 -0.33752229765E+03 -0.62751844521E+03  0.10631322753E+03  0.72470216425E+03  0.78676705738E+02 0.  0.
         13    1    3    3    0    0 -0.38743195736E+02  0.57030241201E+03  0.10542940109E+04  0.11992838437E+04  0.00000000000E+00 0. -1.
        -13    1    3    3    0    0  0.34122871172E+02  0.12306529941E+03  0.24712981851E+03  0.27817725545E+03  0.00000000000E+00 0.  1.
          4    1    6    6  502    0 -0.22885778827E+03 -0.37217519856E+03  0.94109741529E+02  0.44693054172E+03  0.00000000000E+00 0. -1.
          1    1    5    5  503    0  0.28172762507E+03 -0.84649017085E+02  0.25206163378E+03  0.38738995605E+03  0.00000000000E+00 0. -1.
         -2    1    5    5    0  503  0.60414997148E+02  0.18799750878E+02  0.47588798495E+02  0.79171309548E+02  0.00000000000E+00 0.  1.
         -3    1    6    6    0  502 -0.10866450939E+03 -0.25534324665E+03  0.12203486001E+02  0.27777162253E+03  0.00000000000E+00 0.  1.
<mgrwt>
<rscale>  0 0.20510774E+04</rscale>
<asrwt>0</asrwt>
<pdfrwt beam="1">  1        2 0.33662400E+00 0.20510774E+04</pdfrwt>
<pdfrwt beam="2">  1       -2 0.73949004E-01 0.20510774E+04</pdfrwt>
<totfact> 0.79939600E+00</totfact>
</mgrwt>
</event>
<event>
12    1  0.1518126E-007  0.3052687E+04  0.7818608E-02  0.8228844E-01
         -2   -1    0    0    0  501 -0.00000000000E+00  0.00000000000E+00  0.14259587355E+04  0.14259587355E+04  0.00000000000E+00 0.  1.
          2   -1    0    0  501    0  0.00000000000E+00 -0.00000000000E+00 -0.16337947018E+04  0.16337947018E+04  0.00000000000E+00 0. -1.
         23    2    1    2    0    0 -0.10535341169E+04 -0.78871653428E+03  0.36210511973E+03  0.13680384154E+04  0.91657412214E+02 0.  0.
        254    2    1    2    0    0  0.10535341169E+04  0.78871653428E+03 -0.56994108606E+03  0.16917150220E+04  0.89725078262E+03 0.  0.
        -24    2    4    4    0    0  0.42358462853E+03  0.32459625729E+03 -0.71086192013E+03  0.89239099135E+03  0.79059118231E+02 0.  0.
         24    2    4    4    0    0  0.62994948842E+03  0.46412027699E+03  0.14092083406E+03  0.79932403061E+03  0.82560492770E+02 0.  0.
         13    1    3    3    0    0 -0.17148646764E+03 -0.12623484559E+03  0.94206273575E+02  0.23284687416E+03  0.00000000000E+00 0. -1.
        -13    1    3    3    0    0 -0.88204764930E+03 -0.66248168869E+03  0.26789884615E+03  0.11351915412E+04  0.00000000000E+00 0.  1.
          4    1    6    6  502    0  0.23947227266E+03  0.20142652757E+03  0.20759878779E+02  0.31360897301E+03  0.00000000000E+00 0. -1.
          3    1    5    5  503    0  0.15983883791E+03  0.15169909218E+03 -0.34495607129E+03  0.40933575435E+03  0.00000000000E+00 0. -1.
         -4    1    5    5    0  503  0.26374579062E+03  0.17289716511E+03 -0.36590584884E+03  0.48305523699E+03  0.00000000000E+00 0.  1.
         -3    1    6    6    0  502  0.39047721575E+03  0.26269374942E+03  0.12016095529E+03  0.48571505760E+03  0.00000000000E+00 0.  1.
<mgrwt>
<rscale>  0 0.30526866E+04</rscale>
<asrwt>0</asrwt>
<pdfrwt beam="1">  1        2 0.25135303E+00 0.30526866E+04</pdfrwt>
<pdfrwt beam="2">  1       -2 0.21937827E+00 0.30526866E+04</pdfrwt>
<totfact> 0.90770541E-01</totfact>
</mgrwt>
</event>
<event>
12    1  0.1518126E-007  0.1234875E+04  0.7818608E-02  0.9082867E-01
         -1   -1    0    0    0  501 -0.00000000000E+00  0.00000000000E+00  0.61410250367E+03  0.61410250367E+03  0.00000000000E+00 0.  1.
          1   -1    0    0  501    0  0.00000000000E+00 -0.00000000000E+00 -0.62079055469E+03  0.62079055469E+03  0.00000000000E+00 0. -1.
         23    2    1    2    0    0  0.26023124889E+02 -0.23672986989E+03 -0.14885289750E+03  0.29504061523E+03  0.90407661240E+02 0.  0.
        254    2    1    2    0    0 -0.26023124889E+02  0.23672986989E+03  0.14216484649E+03  0.93985244313E+03  0.89799417423E+03 0.  0.
        -24    2    4    4    0    0  0.41995009954E+03  0.17200063394E+03 -0.30644077232E+01  0.45991205784E+03  0.74615053277E+02 0.  0.
         24    2    4    4    0    0 -0.44597322443E+03  0.64729235952E+02  0.14522925421E+03  0.47994038528E+03  0.78544549481E+02 0.  0.
         13    1    3    3    0    0  0.18799378914E+02 -0.66178027710E+01  0.16308537119E+01  0.19996790865E+02  0.00000000000E+00 0.  1.
        -13    1    3    3    0    0  0.72237459748E+01 -0.23011206712E+03 -0.15048375122E+03  0.27504382436E+03  0.00000000000E+00 0. -1.
          4    1    6    6  502    0 -0.39036960377E+03  0.72117329351E+02  0.14828184842E+03  0.42376508033E+03  0.00000000000E+00 0. -1.
          1    1    5    5  503    0  0.11312541012E+03  0.23147565433E+02 -0.25132992531E+02  0.11817290516E+03  0.00000000000E+00 0. -1.
         -2    1    5    5    0  503  0.30682468942E+03  0.14885306851E+03  0.22068584808E+02  0.34173915268E+03  0.00000000000E+00 0.  1.
         -3    1    6    6    0  502 -0.55603620662E+02 -0.73880933988E+01 -0.30525942143E+01  0.56175304950E+02  0.00000000000E+00 0.  1.
<mgrwt>
<rscale>  0 0.12348749E+04</rscale>
<asrwt>0</asrwt>
<pdfrwt beam="1">  1        1 0.95506240E-01 0.12348749E+04</pdfrwt>
<pdfrwt beam="2">  1       -1 0.94477307E-01 0.12348749E+04</pdfrwt>
<totfact> 0.34901774E+01</totfact>
</mgrwt>
</event>
<event>
12    1  0.1518126E-007  0.3434017E+04  0.7818608E-02  0.8129607E-01
         -2   -1    0    0    0  501 -0.00000000000E+00  0.00000000000E+00  0.99163351529E+03  0.99163351529E+03  0.00000000000E+00 0.  1.
          2   -1    0    0  501    0  0.00000000000E+00 -0.00000000000E+00 -0.29729924654E+04  0.29729924654E+04  0.00000000000E+00 0. -1.
         23    2    1    2    0    0  0.33526012698E+03  0.14912919962E+04 -0.38873521227E+03  0.15796490481E+04  0.88458346743E+02 0.  0.
        254    2    1    2    0    0 -0.33526012698E+03 -0.14912919962E+04 -0.15926237378E+04  0.23849769326E+04  0.90294707920E+03 0.  0.
        -24    2    4    4    0    0 -0.45033675646E+03 -0.47266572205E+03 -0.27302991824E+03  0.71211636194E+03  0.79676205241E+02 0.  0.
         24    2    4    4    0    0  0.11507662947E+03 -0.10186262742E+04 -0.13195938196E+04  0.16728605706E+04  0.79325424448E+02 0.  0.
         13    1    3    3    0    0  0.24111087295E+03  0.10855981863E+04 -0.32306667901E+03  0.11580284773E+04  0.00000000000E+00 0.  1.
        -13    1    3    3    0    0  0.94149254031E+02  0.40569380999E+03 -0.65668533253E+02  0.42162057084E+03  0.00000000000E+00 0. -1.
          4    1    6    6  502    0  0.11847640843E+03 -0.79182820198E+03 -0.10534618375E+04  0.13231819239E+04  0.00000000000E+00 0. -1.
          1    1    5    5  503    0 -0.31027883975E+03 -0.31035983860E+03 -0.22168929296E+03  0.49167299135E+03  0.00000000000E+00 0. -1.
         -4    1    5    5    0  503 -0.14005791671E+03 -0.16230588345E+03 -0.51340625278E+02  0.22044337060E+03  0.00000000000E+00 0.  1.
         -3    1    6    6    0  502 -0.33997789546E+01 -0.22679807221E+03 -0.26613198210E+03  0.34967864670E+03  0.00000000000E+00 0.  1.
<mgrwt>
<rscale>  0 0.34340175E+04</rscale>
<asrwt>0</asrwt>
<pdfrwt beam="1">  1        2 0.45738344E+00 0.34340175E+04</pdfrwt>
<pdfrwt beam="2">  1       -2 0.15255901E+00 0.34340175E+04</pdfrwt>
<totfact> 0.42807232E-01</totfact>
</mgrwt>
</event>
<event>
12    1  0.1518126E-007  0.1968976E+04  0.7818608E-02  0.8621264E-01
          2   -1    0    0  501    0  0.00000000000E+00  0.00000000000E+00  0.10414871471E+04  0.10414871471E+04  0.00000000000E+00 0. -1.
         -2   -1    0    0    0  501 -0.00000000000E+00 -0.00000000000E+00 -0.93060857885E+03  0.93060857885E+03  0.00000000000E+00 0.  1.
         23    2    1    2    0    0  0.27858950579E+03  0.34927965655E+03 -0.59229383326E+03  0.74782449754E+03  0.93920727181E+02 0.  0.
        254    2    1    2    0    0 -0.27858950579E+03 -0.34927965655E+03  0.70317240152E+03  0.12242712284E+04  0.89709543709E+03 0.  0.
        -24    2    4    4    0    0 -0.30958846968E+02 -0.61810517820E+03  0.38005676381E+03  0.73033694192E+03  0.77048319209E+02 0.  0.
         24    2    4    4    0    0 -0.24763065882E+03  0.26882552165E+03  0.32311563771E+03  0.49393428650E+03  0.77325673408E+02 0.  0.
         11    1    3    3    0    0  0.14764730650E+03  0.22934739471E+03 -0.29694096809E+03  0.40320453011E+03  0.00000000000E+00 0. -1.
        -11    1    3    3    0    0  0.13094219929E+03  0.11993226184E+03 -0.29535286517E+03  0.34461996743E+03  0.00000000000E+00 0.  1.
          4    1    6    6  502    0 -0.19657328505E+03  0.24373654270E+03  0.24651747842E+03  0.39852154999E+03  0.00000000000E+00 0. -1.
          1    1    5    5  503    0 -0.47198123313E+02 -0.41403621909E+03  0.28338435451E+03  0.50394478462E+03  0.00000000000E+00 0. -1.
         -2    1    5    5    0  503  0.16239276346E+02 -0.20406895911E+03  0.96672409303E+02  0.22639215730E+03  0.00000000000E+00 0.  1.
         -3    1    6    6    0  502 -0.51057373770E+02  0.25088978955E+02  0.76598159291E+02  0.95412736508E+02  0.00000000000E+00 0.  1.
<mgrwt>
<rscale>  0 0.19689763E+04</rscale>
<asrwt>0</asrwt>
<pdfrwt beam="1">  1        2 0.16022879E+00 0.19689763E+04</pdfrwt>
<pdfrwt beam="2">  1       -2 0.14317055E+00 0.19689763E+04</pdfrwt>
<totfact> 0.74777592E+00</totfact>
</mgrwt>
</event>
<event>
12    1  0.1518126E-007  0.1441863E+04  0.7818608E-02  0.8924061E-01
          2   -1    0    0  501    0  0.00000000000E+00  0.00000000000E+00  0.14320505300E+04  0.14320505300E+04  0.00000000000E+00 0. -1.
         -2   -1    0    0    0  501 -0.00000000000E+00 -0.00000000000E+00 -0.36293575898E+03  0.36293575898E+03  0.00000000000E+00 0.  1.
         23    2    1    2    0    0  0.27235577541E+03 -0.34415839797E+03  0.30794340766E+03  0.54411916557E+03  0.92810843759E+02 0.  0.
        254    2    1    2    0    0 -0.27235577541E+03  0.34415839797E+03  0.76117136331E+03  0.12508671234E+04  0.89031682267E+03 0.  0.
        -24    2    4    4    0    0 -0.12915152110E+03 -0.28901362142E+03  0.16353560133E+03  0.36491465014E+03  0.78802412511E+02 0.  0.
         24    2    4    4    0    0 -0.14320425431E+03  0.63317201939E+03  0.59763576198E+03  0.88595247324E+03  0.79555114514E+02 0.  0.
         13    1    3    3    0    0  0.23916589861E+03 -0.23927497739E+03  0.22407518662E+03  0.40578631214E+03  0.00000000000E+00 0.  1.
        -13    1    3    3    0    0  0.33189876796E+02 -0.10488342059E+03  0.83868221043E+02  0.13833285343E+03  0.00000000000E+00 0. -1.
          2    1    6    6  502    0 -0.76293382375E+02  0.26728082668E+03  0.30518092131E+03  0.41278943208E+03  0.00000000000E+00 0. -1.
          1    1    5    5  503    0 -0.14777484917E+01 -0.84625947519E+02  0.33000715504E+02  0.90844823507E+02  0.00000000000E+00 0. -1.
         -2    1    5    5    0  503 -0.12767377261E+03 -0.20438767390E+03  0.13053488582E+03  0.27406982663E+03  0.00000000000E+00 0.  1.
         -1    1    6    6    0  502 -0.66910871934E+02  0.36589119271E+03  0.29245484067E+03  0.47316304116E+03  0.00000000000E+00 0.  1.
<mgrwt>
<rscale>  0 0.14418632E+04</rscale>
<asrwt>0</asrwt>
<pdfrwt beam="1">  1        2 0.22031546E+00 0.14418632E+04</pdfrwt>
<pdfrwt beam="2">  1       -2 0.55836272E-01 0.14418632E+04</pdfrwt>
<totfact> 0.40549250E+01</totfact>
</mgrwt>
</event>
<event>
12    1  0.1518126E-007  0.1624366E+04  0.7818608E-02  0.8805717E-01
          1   -1    0    0  501    0  0.00000000000E+00  0.00000000000E+00  0.10090695564E+04  0.10090695564E+04  0.00000000000E+00 0. -1.
         -1   -1    0    0    0  501 -0.00000000000E+00 -0.00000000000E+00 -0.65371259530E+03  0.65371259530E+03  0.00000000000E+00 0.  1.
         23    2    1    2    0    0 -0.45013244427E+02 -0.20784102433E+02  0.70123324531E+03  0.70865588971E+03  0.89481476253E+02 0.  0.
        254    2    1    2    0    0  0.45013244427E+02  0.20784102433E+02 -0.34587628426E+03  0.95412626194E+03  0.88784477733E+03 0.  0.
        -24    2    4    4    0    0 -0.20491061133E+03  0.31060190075E+03  0.65730446506E+02  0.38641258104E+03  0.80822594614E+02 0.  0.
         24    2    4    4    0    0  0.24992385575E+03 -0.28981779832E+03 -0.41160673077E+03  0.56771368091E+03  0.80140082224E+02 0.  0.
         13    1    3    3    0    0 -0.29138172709E+02  0.27492779924E+02  0.47962639088E+03  0.48129654153E+03  0.00000000000E+00 0. -1.
        -13    1    3    3    0    0 -0.15875071717E+02 -0.48276882356E+02  0.22160685443E+03  0.22735934818E+03  0.00000000000E+00 0.  1.
          4    1    6    6  502    0  0.16211950766E+03 -0.12854422286E+03 -0.23197643335E+03  0.31083664138E+03  0.00000000000E+00 0. -1.
          1    1    5    5  503    0 -0.93656669860E+02  0.84249630744E+02  0.81641286725E+00  0.12597713531E+03  0.00000000000E+00 0. -1.
         -4    1    5    5    0  503 -0.11125394147E+03  0.22635227001E+03  0.64914033638E+02  0.26043544573E+03  0.00000000000E+00 0.  1.
         -3    1    6    6    0  502  0.87804348090E+02 -0.16127357546E+03 -0.17963029742E+03  0.25687703953E+03  0.00000000000E+00 0.  1.
<mgrwt>
<rscale>  0 0.16243663E+04</rscale>
<asrwt>0</asrwt>
<pdfrwt beam="1">  1        1 0.15524147E+00 0.16243663E+04</pdfrwt>
<pdfrwt beam="2">  1       -1 0.10057117E+00 0.16243663E+04</pdfrwt>
<totfact> 0.13413333E+01</totfact>
</mgrwt>
</event>
<event>
12    1  0.1518126E-007  0.2367770E+04  0.7818608E-02  0.8451670E-01
         -1   -1    0    0    0  501 -0.00000000000E+00  0.00000000000E+00  0.22539946546E+04  0.22539946546E+04  0.00000000000E+00 0.  1.
          1   -1    0    0  501    0  0.00000000000E+00 -0.00000000000E+00 -0.62182194340E+03  0.62182194340E+03  0.00000000000E+00 0. -1.
         23    2    1    2    0    0  0.51069550029E+03 -0.68393470472E+03  0.13601281366E+04  0.16084429026E+04  0.92538903371E+02 0.  0.
        254    2    1    2    0    0 -0.51069550029E+03  0.68393470472E+03  0.27204457465E+03  0.12673736954E+04  0.89646598314E+03 0.  0.
        -24    2    4    4    0    0 -0.31288379089E+03  0.47386574517E+03  0.59512228352E+03  0.82637458128E+03  0.79242698100E+02 0.  0.
         24    2    4    4    0    0 -0.19781170941E+03  0.21006895956E+03 -0.32307770888E+03  0.44099911415E+03  0.82719843798E+02 0.  0.
         13    1    3    3    0    0  0.18343973604E+03 -0.28281742644E+03  0.46386095743E+03  0.57341330756E+03  0.00000000000E+00 0. -1.
        -13    1    3    3    0    0  0.32725576425E+03 -0.40111727828E+03  0.89626717915E+03  0.10350295950E+04  0.00000000000E+00 0.  1.
          4    1    6    6  502    0 -0.18156526008E+03  0.21492203820E+03 -0.31455571500E+03  0.42202218427E+03  0.00000000000E+00 0. -1.
          1    1    5    5  503    0 -0.24442523953E+03  0.37781778744E+03  0.42210655284E+03  0.61697967566E+03  0.00000000000E+00 0. -1.
         -4    1    5    5    0  503 -0.68458551354E+02  0.96047957723E+02  0.17301573068E+03  0.20939490562E+03  0.00000000000E+00 0.  1.
         -3    1    6    6    0  502 -0.16246449330E+02 -0.48530786434E+01 -0.85219938713E+01  0.18976929880E+02  0.00000000000E+00 0.  1.
<mgrwt>
<rscale>  0 0.23677697E+04</rscale>
<asrwt>0</asrwt>
<pdfrwt beam="1">  1        1 0.95664915E-01 0.23677697E+04</pdfrwt>
<pdfrwt beam="2">  1       -1 0.34676841E+00 0.23677697E+04</pdfrwt>
<totfact> 0.47714502E-01</totfact>
</mgrwt>
</event>
<event>
12    1  0.1518126E-007  0.1824316E+04  0.7818608E-02  0.8693474E-01
         -2   -1    0    0    0  501 -0.00000000000E+00  0.00000000000E+00  0.41378125181E+03  0.41378125181E+03  0.00000000000E+00 0.  1.
          2   -1    0    0  501    0  0.00000000000E+00 -0.00000000000E+00 -0.20108025849E+04  0.20108025849E+04  0.00000000000E+00 0. -1.
         23    2    1    2    0    0  0.44003141450E+03  0.26756453255E+03 -0.10852768577E+04  0.12046769474E+04  0.90566356464E+02 0.  0.
        254    2    1    2    0    0 -0.44003141450E+03 -0.26756453255E+03 -0.51174447544E+03  0.12199068894E+04  0.98034278991E+03 0.  0.
        -24    2    4    4    0    0 -0.55267155207E+03  0.18117808634E+03 -0.10175380285E+03  0.59672058797E+03  0.86315006096E+02 0.  0.
         24    2    4    4    0    0  0.11264013758E+03 -0.44874261889E+03 -0.40999067259E+03  0.62318630138E+03  0.78810380105E+02 0.  0.
         11    1    3    3    0    0  0.27811334017E+02  0.48662194243E+02 -0.10887613598E+03  0.12245608370E+03  0.00000000000E+00 0.  1.
        -11    1    3    3    0    0  0.41222008048E+03  0.21890233831E+03 -0.97640072171E+03  0.10822208637E+04  0.00000000000E+00 0. -1.
          2    1    6    6  502    0  0.55439028131E+02 -0.14463250997E+03 -0.95413218001E+02  0.18192232120E+03  0.00000000000E+00 0. -1.
          1    1    5    5  503    0 -0.27171407663E+03  0.98198782919E+02 -0.93435754327E+02  0.30364746104E+03  0.00000000000E+00 0. -1.
         -2    1    5    5    0  503 -0.28095747544E+03  0.82979303418E+02 -0.83180485233E+01  0.29307312694E+03  0.00000000000E+00 0.  1.
         -1    1    6    6    0  502  0.57201109447E+02 -0.30411010892E+03 -0.31457745459E+03  0.44126398018E+03  0.00000000000E+00 0.  1.
<mgrwt>
<rscale>  0 0.18243162E+04</rscale>
<asrwt>0</asrwt>
<pdfrwt beam="1">  1        2 0.30935424E+00 0.18243162E+04</pdfrwt>
<pdfrwt beam="2">  1       -2 0.63658655E-01 0.18243162E+04</pdfrwt>
<totfact> 0.14175193E+01</totfact>
</mgrwt>
</event>
<event>
12    1  0.1518126E-007  0.3500643E+04  0.7818608E-02  0.8113637E-01
         -1   -1    0    0    0  501 -0.00000000000E+00  0.00000000000E+00  0.18959911841E+04  0.18959911841E+04  0.00000000000E+00 0.  1.
          1   -1    0    0  501    0  0.00000000000E+00 -0.00000000000E+00 -0.16158440821E+04  0.16158440821E+04  0.00000000000E+00 0. -1.
         23    2    1    2    0    0 -0.25823501512E+02 -0.51758262474E+03 -0.14102763017E+04  0.15052855084E+04  0.91905320180E+02 0.  0.
        254    2    1    2    0    0  0.25823501512E+02  0.51758262474E+03  0.16904234038E+04  0.20065497578E+04  0.94876341623E+03 0.  0.
        -24    2    4    4    0    0  0.10553076694E+03  0.20162127069E+01  0.13956783593E+04  0.14019352963E+04  0.79772705095E+02 0.  0.
         24    2    4    4    0    0 -0.79707265430E+02  0.51556641203E+03  0.29474504448E+03  0.60461446155E+03  0.80759101594E+02 0.  0.
         11    1    3    3    0    0 -0.46821259540E+02 -0.47984698845E+03 -0.13177206371E+04  0.14031511110E+04  0.00000000000E+00 0. -1.
        -11    1    3    3    0    0  0.20997758029E+02 -0.37735636285E+02 -0.92555664605E+02  0.10213439743E+03  0.00000000000E+00 0.  1.
          4    1    6    6  502    0  0.61900457805E+01  0.69982527134E+02  0.66167521585E+02  0.96509127462E+02  0.00000000000E+00 0. -1.
          3    1    5    5  503    0  0.73001532175E+02  0.32628045704E+02  0.10999446666E+04  0.11028472617E+04  0.00000000000E+00 0. -1.
         -4    1    5    5    0  503  0.32529234766E+02 -0.30611832997E+02  0.29573369269E+03  0.29908803458E+03  0.00000000000E+00 0.  1.
         -3    1    6    6    0  502 -0.85897311210E+02  0.44558388490E+03  0.22857752289E+03  0.50810533408E+03  0.00000000000E+00 0.  1.
<mgrwt>
<rscale>  0 0.35006434E+04</rscale>
<asrwt>0</asrwt>
<pdfrwt beam="1">  1        1 0.24859140E+00 0.35006434E+04</pdfrwt>
<pdfrwt beam="2">  1       -1 0.29169095E+00 0.35006434E+04</pdfrwt>
<totfact> 0.16596039E-01</totfact>
</mgrwt>
</event>
<event>
12    1  0.1518126E-007  0.1421078E+04  0.7818608E-02  0.8938701E-01
         -2   -1    0    0    0  501 -0.00000000000E+00  0.00000000000E+00  0.31098664491E+03  0.31098664491E+03  0.00000000000E+00 0.  1.
          2   -1    0    0  501    0  0.00000000000E+00 -0.00000000000E+00 -0.16234319501E+04  0.16234319501E+04  0.00000000000E+00 0. -1.
         23    2    1    2    0    0  0.23033274568E+03  0.53151844682E+02 -0.84512686026E+03  0.88218329617E+03  0.90164659201E+02 0.  0.
        254    2    1    2    0    0 -0.23033274568E+03 -0.53151844682E+02 -0.46731844494E+03  0.10522352989E+04  0.91265234501E+03 0.  0.
        -24    2    4    4    0    0  0.23905177728E+03 -0.30686866767E+03 -0.14065028935E+03  0.42139454445E+03  0.80478113635E+02 0.  0.
         24    2    4    4    0    0 -0.46938452297E+03  0.25371682299E+03 -0.32666815559E+03  0.63084075441E+03  0.80956265251E+02 0.  0.
         13    1    3    3    0    0  0.26449388999E+02  0.31083538507E+02 -0.23489621137E+03  0.23841557554E+03  0.00000000000E+00 0.  1.
        -13    1    3    3    0    0  0.20388335669E+03  0.22068306175E+02 -0.61023064890E+03  0.64376772063E+03  0.00000000000E+00 0. -1.
          2    1    6    6  502    0 -0.14832813545E+03  0.12414102266E+03 -0.11373385558E+03  0.22438275152E+03  0.00000000000E+00 0. -1.
          1    1    5    5  503    0  0.17477321944E+02 -0.64157376771E+02 -0.40392985456E+02  0.77802436019E+02  0.00000000000E+00 0. -1.
         -2    1    5    5    0  503  0.22157445534E+03 -0.24271129090E+03 -0.10025730390E+03  0.34359210843E+03  0.00000000000E+00 0.  1.
         -1    1    6    6    0  502 -0.32105638752E+03  0.12957580032E+03 -0.21293430001E+03  0.40645800290E+03  0.00000000000E+00 0.  1.
<mgrwt>
<rscale>  0 0.14210780E+04</rscale>
<asrwt>0</asrwt>
<pdfrwt beam="1">  1        2 0.24975876E+00 0.14210780E+04</pdfrwt>
<pdfrwt beam="2">  1       -2 0.47844099E-01 0.14210780E+04</pdfrwt>
<totfact> 0.43518381E+01</totfact>
</mgrwt>
</event>
<event>
12    1  0.1518126E-007  0.1492709E+04  0.7818608E-02  0.8889316E-01
         -1   -1    0    0    0  501 -0.00000000000E+00  0.00000000000E+00  0.13513459758E+04  0.13513459758E+04  0.00000000000E+00 0.  1.
          1   -1    0    0  501    0  0.00000000000E+00 -0.00000000000E+00 -0.41221523728E+03  0.41221523728E+03  0.00000000000E+00 0. -1.
         23    2    1    2    0    0  0.32519243044E+03  0.21654089769E+03 -0.61655070429E+01  0.40135566602E+03  0.91696673747E+02 0.  0.
        254    2    1    2    0    0 -0.32519243044E+03 -0.21654089769E+03  0.94529624559E+03  0.13622055471E+04  0.89965486906E+03 0.  0.
        -24    2    4    4    0    0 -0.51638822870E+03 -0.36252273705E+03  0.90421706526E+03  0.11053912065E+04  0.78750749722E+02 0.  0.
         24    2    4    4    0    0  0.19119579826E+03  0.14598183936E+03  0.41079180321E+02  0.25681434064E+03  0.79997348751E+02 0.  0.
         11    1    3    3    0    0  0.23480445612E+03  0.19023134802E+03 -0.31598881693E+02  0.30384138577E+03  0.00000000000E+00 0. -1.
        -11    1    3    3    0    0  0.90387974318E+02  0.26309549676E+02  0.25433374650E+02  0.97514280244E+02  0.00000000000E+00 0.  1.
          2    1    6    6  502    0  0.10906511278E+03  0.12794864817E+03  0.39544897087E+02  0.17271321397E+03  0.00000000000E+00 0. -1.
          1    1    5    5  503    0 -0.16817587851E+03 -0.13803389864E+03  0.25453638084E+03  0.33485108998E+03  0.00000000000E+00 0. -1.
         -2    1    5    5    0  503 -0.34821235019E+03 -0.22448883840E+03  0.64968068442E+03  0.77054011648E+03  0.00000000000E+00 0.  1.
         -1    1    6    6    0  502  0.82130685481E+02  0.18033191188E+02  0.15342832339E+01  0.84101126670E+02  0.00000000000E+00 0.  1.
<mgrwt>
<rscale>  0 0.14927095E+04</rscale>
<asrwt>0</asrwt>
<pdfrwt beam="1">  1        1 0.63417730E-01 0.14927095E+04</pdfrwt>
<pdfrwt beam="2">  1       -1 0.20789938E+00 0.14927095E+04</pdfrwt>
<totfact> 0.74102883E+00</totfact>
</mgrwt>
</event>
<event>
12    1  0.1518126E-007  0.3049830E+04  0.7818608E-02  0.8229643E-01
         -2   -1    0    0    0  501 -0.00000000000E+00  0.00000000000E+00  0.19621191549E+04  0.19621191549E+04  0.00000000000E+00 0.  1.
          2   -1    0    0  501    0  0.00000000000E+00 -0.00000000000E+00 -0.11851298168E+04  0.11851298168E+04  0.00000000000E+00 0. -1.
         23    2    1    2    0    0  0.95944961852E+02  0.10823528714E+04 -0.54464483889E+03  0.12190174161E+04  0.93125110761E+02 0.  0.
        254    2    1    2    0    0 -0.95944961852E+02 -0.10823528714E+04  0.13216341770E+04  0.19282315557E+04  0.88919450109E+03 0.  0.
        -24    2    4    4    0    0  0.17687717184E+03 -0.59021449959E+03  0.11952809908E+04  0.13470865819E+04  0.79416135510E+02 0.  0.
         24    2    4    4    0    0 -0.27282213370E+03 -0.49213837179E+03  0.12635318615E+03  0.58114497383E+03  0.71639788785E+02 0.  0.
         11    1    3    3    0    0  0.10150227199E+03  0.96051908588E+03 -0.45510512126E+03  0.10677173301E+04  0.00000000000E+00 0. -1.
        -11    1    3    3    0    0 -0.55573101394E+01  0.12183378549E+03 -0.89539717635E+02  0.15130008598E+03  0.00000000000E+00 0.  1.
          2    1    6    6  502    0 -0.17197727487E+03 -0.27991632746E+03  0.40614503163E+02  0.33102699484E+03  0.00000000000E+00 0. -1.
          3    1    5    5  503    0  0.12414472929E+03 -0.49724942141E+03  0.94731963392E+03  0.10770716734E+04  0.00000000000E+00 0. -1.
         -4    1    5    5    0  503  0.52732442557E+02 -0.92965078171E+02  0.24796135691E+03  0.27001490843E+03  0.00000000000E+00 0.  1.
         -1    1    6    6    0  502 -0.10084485883E+03 -0.21222204433E+03  0.85738682985E+02  0.25011797899E+03  0.00000000000E+00 0.  1.
<mgrwt>
<rscale>  0 0.30498301E+04</rscale>
<asrwt>0</asrwt>
<pdfrwt beam="1">  1        2 0.18232766E+00 0.30498301E+04</pdfrwt>
<pdfrwt beam="2">  1       -2 0.30186449E+00 0.30498301E+04</pdfrwt>
<totfact> 0.51023739E-01</totfact>
</mgrwt>
</event>
<event>
12    1  0.1518126E-007  0.1821093E+04  0.7818608E-02  0.8695162E-01
          1   -1    0    0  501    0  0.00000000000E+00  0.00000000000E+00  0.76421562151E+03  0.76421562151E+03  0.00000000000E+00 0. -1.
         -1   -1    0    0    0  501 -0.00000000000E+00 -0.00000000000E+00 -0.10848961777E+04  0.10848961777E+04  0.00000000000E+00 0.  1.
         23    2    1    2    0    0  0.30818087160E+03  0.49863967218E+03 -0.50391805143E+03  0.77840819308E+03  0.91481911864E+02 0.  0.
        254    2    1    2    0    0 -0.30818087160E+03 -0.49863967218E+03  0.18323749527E+03  0.10707036061E+04  0.87704803753E+03 0.  0.
        -24    2    4    4    0    0 -0.36712585893E+03 -0.46422994962E+03 -0.23325717186E+03  0.64119363095E+03  0.80184298537E+02 0.  0.
         24    2    4    4    0    0  0.58944987327E+02 -0.34409722562E+02  0.41649466713E+03  0.42950997514E+03  0.79702386801E+02 0.  0.
         11    1    3    3    0    0  0.13440810819E+03  0.20473890622E+03 -0.27000851738E+03  0.36453828156E+03  0.00000000000E+00 0. -1.
        -11    1    3    3    0    0  0.17377276341E+03  0.29390076597E+03 -0.23390953405E+03  0.41386991152E+03  0.00000000000E+00 0.  1.
          2    1    6    6  502    0  0.40665328874E+02 -0.59274913148E+02  0.24779707437E+03  0.25801274071E+03  0.00000000000E+00 0. -1.
          3    1    5    5  503    0 -0.28375020052E+03 -0.30412145254E+03 -0.17784550472E+03  0.45236385547E+03  0.00000000000E+00 0. -1.
         -4    1    5    5    0  503 -0.83375658413E+02 -0.16010849708E+03 -0.55411667142E+02  0.18882977548E+03  0.00000000000E+00 0.  1.
         -1    1    6    6    0  502  0.18279658453E+02  0.24865190586E+02  0.16869759276E+03  0.17149723443E+03  0.00000000000E+00 0.  1.
<mgrwt>
<rscale>  0 0.18210926E+04</rscale>
<asrwt>0</asrwt>
<pdfrwt beam="1">  1        1 0.11757163E+00 0.18210926E+04</pdfrwt>
<pdfrwt beam="2">  1       -1 0.16690710E+00 0.18210926E+04</pdfrwt>
<totfact> 0.58096330E+00</totfact>
</mgrwt>
</event>
<event>
12    1  0.1518126E-007  0.2332314E+04  0.7818608E-02  0.8465288E-01
         -2   -1    0    0    0  501 -0.00000000000E+00  0.00000000000E+00  0.80653851601E+03  0.80653851601E+03  0.00000000000E+00 0.  1.
          2   -1    0    0  501    0  0.00000000000E+00 -0.00000000000E+00 -0.16861211119E+04  0.16861211119E+04  0.00000000000E+00 0. -1.
         23    2    1    2    0    0 -0.94881374957E+03 -0.77061074075E+02 -0.91248763975E+02  0.96057268805E+03  0.90485421888E+02 0.  0.
        254    2    1    2    0    0  0.94881374957E+03  0.77061074075E+02 -0.78833383196E+03  0.15320869399E+04  0.90533652323E+03 0.  0.
        -24    2    4    4    0    0  0.96883524513E+03  0.17273661613E+03 -0.30679539443E+03  0.10342787172E+04  0.84435656281E+02 0.  0.
         24    2    4    4    0    0 -0.20021495557E+02 -0.95675542059E+02 -0.48153843753E+03  0.49780822270E+03  0.79869206481E+02 0.  0.
         13    1    3    3    0    0 -0.79048472305E+03 -0.91696426969E+02 -0.95613753585E+02  0.80150877848E+03  0.00000000000E+00 0.  1.
        -13    1    3    3    0    0 -0.15832902652E+03  0.14635352893E+02  0.43649896104E+01  0.15906390957E+03  0.00000000000E+00 0. -1.
          4    1    6    6  502    0 -0.22874925028E+02 -0.44770563416E+02 -0.91076860249E+02  0.10403201438E+03  0.00000000000E+00 0. -1.
          1    1    5    5  503    0  0.36195112789E+03  0.38778911427E+02 -0.14691172840E+03  0.39254996993E+03  0.00000000000E+00 0. -1.
         -2    1    5    5    0  503  0.60688411724E+03  0.13395770471E+03 -0.15988366604E+03  0.64172874727E+03  0.00000000000E+00 0.  1.
         -3    1    6    6    0  502  0.28534294710E+01 -0.50904978643E+02 -0.39046157728E+03  0.39377620832E+03  0.00000000000E+00 0.  1.
<mgrwt>
<rscale>  0 0.23323135E+04</rscale>
<asrwt>0</asrwt>
<pdfrwt beam="1">  1        2 0.25940325E+00 0.23323135E+04</pdfrwt>
<pdfrwt beam="2">  1       -2 0.12408285E+00 0.23323135E+04</pdfrwt>
<totfact> 0.44095289E+00</totfact>
</mgrwt>
</event>
<event>
12    1  0.1518126E-007  0.1377732E+04  0.7818608E-02  0.8970097E-01
          2   -1    0    0  501    0  0.00000000000E+00  0.00000000000E+00  0.21162627333E+04  0.21162627333E+04  0.00000000000E+00 0.  1.
         -2   -1    0    0    0  501 -0.00000000000E+00 -0.00000000000E+00 -0.22423328639E+03  0.22423328639E+03  0.00000000000E+00 0. -1.
         23    2    1    2    0    0  0.75934783183E+02  0.31118633158E+03  0.18096650637E+03  0.37971379081E+03  0.93971603361E+02 0.  0.
        254    2    1    2    0    0 -0.75934783183E+02 -0.31118633158E+03  0.17110629406E+04  0.19607822289E+04  0.90240098534E+03 0.  0.
        -24    2    4    4    0    0 -0.30569379526E+02  0.24324361870E+03  0.14142220806E+03  0.29362660131E+03  0.78194597406E+02 0.  0.
         24    2    4    4    0    0 -0.45365403657E+02 -0.55442995028E+03  0.15696407325E+04  0.16671556276E+04  0.78646473961E+02 0.  0.
         11    1    3    3    0    0  0.73052275847E+02  0.28400065894E+03  0.12770544971E+03  0.31984635557E+03  0.00000000000E+00 0. -1.
        -11    1    3    3    0    0  0.28825073365E+01  0.27185672649E+02  0.53261056659E+02  0.59867435241E+02  0.00000000000E+00 0.  1.
          2    1    6    6  502    0 -0.33749198360E+02 -0.49738397149E+03  0.14637578052E+04  0.15463236193E+04  0.00000000000E+00 0. -1.
          1    1    5    5  503    0  0.57195005518E+01  0.16328170208E+03  0.60526973847E+02  0.17423300917E+03  0.00000000000E+00 0. -1.
         -2    1    5    5    0  503 -0.36288880078E+02  0.79961916614E+02  0.80895234211E+02  0.11939359214E+03  0.00000000000E+00 0.  1.
         -1    1    6    6    0  502 -0.11616205298E+02 -0.57045978790E+02  0.10588292733E+03  0.12083200827E+03  0.00000000000E+00 0.  1.
<mgrwt>
<rscale>  0 0.13777323E+04</rscale>
<asrwt>0</asrwt>
<pdfrwt beam="1">  1        2 0.32557887E+00 0.13777323E+04</pdfrwt>
<pdfrwt beam="2">  1       -2 0.34497430E-01 0.13777323E+04</pdfrwt>
<totfact> 0.44231135E+01</totfact>
</mgrwt>
</event>
<event>
12    1  0.1518126E-007  0.2639876E+04  0.7818608E-02  0.8354781E-01
         -1   -1    0    0    0  501 -0.00000000000E+00  0.00000000000E+00  0.15076531431E+04  0.15076531431E+04  0.00000000000E+00 0.  1.
          1   -1    0    0  501    0  0.00000000000E+00 -0.00000000000E+00 -0.11555946848E+04  0.11555946848E+04  0.00000000000E+00 0. -1.
         23    2    1    2    0    0 -0.53381933706E+03  0.10012188674E+04 -0.14301906719E+03  0.11471482662E+04  0.89957689884E+02 0.  0.
        254    2    1    2    0    0  0.53381933706E+03 -0.10012188674E+04  0.49507752547E+03  0.15160995617E+04  0.87524500561E+03 0.  0.
        -24    2    4    4    0    0  0.85539030013E+02 -0.96709480110E+03  0.29607237372E+03  0.10179779502E+04  0.77659363323E+02 0.  0.
         24    2    4    4    0    0  0.44828030705E+03 -0.34124066290E+02  0.19900515175E+03  0.49812161150E+03  0.80015022575E+02 0.  0.
         13    1    3    3    0    0 -0.53756026051E+03  0.99537706380E+03 -0.14232396738E+03  0.11401765848E+04  0.00000000000E+00 0.  1.
        -13    1    3    3    0    0  0.37409234566E+01  0.58418035948E+01 -0.69509980037E+00  0.69716813812E+01  0.00000000000E+00 0. -1.
          4    1    6    6  502    0  0.18537207880E+03 -0.53735747637E+02  0.84215656485E+02  0.21057686238E+03  0.00000000000E+00 0. -1.
          1    1    5    5  503    0 -0.14346129436E+02 -0.89542392650E+02  0.31089999728E+02  0.95865737333E+02  0.00000000000E+00 0. -1.
         -2    1    5    5    0  503  0.99885159449E+02 -0.87755240845E+03  0.26498237399E+03  0.92211221291E+03  0.00000000000E+00 0.  1.
         -3    1    6    6    0  502  0.26290822824E+03  0.19611681347E+02  0.11478949527E+03  0.28754474912E+03  0.00000000000E+00 0.  1.
<mgrwt>
<rscale>  0 0.26398757E+04</rscale>
<asrwt>0</asrwt>
<pdfrwt beam="1">  1        1 0.17778380E+00 0.26398757E+04</pdfrwt>
<pdfrwt beam="2">  1       -1 0.23194664E+00 0.26398757E+04</pdfrwt>
<totfact> 0.92657727E-01</totfact>
</mgrwt>
</event>
<event>
12    1  0.1518126E-007  0.1707987E+04  0.7818608E-02  0.8756822E-01
          1   -1    0    0  501    0  0.00000000000E+00  0.00000000000E+00  0.21646467081E+04  0.21646467081E+04  0.00000000000E+00 0. -1.
         -1   -1    0    0    0  501 -0.00000000000E+00 -0.00000000000E+00 -0.33691651582E+03  0.33691651582E+03  0.00000000000E+00 0.  1.
         23    2    1    2    0    0  0.50601052905E+03 -0.17890643307E+03  0.21733970693E+03  0.58655867474E+03  0.93596812960E+02 0.  0.
        254    2    1    2    0    0 -0.50601052905E+03  0.17890643307E+03  0.16103904853E+04  0.19150045492E+04  0.88647094750E+03 0.  0.
        -24    2    4    4    0    0 -0.54545396821E+03  0.20844806875E+02  0.16409376582E+04  0.17309613402E+04  0.74807925009E+02 0.  0.
         24    2    4    4    0    0  0.39443439159E+02  0.15806162620E+03 -0.30547172893E+02  0.18404320897E+03  0.79996940119E+02 0.  0.
         11    1    3    3    0    0  0.71460195370E+02 -0.47395051487E+02  0.65234309868E+02  0.10774212552E+03  0.00000000000E+00 0. -1.
        -11    1    3    3    0    0  0.43455033368E+03 -0.13151138159E+03  0.15210539706E+03  0.47881654922E+03  0.00000000000E+00 0.  1.
          2    1    6    6  502    0  0.66379329854E+01  0.79789099369E+02  0.23479736288E+02  0.83436566016E+02  0.00000000000E+00 0. -1.
          1    1    5    5  503    0 -0.10719311905E+03 -0.25662476112E+02  0.32399627196E+03  0.34223166379E+03  0.00000000000E+00 0. -1.
         -2    1    5    5    0  503 -0.43826084916E+03  0.46507282986E+02  0.13169413863E+04  0.13887296764E+04  0.00000000000E+00 0.  1.
         -1    1    6    6    0  502  0.32805506174E+02  0.78272526829E+02 -0.54026909180E+02  0.10060664296E+03  0.00000000000E+00 0.  1.
<mgrwt>
<rscale>  0 0.17079874E+04</rscale>
<asrwt>0</asrwt>
<pdfrwt beam="1">  1        1 0.33302256E+00 0.17079874E+04</pdfrwt>
<pdfrwt beam="2">  1       -1 0.51833312E-01 0.17079874E+04</pdfrwt>
<totfact> 0.82095096E+00</totfact>
</mgrwt>
</event>
<event>
12    1  0.1518126E-007  0.1884144E+04  0.7818608E-02  0.8662790E-01
         -1   -1    0    0    0  501 -0.00000000000E+00  0.00000000000E+00  0.12346266648E+04  0.12346266648E+04  0.00000000000E+00 0.  1.
          1   -1    0    0  501    0  0.00000000000E+00 -0.00000000000E+00 -0.71884022433E+03  0.71884022433E+03  0.00000000000E+00 0. -1.
         23    2    1    2    0    0  0.48233638848E+03 -0.51831526759E+03  0.78928057260E+02  0.72000503031E+03  0.10430003437E+03 0.  0.
        254    2    1    2    0    0 -0.48233638848E+03  0.51831526759E+03  0.43685838318E+03  0.12334618588E+04  0.91065020831E+03 0.  0.
        -24    2    4    4    0    0  0.20461964188E+03 -0.77718652426E+02  0.33879179278E+02  0.23548195427E+03  0.79966025396E+02 0.  0.
         24    2    4    4    0    0 -0.68695603037E+03  0.59603392002E+03  0.40297920390E+03  0.99797990453E+03  0.80041424302E+02 0.  0.
         13    1    3    3    0    0  0.70956407186E+01 -0.42715727357E+02  0.60326898564E+01  0.43719272955E+02  0.00000000000E+00 0. -1.
        -13    1    3    3    0    0  0.47524074777E+03 -0.47559954023E+03  0.72895367403E+02  0.67628575735E+03  0.00000000000E+00 0.  1.
          4    1    6    6  502    0 -0.37991419115E+03  0.37706500528E+03  0.21841863059E+03  0.57811721046E+03  0.00000000000E+00 0. -1.
          3    1    5    5  503    0  0.18091370364E+03 -0.76402866530E+02  0.28430573056E+01  0.19640582770E+03  0.00000000000E+00 0. -1.
         -4    1    5    5    0  503  0.23705938240E+02 -0.13157858963E+01  0.31036121972E+02  0.39076126566E+02  0.00000000000E+00 0.  1.
         -3    1    6    6    0  502 -0.30704183922E+03  0.21896891474E+03  0.18456057331E+03  0.41986269407E+03  0.00000000000E+00 0.  1.
<mgrwt>
<rscale>  0 0.18841436E+04</rscale>
<asrwt>0</asrwt>
<pdfrwt beam="1">  1        1 0.11059080E+00 0.18841436E+04</pdfrwt>
<pdfrwt beam="2">  1       -1 0.18994256E+00 0.18841436E+04</pdfrwt>
<totfact> 0.43339393E+00</totfact>
</mgrwt>
</event>
<event>
12    1  0.1518126E-007  0.1524281E+04  0.7818608E-02  0.8868465E-01
         -1   -1    0    0    0  501 -0.00000000000E+00  0.00000000000E+00  0.46421104155E+03  0.46421104155E+03  0.00000000000E+00 0.  1.
          1   -1    0    0  501    0  0.00000000000E+00 -0.00000000000E+00 -0.12512807544E+04  0.12512807544E+04  0.00000000000E+00 0. -1.
         23    2    1    2    0    0  0.25066196134E+03 -0.40159367700E+03 -0.87677626958E+02  0.48977143706E+03  0.89887674448E+02 0.  0.
        254    2    1    2    0    0 -0.25066196134E+03  0.40159367700E+03 -0.69939208590E+03  0.12257203589E+04  0.88833113654E+03 0.  0.
        -24    2    4    4    0    0 -0.38035361372E+03  0.19226324989E+03 -0.82943878493E+03  0.93591603230E+03  0.79599578266E+02 0.  0.
         24    2    4    4    0    0  0.12969165238E+03  0.20933042711E+03  0.13004669903E+03  0.28980432660E+03  0.80220018564E+02 0.  0.
         13    1    3    3    0    0  0.11227360050E+03 -0.26218593784E+03 -0.44754184771E+02  0.28870359267E+03  0.00000000000E+00 0.  1.
        -13    1    3    3    0    0  0.13838836084E+03 -0.13940773916E+03 -0.42923442188E+02  0.20106784438E+03  0.00000000000E+00 0. -1.
          2    1    6    6  502    0  0.75102323425E+02  0.88356584650E+02  0.10136602223E+03  0.15402050350E+03  0.00000000000E+00 0. -1.
          3    1    5    5  503    0 -0.37022266710E+03  0.19867478362E+03 -0.79121180155E+03  0.89585300568E+03  0.00000000000E+00 0. -1.
         -4    1    5    5    0  503 -0.10130946619E+02 -0.64115337273E+01 -0.38226983374E+02  0.40063026621E+02  0.00000000000E+00 0.  1.
         -1    1    6    6    0  502  0.54589328951E+02  0.12097384246E+03  0.28680676795E+02  0.13578382310E+03  0.00000000000E+00 0.  1.
<mgrwt>
<rscale>  0 0.15242813E+04</rscale>
<asrwt>0</asrwt>
<pdfrwt beam="1">  1        1 0.19250473E+00 0.15242813E+04</pdfrwt>
<pdfrwt beam="2">  1       -1 0.71417084E-01 0.15242813E+04</pdfrwt>
<totfact> 0.18742334E+01</totfact>
</mgrwt>
</event>
