<event>
12    5  0.5221187E-008  0.4435227E+04  0.7818608E-02  0.7922076E-01
         -2   -1    0    0    0  501 -0.00000000000E+00  0.00000000000E+00  0.20732453309E+04  0.20732453309E+04  0.00000000000E+00 0.  1.
          1   -1    0    0  501    0  0.00000000000E+00 -0.00000000000E+00 -0.23720347938E+04  0.23720347938E+04  0.00000000000E+00 0. -1.
        -24    2    1    2    0    0 -0.20370482301E+03 -0.10162380753E+04  0.17181461808E+04  0.20082124353E+04  0.81580672310E+02 0.  0.
        254    2    1    2    0    0  0.20370482301E+03  0.10162380753E+04 -0.20169356437E+04  0.24370676895E+04  0.89276763598E+03 0.  0.
         23    2    4    4    0    0 -0.24280641878E+02  0.66799210248E+03 -0.44623279422E+03  0.80970109661E+03  0.98433534279E+02 0.  0.
         23    2    4    4    0    0  0.22798546488E+03  0.34824597283E+03 -0.15707028494E+04  0.16273665929E+04  0.89229796460E+02 0.  0.
          3    1    3    3  502    0 -0.11568518642E+03 -0.53245010854E+03  0.97969410247E+03  0.11210203900E+04  0.00000000000E+00 0. -1.
         -4    1    3    3    0  502 -0.88019636586E+02 -0.48378796677E+03  0.73845207831E+03  0.88719204526E+03  0.00000000000E+00 0.  1.
         13    1    5    5    0    0  0.42782255575E+00  0.61748890588E+03 -0.42495399106E+03  0.74958563649E+03  0.00000000000E+00 0.  1.
        -13    1    5    5    0    0 -0.24708464433E+02  0.50503196598E+02 -0.21278803160E+02  0.60115460118E+02  0.00000000000E+00 0. -1.
          2    1    6    6  503    0 -0.67389779114E+01  0.12363880366E+02 -0.30633757436E+02  0.33715077571E+02  0.00000000000E+00 0. -1.
         -2    1    6    6    0  503  0.23472444279E+03  0.33588209247E+03 -0.15400690920E+04  0.15936515153E+04  0.00000000000E+00 0.  1.
<mgrwt>
<rscale>  0 0.44352272E+04</rscale>
<asrwt>0</asrwt>
<pdfrwt beam="1">  1        1 0.36492843E+00 0.44352272E+04</pdfrwt>
<pdfrwt beam="2">  1       -2 0.31896082E+00 0.44352272E+04</pdfrwt>
<totfact> 0.26806482E-02</totfact>
</mgrwt>
</event>
<event>
12    5  0.5221187E-008  0.3810818E+04  0.7818608E-02  0.8043837E-01
         -2   -1    0    0    0  501 -0.00000000000E+00  0.00000000000E+00  0.16556065490E+04  0.16556065490E+04  0.00000000000E+00 0.  1.
          1   -1    0    0  501    0  0.00000000000E+00 -0.00000000000E+00 -0.21929022026E+04  0.21929022026E+04  0.00000000000E+00 0. -1.
        -24    2    1    2    0    0  0.12011630166E+04  0.35988588684E+03  0.10454564770E+04  0.16349146195E+04  0.87499279710E+02 0.  0.
        254    2    1    2    0    0 -0.12011630166E+04 -0.35988588684E+03 -0.15827521306E+04  0.22135941320E+04  0.90696429395E+03 0.  0.
         23    2    4    4    0    0 -0.91343700708E+03 -0.41967226699E+03 -0.16137006446E+04  0.19037063206E+04  0.97857074466E+02 0.  0.
         23    2    4    4    0    0 -0.28772600948E+03  0.59786380156E+02  0.30948514013E+02  0.30988781143E+03  0.93337973890E+02 0.  0.
          3    1    3    3  502    0  0.45015277042E+03  0.11257765575E+03  0.33971701535E+03  0.57508164273E+03  0.00000000000E+00 0. -1.
         -4    1    3    3    0  502  0.75101024614E+03  0.24730823109E+03  0.70573946166E+03  0.10598329768E+04  0.00000000000E+00 0.  1.
         13    1    5    5    0    0 -0.20629382514E+03 -0.55374192825E+02 -0.37568401021E+03  0.43215959905E+03  0.00000000000E+00 0. -1.
        -13    1    5    5    0    0 -0.70714318193E+03 -0.36429807417E+03 -0.12380166344E+04  0.14715467216E+04  0.00000000000E+00 0.  1.
          1    1    6    6  503    0 -0.78121202024E+02  0.91460806334E+01 -0.32510326437E+02  0.85108720597E+02  0.00000000000E+00 0. -1.
         -1    1    6    6    0  503 -0.20960480746E+03  0.50640299523E+02  0.63458840450E+02  0.22477909084E+03  0.00000000000E+00 0.  1.
<mgrwt>
<rscale>  0 0.38108179E+04</rscale>
<asrwt>0</asrwt>
<pdfrwt beam="1">  1        1 0.33736957E+00 0.38108179E+04</pdfrwt>
<pdfrwt beam="2">  1       -2 0.25470870E+00 0.38108179E+04</pdfrwt>
<totfact> 0.92593751E-02</totfact>
</mgrwt>
</event>
<event>
12    5  0.5221187E-008  0.1173158E+04  0.7818608E-02  0.9136681E-01
          1   -1    0    0  501    0  0.00000000000E+00  0.00000000000E+00  0.31135834542E+04  0.31135834542E+04  0.00000000000E+00 0. -1.
         -2   -1    0    0    0  501 -0.00000000000E+00 -0.00000000000E+00 -0.11050771850E+03  0.11050771850E+03  0.00000000000E+00 0.  1.
        -24    2    1    2    0    0  0.39601436848E+02 -0.17864182233E+03  0.10216326079E+04  0.10416893555E+04  0.88895182162E+02 0.  0.
        254    2    1    2    0    0 -0.39601436848E+02  0.17864182233E+03  0.19814431278E+04  0.21824018172E+04  0.89625869502E+03 0.  0.
         23    2    4    4    0    0  0.39039390058E+02 -0.35519591467E+03  0.78420653901E+03  0.86572687999E+03  0.82552547721E+02 0.  0.
         23    2    4    4    0    0 -0.78640826906E+02  0.53383773700E+03  0.11972365888E+04  0.13166749372E+04  0.95343230271E+02 0.  0.
          3    1    3    3  502    0  0.94848852699E+01 -0.16327617721E+03  0.92413428575E+03  0.93849520574E+03  0.00000000000E+00 0. -1.
         -4    1    3    3    0  502  0.30116551578E+02 -0.15365645123E+02  0.97498322114E+02  0.10319414976E+03  0.00000000000E+00 0.  1.
         13    1    5    5    0    0 -0.15675479104E+00 -0.26980490392E+03  0.62694128325E+03  0.68253211162E+03  0.00000000000E+00 0. -1.
        -13    1    5    5    0    0  0.39196144849E+02 -0.85391010753E+02  0.15726525576E+03  0.18319476837E+03  0.00000000000E+00 0.  1.
          4    1    6    6  503    0 -0.96903457828E+02  0.39663387688E+03  0.93136860916E+03  0.10169347071E+04  0.00000000000E+00 0. -1.
         -4    1    6    6    0  503  0.18262630923E+02  0.13720386013E+03  0.26586797962E+03  0.29974023005E+03  0.00000000000E+00 0.  1.
<mgrwt>
<rscale>  0 0.11731581E+04</rscale>
<asrwt>0</asrwt>
<pdfrwt beam="1">  1        1 0.47901277E+00 0.11731581E+04</pdfrwt>
<pdfrwt beam="2">  1       -2 0.17001190E-01 0.11731581E+04</pdfrwt>
<totfact> 0.12370822E+01</totfact>
</mgrwt>
</event>
<event>
12    5  0.6736109E-008  0.1922883E+04  0.7818608E-02  0.8643549E-01
          1   -1    0    0  501    0  0.00000000000E+00  0.00000000000E+00  0.13094703853E+04  0.13094703853E+04  0.00000000000E+00 0. -1.
         -2   -1    0    0    0  501 -0.00000000000E+00 -0.00000000000E+00 -0.70591098762E+03  0.70591098762E+03  0.00000000000E+00 0.  1.
        -24    2    1    2    0    0 -0.85272053988E+02  0.61544788556E+03  0.65153039970E+03  0.90409486296E+03  0.82754072230E+02 0.  0.
        254    2    1    2    0    0  0.85272053988E+02 -0.61544788556E+03 -0.47971002005E+02  0.11112865100E+04  0.92011361645E+03 0.  0.
         23    2    4    4    0    0  0.15165165855E+03 -0.77358118660E+03  0.17806084066E+03  0.81329978410E+03  0.91240331214E+02 0.  0.
         23    2    4    4    0    0 -0.66379604561E+02  0.15813330104E+03 -0.22603184266E+03  0.29798672587E+03  0.91067568841E+02 0.  0.
          1    1    3    3  502    0 -0.56993907496E+02  0.57287809768E+03  0.59786005802E+03  0.82998449941E+03  0.00000000000E+00 0. -1.
         -2    1    3    3    0  502 -0.28278146492E+02  0.42569787881E+02  0.53670341684E+02  0.74110363551E+02  0.00000000000E+00 0.  1.
         13    1    5    5    0    0  0.11958224524E+03 -0.66896307444E+03  0.18296542838E+03  0.70376690483E+03  0.00000000000E+00 0. -1.
        -13    1    5    5    0    0  0.32069413313E+02 -0.10461811216E+03 -0.49045877257E+01  0.10953287928E+03  0.00000000000E+00 0.  1.
          2    1    6    6  503    0 -0.34204111622E+02  0.68323529423E+02 -0.17233453113E+03  0.18851317340E+03  0.00000000000E+00 0. -1.
         -2    1    6    6    0  503 -0.32175492939E+02  0.89809771622E+02 -0.53697311534E+02  0.10947355247E+03  0.00000000000E+00 0.  1.
<mgrwt>
<rscale>  0 0.19228828E+04</rscale>
<asrwt>0</asrwt>
<pdfrwt beam="1">  1        1 0.20145698E+00 0.19228828E+04</pdfrwt>
<pdfrwt beam="2">  1       -2 0.10860169E+00 0.19228828E+04</pdfrwt>
<totfact> 0.49447966E+00</totfact>
</mgrwt>
</event>
<event>
12    5  0.5221187E-008  0.2049447E+04  0.7818608E-02  0.8583845E-01
          1   -1    0    0  501    0  0.00000000000E+00  0.00000000000E+00  0.10268660049E+04  0.10268660049E+04  0.00000000000E+00 0. -1.
         -2   -1    0    0    0  501 -0.00000000000E+00 -0.00000000000E+00 -0.10225856884E+04  0.10225856884E+04  0.00000000000E+00 0.  1.
        -24    2    1    2    0    0 -0.26236013461E+03  0.67983140952E+03  0.39250095335E+03  0.83159876788E+03  0.80597312401E+02 0.  0.
        254    2    1    2    0    0  0.26236013461E+03 -0.67983140952E+03 -0.38822063684E+03  0.12178529255E+04  0.89523566709E+03 0.  0.
         23    2    4    4    0    0  0.21877287341E+03  0.14531828134E+03 -0.25153413227E+03  0.37519110735E+03  0.92303706906E+02 0.  0.
         23    2    4    4    0    0  0.43587261206E+02 -0.82514969086E+03 -0.13668650457E+03  0.84266181813E+03  0.92864834724E+02 0.  0.
          1    1    3    3  502    0 -0.26280202110E+03  0.66791176769E+03  0.39521050168E+03  0.81936705594E+03  0.00000000000E+00 0. -1.
         -2    1    3    3    0  502  0.44188648395E+00  0.11919641827E+02 -0.27095483384E+01  0.12231711947E+02  0.00000000000E+00 0.  1.
         13    1    5    5    0    0  0.13105444617E+02  0.48712217789E+02 -0.56491259563E+02  0.75735693352E+02  0.00000000000E+00 0.  1.
        -13    1    5    5    0    0  0.20566742879E+03  0.96606063555E+02 -0.19504287270E+03  0.29945541400E+03  0.00000000000E+00 0. -1.
          4    1    6    6  503    0  0.61671744953E+02 -0.62102342335E+03 -0.13087675479E+03  0.63765368455E+03  0.00000000000E+00 0. -1.
         -4    1    6    6    0  503 -0.18084483747E+02 -0.20412626751E+03 -0.58097497847E+01  0.20500813358E+03  0.00000000000E+00 0.  1.
<mgrwt>
<rscale>  0 0.20494472E+04</rscale>
<asrwt>0</asrwt>
<pdfrwt beam="1">  1        1 0.15797939E+00 0.20494472E+04</pdfrwt>
<pdfrwt beam="2">  1       -2 0.15732087E+00 0.20494472E+04</pdfrwt>
<totfact> 0.30793799E+00</totfact>
</mgrwt>
</event>
<event>
12    5  0.5485128E-008  0.1867770E+04  0.7818608E-02  0.8671068E-01
          1   -1    0    0  501    0  0.00000000000E+00  0.00000000000E+00  0.11211546879E+04  0.11211546879E+04  0.00000000000E+00 0. -1.
         -2   -1    0    0    0  501 -0.00000000000E+00 -0.00000000000E+00 -0.77789548130E+03  0.77789548130E+03  0.00000000000E+00 0.  1.
        -24    2    1    2    0    0  0.16684939139E+02 -0.26068188231E+03 -0.54576084065E+03  0.61023363690E+03  0.79352161007E+02 0.  0.
        254    2    1    2    0    0 -0.16684939139E+02  0.26068188231E+03  0.88902004723E+03  0.12888165323E+04  0.89580018896E+03 0.  0.
         23    2    4    4    0    0  0.23107909837E+03  0.45662316100E+03  0.79045546743E+03  0.94570575060E+03  0.87391417635E+02 0.  0.
         23    2    4    4    0    0 -0.24776403751E+03 -0.19594127869E+03  0.98564579804E+02  0.34311078167E+03  0.90719507981E+02 0.  0.
          1    1    3    3  502    0 -0.11095285079E+02 -0.68283172225E+01 -0.60428618380E+02  0.61817062259E+02  0.00000000000E+00 0. -1.
         -2    1    3    3    0  502  0.27780224218E+02 -0.25385356509E+03 -0.48533222227E+03  0.54841657464E+03  0.00000000000E+00 0.  1.
         13    1    5    5    0    0  0.53227499297E+02  0.19421975410E+03  0.33283515531E+03  0.38901634950E+03  0.00000000000E+00 0. -1.
        -13    1    5    5    0    0  0.17785159908E+03  0.26240340690E+03  0.45762031211E+03  0.55668940111E+03  0.00000000000E+00 0.  1.
          3    1    6    6  503    0 -0.10575310384E+03 -0.12442826178E+03  0.16354951870E+02  0.16411458117E+03  0.00000000000E+00 0. -1.
         -3    1    6    6    0  503 -0.14201093367E+03 -0.71513016913E+02  0.82209627934E+02  0.17899620050E+03  0.00000000000E+00 0.  1.
<mgrwt>
<rscale>  0 0.18677700E+04</rscale>
<asrwt>0</asrwt>
<pdfrwt beam="1">  1        1 0.17248534E+00 0.18677700E+04</pdfrwt>
<pdfrwt beam="2">  1       -2 0.11967623E+00 0.18677700E+04</pdfrwt>
<totfact> 0.53760652E+00</totfact>
</mgrwt>
</event>
<event>
12    5  0.5221187E-008  0.1585986E+04  0.7818608E-02  0.8829204E-01
         -2   -1    0    0    0  501 -0.00000000000E+00  0.00000000000E+00  0.67104549242E+03  0.67104549242E+03  0.00000000000E+00 0.  1.
          1   -1    0    0  501    0  0.00000000000E+00 -0.00000000000E+00 -0.93710134819E+03  0.93710134819E+03  0.00000000000E+00 0. -1.
        -24    2    1    2    0    0  0.52124675289E+03  0.59004705623E+02  0.20392229768E+02  0.53145199844E+03  0.82738448911E+02 0.  0.
        254    2    1    2    0    0 -0.52124675289E+03 -0.59004705623E+02 -0.28644808553E+03  0.10766948422E+04  0.89556660543E+03 0.  0.
         23    2    4    4    0    0  0.23054932955E+03 -0.65982958117E+02  0.25682868518E+02  0.25750704281E+03  0.90241471858E+02 0.  0.
         23    2    4    4    0    0 -0.75179608245E+03  0.69782524944E+01 -0.31213095405E+03  0.81918779936E+03  0.91634450702E+02 0.  0.
          1    1    3    3  502    0  0.35603103135E+02 -0.17065598020E+02  0.25100119486E+01  0.39561543810E+02  0.00000000000E+00 0. -1.
         -2    1    3    3    0  502  0.48564364976E+03  0.76070303643E+02  0.17882217819E+02  0.49189045463E+03  0.00000000000E+00 0.  1.
         13    1    5    5    0    0  0.23807992747E+03 -0.58704460225E+02  0.21234498901E+02  0.24612835972E+03  0.00000000000E+00 0.  1.
        -13    1    5    5    0    0 -0.75305979203E+01 -0.72784978922E+01  0.44483696171E+01  0.11378683090E+02  0.00000000000E+00 0. -1.
          4    1    6    6  503    0 -0.43583242702E+02  0.45439262580E+01 -0.43474048223E+02  0.61726324847E+02  0.00000000000E+00 0. -1.
         -4    1    6    6    0  503 -0.70821283974E+03  0.24343262363E+01 -0.26865690583E+03  0.75746147451E+03  0.00000000000E+00 0.  1.
<mgrwt>
<rscale>  0 0.15859857E+04</rscale>
<asrwt>0</asrwt>
<pdfrwt beam="1">  1        1 0.14416944E+00 0.15859857E+04</pdfrwt>
<pdfrwt beam="2">  1       -2 0.10323777E+00 0.15859857E+04</pdfrwt>
<totfact> 0.10941415E+01</totfact>
</mgrwt>
</event>
<event>
12    5  0.5221187E-008  0.3359794E+04  0.7818608E-02  0.8147845E-01
         -2   -1    0    0    0  501 -0.00000000000E+00  0.00000000000E+00  0.20572222979E+04  0.20572222979E+04  0.00000000000E+00 0.  1.
          1   -1    0    0  501    0  0.00000000000E+00 -0.00000000000E+00 -0.13717787592E+04  0.13717787592E+04  0.00000000000E+00 0. -1.
        -24    2    1    2    0    0 -0.15338144387E+04 -0.24152806408E+01  0.40946582261E+02  0.15363982873E+04  0.79060157230E+02 0.  0.
        254    2    1    2    0    0  0.15338144387E+04  0.24152806408E+01  0.64449695643E+03  0.18926027699E+04  0.90220637977E+03 0.  0.
         23    2    4    4    0    0  0.78881678045E+03  0.39499260328E+03  0.54238769581E+03  0.10395780581E+04  0.91033271346E+02 0.  0.
         23    2    4    4    0    0  0.74499765830E+03 -0.39257732264E+03  0.10210926062E+03  0.85302471183E+03  0.89924372491E+02 0.  0.
          1    1    3    3  502    0 -0.14943016231E+04 -0.28011035479E+01  0.52509479190E+02  0.14952265489E+04  0.00000000000E+00 0. -1.
         -2    1    3    3    0  502 -0.39512815619E+02  0.38582290706E+00 -0.11562896930E+02  0.41171738399E+02  0.00000000000E+00 0.  1.
         13    1    5    5    0    0  0.25787648334E+03  0.17628615530E+03  0.20352011752E+03  0.37282372168E+03  0.00000000000E+00 0. -1.
        -13    1    5    5    0    0  0.53094029710E+03  0.21870644798E+03  0.33886757829E+03  0.66675433639E+03  0.00000000000E+00 0.  1.
          1    1    6    6  503    0  0.35291904397E+03 -0.13991581797E+03  0.27253188362E+02  0.38061926382E+03  0.00000000000E+00 0. -1.
         -1    1    6    6    0  503  0.39207861433E+03 -0.25266150467E+03  0.74856072259E+02  0.47240544801E+03  0.00000000000E+00 0.  1.
<mgrwt>
<rscale>  0 0.33597940E+04</rscale>
<asrwt>0</asrwt>
<pdfrwt beam="1">  1        1 0.21104289E+00 0.33597940E+04</pdfrwt>
<pdfrwt beam="2">  1       -2 0.31649574E+00 0.33597940E+04</pdfrwt>
<totfact> 0.14669208E-01</totfact>
</mgrwt>
</event>
<event>
12    5  0.5221187E-008  0.1247600E+04  0.7818608E-02  0.9072183E-01
          1   -1    0    0  501    0  0.00000000000E+00  0.00000000000E+00  0.16420896053E+04  0.16420896053E+04  0.00000000000E+00 0. -1.
         -2   -1    0    0    0  501 -0.00000000000E+00 -0.00000000000E+00 -0.23697045726E+03  0.23697045726E+03  0.00000000000E+00 0.  1.
        -24    2    1    2    0    0  0.29012638847E+03 -0.11621832747E+02  0.31444561443E+03  0.43565522562E+03  0.81308319978E+02 0.  0.
        254    2    1    2    0    0 -0.29012638847E+03  0.11621832747E+02  0.10906735336E+04  0.14434048370E+04  0.89974461827E+03 0.  0.
         23    2    4    4    0    0  0.26416398341E+03  0.10516098473E+03  0.67585633726E+03  0.73887817329E+03  0.91201554318E+02 0.  0.
         23    2    4    4    0    0 -0.55429037187E+03 -0.93539151983E+02  0.41481719638E+03  0.70452666367E+03  0.91088550943E+02 0.  0.
          3    1    3    3  502    0  0.15983788176E+03 -0.25505890900E+02  0.22434549354E+03  0.27663983694E+03  0.00000000000E+00 0. -1.
         -4    1    3    3    0  502  0.13028850671E+03  0.13884058153E+02  0.90100120896E+02  0.15901538868E+03  0.00000000000E+00 0.  1.
         13    1    5    5    0    0  0.10110133427E+03  0.72158041672E+02  0.37567238653E+03  0.39567411435E+03  0.00000000000E+00 0.  1.
        -13    1    5    5    0    0  0.16306264913E+03  0.33002943058E+02  0.30018395073E+03  0.34320405894E+03  0.00000000000E+00 0. -1.
          4    1    6    6  503    0 -0.14962043428E+03 -0.20947207474E+02  0.16375021489E+03  0.22279854741E+03  0.00000000000E+00 0. -1.
         -4    1    6    6    0  503 -0.40466993759E+03 -0.72591944508E+02  0.25106698149E+03  0.48172811626E+03  0.00000000000E+00 0.  1.
<mgrwt>
<rscale>  0 0.12476005E+04</rscale>
<asrwt>0</asrwt>
<pdfrwt beam="1">  1        1 0.25262916E+00 0.12476005E+04</pdfrwt>
<pdfrwt beam="2">  1       -2 0.36456994E-01 0.12476005E+04</pdfrwt>
<totfact> 0.32016680E+01</totfact>
</mgrwt>
</event>
<event>
12    5  0.6174711E-008  0.2019343E+04  0.7818608E-02  0.8597630E-01
         -2   -1    0    0    0  501 -0.00000000000E+00  0.00000000000E+00  0.90677744083E+03  0.90677744083E+03  0.00000000000E+00 0.  1.
          1   -1    0    0  501    0  0.00000000000E+00 -0.00000000000E+00 -0.11242407838E+04  0.11242407838E+04  0.00000000000E+00 0. -1.
        -24    2    1    2    0    0  0.25966769725E+03 -0.45139088058E+03  0.51319505067E+03  0.73528278162E+03  0.78042096661E+02 0.  0.
        254    2    1    2    0    0 -0.25966769725E+03  0.45139088058E+03 -0.73065839365E+03  0.12957354430E+04  0.93481956015E+03 0.  0.
         23    2    4    4    0    0 -0.17639594212E+03  0.36841801945E+03  0.11681654371E+03  0.43534495507E+03  0.95035570002E+02 0.  0.
         23    2    4    4    0    0 -0.83271755122E+02  0.82972861127E+02 -0.84747493736E+03  0.86039048796E+03  0.90770818207E+02 0.  0.
          3    1    3    3  502    0  0.69190515655E+02 -0.19105009127E+03  0.21812681461E+03  0.29810530368E+03  0.00000000000E+00 0. -1.
         -4    1    3    3    0  502  0.19047718159E+03 -0.26034078931E+03  0.29506823606E+03  0.43717747794E+03  0.00000000000E+00 0.  1.
         13    1    5    5    0    0 -0.18296880161E+03  0.36969835873E+03  0.11326784313E+03  0.42776636508E+03  0.00000000000E+00 0.  1.
        -13    1    5    5    0    0  0.65728594814E+01 -0.12803392767E+01  0.35487005743E+01  0.75785899870E+01  0.00000000000E+00 0. -1.
          1    1    6    6  503    0 -0.17320664715E+02  0.43710229947E+02 -0.12006827425E+03  0.12894564789E+03  0.00000000000E+00 0. -1.
         -1    1    6    6    0  503 -0.65951090408E+02  0.39262631180E+02 -0.72740666311E+03  0.73144484007E+03  0.00000000000E+00 0.  1.
<mgrwt>
<rscale>  0 0.20193426E+04</rscale>
<asrwt>0</asrwt>
<pdfrwt beam="1">  1        1 0.17296012E+00 0.20193426E+04</pdfrwt>
<pdfrwt beam="2">  1       -2 0.13950422E+00 0.20193426E+04</pdfrwt>
<totfact> 0.35794704E+00</totfact>
</mgrwt>
</event>
<event>
12    5  0.5221187E-008  0.1666998E+04  0.7818608E-02  0.8780413E-01
          1   -1    0    0  501    0  0.00000000000E+00  0.00000000000E+00  0.56420553610E+03  0.56420553610E+03  0.00000000000E+00 0. -1.
         -4   -1    0    0    0  501 -0.00000000000E+00 -0.00000000000E+00 -0.12313260153E+04  0.12313260153E+04  0.00000000000E+00 0.  1.
        -24    2    1    2    0    0  0.39170179044E+03 -0.38879194850E+03 -0.23161532428E+03  0.60381045850E+03  0.79699055869E+02 0.  0.
        254    2    1    2    0    0 -0.39170179044E+03  0.38879194850E+03 -0.43550515494E+03  0.11917210929E+04  0.96226033458E+03 0.  0.
         23    2    4    4    0    0 -0.23086451865E+01  0.28389870618E+03  0.25285876914E+03  0.38857743730E+03  0.80318506169E+02 0.  0.
         23    2    4    4    0    0 -0.38939314525E+03  0.10489324232E+03 -0.68836392408E+03  0.80314365563E+03  0.92548504846E+02 0.  0.
          3    1    3    3  502    0  0.80906314192E+02 -0.12888087812E+03 -0.54493451371E+02  0.16163430535E+03  0.00000000000E+00 0. -1.
         -4    1    3    3    0  502  0.31079547624E+03 -0.25991107037E+03 -0.17712187291E+03  0.44217615315E+03  0.00000000000E+00 0.  1.
         13    1    5    5    0    0  0.28317168257E+02  0.11845156254E+03  0.71671077967E+02  0.14131305001E+03  0.00000000000E+00 0. -1.
        -13    1    5    5    0    0 -0.30625813444E+02  0.16544714363E+03  0.18118769117E+03  0.24726438728E+03  0.00000000000E+00 0.  1.
          3    1    6    6  503    0 -0.76827930095E+02 -0.15783169888E+02 -0.14228840278E+03  0.16247347125E+03  0.00000000000E+00 0. -1.
         -3    1    6    6    0  503 -0.31256521515E+03  0.12067641221E+03 -0.54607552131E+03  0.64067018438E+03  0.00000000000E+00 0.  1.
<mgrwt>
<rscale>  0 0.16669984E+04</rscale>
<asrwt>0</asrwt>
<pdfrwt beam="1">  1        1 0.86800853E-01 0.16669984E+04</pdfrwt>
<pdfrwt beam="2">  1       -4 0.18943477E+00 0.16669984E+04</pdfrwt>
<totfact> 0.26494053E+00</totfact>
</mgrwt>
</event>
<event>
12    5  0.5221187E-008  0.1169909E+04  0.7818608E-02  0.9139611E-01
          1   -1    0    0  501    0  0.00000000000E+00  0.00000000000E+00  0.77284423323E+03  0.77284423323E+03  0.00000000000E+00 0. -1.
         -2   -1    0    0    0  501 -0.00000000000E+00 -0.00000000000E+00 -0.44274316847E+03  0.44274316847E+03  0.00000000000E+00 0.  1.
        -24    2    1    2    0    0 -0.42391182885E+02  0.20346942470E+02  0.30476821279E+03  0.31909262769E+03  0.82008725539E+02 0.  0.
        254    2    1    2    0    0  0.42391182885E+02 -0.20346942470E+02  0.25332851966E+02  0.89649477402E+03  0.89490229410E+03 0.  0.
         23    2    4    4    0    0 -0.37583405405E+03  0.92885533182E+02 -0.14307353272E+03  0.42270437265E+03  0.91268792256E+02 0.  0.
         23    2    4    4    0    0  0.41822523693E+03 -0.11323247565E+03  0.16840638469E+03  0.47379040136E+03  0.91557040537E+02 0.  0.
          3    1    3    3  502    0 -0.45593853223E+02  0.39561120982E+02  0.28506405679E+03  0.29138530886E+03  0.00000000000E+00 0. -1.
         -4    1    3    3    0  502  0.32026703388E+01 -0.19214178512E+02  0.19704156003E+02  0.27707318834E+02  0.00000000000E+00 0.  1.
         13    1    5    5    0    0 -0.72342339999E+02  0.32642002305E+02 -0.67518120555E+02  0.10419986120E+03  0.00000000000E+00 0. -1.
        -13    1    5    5    0    0 -0.30349171405E+03  0.60243530876E+02 -0.75555412164E+02  0.31850451145E+03  0.00000000000E+00 0.  1.
          2    1    6    6  503    0  0.34430985415E+03 -0.67383898508E+02  0.10521428568E+03  0.36627846149E+03  0.00000000000E+00 0.  1.
         -2    1    6    6    0  503  0.73915382782E+02 -0.45848577144E+02  0.63192099003E+02  0.10751193987E+03  0.00000000000E+00 0. -1.
<mgrwt>
<rscale>  0 0.11699086E+04</rscale>
<asrwt>0</asrwt>
<pdfrwt beam="1">  1        1 0.11889911E+00 0.11699086E+04</pdfrwt>
<pdfrwt beam="2">  1       -2 0.68114334E-01 0.11699086E+04</pdfrwt>
<totfact> 0.40059666E+01</totfact>
</mgrwt>
</event>
<event>
12    5  0.5221187E-008  0.2443914E+04  0.7818608E-02  0.8423243E-01
          1   -1    0    0  501    0  0.00000000000E+00  0.00000000000E+00  0.13967091547E+04  0.13967091547E+04  0.00000000000E+00 0. -1.
         -2   -1    0    0    0  501 -0.00000000000E+00 -0.00000000000E+00 -0.10690694580E+04  0.10690694580E+04  0.00000000000E+00 0.  1.
        -24    2    1    2    0    0  0.31891117747E+03 -0.12237721011E+03  0.11448687116E+04  0.11973998734E+04  0.79759446412E+02 0.  0.
        254    2    1    2    0    0 -0.31891117747E+03  0.12237721011E+03 -0.81722901485E+03  0.12683787393E+04  0.90787710790E+03 0.  0.
         23    2    4    4    0    0 -0.55763866939E+03  0.77028598172E+02 -0.20989770228E+03  0.60764503074E+03  0.91000810013E+02 0.  0.
         23    2    4    4    0    0  0.23872749192E+03  0.45348611943E+02 -0.60733131256E+03  0.66073370861E+03  0.93114974451E+02 0.  0.
          3    1    3    3  502    0  0.19107730679E+03 -0.61204958166E+02  0.53777383834E+03  0.57398369775E+03  0.00000000000E+00 0. -1.
         -4    1    3    3    0  502  0.12783387068E+03 -0.61172251949E+02  0.60709487325E+03  0.62341617562E+03  0.00000000000E+00 0.  1.
         13    1    5    5    0    0 -0.37548082739E+03  0.83011286009E+02 -0.11080871259E+03  0.40019407308E+03  0.00000000000E+00 0.  1.
        -13    1    5    5    0    0 -0.18215784200E+03 -0.59826878370E+01 -0.99088989687E+02  0.20745095766E+03  0.00000000000E+00 0. -1.
          3    1    6    6  503    0  0.21026226312E+03  0.45450891880E+01 -0.50012585319E+03  0.54254653824E+03  0.00000000000E+00 0. -1.
         -3    1    6    6    0  503  0.28465228799E+02  0.40803522755E+02 -0.10720545937E+03  0.11818717037E+03  0.00000000000E+00 0.  1.
<mgrwt>
<rscale>  0 0.24439142E+04</rscale>
<asrwt>0</asrwt>
<pdfrwt beam="1">  1        1 0.21487833E+00 0.24439142E+04</pdfrwt>
<pdfrwt beam="2">  1       -2 0.16447222E+00 0.24439142E+04</pdfrwt>
<totfact> 0.14138520E+00</totfact>
</mgrwt>
</event>
<event>
12    5  0.5221187E-008  0.1279688E+04  0.7818608E-02  0.9045830E-01
          1   -1    0    0  501    0  0.00000000000E+00  0.00000000000E+00  0.33493502674E+04  0.33493502674E+04  0.00000000000E+00 0. -1.
         -2   -1    0    0    0  501 -0.00000000000E+00 -0.00000000000E+00 -0.12223273194E+03  0.12223273194E+03  0.00000000000E+00 0.  1.
        -24    2    1    2    0    0 -0.23985958327E+03  0.13189330535E+02  0.25924928380E+03  0.36275183715E+03  0.81683083172E+02 0.  0.
        254    2    1    2    0    0  0.23985958327E+03 -0.13189330535E+02  0.29678682517E+04  0.31088311622E+04  0.89380235943E+03 0.  0.
         23    2    4    4    0    0 -0.28838099923E+03  0.49134332616E+02  0.17578855497E+04  0.17839626649E+04  0.82361403417E+02 0.  0.
         23    2    4    4    0    0  0.52824058250E+03 -0.62323663150E+02  0.12099827020E+04  0.13248684973E+04  0.91082621553E+02 0.  0.
          1    1    3    3  502    0 -0.15858079325E+03 -0.17017996799E+02  0.20771327291E+03  0.26188219479E+03  0.00000000000E+00 0. -1.
         -2    1    3    3    0  502 -0.81278790018E+02  0.30207327334E+02  0.51536010891E+02  0.10086964236E+03  0.00000000000E+00 0.  1.
         13    1    5    5    0    0 -0.15928711732E+02  0.11996972228E+02  0.46032205990E+02  0.50165876733E+02  0.00000000000E+00 0. -1.
        -13    1    5    5    0    0 -0.27245228750E+03  0.37137360388E+02  0.17118533437E+04  0.17337967882E+04  0.00000000000E+00 0.  1.
          1    1    6    6  503    0  0.66291825560E+02 -0.63765955264E+00  0.23585485044E+03  0.24499494529E+03  0.00000000000E+00 0. -1.
         -1    1    6    6    0  503  0.46194875694E+03 -0.61686003598E+02  0.97412785160E+03  0.10798735520E+04  0.00000000000E+00 0.  1.
<mgrwt>
<rscale>  0 0.12796878E+04</rscale>
<asrwt>0</asrwt>
<pdfrwt beam="1">  1        1 0.51528459E+00 0.12796878E+04</pdfrwt>
<pdfrwt beam="2">  1       -2 0.18805038E-01 0.12796878E+04</pdfrwt>
<totfact> 0.68435551E+00</totfact>
</mgrwt>
</event>
<event>
12    5  0.5221187E-008  0.1338663E+04  0.7818608E-02  0.8999455E-01
          1   -1    0    0  501    0  0.00000000000E+00  0.00000000000E+00  0.17036234412E+04  0.17036234412E+04  0.00000000000E+00 0. -1.
         -2   -1    0    0    0  501 -0.00000000000E+00 -0.00000000000E+00 -0.26297169941E+03  0.26297169941E+03  0.00000000000E+00 0.  1.
        -24    2    1    2    0    0 -0.23044310074E+03  0.25169432956E+03  0.17166628581E+03  0.38933590154E+03  0.75226805951E+02 0.  0.
        254    2    1    2    0    0  0.23044310074E+03 -0.25169432956E+03  0.12689854560E+04  0.15772592390E+04  0.87233511995E+03 0.  0.
         23    2    4    4    0    0 -0.74077560781E+02  0.14126126004E+03 -0.28630012822E+02  0.18492514945E+03  0.89080888335E+02 0.  0.
         23    2    4    4    0    0  0.30452066152E+03 -0.39295558960E+03  0.12976154688E+04  0.13923340896E+04  0.87415007473E+02 0.  0.
          3    1    3    3  502    0 -0.82871233412E+02  0.54856453066E+02  0.77062015426E+02  0.12575939723E+03  0.00000000000E+00 0. -1.
         -4    1    3    3    0  502 -0.14757186732E+03  0.19683787650E+03  0.94604270381E+02  0.26357650431E+03  0.00000000000E+00 0.  1.
         13    1    5    5    0    0 -0.54427777331E+02  0.61058933011E+02  0.26101056174E+02  0.85859428015E+02  0.00000000000E+00 0.  1.
        -13    1    5    5    0    0 -0.19649783451E+02  0.80202327027E+02 -0.54731068997E+02  0.99065721437E+02  0.00000000000E+00 0. -1.
          4    1    6    6  503    0  0.28864667307E+03 -0.36799508916E+03  0.12629314588E+04  0.13467491070E+04  0.00000000000E+00 0. -1.
         -4    1    6    6    0  503  0.15873988449E+02 -0.24960500438E+02  0.34684009973E+02  0.45584982606E+02  0.00000000000E+00 0.  1.
<mgrwt>
<rscale>  0 0.13386631E+04</rscale>
<asrwt>0</asrwt>
<pdfrwt beam="1">  1        1 0.26209591E+00 0.13386631E+04</pdfrwt>
<pdfrwt beam="2">  1       -2 0.40457186E-01 0.13386631E+04</pdfrwt>
<totfact> 0.23572019E+01</totfact>
</mgrwt>
</event>
<event>
12    5  0.5221187E-008  0.1028476E+04  0.7818608E-02  0.9277852E-01
          1   -1    0    0  501    0  0.00000000000E+00  0.00000000000E+00  0.52467413578E+03  0.52467413578E+03  0.00000000000E+00 0. -1.
         -2   -1    0    0    0  501 -0.00000000000E+00 -0.00000000000E+00 -0.50400968297E+03  0.50400968297E+03  0.00000000000E+00 0.  1.
        -24    2    1    2    0    0  0.62560251806E+02  0.42760189043E+02 -0.48238909347E+02  0.12207554077E+03  0.82663331698E+02 0.  0.
        254    2    1    2    0    0 -0.62560251806E+02 -0.42760189043E+02  0.68903362153E+02  0.90660827798E+03  0.90080446130E+03 0.  0.
         23    2    4    4    0    0  0.38800829378E+03 -0.19385213832E+02  0.17290520492E+03  0.43458498641E+03  0.89675403373E+02 0.  0.
         23    2    4    4    0    0 -0.45056854558E+03 -0.23374975212E+02 -0.10400184276E+03  0.47202329157E+03  0.91821570172E+02 0.  0.
          3    1    3    3  502    0  0.27428008885E+02  0.80662604270E+01  0.22100793700E+02  0.36135928255E+02  0.00000000000E+00 0. -1.
         -4    1    3    3    0  502  0.35132242921E+02  0.34693928616E+02 -0.70339703046E+02  0.85939612520E+02  0.00000000000E+00 0.  1.
         13    1    5    5    0    0  0.28545617195E+03  0.24435311575E+02  0.13577339600E+03  0.31704372824E+03  0.00000000000E+00 0. -1.
        -13    1    5    5    0    0  0.10255212182E+03 -0.43820525406E+02  0.37131808916E+02  0.11754125816E+03  0.00000000000E+00 0.  1.
          4    1    6    6  503    0 -0.24865158355E+03 -0.58575154648E+02 -0.58595247923E+02  0.26209170499E+03  0.00000000000E+00 0. -1.
         -4    1    6    6    0  503 -0.20191696203E+03  0.35200179437E+02 -0.45406594841E+02  0.20993158658E+03  0.00000000000E+00 0.  1.
<mgrwt>
<rscale>  0 0.10284762E+04</rscale>
<asrwt>0</asrwt>
<pdfrwt beam="1">  1        1 0.80719097E-01 0.10284762E+04</pdfrwt>
<pdfrwt beam="2">  1       -2 0.77539952E-01 0.10284762E+04</pdfrwt>
<totfact> 0.53840926E+01</totfact>
</mgrwt>
</event>
<event>
12    5  0.5221187E-008  0.1759708E+04  0.7818608E-02  0.8728025E-01
          1   -1    0    0  501    0  0.00000000000E+00  0.00000000000E+00  0.36098800579E+04  0.36098800579E+04  0.00000000000E+00 0. -1.
         -2   -1    0    0    0  501 -0.00000000000E+00 -0.00000000000E+00 -0.21445116117E+03  0.21445116117E+03  0.00000000000E+00 0.  1.
        -24    2    1    2    0    0  0.15996770164E+03 -0.16380117497E+03 -0.58347242430E+02  0.24661071108E+03  0.70653744643E+02 0.  0.
        254    2    1    2    0    0 -0.15996770164E+03  0.16380117497E+03  0.34537761391E+04  0.35777205080E+04  0.90503807840E+03 0.  0.
         23    2    4    4    0    0 -0.49787779290E+03  0.20536094453E+03  0.16021049893E+04  0.16927868348E+04  0.93442265014E+02 0.  0.
         23    2    4    4    0    0  0.33791009126E+03 -0.41559769568E+02  0.18516711498E+04  0.18849336732E+04  0.91533934393E+02 0.  0.
          1    1    3    3  502    0  0.87094732232E+02 -0.65339444303E+02 -0.59567660756E+02  0.12410899070E+03  0.00000000000E+00 0. -1.
         -2    1    3    3    0  502  0.72872969406E+02 -0.98461730662E+02  0.12204183257E+01  0.12250172038E+03  0.00000000000E+00 0.  1.
         13    1    5    5    0    0 -0.11960406317E+03  0.92375322748E+02  0.48285338573E+03  0.50595031801E+03  0.00000000000E+00 0. -1.
        -13    1    5    5    0    0 -0.37827372973E+03  0.11298562179E+03  0.11192516036E+04  0.11868365168E+04  0.00000000000E+00 0.  1.
          4    1    6    6  503    0  0.19323452542E+03 -0.69179399217E+02  0.10861023038E+04  0.11053251040E+04  0.00000000000E+00 0. -1.
         -4    1    6    6    0  503  0.14467556584E+03  0.27619629649E+02  0.76556884599E+03  0.77960856925E+03  0.00000000000E+00 0.  1.
<mgrwt>
<rscale>  0 0.17597079E+04</rscale>
<asrwt>0</asrwt>
<pdfrwt beam="1">  1        1 0.55536612E+00 0.17597079E+04</pdfrwt>
<pdfrwt beam="2">  1       -2 0.32992489E-01 0.17597079E+04</pdfrwt>
<totfact> 0.14683260E+00</totfact>
</mgrwt>
</event>
<event>
12    5  0.5221187E-008  0.1551532E+04  0.7818608E-02  0.8850889E-01
         -2   -1    0    0    0  501 -0.00000000000E+00  0.00000000000E+00  0.36659692320E+03  0.36659692320E+03  0.00000000000E+00 0.  1.
          1   -1    0    0  501    0  0.00000000000E+00 -0.00000000000E+00 -0.16416211279E+04  0.16416211279E+04  0.00000000000E+00 0. -1.
        -24    2    1    2    0    0 -0.30269075562E+02 -0.69634588964E+02  0.22558625482E+03  0.25113630487E+03  0.80094271607E+02 0.  0.
        254    2    1    2    0    0  0.30269075562E+02  0.69634588964E+02 -0.15006104595E+04  0.17570817462E+04  0.91090027926E+03 0.  0.
         23    2    4    4    0    0  0.37023792799E+03 -0.11390441660E+03 -0.11845988709E+04  0.12497452216E+04  0.92402891791E+02 0.  0.
         23    2    4    4    0    0 -0.33996885243E+03  0.18353900557E+03 -0.31601158855E+03  0.50733652460E+03  0.90893552637E+02 0.  0.
          1    1    3    3  502    0  0.12701438772E+02  0.91348802290E+01  0.12830484280E+02  0.20233484884E+02  0.00000000000E+00 0. -1.
         -2    1    3    3    0  502 -0.42970514334E+02 -0.78769469193E+02  0.21275577054E+03  0.23090281999E+03  0.00000000000E+00 0.  1.
         13    1    5    5    0    0  0.43883363717E+02 -0.47846109716E+02 -0.17498272437E+03  0.18663856422E+03  0.00000000000E+00 0. -1.
        -13    1    5    5    0    0  0.32635456427E+03 -0.66058306888E+02 -0.10096161466E+04  0.10631066574E+04  0.00000000000E+00 0.  1.
          4    1    6    6  503    0 -0.74928743991E+02  0.43193557761E+02 -0.26412049170E+02  0.90430063859E+02  0.00000000000E+00 0. -1.
         -4    1    6    6    0  503 -0.26504010844E+03  0.14034544781E+03 -0.28959953938E+03  0.41690646074E+03  0.00000000000E+00 0.  1.
<mgrwt>
<rscale>  0 0.15515325E+04</rscale>
<asrwt>0</asrwt>
<pdfrwt beam="1">  1        1 0.25255709E+00 0.15515325E+04</pdfrwt>
<pdfrwt beam="2">  1       -2 0.56399527E-01 0.15515325E+04</pdfrwt>
<totfact> 0.13032357E+01</totfact>
</mgrwt>
</event>
<event>
12    5  0.5221187E-008  0.2316862E+04  0.7818608E-02  0.8471302E-01
          1   -1    0    0  501    0  0.00000000000E+00  0.00000000000E+00  0.20476647415E+04  0.20476647415E+04  0.00000000000E+00 0. -1.
         -2   -1    0    0    0  501 -0.00000000000E+00 -0.00000000000E+00 -0.65536219129E+03  0.65536219129E+03  0.00000000000E+00 0.  1.
        -24    2    1    2    0    0 -0.44627001856E+03  0.84795827131E+03  0.82733069444E+03  0.12686589717E+04  0.82639876641E+02 0.  0.
        254    2    1    2    0    0  0.44627001856E+03 -0.84795827131E+03  0.56497185581E+03  0.14343679611E+04  0.90555402414E+03 0.  0.
         23    2    4    4    0    0  0.34154223334E+03  0.88604248744E+02  0.22495207612E+03  0.42802890191E+03  0.90019410492E+02 0.  0.
         23    2    4    4    0    0  0.10472778522E+03 -0.93656252006E+03  0.34001977969E+03  0.10063390592E+04  0.94802892975E+02 0.  0.
          1    1    3    3  502    0 -0.40613638408E+03  0.81160419028E+03  0.78440612702E+03  0.11995587090E+04  0.00000000000E+00 0. -1.
         -2    1    3    3    0  502 -0.40133634480E+02  0.36354081031E+02  0.42924567424E+02  0.69100262754E+02  0.00000000000E+00 0.  1.
         13    1    5    5    0    0  0.11954073875E+03  0.31088352851E+02  0.30184964958E+02  0.12715190134E+03  0.00000000000E+00 0. -1.
        -13    1    5    5    0    0  0.22200149459E+03  0.57515895893E+02  0.19476711116E+03  0.30087700057E+03  0.00000000000E+00 0.  1.
          2    1    6    6  503    0  0.10946153195E+03 -0.61411318268E+03  0.24459928065E+03  0.67003405601E+03  0.00000000000E+00 0. -1.
         -2    1    6    6    0  503 -0.47337467324E+01 -0.32244933738E+03  0.95420499040E+02  0.33630500319E+03  0.00000000000E+00 0.  1.
<mgrwt>
<rscale>  0 0.23168617E+04</rscale>
<asrwt>0</asrwt>
<pdfrwt beam="1">  1        1 0.31502534E+00 0.23168617E+04</pdfrwt>
<pdfrwt beam="2">  1       -2 0.10082495E+00 0.23168617E+04</pdfrwt>
<totfact> 0.17766010E+00</totfact>
</mgrwt>
</event>
<event>
12    5  0.5221187E-008  0.1958922E+04  0.7818608E-02  0.8626071E-01
          1   -1    0    0  501    0  0.00000000000E+00  0.00000000000E+00  0.15226630685E+04  0.15226630685E+04  0.00000000000E+00 0. -1.
         -2   -1    0    0    0  501 -0.00000000000E+00 -0.00000000000E+00 -0.63004317621E+03  0.63004317621E+03  0.00000000000E+00 0.  1.
        -24    2    1    2    0    0 -0.43313100939E+03 -0.26978434856E+03 -0.28371983419E+03  0.58940495466E+03  0.80716728332E+02 0.  0.
        254    2    1    2    0    0  0.43313100939E+03  0.26978434856E+03  0.11763397265E+04  0.15633012900E+04  0.89428726108E+03 0.  0.
         23    2    4    4    0    0  0.25215397578E+03  0.44394484726E+03  0.11877369558E+04  0.12959840201E+04  0.90481209595E+02 0.  0.
         23    2    4    4    0    0  0.18097703361E+03 -0.17416049869E+03 -0.11397229315E+02  0.26731726994E+03  0.90796805966E+02 0.  0.
          1    1    3    3  502    0 -0.26592796584E+03 -0.11896421990E+03 -0.16646137543E+03  0.33552877394E+03  0.00000000000E+00 0. -1.
         -2    1    3    3    0  502 -0.16720304355E+03 -0.15082012866E+03 -0.11725845876E+03  0.25387618071E+03  0.00000000000E+00 0.  1.
         13    1    5    5    0    0  0.23476774486E+03  0.42426071405E+03  0.11624553196E+04  0.12595298399E+04  0.00000000000E+00 0. -1.
        -13    1    5    5    0    0  0.17386230923E+02  0.19684133207E+02  0.25281636179E+02  0.36454180195E+02  0.00000000000E+00 0.  1.
          2    1    6    6  503    0  0.12423751209E+03 -0.15949103496E+03 -0.33024875912E+02  0.20484870532E+03  0.00000000000E+00 0. -1.
         -2    1    6    6    0  503  0.56739521517E+02 -0.14669463734E+02  0.21627646597E+02  0.62468564619E+02  0.00000000000E+00 0.  1.
<mgrwt>
<rscale>  0 0.19589216E+04</rscale>
<asrwt>0</asrwt>
<pdfrwt beam="1">  1        1 0.23425586E+00 0.19589216E+04</pdfrwt>
<pdfrwt beam="2">  1       -2 0.96929720E-01 0.19589216E+04</pdfrwt>
<totfact> 0.45834762E+00</totfact>
</mgrwt>
</event>
<event>
12    5  0.5221187E-008  0.1916909E+04  0.7818608E-02  0.8646485E-01
         -2   -1    0    0    0  501 -0.00000000000E+00  0.00000000000E+00  0.26609751353E+03  0.26609751353E+03  0.00000000000E+00 0.  1.
          1   -1    0    0  501    0  0.00000000000E+00 -0.00000000000E+00 -0.34522504218E+04  0.34522504218E+04  0.00000000000E+00 0. -1.
        -24    2    1    2    0    0 -0.40257389325E+03  0.33913756668E+03 -0.22788524067E+04  0.23402402456E+04  0.80474137060E+02 0.  0.
        254    2    1    2    0    0  0.40257389325E+03 -0.33913756668E+03 -0.90730050158E+03  0.13781076898E+04  0.89381573929E+03 0.  0.
         23    2    4    4    0    0 -0.20899311665E+03  0.11708980460E+03 -0.31067887290E+03  0.40520541098E+03  0.10139979226E+03 0.  0.
         23    2    4    4    0    0  0.61156700990E+03 -0.45622737128E+03 -0.59662162868E+03  0.97290227880E+03  0.91781557939E+02 0.  0.
          3    1    3    3  502    0 -0.38261769648E+03  0.29701786355E+03 -0.20231621739E+04  0.20803367744E+04  0.00000000000E+00 0. -1.
         -4    1    3    3    0  502 -0.19956196771E+02  0.42119703127E+02 -0.25569023279E+03  0.25990347117E+03  0.00000000000E+00 0.  1.
         13    1    5    5    0    0 -0.18360618259E+03  0.10439256475E+03 -0.31202626582E+03  0.37678830718E+03  0.00000000000E+00 0. -1.
        -13    1    5    5    0    0 -0.25386934060E+02  0.12697239851E+02  0.13473929237E+01  0.28417103802E+02  0.00000000000E+00 0.  1.
          4    1    6    6  503    0  0.20101313560E+03 -0.12310074915E+03 -0.13891874728E+03  0.27360280239E+03  0.00000000000E+00 0.  1.
         -4    1    6    6    0  503  0.41055387430E+03 -0.33312662213E+03 -0.45770288140E+03  0.69929947642E+03  0.00000000000E+00 0. -1.
<mgrwt>
<rscale>  0 0.19169092E+04</rscale>
<asrwt>0</asrwt>
<pdfrwt beam="1">  1        1 0.53111546E+00 0.19169092E+04</pdfrwt>
<pdfrwt beam="2">  1       -2 0.40938078E-01 0.19169092E+04</pdfrwt>
<totfact> 0.12697983E+00</totfact>
</mgrwt>
</event>
<event>
12    5  0.5221187E-008  0.1828467E+04  0.7818608E-02  0.8691306E-01
          1   -1    0    0  501    0  0.00000000000E+00  0.00000000000E+00  0.19640414217E+04  0.19640414217E+04  0.00000000000E+00 0. -1.
         -2   -1    0    0    0  501 -0.00000000000E+00 -0.00000000000E+00 -0.42556281811E+03  0.42556281811E+03  0.00000000000E+00 0.  1.
        -24    2    1    2    0    0  0.60103004084E+03 -0.32190154061E+03  0.70613351196E+03  0.98478621294E+03  0.79508720537E+02 0.  0.
        254    2    1    2    0    0 -0.60103004084E+03  0.32190154061E+03  0.83234509163E+03  0.14048180269E+04  0.90324837407E+03 0.  0.
         23    2    4    4    0    0 -0.49450088530E+03  0.18399480507E+03 -0.13931326522E+02  0.53576031210E+03  0.91977259753E+02 0.  0.
         23    2    4    4    0    0 -0.10652915554E+03  0.13790673553E+03  0.84627641816E+03  0.86905771478E+03  0.93331704212E+02 0.  0.
          3    1    3    3  502    0  0.32230622398E+03 -0.20569387677E+03  0.35608901799E+03  0.52248508274E+03  0.00000000000E+00 0. -1.
         -4    1    3    3    0  502  0.27872381685E+03 -0.11620766384E+03  0.35004449398E+03  0.46230113019E+03  0.00000000000E+00 0.  1.
         13    1    5    5    0    0 -0.33838715824E+03  0.17038681403E+03 -0.83665118499E+01  0.37895584674E+03  0.00000000000E+00 0. -1.
        -13    1    5    5    0    0 -0.15611372706E+03  0.13607991047E+02 -0.55648146724E+01  0.15680446537E+03  0.00000000000E+00 0.  1.
          3    1    6    6  503    0 -0.54029920281E+02  0.97730125722E+01  0.32986579726E+03  0.33440422883E+03  0.00000000000E+00 0. -1.
         -3    1    6    6    0  503 -0.52499235258E+02  0.12813372296E+03  0.51641062090E+03  0.53465348595E+03  0.00000000000E+00 0.  1.
<mgrwt>
<rscale>  0 0.18284671E+04</rscale>
<asrwt>0</asrwt>
<pdfrwt beam="1">  1        1 0.30216021E+00 0.18284671E+04</pdfrwt>
<pdfrwt beam="2">  1       -2 0.65471204E-01 0.18284671E+04</pdfrwt>
<totfact> 0.56006261E+00</totfact>
</mgrwt>
</event>
<event>
12    5  0.5221187E-008  0.2741790E+04  0.7818608E-02  0.8321571E-01
         -2   -1    0    0    0  501 -0.00000000000E+00  0.00000000000E+00  0.18627042756E+04  0.18627042756E+04  0.00000000000E+00 0.  1.
          1   -1    0    0  501    0  0.00000000000E+00 -0.00000000000E+00 -0.10089382636E+04  0.10089382636E+04  0.00000000000E+00 0. -1.
        -24    2    1    2    0    0 -0.74585277132E+03  0.32966116190E+02 -0.62309925588E+03  0.97569605101E+03  0.79667935605E+02 0.  0.
        254    2    1    2    0    0  0.74585277132E+03 -0.32966116190E+02  0.14768652678E+04  0.18959464883E+04  0.92525615138E+03 0.  0.
         23    2    4    4    0    0  0.66069704076E+03  0.30389338928E+03  0.13083764653E+04  0.14994459149E+04  0.87277173447E+02 0.  0.
         23    2    4    4    0    0  0.85155730568E+02 -0.33685950547E+03  0.16848880250E+03  0.39650057333E+03  0.89991128516E+02 0.  0.
          3    1    3    3  502    0 -0.63542383713E+03  0.93916524034E+01 -0.55573346224E+03  0.84421048145E+03  0.00000000000E+00 0. -1.
         -4    1    3    3    0  502 -0.11042893420E+03  0.23574463787E+02 -0.67365793635E+02  0.13148556956E+03  0.00000000000E+00 0.  1.
         13    1    5    5    0    0  0.32663072118E+03  0.14421677978E+03  0.55385306119E+03  0.65896837631E+03  0.00000000000E+00 0.  1.
        -13    1    5    5    0    0  0.33406631957E+03  0.15967660950E+03  0.75452340416E+03  0.84047753862E+03  0.00000000000E+00 0. -1.
          3    1    6    6  503    0  0.48221732674E+02 -0.20774057083E+03  0.53923004384E+02  0.21997538652E+03  0.00000000000E+00 0. -1.
         -3    1    6    6    0  503  0.36933997894E+02 -0.12911893464E+03  0.11456579812E+03  0.17652518682E+03  0.00000000000E+00 0.  1.
<mgrwt>
<rscale>  0 0.27417904E+04</rscale>
<asrwt>0</asrwt>
<pdfrwt beam="1">  1        1 0.15522127E+00 0.27417904E+04</pdfrwt>
<pdfrwt beam="2">  1       -2 0.28656989E+00 0.27417904E+04</pdfrwt>
<totfact> 0.43640062E-01</totfact>
</mgrwt>
</event>
<event>
12    5  0.5221187E-008  0.1098542E+04  0.7818608E-02  0.9206614E-01
         -2   -1    0    0    0  501 -0.00000000000E+00  0.00000000000E+00  0.49869525618E+03  0.49869525618E+03  0.00000000000E+00 0.  1.
          1   -1    0    0  501    0  0.00000000000E+00 -0.00000000000E+00 -0.60497630936E+03  0.60497630936E+03  0.00000000000E+00 0. -1.
        -24    2    1    2    0    0  0.91757574313E+02  0.85277594499E+02  0.83889706617E+02  0.17077544025E+03  0.80218748111E+02 0.  0.
        254    2    1    2    0    0 -0.91757574313E+02 -0.85277594499E+02 -0.19017075980E+03  0.93289612529E+03  0.90467593210E+03 0.  0.
         23    2    4    4    0    0  0.14626697198E+02  0.23747310140E+03 -0.43468373532E+03  0.50393744132E+03  0.91627402327E+02 0.  0.
         23    2    4    4    0    0 -0.10638427151E+03 -0.32275069590E+03  0.24451297551E+03  0.42895868396E+03  0.93452300261E+02 0.  0.
          3    1    3    3  502    0  0.74870116114E+02  0.67507323298E+02  0.20586300046E+02  0.10289105275E+03  0.00000000000E+00 0. -1.
         -4    1    3    3    0  502  0.16887458199E+02  0.17770271201E+02  0.63303406571E+02  0.67884387502E+02  0.00000000000E+00 0.  1.
         13    1    5    5    0    0  0.18889462236E+02  0.75314593022E+02 -0.23009629808E+03  0.24284440717E+03  0.00000000000E+00 0. -1.
        -13    1    5    5    0    0 -0.42627650371E+01  0.16215850838E+03 -0.20458743724E+03  0.26109303415E+03  0.00000000000E+00 0.  1.
          2    1    6    6  503    0 -0.49013809632E+02 -0.25023714064E+03  0.14592120916E+03  0.29379240864E+03  0.00000000000E+00 0. -1.
         -2    1    6    6    0  503 -0.57370461880E+02 -0.72513555260E+02  0.98591766354E+02  0.13516627533E+03  0.00000000000E+00 0.  1.
<mgrwt>
<rscale>  0 0.10985423E+04</rscale>
<asrwt>0</asrwt>
<pdfrwt beam="1">  1        1 0.93073278E-01 0.10985423E+04</pdfrwt>
<pdfrwt beam="2">  1       -2 0.76722347E-01 0.10985423E+04</pdfrwt>
<totfact> 0.44832260E+01</totfact>
</mgrwt>
</event>
<event>
12    5  0.5221187E-008  0.2593696E+04  0.7818608E-02  0.8370346E-01
         -2   -1    0    0    0  501 -0.00000000000E+00  0.00000000000E+00  0.56804080594E+03  0.56804080594E+03  0.00000000000E+00 0.  1.
          1   -1    0    0  501    0  0.00000000000E+00 -0.00000000000E+00 -0.29607291083E+04  0.29607291083E+04  0.00000000000E+00 0. -1.
        -24    2    1    2    0    0  0.23418256388E+03 -0.11236854812E+04 -0.10132329391E+04  0.15331270555E+04  0.79542729068E+02 0.  0.
        254    2    1    2    0    0 -0.23418256388E+03  0.11236854812E+04 -0.13794553633E+04  0.19956428587E+04  0.87303080500E+03 0.  0.
         23    2    4    4    0    0 -0.97548342361E+02  0.11774783439E+04 -0.13836266574E+04  0.18216431509E+04  0.89387431069E+02 0.  0.
         23    2    4    4    0    0 -0.13663422152E+03 -0.53792862744E+02  0.41712940453E+01  0.17399970784E+03  0.93251895748E+02 0.  0.
          3    1    3    3  502    0  0.19719725859E+03 -0.95844064649E+03 -0.89959197701E+03  0.13291956051E+04  0.00000000000E+00 0. -1.
         -4    1    3    3    0  502  0.36985305293E+02 -0.16524483467E+03 -0.11364096206E+03  0.20393145038E+03  0.00000000000E+00 0.  1.
         13    1    5    5    0    0 -0.77062011320E+02  0.10540029089E+04 -0.12738462959E+04  0.16551571137E+04  0.00000000000E+00 0.  1.
        -13    1    5    5    0    0 -0.20486331041E+02  0.12347543506E+03 -0.10978036141E+03  0.16648603717E+03  0.00000000000E+00 0. -1.
          2    1    6    6  503    0 -0.13776447090E+03 -0.22981869628E+02 -0.10084332991E+02  0.14003181619E+03  0.00000000000E+00 0.  1.
         -2    1    6    6    0  503  0.11302493819E+01 -0.30810993116E+02  0.14255627037E+02  0.33967891643E+02  0.00000000000E+00 0. -1.
<mgrwt>
<rscale>  0 0.25936962E+04</rscale>
<asrwt>0</asrwt>
<pdfrwt beam="1">  1        1 0.45549680E+00 0.25936962E+04</pdfrwt>
<pdfrwt beam="2">  1       -2 0.87390891E-01 0.25936962E+04</pdfrwt>
<totfact> 0.55940685E-01</totfact>
</mgrwt>
</event>
<event>
12    5  0.5221187E-008  0.2375954E+04  0.7818608E-02  0.8448561E-01
         -2   -1    0    0    0  501 -0.00000000000E+00  0.00000000000E+00  0.17739663272E+04  0.17739663272E+04  0.00000000000E+00 0.  1.
          1   -1    0    0  501    0  0.00000000000E+00 -0.00000000000E+00 -0.79555558023E+03  0.79555558023E+03  0.00000000000E+00 0. -1.
        -24    2    1    2    0    0 -0.79697161689E+03  0.57803234526E+03  0.68288189730E+03  0.12008626475E+04  0.80363314447E+02 0.  0.
        254    2    1    2    0    0  0.79697161689E+03 -0.57803234526E+03  0.29552884964E+03  0.13686592599E+04  0.90366239179E+03 0.  0.
         23    2    4    4    0    0  0.85420447920E+03 -0.13347525097E+03  0.27140380432E+03  0.91089132752E+03  0.92639357919E+02 0.  0.
         23    2    4    4    0    0 -0.57232862313E+02 -0.44455709429E+03  0.24125045327E+02  0.45776793234E+03  0.89793382051E+02 0.  0.
          1    1    3    3  502    0 -0.58157184585E+03  0.38012636546E+03  0.46293019287E+03  0.83488096701E+03  0.00000000000E+00 0. -1.
         -2    1    3    3    0  502 -0.21539977104E+03  0.19790597981E+03  0.21995170443E+03  0.36598168054E+03  0.00000000000E+00 0.  1.
         13    1    5    5    0    0  0.17667727217E+03 -0.54929342787E+02  0.86293188357E+02  0.20415338733E+03  0.00000000000E+00 0.  1.
        -13    1    5    5    0    0  0.67752720704E+03 -0.78545908187E+02  0.18511061596E+03  0.70673794019E+03  0.00000000000E+00 0. -1.
          3    1    6    6  503    0 -0.56909198535E+02 -0.30827049913E+03 -0.21059312108E+02  0.31418601518E+03  0.00000000000E+00 0. -1.
         -3    1    6    6    0  503 -0.32366377759E+00 -0.13628659516E+03  0.45184357435E+02  0.14358191716E+03  0.00000000000E+00 0.  1.
<mgrwt>
<rscale>  0 0.23759535E+04</rscale>
<asrwt>0</asrwt>
<pdfrwt beam="1">  1        1 0.12239317E+00 0.23759535E+04</pdfrwt>
<pdfrwt beam="2">  1       -2 0.27291790E+00 0.23759535E+04</pdfrwt>
<totfact> 0.81692143E-01</totfact>
</mgrwt>
</event>
<event>
12    5  0.5221187E-008  0.1051129E+04  0.7818608E-02  0.9254179E-01
         -2   -1    0    0    0  501 -0.00000000000E+00  0.00000000000E+00  0.82307519255E+03  0.82307519255E+03  0.00000000000E+00 0.  1.
          1   -1    0    0  501    0  0.00000000000E+00 -0.00000000000E+00 -0.33559271088E+03  0.33559271088E+03  0.00000000000E+00 0. -1.
        -24    2    1    2    0    0  0.51870068716E+01  0.30654726068E+02  0.18850251952E+03  0.20705062355E+03  0.79813179211E+02 0.  0.
        254    2    1    2    0    0 -0.51870068716E+01 -0.30654726068E+02  0.29897996214E+03  0.95161727988E+03  0.90289523884E+03 0.  0.
         23    2    4    4    0    0 -0.14410723836E+02  0.80127414184E+02  0.60304283602E+03  0.61531925787E+03  0.91263659612E+02 0.  0.
         23    2    4    4    0    0  0.92237169645E+01 -0.11078214025E+03 -0.30406287387E+03  0.33629802201E+03  0.91018507927E+02 0.  0.
          3    1    3    3  502    0 -0.45384873676E+01  0.53904165756E+02  0.86836094475E+02  0.10230720530E+03  0.00000000000E+00 0. -1.
         -4    1    3    3    0  502  0.97254942392E+01 -0.23249439688E+02  0.10166642505E+03  0.10474341825E+03  0.00000000000E+00 0.  1.
         13    1    5    5    0    0 -0.15959623583E+02  0.21981678571E+02  0.46139161147E+03  0.46219056991E+03  0.00000000000E+00 0. -1.
        -13    1    5    5    0    0  0.15488997467E+01  0.58145735613E+02  0.14165122455E+03  0.15312868796E+03  0.00000000000E+00 0.  1.
          3    1    6    6  503    0  0.13706540338E+02 -0.15499181800E+01 -0.13014245977E+03  0.13087143053E+03  0.00000000000E+00 0. -1.
         -3    1    6    6    0  503 -0.44828233738E+01 -0.10923222207E+03 -0.17392041411E+03  0.20542659148E+03  0.00000000000E+00 0.  1.
<mgrwt>
<rscale>  0 0.10511290E+04</rscale>
<asrwt>0</asrwt>
<pdfrwt beam="1">  1        1 0.51629648E-01 0.10511290E+04</pdfrwt>
<pdfrwt beam="2">  1       -2 0.12662695E+00 0.10511290E+04</pdfrwt>
<totfact> 0.30638092E+01</totfact>
</mgrwt>
</event>
<event>
12    5  0.5221187E-008  0.2487338E+04  0.7818608E-02  0.8407511E-01
         -2   -1    0    0    0  501 -0.00000000000E+00  0.00000000000E+00  0.12528649154E+04  0.12528649154E+04  0.00000000000E+00 0.  1.
          1   -1    0    0  501    0  0.00000000000E+00 -0.00000000000E+00 -0.12345401292E+04  0.12345401292E+04  0.00000000000E+00 0. -1.
        -24    2    1    2    0    0  0.10101443634E+04  0.13706944757E+03 -0.37592978474E+03  0.10888297233E+04  0.71044316658E+02 0.  0.
        254    2    1    2    0    0 -0.10101443634E+04 -0.13706944757E+03  0.39425457088E+03  0.13985753213E+04  0.87258042275E+03 0.  0.
         23    2    4    4    0    0 -0.22481692615E+03 -0.34752795146E+03 -0.10930446038E+03  0.43814149497E+03  0.93285460953E+02 0.  0.
         23    2    4    4    0    0 -0.78532743729E+03  0.21045850389E+03  0.50355903127E+03  0.96043382631E+03  0.88484298709E+02 0.  0.
          3    1    3    3  502    0  0.20660481995E+03  0.94234913333E+01 -0.53263479909E+02  0.21356814395E+03  0.00000000000E+00 0. -1.
         -4    1    3    3    0  502  0.80353954349E+03  0.12764595624E+03 -0.32266630483E+03  0.87526157939E+03  0.00000000000E+00 0.  1.
         13    1    5    5    0    0 -0.58206897022E+02 -0.42102009832E+02  0.47912527893E+01  0.71997070747E+02  0.00000000000E+00 0.  1.
        -13    1    5    5    0    0 -0.16661002913E+03 -0.30542594163E+03 -0.11409571317E+03  0.36614442422E+03  0.00000000000E+00 0. -1.
          1    1    6    6  503    0 -0.28890832316E+03  0.12120833522E+03  0.18381811264E+03  0.36324726874E+03  0.00000000000E+00 0.  1.
         -1    1    6    6    0  503 -0.49641911413E+03  0.89250168669E+02  0.31974091863E+03  0.59718655756E+03  0.00000000000E+00 0. -1.
<mgrwt>
<rscale>  0 0.24873375E+04</rscale>
<asrwt>0</asrwt>
<pdfrwt beam="1">  1        1 0.18992925E+00 0.24873375E+04</pdfrwt>
<pdfrwt beam="2">  1       -2 0.19274845E+00 0.24873375E+04</pdfrwt>
<totfact> 0.11691643E+00</totfact>
</mgrwt>
</event>
<event>
12    5  0.5221187E-008  0.1549997E+04  0.7818608E-02  0.8851870E-01
         -2   -1    0    0    0  501 -0.00000000000E+00  0.00000000000E+00  0.18568564464E+03  0.18568564464E+03  0.00000000000E+00 0.  1.
          1   -1    0    0  501    0  0.00000000000E+00 -0.00000000000E+00 -0.32346215438E+04  0.32346215438E+04  0.00000000000E+00 0. -1.
        -24    2    1    2    0    0 -0.93639493659E+02 -0.28622439118E+03 -0.10407480717E+03  0.32758104827E+03  0.76059324369E+02 0.  0.
        254    2    1    2    0    0  0.93639493659E+02  0.28622439118E+03 -0.29448610920E+04  0.30927261401E+04  0.89557544070E+03 0.  0.
         23    2    4    4    0    0  0.35301817569E+03  0.44411677785E+03 -0.23415468393E+04  0.24110715774E+04  0.92536510926E+02 0.  0.
         23    2    4    4    0    0 -0.25937868203E+03 -0.15789238667E+03 -0.60331425266E+03  0.68165456275E+03  0.91964933492E+02 0.  0.
          3    1    3    3  502    0 -0.23131693455E+02 -0.12140131183E+03 -0.71644910419E+01  0.12379290646E+03  0.00000000000E+00 0. -1.
         -4    1    3    3    0  502 -0.70507800204E+02 -0.16482307935E+03 -0.96910316123E+02  0.20378814182E+03  0.00000000000E+00 0.  1.
         13    1    5    5    0    0  0.59186601005E+02  0.94554487659E+02 -0.33005910112E+03  0.34840007909E+03  0.00000000000E+00 0. -1.
        -13    1    5    5    0    0  0.29383157468E+03  0.34956229019E+03 -0.20114877382E+04  0.20626714983E+04  0.00000000000E+00 0.  1.
          3    1    6    6  503    0 -0.12539843921E+03 -0.12132872394E+03 -0.28207895968E+03  0.33168353487E+03  0.00000000000E+00 0.  1.
         -3    1    6    6    0  503 -0.13398024282E+03 -0.36563662730E+02 -0.32123529298E+03  0.34997102788E+03  0.00000000000E+00 0. -1.
<mgrwt>
<rscale>  0 0.15499971E+04</rscale>
<asrwt>0</asrwt>
<pdfrwt beam="1">  1        1 0.49763409E+00 0.15499971E+04</pdfrwt>
<pdfrwt beam="2">  1       -2 0.28567022E-01 0.15499971E+04</pdfrwt>
<totfact> 0.38339049E+00</totfact>
</mgrwt>
</event>
<event>
12    5  0.5221187E-008  0.1564503E+04  0.7818608E-02  0.8842657E-01
          1   -1    0    0  501    0  0.00000000000E+00  0.00000000000E+00  0.38943311814E+03  0.38943311814E+03  0.00000000000E+00 0. -1.
         -2   -1    0    0    0  501 -0.00000000000E+00 -0.00000000000E+00 -0.15713038176E+04  0.15713038176E+04  0.00000000000E+00 0.  1.
        -24    2    1    2    0    0  0.48518283112E+03  0.22035369461E+03 -0.28278247506E+03  0.60847816059E+03  0.79508574229E+02 0.  0.
        254    2    1    2    0    0 -0.48518283112E+03 -0.22035369461E+03 -0.89908822440E+03  0.13522587751E+04  0.85807110974E+03 0.  0.
         23    2    4    4    0    0 -0.61280513705E+03 -0.10186724153E+03 -0.25473733374E+03  0.67871330591E+03  0.99265157657E+02 0.  0.
         23    2    4    4    0    0  0.12762230593E+03 -0.11848645308E+03 -0.64435089066E+03  0.67354546924E+03  0.90271458999E+02 0.  0.
          1    1    3    3  502    0  0.30728828547E+03  0.15586231368E+03 -0.14219652626E+03  0.37274522572E+03  0.00000000000E+00 0. -1.
         -2    1    3    3    0  502  0.17789454564E+03  0.64491380930E+02 -0.14058594880E+03  0.23573293487E+03  0.00000000000E+00 0.  1.
         13    1    5    5    0    0 -0.20278303752E+03 -0.23739852761E+02 -0.13395757822E+03  0.24419085502E+03  0.00000000000E+00 0. -1.
        -13    1    5    5    0    0 -0.41002209953E+03 -0.78127388770E+02 -0.12077975552E+03  0.43452245088E+03  0.00000000000E+00 0.  1.
          3    1    6    6  503    0  0.47223674443E+02  0.43439187906E+01 -0.11996831569E+03  0.12900132490E+03  0.00000000000E+00 0. -1.
         -3    1    6    6    0  503  0.80398631488E+02 -0.12283037187E+03 -0.52438257497E+03  0.54454414434E+03  0.00000000000E+00 0.  1.
<mgrwt>
<rscale>  0 0.15645034E+04</rscale>
<asrwt>0</asrwt>
<pdfrwt beam="1">  1        1 0.59912787E-01 0.15645034E+04</pdfrwt>
<pdfrwt beam="2">  1       -2 0.24173905E+00 0.15645034E+04</pdfrwt>
<totfact> 0.37795714E+00</totfact>
</mgrwt>
</event>
<event>
12    5  0.5221187E-008  0.1903625E+04  0.7818608E-02  0.8653054E-01
          1   -1    0    0  501    0  0.00000000000E+00  0.00000000000E+00  0.10704696608E+04  0.10704696608E+04  0.00000000000E+00 0. -1.
         -2   -1    0    0    0  501 -0.00000000000E+00 -0.00000000000E+00 -0.84630769509E+03  0.84630769509E+03  0.00000000000E+00 0.  1.
        -24    2    1    2    0    0  0.53715763726E+03 -0.64180164755E+02  0.58016838780E+03  0.79738649104E+03  0.81070568565E+02 0.  0.
        254    2    1    2    0    0 -0.53715763726E+03  0.64180164755E+02 -0.35600642206E+03  0.11193908649E+04  0.91303774017E+03 0.  0.
         23    2    4    4    0    0 -0.16752797389E+02  0.30750668577E+03 -0.42600868722E+03  0.53353765691E+03  0.91312714050E+02 0.  0.
         23    2    4    4    0    0 -0.52040483987E+03 -0.24332652101E+03  0.70002265156E+02  0.58585320795E+03  0.91075084096E+02 0.  0.
          3    1    3    3  502    0  0.42892958855E+03 -0.80871786292E+02  0.48270942471E+03  0.65079123108E+03  0.00000000000E+00 0. -1.
         -4    1    3    3    0  502  0.10822804871E+03  0.16691621537E+02  0.97458963088E+02  0.14659525996E+03  0.00000000000E+00 0.  1.
         13    1    5    5    0    0  0.34209720742E+02  0.85736995234E+02 -0.14590417150E+03  0.17265330754E+03  0.00000000000E+00 0. -1.
        -13    1    5    5    0    0 -0.50962518132E+02  0.22176969054E+03 -0.28010451572E+03  0.36088434937E+03  0.00000000000E+00 0.  1.
          3    1    6    6  503    0 -0.12943255851E+02  0.44115662059E+01  0.11971989619E+02  0.18174661588E+02  0.00000000000E+00 0. -1.
         -3    1    6    6    0  503 -0.50746158402E+03 -0.24773808722E+03  0.58030275538E+02  0.56767854636E+03  0.00000000000E+00 0.  1.
<mgrwt>
<rscale>  0 0.19036247E+04</rscale>
<asrwt>0</asrwt>
<pdfrwt beam="1">  1        1 0.16468764E+00 0.19036247E+04</pdfrwt>
<pdfrwt beam="2">  1       -2 0.13020118E+00 0.19036247E+04</pdfrwt>
<totfact> 0.47361021E+00</totfact>
</mgrwt>
</event>
<event>
12    5  0.5221187E-008  0.2798117E+04  0.7818608E-02  0.8303853E-01
          1   -1    0    0  501    0  0.00000000000E+00  0.00000000000E+00  0.13778457533E+04  0.13778457533E+04  0.00000000000E+00 0. -1.
         -2   -1    0    0    0  501 -0.00000000000E+00 -0.00000000000E+00 -0.14205977251E+04  0.14205977251E+04  0.00000000000E+00 0.  1.
        -24    2    1    2    0    0 -0.52502305790E+03  0.11292953647E+04  0.12973937620E+03  0.12546335579E+04  0.79472175232E+02 0.  0.
        254    2    1    2    0    0  0.52502305790E+03 -0.11292953647E+04 -0.17249134799E+03  0.15438099205E+04  0.89590098406E+03 0.  0.
         23    2    4    4    0    0  0.37432000891E+03 -0.12421745504E+04 -0.47294503039E+02  0.13013818186E+04  0.90800797809E+02 0.  0.
         23    2    4    4    0    0  0.15070304898E+03  0.11287918568E+03 -0.12519684495E+03  0.24242810190E+03  0.87430058157E+02 0.  0.
          3    1    3    3  502    0 -0.49871786694E+02  0.14866819301E+03 -0.34344280374E+01  0.15684776701E+03  0.00000000000E+00 0. -1.
         -4    1    3    3    0  502 -0.47515127120E+03  0.98062717173E+03  0.13317380424E+03  0.10977857909E+04  0.00000000000E+00 0.  1.
         13    1    5    5    0    0  0.35090895983E+03 -0.11103134196E+04 -0.19520821607E+02  0.11646089688E+04  0.00000000000E+00 0. -1.
        -13    1    5    5    0    0  0.23411049090E+02 -0.13186113082E+03 -0.27773681432E+02  0.13677284973E+03  0.00000000000E+00 0.  1.
          1    1    6    6  503    0  0.16127088662E+03  0.11293700059E+03 -0.12075177335E+03  0.23096332120E+03  0.00000000000E+00 0. -1.
         -1    1    6    6    0  503 -0.10567837636E+02 -0.57814904017E-01 -0.44450716005E+01  0.11464780695E+02  0.00000000000E+00 0.  1.
<mgrwt>
<rscale>  0 0.27981169E+04</rscale>
<asrwt>0</asrwt>
<pdfrwt beam="1">  1        1 0.21197627E+00 0.27981169E+04</pdfrwt>
<pdfrwt beam="2">  1       -2 0.21855350E+00 0.27981169E+04</pdfrwt>
<totfact> 0.61116669E-01</totfact>
</mgrwt>
</event>
<event>
12    5  0.5221187E-008  0.2119077E+04  0.7818608E-02  0.8552886E-01
          1   -1    0    0  501    0  0.00000000000E+00  0.00000000000E+00  0.33269819160E+04  0.33269819160E+04  0.00000000000E+00 0. -1.
         -2   -1    0    0    0  501 -0.00000000000E+00 -0.00000000000E+00 -0.33742934025E+03  0.33742934025E+03  0.00000000000E+00 0.  1.
        -24    2    1    2    0    0  0.18560024697E+03 -0.31685651712E+03 -0.14249747906E+03  0.40152857321E+03  0.77936894015E+02 0.  0.
        254    2    1    2    0    0 -0.18560024697E+03  0.31685651712E+03  0.31320500548E+04  0.32628826830E+04  0.83774718935E+03 0.  0.
         23    2    4    4    0    0 -0.16169867443E+03  0.58027955167E+03  0.24676753130E+04  0.25418229220E+04  0.92582380590E+02 0.  0.
         23    2    4    4    0    0 -0.23901572533E+02 -0.26342303454E+03  0.66437474176E+03  0.72105976095E+03  0.92576460685E+02 0.  0.
          3    1    3    3  502    0  0.82632988276E+02 -0.17067926436E+03 -0.34799285962E+02  0.19279681620E+03  0.00000000000E+00 0. -1.
         -4    1    3    3    0  502  0.10296725869E+03 -0.14617725276E+03 -0.10769819310E+03  0.20873175701E+03  0.00000000000E+00 0.  1.
         13    1    5    5    0    0 -0.39834815143E+02  0.30666021684E+03  0.11928470262E+04  0.12322789169E+04  0.00000000000E+00 0.  1.
        -13    1    5    5    0    0 -0.12186385929E+03  0.27361933482E+03  0.12748282868E+04  0.13095440052E+04  0.00000000000E+00 0. -1.
          3    1    6    6  503    0 -0.11287952674E+02 -0.23827012232E+03  0.49633072713E+03  0.55067618413E+03  0.00000000000E+00 0. -1.
         -3    1    6    6    0  503 -0.12613619859E+02 -0.25152912222E+02  0.16804401463E+03  0.17038357682E+03  0.00000000000E+00 0.  1.
<mgrwt>
<rscale>  0 0.21190765E+04</rscale>
<asrwt>0</asrwt>
<pdfrwt beam="1">  1        1 0.51184335E+00 0.21190765E+04</pdfrwt>
<pdfrwt beam="2">  1       -2 0.51912208E-01 0.21190765E+04</pdfrwt>
<totfact> 0.96524344E-01</totfact>
</mgrwt>
</event>
<event>
12    5  0.5221187E-008  0.1390517E+04  0.7818608E-02  0.8960711E-01
          1   -1    0    0  501    0  0.00000000000E+00  0.00000000000E+00  0.78579111270E+03  0.78579111270E+03  0.00000000000E+00 0. -1.
         -2   -1    0    0    0  501 -0.00000000000E+00 -0.00000000000E+00 -0.61515666579E+03  0.61515666579E+03  0.00000000000E+00 0.  1.
        -24    2    1    2    0    0  0.65024983423E+01  0.38862362566E+03 -0.38765077554E+02  0.39902693821E+03  0.81542389432E+02 0.  0.
        254    2    1    2    0    0 -0.65024983423E+01 -0.38862362566E+03  0.20939952446E+03  0.10019208403E+04  0.89940347144E+03 0.  0.
         23    2    4    4    0    0 -0.11412450289E+03 -0.33887352599E+03  0.53076631402E+03  0.64716177193E+03  0.96155135975E+02 0.  0.
         23    2    4    4    0    0  0.10762200455E+03 -0.49750099671E+02 -0.32136678955E+03  0.35475906835E+03  0.92302843234E+02 0.  0.
          3    1    3    3  502    0  0.41747062604E+01  0.58681843853E+02 -0.36183451676E+02  0.69066845487E+02  0.00000000000E+00 0. -1.
         -4    1    3    3    0  502  0.23277920819E+01  0.32994178181E+03 -0.25816258771E+01  0.32996009272E+03  0.00000000000E+00 0.  1.
         13    1    5    5    0    0 -0.11939180156E+03 -0.21503575577E+03  0.36641192942E+03  0.44130769375E+03  0.00000000000E+00 0.  1.
        -13    1    5    5    0    0  0.52672986653E+01 -0.12383777022E+03  0.16435438460E+03  0.20585407818E+03  0.00000000000E+00 0. -1.
          3    1    6    6  503    0  0.77429008628E+02  0.13408543858E+02 -0.19609670366E+03  0.21125566883E+03  0.00000000000E+00 0. -1.
         -3    1    6    6    0  503  0.30192995923E+02 -0.63158643529E+02 -0.12527008589E+03  0.14350339952E+03  0.00000000000E+00 0.  1.
<mgrwt>
<rscale>  0 0.13905174E+04</rscale>
<asrwt>0</asrwt>
<pdfrwt beam="1">  1        1 0.12089094E+00 0.13905174E+04</pdfrwt>
<pdfrwt beam="2">  1       -2 0.94639487E-01 0.13905174E+04</pdfrwt>
<totfact> 0.18290428E+01</totfact>
</mgrwt>
</event>
<event>
12    5  0.5221187E-008  0.1504111E+04  0.7818608E-02  0.8881724E-01
          1   -1    0    0  501    0  0.00000000000E+00  0.00000000000E+00  0.30709496296E+04  0.30709496296E+04  0.00000000000E+00 0. -1.
         -2   -1    0    0    0  501 -0.00000000000E+00 -0.00000000000E+00 -0.18417349371E+03  0.18417349371E+03  0.00000000000E+00 0.  1.
        -24    2    1    2    0    0  0.10432644087E+03 -0.17633117149E+03  0.18582913261E+04  0.18724813830E+04  0.10470524697E+03 0.  0.
        254    2    1    2    0    0 -0.10432644087E+03  0.17633117149E+03  0.10284848098E+04  0.13826417403E+04  0.90107740499E+03 0.  0.
         23    2    4    4    0    0  0.19677879155E+03  0.43294405713E+03  0.37119420881E+03  0.60995737529E+03  0.90002275571E+02 0.  0.
         23    2    4    4    0    0 -0.30110523242E+03 -0.25661288564E+03  0.65729060100E+03  0.77268436503E+03  0.92171903214E+02 0.  0.
          3    1    3    3  502    0  0.97502541601E+02 -0.18941782001E+03  0.16550703538E+04  0.16687251817E+04  0.00000000000E+00 0. -1.
         -4    1    3    3    0  502  0.68238992688E+01  0.13086648518E+02  0.20322097231E+03  0.20375620128E+03  0.00000000000E+00 0.  1.
         13    1    5    5    0    0  0.12350855415E+03  0.16755956276E+03  0.17405513711E+03  0.27134067291E+03  0.00000000000E+00 0. -1.
        -13    1    5    5    0    0  0.73270237402E+02  0.26538449437E+03  0.19713907171E+03  0.33861670239E+03  0.00000000000E+00 0.  1.
          2    1    6    6  503    0 -0.15307503895E+03 -0.89704547220E+02  0.22814633299E+03  0.28901491761E+03  0.00000000000E+00 0. -1.
         -2    1    6    6    0  503 -0.14803019347E+03 -0.16690833842E+03  0.42914426800E+03  0.48366944743E+03  0.00000000000E+00 0.  1.
<mgrwt>
<rscale>  0 0.15041111E+04</rscale>
<asrwt>0</asrwt>
<pdfrwt beam="1">  1        1 0.47245375E+00 0.15041111E+04</pdfrwt>
<pdfrwt beam="2">  1       -2 0.28334386E-01 0.15041111E+04</pdfrwt>
<totfact> 0.51699365E+00</totfact>
</mgrwt>
</event>
<event>
12    5  0.5221187E-008  0.1154326E+04  0.7818608E-02  0.9153802E-01
         -2   -1    0    0    0  501 -0.00000000000E+00  0.00000000000E+00  0.10074657682E+04  0.10074657682E+04  0.00000000000E+00 0.  1.
          1   -1    0    0  501    0  0.00000000000E+00 -0.00000000000E+00 -0.33064833508E+03  0.33064833508E+03  0.00000000000E+00 0. -1.
        -24    2    1    2    0    0  0.24625669571E+02 -0.21313883363E+03  0.16181318165E+03  0.27997862823E+03  0.78548968848E+02 0.  0.
        254    2    1    2    0    0 -0.24625669571E+02  0.21313883363E+03  0.51500425147E+03  0.10581354751E+04  0.89910328580E+03 0.  0.
         23    2    4    4    0    0 -0.51918753984E+02  0.48390690686E+03  0.57962372119E+03  0.76256278475E+03  0.93149830857E+02 0.  0.
         23    2    4    4    0    0  0.27293084413E+02 -0.27076807323E+03 -0.64619469726E+02  0.29557269031E+03  0.95536785849E+02 0.  0.
          3    1    3    3  502    0  0.19232785351E+02 -0.11155840604E+03  0.13217157702E+03  0.17402443438E+03  0.00000000000E+00 0. -1.
         -2    1    3    3    0  502  0.53928842206E+01 -0.10158042759E+03  0.29641604638E+02  0.10595419385E+03  0.00000000000E+00 0.  1.
         13    1    5    5    0    0 -0.75706648644E+02  0.41900074916E+03  0.51122991940E+03  0.66531883705E+03  0.00000000000E+00 0.  1.
        -13    1    5    5    0    0  0.23787894659E+02  0.64906157696E+02  0.68393801796E+02  0.97243947695E+02  0.00000000000E+00 0. -1.
          1    1    6    6  503    0 -0.34275589113E+02 -0.63621130226E+02 -0.18649944521E+02  0.74634339623E+02  0.00000000000E+00 0. -1.
         -1    1    6    6    0  503  0.61568673526E+02 -0.20714694300E+03 -0.45969525204E+02  0.22093835068E+03  0.00000000000E+00 0.  1.
<mgrwt>
<rscale>  0 0.11543256E+04</rscale>
<asrwt>0</asrwt>
<pdfrwt beam="1">  1        1 0.50868975E-01 0.11543256E+04</pdfrwt>
<pdfrwt beam="2">  1       -2 0.15499473E+00 0.11543256E+04</pdfrwt>
<totfact> 0.18347280E+01</totfact>
</mgrwt>
</event>
<event>
12    5  0.5221187E-008  0.1711209E+04  0.7818608E-02  0.8754997E-01
          1   -1    0    0  501    0  0.00000000000E+00  0.00000000000E+00  0.95285041465E+03  0.95285041465E+03  0.00000000000E+00 0. -1.
         -2   -1    0    0    0  501 -0.00000000000E+00 -0.00000000000E+00 -0.76828310075E+03  0.76828310075E+03  0.00000000000E+00 0.  1.
        -24    2    1    2    0    0  0.96287126166E+02  0.41340990629E+03 -0.39071929146E+03  0.58276378842E+03  0.82298888745E+02 0.  0.
        254    2    1    2    0    0 -0.96287126166E+02 -0.41340990629E+03  0.57528660537E+03  0.11383697270E+04  0.88586228936E+03 0.  0.
         23    2    4    4    0    0  0.52821117250E+01 -0.23215575987E+02 -0.22206347096E+03  0.24044969148E+03  0.89089872199E+02 0.  0.
         23    2    4    4    0    0 -0.10156923789E+03 -0.39019433030E+03  0.79735007632E+03  0.89792003550E+03  0.89024268890E+02 0.  0.
          3    1    3    3  502    0  0.94298887180E+02  0.25023646090E+03 -0.21662997977E+03  0.34414984327E+03  0.00000000000E+00 0. -1.
         -4    1    3    3    0  502  0.19882389853E+01  0.16317344539E+03 -0.17408931170E+03  0.23861394515E+03  0.00000000000E+00 0.  1.
         13    1    5    5    0    0  0.31952856328E+02 -0.10366940890E+02 -0.26850583586E+02  0.43004794266E+02  0.00000000000E+00 0.  1.
        -13    1    5    5    0    0 -0.26670744603E+02 -0.12848635096E+02 -0.19521288737E+03  0.19744489722E+03  0.00000000000E+00 0. -1.
          4    1    6    6  503    0 -0.92588277499E+02 -0.25261366582E+03  0.59572561478E+03  0.65366295703E+03  0.00000000000E+00 0. -1.
         -4    1    6    6    0  503 -0.89809603916E+01 -0.13758066448E+03  0.20162446154E+03  0.24425707847E+03  0.00000000000E+00 0.  1.
<mgrwt>
<rscale>  0 0.17112088E+04</rscale>
<asrwt>0</asrwt>
<pdfrwt beam="1">  1        1 0.14659237E+00 0.17112088E+04</pdfrwt>
<pdfrwt beam="2">  1       -2 0.11819740E+00 0.17112088E+04</pdfrwt>
<totfact> 0.75744342E+00</totfact>
</mgrwt>
</event>
<event>
12    5  0.5221187E-008  0.1314280E+04  0.7818608E-02  0.9018317E-01
          1   -1    0    0  501    0  0.00000000000E+00  0.00000000000E+00  0.86466441522E+03  0.86466441522E+03  0.00000000000E+00 0. -1.
         -2   -1    0    0    0  501 -0.00000000000E+00 -0.00000000000E+00 -0.49942289775E+03  0.49942289775E+03  0.00000000000E+00 0.  1.
        -24    2    1    2    0    0 -0.12854935822E+03  0.12475091858E+03  0.39468255417E+03  0.44091523087E+03  0.80896186944E+02 0.  0.
        254    2    1    2    0    0  0.12854935822E+03 -0.12475091858E+03 -0.29441036700E+02  0.92317208210E+03  0.90514760639E+03 0.  0.
         23    2    4    4    0    0  0.49796428064E+03  0.40647762881E+02 -0.13979240097E+02  0.50823554988E+03  0.92126486868E+02 0.  0.
         23    2    4    4    0    0 -0.36941492242E+03 -0.16539868146E+03 -0.15461796604E+02  0.41493653223E+03  0.90050818369E+02 0.  0.
          1    1    3    3  502    0 -0.13146036914E+02  0.42030909982E+02  0.16596558581E+03  0.17170903108E+03  0.00000000000E+00 0. -1.
         -2    1    3    3    0  502 -0.11540332131E+03  0.82720008598E+02  0.22871696836E+03  0.26920619980E+03  0.00000000000E+00 0.  1.
         13    1    5    5    0    0  0.30580932517E+03  0.69412683499E+02 -0.14813293639E+02  0.31393772895E+03  0.00000000000E+00 0.  1.
        -13    1    5    5    0    0  0.19215495547E+03 -0.28764920619E+02  0.83405354207E+00  0.19429782092E+03  0.00000000000E+00 0. -1.
          1    1    6    6  503    0 -0.36672346594E+03 -0.14841888719E+03 -0.67799259895E+01  0.39567693128E+03  0.00000000000E+00 0. -1.
         -1    1    6    6    0  503 -0.26914564728E+01 -0.16979794268E+02 -0.86818706143E+01  0.19259600948E+02  0.00000000000E+00 0.  1.
<mgrwt>
<rscale>  0 0.13142803E+04</rscale>
<asrwt>0</asrwt>
<pdfrwt beam="1">  1        1 0.13302529E+00 0.13142803E+04</pdfrwt>
<pdfrwt beam="2">  1       -2 0.76834292E-01 0.13142803E+04</pdfrwt>
<totfact> 0.25339570E+01</totfact>
</mgrwt>
</event>
<event>
12    5  0.5221187E-008  0.3732499E+04  0.7818608E-02  0.8060798E-01
          1   -1    0    0  501    0  0.00000000000E+00  0.00000000000E+00  0.13465488553E+04  0.13465488553E+04  0.00000000000E+00 0. -1.
         -2   -1    0    0    0  501 -0.00000000000E+00 -0.00000000000E+00 -0.25865282171E+04  0.25865282171E+04  0.00000000000E+00 0.  1.
        -24    2    1    2    0    0 -0.15424994262E+03 -0.50880311550E+03  0.11793714761E+04  0.12961348458E+04  0.79842374230E+02 0.  0.
        254    2    1    2    0    0  0.15424994262E+03  0.50880311550E+03 -0.24193508379E+04  0.26369422267E+04  0.90417485842E+03 0.  0.
         23    2    4    4    0    0  0.31266115952E+02 -0.24828704892E+02  0.45609031231E+02  0.11012332206E+03  0.91939804972E+02 0.  0.
         23    2    4    4    0    0  0.12298382667E+03  0.53363182039E+03 -0.24649598692E+04  0.25268189046E+04  0.94332808166E+02 0.  0.
          3    1    3    3  502    0 -0.99964753086E+02 -0.31573412690E+03  0.63854469297E+03  0.71931934193E+03  0.00000000000E+00 0. -1.
         -4    1    3    3    0  502 -0.54285189537E+02 -0.19306898860E+03  0.54082678309E+03  0.57681550384E+03  0.00000000000E+00 0.  1.
         13    1    5    5    0    0  0.14360892563E+02  0.31445222588E+02 -0.18114555786E+01  0.34616739161E+02  0.00000000000E+00 0. -1.
        -13    1    5    5    0    0  0.16905223389E+02 -0.56273927480E+02  0.47420486810E+02  0.75506582899E+02  0.00000000000E+00 0.  1.
          1    1    6    6  503    0  0.49013484188E+02  0.70266199658E+02 -0.43141681243E+03  0.43984102411E+03  0.00000000000E+00 0. -1.
         -1    1    6    6    0  503  0.73970342484E+02  0.46336562073E+03 -0.20335430567E+04  0.20869778805E+04  0.00000000000E+00 0.  1.
<mgrwt>
<rscale>  0 0.37324987E+04</rscale>
<asrwt>0</asrwt>
<pdfrwt beam="1">  1        1 0.20716136E+00 0.37324987E+04</pdfrwt>
<pdfrwt beam="2">  1       -2 0.39792742E+00 0.37324987E+04</pdfrwt>
<totfact> 0.45049732E-02</totfact>
</mgrwt>
</event>
<event>
12    5  0.5221187E-008  0.1626463E+04  0.7818608E-02  0.8804454E-01
          1   -1    0    0  501    0  0.00000000000E+00  0.00000000000E+00  0.11512572195E+04  0.11512572195E+04  0.00000000000E+00 0. -1.
         -2   -1    0    0    0  501 -0.00000000000E+00 -0.00000000000E+00 -0.57445488493E+03  0.57445488493E+03  0.00000000000E+00 0.  1.
        -24    2    1    2    0    0  0.50900078886E+03  0.12429334037E+03 -0.26528404288E+00  0.52977951466E+03  0.78330238447E+02 0.  0.
        254    2    1    2    0    0 -0.50900078886E+03 -0.12429334037E+03  0.57706761861E+03  0.11959325898E+04  0.90703753247E+03 0.  0.
         23    2    4    4    0    0 -0.10270838945E+03 -0.40171875634E+03 -0.11313513552E+02  0.42383930912E+03  0.87090710803E+02 0.  0.
         23    2    4    4    0    0 -0.40629239941E+03  0.27742541597E+03  0.58838113216E+03  0.77209328065E+03  0.88866765996E+02 0.  0.
          3    1    3    3  502    0  0.11108738424E+03 -0.51673986779E+01 -0.48029914777E+01  0.11131117497E+03  0.00000000000E+00 0. -1.
         -4    1    3    3    0  502  0.39791340462E+03  0.12946073905E+03  0.45377074348E+01  0.41846833969E+03  0.00000000000E+00 0.  1.
         13    1    5    5    0    0 -0.69325526127E+02 -0.12520527092E+03 -0.23588669659E+02  0.14504762588E+03  0.00000000000E+00 0. -1.
        -13    1    5    5    0    0 -0.33382863320E+02 -0.27651348542E+03  0.12275156108E+02  0.27879168324E+03  0.00000000000E+00 0.  1.
          2    1    6    6  503    0 -0.45290224867E+02  0.10269186791E+02  0.89579942812E+02  0.10090206549E+03  0.00000000000E+00 0. -1.
         -2    1    6    6    0  503 -0.36100217454E+03  0.26715622917E+03  0.49880118935E+03  0.67119121516E+03  0.00000000000E+00 0.  1.
<mgrwt>
<rscale>  0 0.16264628E+04</rscale>
<asrwt>0</asrwt>
<pdfrwt beam="1">  1        1 0.17711650E+00 0.16264628E+04</pdfrwt>
<pdfrwt beam="2">  1       -2 0.88377675E-01 0.16264628E+04</pdfrwt>
<totfact> 0.10741271E+01</totfact>
</mgrwt>
</event>
<event>
12    5  0.5221187E-008  0.1073790E+04  0.7818608E-02  0.9231121E-01
          3   -1    0    0  501    0  0.00000000000E+00  0.00000000000E+00  0.11824955156E+04  0.11824955156E+04  0.00000000000E+00 0. -1.
         -4   -1    0    0    0  501 -0.00000000000E+00 -0.00000000000E+00 -0.24376934332E+03  0.24376934332E+03  0.00000000000E+00 0.  1.
        -24    2    1    2    0    0 -0.70777869209E+02  0.56956450096E+02  0.29053580764E+03  0.31512259879E+03  0.81471791235E+02 0.  0.
        254    2    1    2    0    0  0.70777869209E+02 -0.56956450096E+02  0.64819036465E+03  0.11111422602E+04  0.89790468843E+03 0.  0.
         23    2    4    4    0    0 -0.37161179298E+03  0.95851216742E+02  0.43753063105E+03  0.58941780292E+03  0.93260457078E+02 0.  0.
         23    2    4    4    0    0  0.44238966219E+03 -0.15280766684E+03  0.21065973360E+03  0.52172445724E+03  0.93595350659E+02 0.  0.
          1    1    3    3  502    0 -0.49474228750E+02  0.75802937691E+02  0.24752713329E+03  0.26355922748E+03  0.00000000000E+00 0. -1.
         -2    1    3    3    0  502 -0.21303640459E+02 -0.18846487595E+02  0.43008674352E+02  0.51563371312E+02  0.00000000000E+00 0.  1.
         13    1    5    5    0    0 -0.33290735267E+03  0.53266129348E+02  0.36604768242E+03  0.49764996915E+03  0.00000000000E+00 0.  1.
        -13    1    5    5    0    0 -0.38704440314E+02  0.42585087393E+02  0.71482948633E+02  0.91767833763E+02  0.00000000000E+00 0. -1.
          3    1    6    6  503    0  0.46389068755E+02  0.12407709641E+02  0.25826810051E+02  0.54524499777E+02  0.00000000000E+00 0. -1.
         -3    1    6    6    0  503  0.39600059343E+03 -0.16521537648E+03  0.18483292355E+03  0.46719995746E+03  0.00000000000E+00 0.  1.
<mgrwt>
<rscale>  0 0.10737898E+04</rscale>
<asrwt>0</asrwt>
<pdfrwt beam="1">  1        3 0.18192238E+00 0.10737898E+04</pdfrwt>
<pdfrwt beam="2">  1       -4 0.37502977E-01 0.10737898E+04</pdfrwt>
<totfact> 0.30482760E+00</totfact>
</mgrwt>
</event>
<event>
12    5  0.5221187E-008  0.2128340E+04  0.7818608E-02  0.8548861E-01
          1   -1    0    0  501    0  0.00000000000E+00  0.00000000000E+00  0.21910022157E+04  0.21910022157E+04  0.00000000000E+00 0. -1.
         -2   -1    0    0    0  501 -0.00000000000E+00 -0.00000000000E+00 -0.51686731398E+03  0.51686731398E+03  0.00000000000E+00 0.  1.
        -24    2    1    2    0    0 -0.10454982460E+03 -0.75642593826E+03  0.15628007178E+03  0.78343051500E+03  0.78924299856E+02 0.  0.
        254    2    1    2    0    0  0.10454982460E+03  0.75642593826E+03  0.15178548300E+04  0.19244390147E+04  0.90358805360E+03 0.  0.
         23    2    4    4    0    0  0.36382604734E+03  0.76542016555E+01  0.37323164716E+03  0.52910097007E+03  0.90653155301E+02 0.  0.
         23    2    4    4    0    0 -0.25927622274E+03  0.74877173660E+03  0.11446231828E+04  0.13953380447E+04  0.94460335504E+02 0.  0.
          1    1    3    3  502    0 -0.16231336380E+02 -0.16504888455E+03  0.66994553270E+02  0.17886548225E+03  0.00000000000E+00 0. -1.
         -2    1    3    3    0  502 -0.88318488219E+02 -0.59137705371E+03  0.89285518511E+02  0.60456503275E+03  0.00000000000E+00 0.  1.
         13    1    5    5    0    0  0.13713016969E+03 -0.40897169441E+02  0.14817813721E+03  0.20599519959E+03  0.00000000000E+00 0.  1.
        -13    1    5    5    0    0  0.22669587765E+03  0.48551371097E+02  0.22505350995E+03  0.32310577049E+03  0.00000000000E+00 0. -1.
          1    1    6    6  503    0 -0.23732399719E+03  0.73318610086E+03  0.11137940358E+04  0.13544082443E+04  0.00000000000E+00 0. -1.
         -1    1    6    6    0  503 -0.21952225548E+02  0.15585635744E+02  0.30829147052E+02  0.40929800342E+02  0.00000000000E+00 0.  1.
<mgrwt>
<rscale>  0 0.21283397E+04</rscale>
<asrwt>0</asrwt>
<pdfrwt beam="1">  1        1 0.33707726E+00 0.21283397E+04</pdfrwt>
<pdfrwt beam="2">  1       -2 0.79518050E-01 0.21283397E+04</pdfrwt>
<totfact> 0.24951773E+00</totfact>
</mgrwt>
</event>
<event>
12    5  0.5221187E-008  0.1490405E+04  0.7818608E-02  0.8890859E-01
          1   -1    0    0  501    0  0.00000000000E+00  0.00000000000E+00  0.77687515894E+03  0.77687515894E+03  0.00000000000E+00 0. -1.
         -2   -1    0    0    0  501 -0.00000000000E+00 -0.00000000000E+00 -0.71482104856E+03  0.71482104856E+03  0.00000000000E+00 0.  1.
        -24    2    1    2    0    0 -0.32385156280E+03 -0.29649538058E+02 -0.31430916866E+03  0.45939725560E+03  0.80601830689E+02 0.  0.
        254    2    1    2    0    0  0.32385156280E+03  0.29649538058E+02  0.37636327904E+03  0.10322989519E+04  0.90456225792E+03 0.  0.
         23    2    4    4    0    0 -0.25588042224E+03 -0.82439162513E+02  0.32745019109E+03  0.43278966818E+03  0.88387008281E+02 0.  0.
         23    2    4    4    0    0  0.57973198504E+03  0.11208870057E+03  0.48913087952E+02  0.59950928373E+03  0.91464965042E+02 0.  0.
          3    1    3    3  502    0 -0.56721420351E+02 -0.10415152340E+02 -0.18975430235E+02  0.60711299422E+02  0.00000000000E+00 0. -1.
         -4    1    3    3    0  502 -0.26713014245E+03 -0.19234385718E+02 -0.29533373842E+03  0.39868595617E+03  0.00000000000E+00 0.  1.
         13    1    5    5    0    0 -0.19731544842E+03 -0.61121311716E+02  0.30105321255E+03  0.36510578976E+03  0.00000000000E+00 0.  1.
        -13    1    5    5    0    0 -0.58564973823E+02 -0.21317850797E+02  0.26396978544E+02  0.67683878418E+02  0.00000000000E+00 0. -1.
          3    1    6    6  503    0  0.59558947557E+02  0.37753656851E+02 -0.80427937985E+01  0.70973892185E+02  0.00000000000E+00 0. -1.
         -3    1    6    6    0  503  0.52017303748E+03  0.74335043719E+02  0.56955881750E+02  0.52853539155E+03  0.00000000000E+00 0.  1.
<mgrwt>
<rscale>  0 0.14904049E+04</rscale>
<asrwt>0</asrwt>
<pdfrwt beam="1">  1        1 0.11951925E+00 0.14904049E+04</pdfrwt>
<pdfrwt beam="2">  1       -2 0.10997247E+00 0.14904049E+04</pdfrwt>
<totfact> 0.12916673E+01</totfact>
</mgrwt>
</event>
<event>
12    5  0.5221187E-008  0.2570677E+04  0.7818608E-02  0.8378230E-01
          1   -1    0    0  501    0  0.00000000000E+00  0.00000000000E+00  0.12617381236E+04  0.12617381236E+04  0.00000000000E+00 0. -1.
         -2   -1    0    0    0  501 -0.00000000000E+00 -0.00000000000E+00 -0.13093808104E+04  0.13093808104E+04  0.00000000000E+00 0.  1.
        -24    2    1    2    0    0  0.33134547037E+03 -0.70036429689E+03 -0.83987028767E+03  0.11452032094E+04  0.76212344787E+02 0.  0.
        254    2    1    2    0    0 -0.33134547037E+03  0.70036429689E+03  0.79222760088E+03  0.14259157247E+04  0.89739128211E+03 0.  0.
         23    2    4    4    0    0  0.24666921838E+03  0.10094421411E+03  0.13487420211E+02  0.28219741707E+03  0.91749844908E+02 0.  0.
         23    2    4    4    0    0 -0.57801468874E+03  0.59942008278E+03  0.77874018067E+03  0.11437183076E+04  0.90828861783E+02 0.  0.
          3    1    3    3  502    0  0.28198270687E+03 -0.57333896145E+03 -0.64956860534E+03  0.91113730290E+03  0.00000000000E+00 0. -1.
         -4    1    3    3    0  502  0.49362763493E+02 -0.12702533544E+03 -0.19030168234E+03  0.23406590645E+03  0.00000000000E+00 0.  1.
         13    1    5    5    0    0  0.22699400105E+03  0.86982003811E+02  0.39992370241E+02  0.24635652046E+03  0.00000000000E+00 0.  1.
        -13    1    5    5    0    0  0.19675217330E+02  0.13962210304E+02 -0.26504950030E+02  0.35840896608E+02  0.00000000000E+00 0. -1.
          4    1    6    6  503    0 -0.98591176041E+02  0.10494542840E+03  0.18467836494E+03  0.23417912249E+03  0.00000000000E+00 0. -1.
         -4    1    6    6    0  503 -0.47942351270E+03  0.49447465438E+03  0.59406181573E+03  0.90953918512E+03  0.00000000000E+00 0.  1.
<mgrwt>
<rscale>  0 0.25706775E+04</rscale>
<asrwt>0</asrwt>
<pdfrwt beam="1">  1        1 0.19411356E+00 0.25706775E+04</pdfrwt>
<pdfrwt beam="2">  1       -2 0.20144320E+00 0.25706775E+04</pdfrwt>
<totfact> 0.97178821E-01</totfact>
</mgrwt>
</event>
<event>
12    5  0.5221187E-008  0.2607895E+04  0.7818608E-02  0.8365525E-01
         -2   -1    0    0    0  501 -0.00000000000E+00  0.00000000000E+00  0.11855347235E+04  0.11855347235E+04  0.00000000000E+00 0.  1.
          1   -1    0    0  501    0  0.00000000000E+00 -0.00000000000E+00 -0.14341870057E+04  0.14341870057E+04  0.00000000000E+00 0. -1.
        -24    2    1    2    0    0  0.11136191851E+04 -0.21061942705E+03 -0.28981028868E+03  0.11725710116E+04  0.80153236430E+02 0.  0.
        254    2    1    2    0    0 -0.11136191851E+04  0.21061942705E+03  0.41158006404E+02  0.14471507176E+04  0.89891211224E+03 0.  0.
         23    2    4    4    0    0 -0.87807403669E+03  0.52269721935E+03  0.13540511656E+03  0.10350154455E+04  0.93252505364E+02 0.  0.
         23    2    4    4    0    0 -0.23554514841E+03 -0.31207779229E+03 -0.94247110156E+02  0.41213527214E+03  0.89993885294E+02 0.  0.
          1    1    3    3  502    0  0.10733293366E+04 -0.21219325214E+03 -0.29131683196E+03  0.11322223005E+04  0.00000000000E+00 0. -1.
         -4    1    3    3    0  502  0.40289848465E+02  0.15738250818E+01  0.15065432820E+01  0.40348711100E+02  0.00000000000E+00 0.  1.
         13    1    5    5    0    0 -0.86380256510E+03  0.51084276378E+03  0.11961831318E+03  0.10106551052E+04  0.00000000000E+00 0.  1.
        -13    1    5    5    0    0 -0.14271471591E+02  0.11854455570E+02  0.15786803385E+02  0.24360340296E+02  0.00000000000E+00 0. -1.
          3    1    6    6  503    0  0.28012027480E+01  0.42626049408E+00 -0.97200156881E+01  0.10124580970E+02  0.00000000000E+00 0. -1.
         -3    1    6    6    0  503 -0.23834635116E+03 -0.31250405279E+03 -0.84527094468E+02  0.40201069117E+03  0.00000000000E+00 0.  1.
<mgrwt>
<rscale>  0 0.26078945E+04</rscale>
<asrwt>0</asrwt>
<pdfrwt beam="1">  1        1 0.22064416E+00 0.26078945E+04</pdfrwt>
<pdfrwt beam="2">  1       -2 0.18238996E+00 0.26078945E+04</pdfrwt>
<totfact> 0.98085075E-01</totfact>
</mgrwt>
</event>
<event>
12    5  0.5221187E-008  0.1338801E+04  0.7818608E-02  0.8999349E-01
          1   -1    0    0  501    0  0.00000000000E+00  0.00000000000E+00  0.75344490632E+03  0.75344490632E+03  0.00000000000E+00 0. -1.
         -2   -1    0    0    0  501 -0.00000000000E+00 -0.00000000000E+00 -0.59473063872E+03  0.59473063872E+03  0.00000000000E+00 0.  1.
        -24    2    1    2    0    0 -0.33580620481E+03 -0.24067948899E+02  0.15159144733E+03  0.37668246495E+03  0.74596508933E+02 0.  0.
        254    2    1    2    0    0  0.33580620481E+03  0.24067948899E+02  0.71228202695E+01  0.97149308009E+03  0.91126450427E+03 0.  0.
         23    2    4    4    0    0  0.62435204628E+03 -0.59048180568E+02 -0.92872489550E+02  0.64032013710E+03  0.89902243284E+02 0.  0.
         23    2    4    4    0    0 -0.28854584146E+03  0.83116129467E+02  0.99995309820E+02  0.33117294299E+03  0.97516473363E+02 0.  0.
          3    1    3    3  502    0 -0.50151061539E+02 -0.31176205591E+02  0.28073615989E+02  0.65385110562E+02  0.00000000000E+00 0. -1.
         -4    1    3    3    0  502 -0.28565514327E+03  0.71082566918E+01  0.12351783134E+03  0.31129735439E+03  0.00000000000E+00 0.  1.
         13    1    5    5    0    0  0.24395201861E+03 -0.37173049176E+02  0.53842802380E+01  0.24682668705E+03  0.00000000000E+00 0.  1.
        -13    1    5    5    0    0  0.38040002767E+03 -0.21875131392E+02 -0.98256769788E+02  0.39349345005E+03  0.00000000000E+00 0. -1.
          2    1    6    6  503    0 -0.27573020921E+03  0.80187980329E+02  0.11666074320E+03  0.30994675263E+03  0.00000000000E+00 0. -1.
         -2    1    6    6    0  503 -0.12815632251E+02  0.29281491384E+01 -0.16665433380E+02  0.21226190358E+02  0.00000000000E+00 0.  1.
<mgrwt>
<rscale>  0 0.13388006E+04</rscale>
<asrwt>0</asrwt>
<pdfrwt beam="1">  1        1 0.11591460E+00 0.13388006E+04</pdfrwt>
<pdfrwt beam="2">  1       -2 0.91497021E-01 0.13388006E+04</pdfrwt>
<totfact> 0.21228466E+01</totfact>
</mgrwt>
</event>
<event>
12    5  0.5221187E-008  0.1400344E+04  0.7818608E-02  0.8953570E-01
          1   -1    0    0  501    0  0.00000000000E+00  0.00000000000E+00  0.42588694118E+03  0.42588694118E+03  0.00000000000E+00 0. -1.
         -2   -1    0    0    0  501 -0.00000000000E+00 -0.00000000000E+00 -0.11511048190E+04  0.11511048190E+04  0.00000000000E+00 0.  1.
        -24    2    1    2    0    0 -0.42805105145E+03  0.78992841084E+02 -0.21209487288E+03  0.49080659750E+03  0.80245308065E+02 0.  0.
        254    2    1    2    0    0  0.42805105145E+03 -0.78992841084E+02 -0.51312300499E+03  0.10861851627E+04  0.85266371909E+03 0.  0.
         23    2    4    4    0    0  0.51976081625E+03  0.26593765270E+03 -0.31353808041E+03  0.66898384413E+03  0.91428193760E+02 0.  0.
         23    2    4    4    0    0 -0.91709764799E+02 -0.34493049378E+03 -0.19958492457E+03  0.41720131858E+03  0.82674491869E+02 0.  0.
          3    1    3    3  502    0 -0.42868147893E+03  0.81675774642E+02 -0.20299001852E+03  0.48129376700E+03  0.00000000000E+00 0. -1.
         -4    1    3    3    0  502  0.63042747835E+00 -0.26829335586E+01 -0.91048543586E+01  0.95128305029E+01  0.00000000000E+00 0.  1.
         13    1    5    5    0    0  0.36833626224E+03  0.15138582344E+03 -0.24250403962E+03  0.46625902549E+03  0.00000000000E+00 0.  1.
        -13    1    5    5    0    0  0.15142455401E+03  0.11455182926E+03 -0.71034040796E+02  0.20272481864E+03  0.00000000000E+00 0. -1.
          2    1    6    6  503    0 -0.76760253875E+02 -0.32396803639E+03 -0.20486518309E+03  0.39091836542E+03  0.00000000000E+00 0. -1.
         -2    1    6    6    0  503 -0.14949510924E+02 -0.20962457388E+02  0.52802585191E+01  0.26282953157E+02  0.00000000000E+00 0.  1.
<mgrwt>
<rscale>  0 0.14003435E+04</rscale>
<asrwt>0</asrwt>
<pdfrwt beam="1">  1        1 0.65521069E-01 0.14003435E+04</pdfrwt>
<pdfrwt beam="2">  1       -2 0.17709305E+00 0.14003435E+04</pdfrwt>
<totfact> 0.89199228E+00</totfact>
</mgrwt>
</event>
<event>
12    5  0.5221187E-008  0.1250551E+04  0.7818608E-02  0.9069724E-01
         -2   -1    0    0    0  501 -0.00000000000E+00  0.00000000000E+00  0.16328283495E+04  0.16328283495E+04  0.00000000000E+00 0.  1.
          1   -1    0    0  501    0  0.00000000000E+00 -0.00000000000E+00 -0.23944321304E+03  0.23944321304E+03  0.00000000000E+00 0. -1.
        -24    2    1    2    0    0  0.45365338365E+02 -0.22617466040E+03  0.62886642889E+03  0.67468957653E+03  0.80746816382E+02 0.  0.
        254    2    1    2    0    0 -0.45365338365E+02  0.22617466040E+03  0.76451870760E+03  0.11975819860E+04  0.89246891716E+03 0.  0.
         23    2    4    4    0    0 -0.17220750159E+02  0.12447839069E+03 -0.18296637316E+03  0.23977237375E+03  0.90678958527E+02 0.  0.
         23    2    4    4    0    0 -0.28144588206E+02  0.10169626970E+03  0.94748508077E+03  0.95780961229E+03  0.92396028089E+02 0.  0.
          3    1    3    3  502    0  0.50005428210E+02 -0.80230643094E+02  0.30752918253E+03  0.32173233759E+03  0.00000000000E+00 0. -1.
         -4    1    3    3    0  502 -0.46400898451E+01 -0.14594401730E+03  0.32133724636E+03  0.35295723894E+03  0.00000000000E+00 0.  1.
         13    1    5    5    0    0 -0.43186261672E+02  0.21667718950E+02 -0.67393952014E+02  0.82924592310E+02  0.00000000000E+00 0.  1.
        -13    1    5    5    0    0  0.25965511512E+02  0.10281067174E+03 -0.11557242115E+03  0.15684778144E+03  0.00000000000E+00 0. -1.
          2    1    6    6  503    0 -0.46654204080E+02  0.95192656941E+02  0.90285875884E+03  0.90906116137E+03  0.00000000000E+00 0. -1.
         -2    1    6    6    0  503  0.18509615874E+02  0.65036127627E+01  0.44626321928E+02  0.48748450925E+02  0.00000000000E+00 0.  1.
<mgrwt>
<rscale>  0 0.12505513E+04</rscale>
<asrwt>0</asrwt>
<pdfrwt beam="1">  1        1 0.36837418E-01 0.12505513E+04</pdfrwt>
<pdfrwt beam="2">  1       -2 0.25120435E+00 0.12505513E+04</pdfrwt>
<totfact> 0.64070049E+00</totfact>
</mgrwt>
</event>
<event>
12    5  0.5221187E-008  0.1358162E+04  0.7818608E-02  0.8984673E-01
         -2   -1    0    0    0  501 -0.00000000000E+00  0.00000000000E+00  0.42888293452E+03  0.42888293452E+03  0.00000000000E+00 0.  1.
          1   -1    0    0  501    0  0.00000000000E+00 -0.00000000000E+00 -0.10752368339E+04  0.10752368339E+04  0.00000000000E+00 0. -1.
        -24    2    1    2    0    0  0.26696748212E+03 -0.15942399079E+03  0.52377458681E+02  0.32554981936E+03  0.80942209983E+02 0.  0.
        254    2    1    2    0    0 -0.26696748212E+03  0.15942399079E+03 -0.69873135811E+03  0.11785699491E+04  0.89672402041E+03 0.  0.
         23    2    4    4    0    0 -0.29905000904E+02 -0.30703580606E+03 -0.52935743520E+03  0.61921182228E+03  0.89658749492E+02 0.  0.
         23    2    4    4    0    0 -0.23706248122E+03  0.46645979685E+03 -0.16937392290E+03  0.55935812683E+03  0.10203247626E+03 0.  0.
          1    1    3    3  502    0 -0.31167380630E+01 -0.95482363942E+00  0.88072269579E+01  0.93911123422E+01  0.00000000000E+00 0. -1.
         -2    1    3    3    0  502  0.27008422018E+03 -0.15846916715E+03  0.43570231723E+02  0.31615870702E+03  0.00000000000E+00 0.  1.
         13    1    5    5    0    0 -0.10122872498E+02 -0.17634121875E+03 -0.21538259564E+03  0.27854687304E+03  0.00000000000E+00 0. -1.
        -13    1    5    5    0    0 -0.19782128405E+02 -0.13069458730E+03 -0.31397483957E+03  0.34066494923E+03  0.00000000000E+00 0.  1.
          3    1    6    6  503    0  0.62745591701E+01  0.17652014509E+02 -0.20045141456E+02  0.27436679919E+02  0.00000000000E+00 0. -1.
         -3    1    6    6    0  503 -0.24333704039E+03  0.44880778234E+03 -0.14932878145E+03  0.53192144691E+03  0.00000000000E+00 0.  1.
<mgrwt>
<rscale>  0 0.13581616E+04</rscale>
<asrwt>0</asrwt>
<pdfrwt beam="1">  1        1 0.16542105E+00 0.13581616E+04</pdfrwt>
<pdfrwt beam="2">  1       -2 0.65981991E-01 0.13581616E+04</pdfrwt>
<totfact> 0.24001547E+01</totfact>
</mgrwt>
</event>
<event>
12    5  0.5221187E-008  0.1516151E+04  0.7818608E-02  0.8873783E-01
          1   -1    0    0  501    0  0.00000000000E+00  0.00000000000E+00  0.10709100542E+04  0.10709100542E+04  0.00000000000E+00 0. -1.
         -2   -1    0    0    0  501 -0.00000000000E+00 -0.00000000000E+00 -0.53662636252E+03  0.53662636252E+03  0.00000000000E+00 0.  1.
        -24    2    1    2    0    0  0.20805225027E+03 -0.20155313607E+03 -0.23753388746E+03  0.38423109164E+03  0.85450445224E+02 0.  0.
        254    2    1    2    0    0 -0.20805225027E+03  0.20155313607E+03  0.77181757917E+03  0.12233053251E+04  0.90380536480E+03 0.  0.
         23    2    4    4    0    0  0.12880252419E+03  0.20610748349E+03 -0.10456540438E+03  0.27994836014E+03  0.91470080149E+02 0.  0.
         23    2    4    4    0    0 -0.33685477446E+03 -0.45543474239E+01  0.87638298354E+03  0.94335696497E+03  0.91560626679E+02 0.  0.
          3    1    3    3  502    0  0.11143771358E+03 -0.52228014236E+02 -0.81282293323E+02  0.14748878156E+03  0.00000000000E+00 0. -1.
         -4    1    3    3    0  502  0.96614536689E+02 -0.14932512183E+03 -0.15625159414E+03  0.23674231008E+03  0.00000000000E+00 0.  1.
         13    1    5    5    0    0  0.10654340870E+03  0.15162083907E+03 -0.34592314204E+02  0.18851261225E+03  0.00000000000E+00 0. -1.
        -13    1    5    5    0    0  0.22259115494E+02  0.54486644425E+02 -0.69973090172E+02  0.91435747886E+02  0.00000000000E+00 0.  1.
          1    1    6    6  503    0 -0.19119219764E+03 -0.97357109512E+00  0.37071537600E+03  0.41711544479E+03  0.00000000000E+00 0. -1.
         -1    1    6    6    0  503 -0.14566257682E+03 -0.35807763288E+01  0.50566760754E+03  0.52624152018E+03  0.00000000000E+00 0.  1.
<mgrwt>
<rscale>  0 0.15161511E+04</rscale>
<asrwt>0</asrwt>
<pdfrwt beam="1">  1        1 0.16475539E+00 0.15161511E+04</pdfrwt>
<pdfrwt beam="2">  1       -2 0.82557902E-01 0.15161511E+04</pdfrwt>
<totfact> 0.14547586E+01</totfact>
</mgrwt>
</event>
<event>
12    5  0.5221187E-008  0.2172725E+04  0.7818608E-02  0.8529867E-01
          1   -1    0    0  501    0  0.00000000000E+00  0.00000000000E+00  0.18981502323E+04  0.18981502323E+04  0.00000000000E+00 0. -1.
         -2   -1    0    0    0  501 -0.00000000000E+00 -0.00000000000E+00 -0.62175464121E+03  0.62175464121E+03  0.00000000000E+00 0.  1.
        -24    2    1    2    0    0 -0.44207800525E+03  0.62870628727E+03  0.10699210145E+04  0.13197824011E+04  0.79937792184E+02 0.  0.
        254    2    1    2    0    0  0.44207800525E+03 -0.62870628727E+03  0.20647457660E+03  0.12001224724E+04  0.89830820973E+03 0.  0.
         23    2    4    4    0    0 -0.18415953116E+03 -0.48532275680E+03  0.33793603703E+02  0.52882359787E+03  0.95181294539E+02 0.  0.
         23    2    4    4    0    0  0.62623753641E+03 -0.14338353047E+03  0.17268097290E+03  0.67129887456E+03  0.89950940859E+02 0.  0.
          3    1    3    3  502    0 -0.43013867618E+02  0.76092927105E+02  0.16658282678E+03  0.18812273797E+03  0.00000000000E+00 0. -1.
         -4    1    3    3    0  502 -0.39906413763E+03  0.55261336016E+03  0.90333818774E+03  0.11316596632E+04  0.00000000000E+00 0.  1.
         13    1    5    5    0    0 -0.98513646618E+02 -0.37089814631E+03  0.39476934541E+02  0.38578336131E+03  0.00000000000E+00 0.  1.
        -13    1    5    5    0    0 -0.85645884544E+02 -0.11442461048E+03 -0.56833308383E+01  0.14304023655E+03  0.00000000000E+00 0. -1.
          3    1    6    6  503    0  0.15847122942E+03 -0.61618781281E+02  0.13897734089E+02  0.17059645886E+03  0.00000000000E+00 0. -1.
         -3    1    6    6    0  503  0.46776630699E+03 -0.81764749190E+02  0.15878323881E+03  0.50070241570E+03  0.00000000000E+00 0.  1.
<mgrwt>
<rscale>  0 0.21727252E+04</rscale>
<asrwt>0</asrwt>
<pdfrwt beam="1">  1        1 0.29202311E+00 0.21727252E+04</pdfrwt>
<pdfrwt beam="2">  1       -2 0.95654561E-01 0.21727252E+04</pdfrwt>
<totfact> 0.25722457E+00</totfact>
</mgrwt>
</event>
<event>
12    5  0.5221187E-008  0.1999015E+04  0.7818608E-02  0.8607081E-01
         -2   -1    0    0    0  501 -0.00000000000E+00  0.00000000000E+00  0.66978377599E+03  0.66978377599E+03  0.00000000000E+00 0.  1.
          1   -1    0    0  501    0  0.00000000000E+00 -0.00000000000E+00 -0.14915487798E+04  0.14915487798E+04  0.00000000000E+00 0. -1.
        -24    2    1    2    0    0  0.22452932157E+02  0.79339455915E+03 -0.38536999561E+03  0.88373516864E+03  0.49987539635E+02 0.  0.
        254    2    1    2    0    0 -0.22452932157E+02 -0.79339455915E+03 -0.43639500823E+03  0.12775973872E+04  0.90101910072E+03 0.  0.
         23    2    4    4    0    0  0.19806678267E+03 -0.24549010942E+03 -0.57523880239E+03  0.66227057655E+03  0.90591349288E+02 0.  0.
         23    2    4    4    0    0 -0.22051971483E+03 -0.54790444973E+03  0.13884379416E+03  0.61532681063E+03  0.10257316431E+03 0.  0.
          1    1    3    3  502    0  0.17006304215E+02  0.78023357285E+03 -0.37348670016E+03  0.86518550484E+03  0.00000000000E+00 0. -1.
         -2    1    3    3    0  502  0.54466279420E+01  0.13160986306E+02 -0.11883295455E+02  0.18549663807E+02  0.00000000000E+00 0.  1.
         13    1    5    5    0    0  0.13988474394E+02 -0.78202915112E+02 -0.13895230934E+03  0.16005973141E+03  0.00000000000E+00 0.  1.
        -13    1    5    5    0    0  0.18407830827E+03 -0.16728719431E+03 -0.43628649306E+03  0.50221084514E+03  0.00000000000E+00 0. -1.
          2    1    6    6  503    0 -0.20185062713E+03 -0.37801940602E+03  0.10120718096E+03  0.44032401760E+03  0.00000000000E+00 0. -1.
         -2    1    6    6    0  503 -0.18669087693E+02 -0.16988504371E+03  0.37636613205E+02  0.17500279302E+03  0.00000000000E+00 0.  1.
<mgrwt>
<rscale>  0 0.19990149E+04</rscale>
<asrwt>0</asrwt>
<pdfrwt beam="1">  1        1 0.22946904E+00 0.19990149E+04</pdfrwt>
<pdfrwt beam="2">  1       -2 0.10304366E+00 0.19990149E+04</pdfrwt>
<totfact> 0.41520151E+00</totfact>
</mgrwt>
</event>
<event>
12    5  0.5221187E-008  0.1544359E+04  0.7818608E-02  0.8855479E-01
         -2   -1    0    0    0  501 -0.00000000000E+00  0.00000000000E+00  0.28200469549E+03  0.28200469549E+03  0.00000000000E+00 0.  1.
          1   -1    0    0  501    0  0.00000000000E+00 -0.00000000000E+00 -0.21143665251E+04  0.21143665251E+04  0.00000000000E+00 0. -1.
        -24    2    1    2    0    0 -0.42125938356E+02  0.26328466974E+03  0.65834981934E+02  0.28593921589E+03  0.79583781837E+02 0.  0.
        254    2    1    2    0    0  0.42125938356E+02 -0.26328466974E+03 -0.18981968116E+04  0.21104320047E+04  0.88299416711E+03 0.  0.
         23    2    4    4    0    0  0.93304056755E+02  0.22387553635E+02  0.48045365354E+02  0.14054682840E+03  0.90764554071E+02 0.  0.
         23    2    4    4    0    0 -0.51178118399E+02 -0.28567222338E+03 -0.19462421769E+04  0.19698851763E+04  0.91439475618E+02 0.  0.
          3    1    3    3  502    0 -0.12498875008E+02  0.13660967623E+01 -0.41100020359E+01  0.13228008678E+02  0.00000000000E+00 0. -1.
         -4    1    3    3    0  502 -0.29627063347E+02  0.26191857298E+03  0.69944983970E+02  0.27271120721E+03  0.00000000000E+00 0.  1.
         13    1    5    5    0    0  0.10874587761E+02  0.32377812280E+02  0.46250062334E+02  0.57494761961E+02  0.00000000000E+00 0. -1.
        -13    1    5    5    0    0  0.82429468993E+02 -0.99902586451E+01  0.17953030202E+01  0.83052066436E+02  0.00000000000E+00 0.  1.
          4    1    6    6  503    0 -0.94216702748E+01 -0.11753820565E+02 -0.30862179506E+03  0.30898921106E+03  0.00000000000E+00 0. -1.
         -4    1    6    6    0  503 -0.41756448124E+02 -0.27391840281E+03 -0.16376203819E+04  0.16608959653E+04  0.00000000000E+00 0.  1.
<mgrwt>
<rscale>  0 0.15443591E+04</rscale>
<asrwt>0</asrwt>
<pdfrwt beam="1">  1        1 0.32528716E+00 0.15443591E+04</pdfrwt>
<pdfrwt beam="2">  1       -2 0.43385337E-01 0.15443591E+04</pdfrwt>
<totfact> 0.10631297E+01</totfact>
</mgrwt>
</event>
<event>
12    5  0.5221187E-008  0.2329524E+04  0.7818608E-02  0.8466370E-01
          1   -1    0    0  501    0  0.00000000000E+00  0.00000000000E+00  0.40310812020E+04  0.40310812020E+04  0.00000000000E+00 0. -1.
         -2   -1    0    0    0  501 -0.00000000000E+00 -0.00000000000E+00 -0.33655257353E+03  0.33655257353E+03  0.00000000000E+00 0.  1.
        -24    2    1    2    0    0 -0.34198666197E+03 -0.86610568988E+03  0.96242394979E+03  0.13415312478E+04  0.79701233847E+02 0.  0.
        254    2    1    2    0    0  0.34198666197E+03  0.86610568988E+03  0.27321046787E+04  0.30261025277E+04  0.90873901098E+03 0.  0.
         23    2    4    4    0    0  0.23633340869E+03  0.12232822500E+03  0.11901669633E+03  0.30540506281E+03  0.91047260726E+02 0.  0.
         23    2    4    4    0    0  0.10565325327E+03  0.74377746489E+03  0.26130879823E+04  0.27206974649E+04  0.97971245666E+02 0.  0.
          1    1    3    3  502    0 -0.65602103414E+02 -0.95784915040E+02  0.11367725681E+03  0.16248355190E+03  0.00000000000E+00 0. -1.
         -2    1    3    3    0  502 -0.27638455855E+03 -0.77032077484E+03  0.84874669298E+03  0.11790476959E+04  0.00000000000E+00 0.  1.
         13    1    5    5    0    0  0.21629586838E+03  0.75304267935E+02  0.86479966783E+02  0.24481303091E+03  0.00000000000E+00 0. -1.
        -13    1    5    5    0    0  0.20037540313E+02  0.47023957064E+02  0.32536729550E+02  0.60592031898E+02  0.00000000000E+00 0.  1.
          1    1    6    6  503    0  0.32528049864E+02  0.54209788852E+03  0.18686053782E+04  0.19459224687E+04  0.00000000000E+00 0. -1.
         -1    1    6    6    0  503  0.73125203410E+02  0.20167957636E+03  0.74448260409E+03  0.77477499617E+03  0.00000000000E+00 0.  1.
<mgrwt>
<rscale>  0 0.23295242E+04</rscale>
<asrwt>0</asrwt>
<pdfrwt beam="1">  1        1 0.62016631E+00 0.23295242E+04</pdfrwt>
<pdfrwt beam="2">  1       -2 0.51777322E-01 0.23295242E+04</pdfrwt>
<totfact> 0.25255035E-01</totfact>
</mgrwt>
</event>
<event>
12    5  0.5221187E-008  0.1593725E+04  0.7818608E-02  0.8824413E-01
          1   -1    0    0  501    0  0.00000000000E+00  0.00000000000E+00  0.25529849773E+03  0.25529849773E+03  0.00000000000E+00 0. -1.
         -2   -1    0    0    0  501 -0.00000000000E+00 -0.00000000000E+00 -0.24872434068E+04  0.24872434068E+04  0.00000000000E+00 0.  1.
        -24    2    1    2    0    0 -0.34657062777E+03  0.14362513064E+03 -0.94068937854E+02  0.39470084542E+03  0.78742708394E+02 0.  0.
        254    2    1    2    0    0  0.34657062777E+03 -0.14362513064E+03 -0.21378759713E+04  0.23478410591E+04  0.89504446391E+03 0.  0.
         23    2    4    4    0    0  0.76968380362E+01  0.23195037298E+02  0.64394540832E+02  0.11155757075E+03  0.87756387986E+02 0.  0.
         23    2    4    4    0    0  0.33887378973E+03 -0.16682016794E+03 -0.22022705121E+04  0.22362834884E+04  0.91126386225E+02 0.  0.
          1    1    3    3  502    0 -0.34559515593E+03  0.14725855986E+03 -0.85392716968E+02  0.38524409322E+03  0.00000000000E+00 0. -1.
         -2    1    3    3    0  502 -0.97547183828E+00 -0.36334292227E+01 -0.86762208861E+01  0.94567521956E+01  0.00000000000E+00 0.  1.
         13    1    5    5    0    0 -0.21595981990E+02  0.34365938291E+02  0.73253247673E+00  0.40594836576E+02  0.00000000000E+00 0.  1.
        -13    1    5    5    0    0  0.29292820026E+02 -0.11170900994E+02  0.63662008356E+02  0.70962734178E+02  0.00000000000E+00 0. -1.
          1    1    6    6  503    0  0.32407109481E+03 -0.17022383411E+03 -0.19841393362E+04  0.20176241309E+04  0.00000000000E+00 0. -1.
         -1    1    6    6    0  503  0.14802694918E+02  0.34036661775E+01 -0.21813117586E+03  0.21865935746E+03  0.00000000000E+00 0.  1.
<mgrwt>
<rscale>  0 0.15937246E+04</rscale>
<asrwt>0</asrwt>
<pdfrwt beam="1">  1        1 0.39276691E-01 0.15937246E+04</pdfrwt>
<pdfrwt beam="2">  1       -2 0.38265284E+00 0.15937246E+04</pdfrwt>
<totfact> 0.87936715E-01</totfact>
</mgrwt>
</event>
<event>
12    5  0.5221187E-008  0.1370895E+04  0.7818608E-02  0.8975160E-01
          1   -1    0    0  501    0  0.00000000000E+00  0.00000000000E+00  0.96551957547E+03  0.96551957547E+03  0.00000000000E+00 0. -1.
         -2   -1    0    0    0  501 -0.00000000000E+00 -0.00000000000E+00 -0.48661702622E+03  0.48661702622E+03  0.00000000000E+00 0.  1.
        -24    2    1    2    0    0  0.69777628510E+01 -0.30107247611E+03 -0.11081511940E+03  0.33062220224E+03  0.79609829013E+02 0.  0.
        254    2    1    2    0    0 -0.69777628510E+01  0.30107247611E+03  0.58971766865E+03  0.11215143995E+04  0.90517086477E+03 0.  0.
         23    2    4    4    0    0  0.41695831363E+03  0.71483705099E+02  0.13706155656E+03  0.45404346345E+03  0.91681192278E+02 0.  0.
         23    2    4    4    0    0 -0.42393607648E+03  0.22958877101E+03  0.45265611210E+03  0.66747093601E+03  0.90482561217E+02 0.  0.
          3    1    3    3  502    0  0.22603776614E+02 -0.26445522682E+03 -0.71981320672E+02  0.27500692398E+03  0.00000000000E+00 0. -1.
         -4    1    3    3    0  502 -0.15626013763E+02 -0.36617249293E+02 -0.38833798731E+02  0.55615278259E+02  0.00000000000E+00 0.  1.
         13    1    5    5    0    0  0.20425066439E+03  0.38441436406E+02  0.11532834062E+03  0.23769035337E+03  0.00000000000E+00 0. -1.
        -13    1    5    5    0    0  0.21270764924E+03  0.33042268693E+02  0.21733215938E+02  0.21635311008E+03  0.00000000000E+00 0.  1.
          4    1    6    6  503    0 -0.14233514009E+03  0.62508160184E+02  0.93274267348E+02  0.18129161907E+03  0.00000000000E+00 0. -1.
         -4    1    6    6    0  503 -0.28160093639E+03  0.16708061083E+03  0.35938184475E+03  0.48617931694E+03  0.00000000000E+00 0.  1.
<mgrwt>
<rscale>  0 0.13708950E+04</rscale>
<asrwt>0</asrwt>
<pdfrwt beam="1">  1        1 0.14854147E+00 0.13708950E+04</pdfrwt>
<pdfrwt beam="2">  1       -2 0.74864158E-01 0.13708950E+04</pdfrwt>
<totfact> 0.22126282E+01</totfact>
</mgrwt>
</event>
<event>
12    5  0.5221187E-008  0.2014822E+04  0.7818608E-02  0.8599722E-01
          1   -1    0    0  501    0  0.00000000000E+00  0.00000000000E+00  0.50571356297E+03  0.50571356297E+03  0.00000000000E+00 0. -1.
         -2   -1    0    0    0  501 -0.00000000000E+00 -0.00000000000E+00 -0.20068216887E+04  0.20068216887E+04  0.00000000000E+00 0.  1.
        -24    2    1    2    0    0 -0.68834286900E+00 -0.17056097225E+03  0.37621481961E+03  0.42062477957E+03  0.79347940259E+02 0.  0.
        254    2    1    2    0    0  0.68834286900E+00  0.17056097225E+03 -0.18773229454E+04  0.20919104721E+04  0.90700411418E+03 0.  0.
         23    2    4    4    0    0 -0.14348532197E+03  0.33283176105E+03 -0.18028752517E+04  0.18413478317E+04  0.94008751917E+02 0.  0.
         23    2    4    4    0    0  0.14417366484E+03 -0.16227078879E+03 -0.74447693717E+02  0.25056264045E+03  0.10060478698E+03 0.  0.
          3    1    3    3  502    0  0.37413695264E+02 -0.76450903731E+02  0.14567516984E+03  0.16871804996E+03  0.00000000000E+00 0. -1.
         -4    1    3    3    0  502 -0.38102038133E+02 -0.94110068524E+02  0.23053964977E+03  0.25190672961E+03  0.00000000000E+00 0.  1.
         13    1    5    5    0    0 -0.14496899226E+02  0.27714280123E+02 -0.64399346467E+02  0.71592717753E+02  0.00000000000E+00 0.  1.
        -13    1    5    5    0    0 -0.12898842274E+03  0.30511748092E+03 -0.17384759052E+04  0.17697551139E+04  0.00000000000E+00 0. -1.
          3    1    6    6  503    0  0.15722556124E+03 -0.15732714145E+03 -0.78759479841E+02  0.23595500039E+03  0.00000000000E+00 0. -1.
         -3    1    6    6    0  503 -0.13051896399E+02 -0.49436473429E+01  0.43117861248E+01  0.14607640064E+02  0.00000000000E+00 0.  1.
<mgrwt>
<rscale>  0 0.20148220E+04</rscale>
<asrwt>0</asrwt>
<pdfrwt beam="1">  1        1 0.77802086E-01 0.20148220E+04</pdfrwt>
<pdfrwt beam="2">  1       -2 0.30874180E+00 0.20148220E+04</pdfrwt>
<totfact> 0.99525270E-01</totfact>
</mgrwt>
</event>
<event>
12    5  0.5221187E-008  0.1972805E+04  0.7818608E-02  0.8619442E-01
         -2   -1    0    0    0  501 -0.00000000000E+00  0.00000000000E+00  0.48964535731E+03  0.48964535731E+03  0.00000000000E+00 0.  1.
          1   -1    0    0  501    0  0.00000000000E+00 -0.00000000000E+00 -0.19871327037E+04  0.19871327037E+04  0.00000000000E+00 0. -1.
        -24    2    1    2    0    0 -0.44508762494E+02 -0.51174950321E+03  0.13914325134E+03  0.54034019929E+03  0.93477818775E+02 0.  0.
        254    2    1    2    0    0  0.44508762494E+02  0.51174950321E+03 -0.16366305977E+04  0.19364378617E+04  0.89853396978E+03 0.  0.
         23    2    4    4    0    0 -0.19335009783E+03  0.62547921581E+03 -0.14695637419E+04  0.16113605044E+04  0.90865691877E+02 0.  0.
         23    2    4    4    0    0  0.23785886033E+03 -0.11372971261E+03 -0.16706685584E+03  0.32507735729E+03  0.90844201457E+02 0.  0.
          1    1    3    3  502    0 -0.38224655049E+02 -0.10487505792E+03  0.56505254371E+02  0.12511093397E+03  0.00000000000E+00 0. -1.
         -2    1    3    3    0  502 -0.62841074444E+01 -0.40687444529E+03  0.82637996973E+02  0.41522926532E+03  0.00000000000E+00 0.  1.
         13    1    5    5    0    0 -0.50174267309E+02  0.63962955844E+02 -0.19350223129E+03  0.20988527899E+03  0.00000000000E+00 0. -1.
        -13    1    5    5    0    0 -0.14317583052E+03  0.56151625997E+03 -0.12760615106E+04  0.14014752254E+04  0.00000000000E+00 0.  1.
          1    1    6    6  503    0  0.10188629991E+03 -0.44141540310E+02 -0.12384760115E+03  0.16633557047E+03  0.00000000000E+00 0. -1.
         -1    1    6    6    0  503  0.13597256041E+03 -0.69588172297E+02 -0.43219254686E+02  0.15874178682E+03  0.00000000000E+00 0.  1.
<mgrwt>
<rscale>  0 0.19728054E+04</rscale>
<asrwt>0</asrwt>
<pdfrwt beam="1">  1        1 0.30571272E+00 0.19728054E+04</pdfrwt>
<pdfrwt beam="2">  1       -2 0.75330056E-01 0.19728054E+04</pdfrwt>
<totfact> 0.39260078E+00</totfact>
</mgrwt>
</event>
<event>
12    5  0.5221187E-008  0.1654124E+04  0.7818608E-02  0.8787971E-01
          3   -1    0    0  501    0  0.00000000000E+00  0.00000000000E+00  0.86404811407E+03  0.86404811407E+03  0.00000000000E+00 0. -1.
         -4   -1    0    0    0  501 -0.00000000000E+00 -0.00000000000E+00 -0.79165863250E+03  0.79165863250E+03  0.00000000000E+00 0.  1.
        -24    2    1    2    0    0 -0.61473131987E+03  0.44455228879E+02 -0.54790902681E+02  0.62404747554E+03  0.81008306388E+02 0.  0.
        254    2    1    2    0    0  0.61473131987E+03 -0.44455228879E+02  0.12718038425E+03  0.10316592710E+04  0.81748097127E+03 0.  0.
         23    2    4    4    0    0  0.75659898360E+03  0.23613300558E+02 -0.67024069087E+02  0.76533114014E+03  0.90773995568E+02 0.  0.
         23    2    4    4    0    0 -0.14186766374E+03 -0.68068529438E+02  0.19420445334E+03  0.26632813091E+03  0.91954036894E+02 0.  0.
          3    1    3    3  502    0 -0.61353178888E+03  0.50361302190E+02 -0.53824712529E+02  0.61794386186E+03  0.00000000000E+00 0. -1.
         -4    1    3    3    0  502 -0.11995309860E+01 -0.59060733103E+01 -0.96619015145E+00  0.61036136789E+01  0.00000000000E+00 0.  1.
         13    1    5    5    0    0  0.46648080810E+03  0.58436828664E+02 -0.36541568541E+02  0.47154479480E+03  0.00000000000E+00 0. -1.
        -13    1    5    5    0    0  0.29011817550E+03 -0.34823528105E+02 -0.30482500545E+02  0.29378634533E+03  0.00000000000E+00 0.  1.
          2    1    6    6  503    0 -0.64374811080E+02  0.15907816011E+01  0.12683858277E+03  0.14224863081E+03  0.00000000000E+00 0.  1.
         -2    1    6    6    0  503 -0.77492852656E+02 -0.69659311039E+02  0.67365870573E+02  0.12407950010E+03  0.00000000000E+00 0. -1.
<mgrwt>
<rscale>  0 0.16541235E+04</rscale>
<asrwt>0</asrwt>
<pdfrwt beam="1">  1        3 0.13293048E+00 0.16541235E+04</pdfrwt>
<pdfrwt beam="2">  1       -4 0.12179364E+00 0.16541235E+04</pdfrwt>
<totfact> 0.49078049E-01</totfact>
</mgrwt>
</event>
<event>
12    5  0.5221187E-008  0.1625438E+04  0.7818608E-02  0.8805071E-01
         -2   -1    0    0    0  501 -0.00000000000E+00  0.00000000000E+00  0.90638228648E+03  0.90638228648E+03  0.00000000000E+00 0.  1.
          1   -1    0    0  501    0  0.00000000000E+00 -0.00000000000E+00 -0.72873450483E+03  0.72873450483E+03  0.00000000000E+00 0. -1.
        -24    2    1    2    0    0 -0.31185799306E+03  0.20110496297E+03  0.48179288465E+03  0.61441887593E+03  0.87678717078E+02 0.  0.
        254    2    1    2    0    0  0.31185799306E+03 -0.20110496297E+03 -0.30414510300E+03  0.10206979154E+04  0.90090031459E+03 0.  0.
         23    2    4    4    0    0  0.19444681821E+03  0.33182892234E+03 -0.13627502440E+02  0.39577603880E+03  0.92374050768E+02 0.  0.
         23    2    4    4    0    0  0.11741117485E+03 -0.53293388531E+03 -0.29051760056E+03  0.62492187658E+03  0.91230288311E+02 0.  0.
          3    1    3    3  502    0 -0.28629773182E+01  0.13480704207E+02  0.46985194262E+02  0.48964625036E+02  0.00000000000E+00 0. -1.
         -4    1    3    3    0  502 -0.30899501574E+03  0.18762425876E+03  0.43480769039E+03  0.56545425089E+03  0.00000000000E+00 0.  1.
         13    1    5    5    0    0  0.18939075226E+03  0.29419105522E+03 -0.35952467196E+02  0.35172405933E+03  0.00000000000E+00 0.  1.
        -13    1    5    5    0    0  0.50560659472E+01  0.37637867116E+02  0.22324964757E+02  0.44051979470E+02  0.00000000000E+00 0. -1.
          4    1    6    6  503    0  0.10327499361E+02 -0.17188510103E+03 -0.12898171231E+03  0.21514513080E+03  0.00000000000E+00 0.  1.
         -4    1    6    6    0  503  0.10708367549E+03 -0.36104878428E+03 -0.16153588825E+03  0.40977674578E+03  0.00000000000E+00 0. -1.
<mgrwt>
<rscale>  0 0.16254378E+04</rscale>
<asrwt>0</asrwt>
<pdfrwt beam="1">  1        1 0.11211300E+00 0.16254378E+04</pdfrwt>
<pdfrwt beam="2">  1       -2 0.13944343E+00 0.16254378E+04</pdfrwt>
<totfact> 0.77908761E+00</totfact>
</mgrwt>
</event>
<event>
12    5  0.5221187E-008  0.1204267E+04  0.7818608E-02  0.9109130E-01
          1   -1    0    0  501    0  0.00000000000E+00  0.00000000000E+00  0.70270745110E+03  0.70270745110E+03  0.00000000000E+00 0. -1.
         -2   -1    0    0    0  501 -0.00000000000E+00 -0.00000000000E+00 -0.51595434194E+03  0.51595434194E+03  0.00000000000E+00 0.  1.
        -24    2    1    2    0    0 -0.16378427210E+03  0.14932363999E+03 -0.49848690820E+02  0.24076496441E+03  0.79749851797E+02 0.  0.
        254    2    1    2    0    0  0.16378427210E+03 -0.14932363999E+03  0.23660179998E+03  0.97789682863E+03  0.92259360416E+03 0.  0.
         23    2    4    4    0    0  0.13937671587E+03  0.27417653586E+03  0.40151251774E+03  0.51355978654E+03  0.89065766186E+02 0.  0.
         23    2    4    4    0    0  0.24407556235E+02 -0.42350017585E+03 -0.16491071777E+03  0.46433704209E+03  0.92006608854E+02 0.  0.
          1    1    3    3  502    0 -0.58610308551E+02  0.14984782928E+02  0.70735844494E+01  0.60907697255E+02  0.00000000000E+00 0. -1.
         -4    1    3    3    0  502 -0.10517396355E+03  0.13433885706E+03 -0.56922275270E+02  0.17985726715E+03  0.00000000000E+00 0.  1.
         13    1    5    5    0    0 -0.15941840936E+01 -0.53944371019E+01  0.19904806810E+01  0.59668574570E+01  0.00000000000E+00 0. -1.
        -13    1    5    5    0    0  0.14097089996E+03  0.27957097296E+03  0.39952203706E+03  0.50759292908E+03  0.00000000000E+00 0.  1.
          3    1    6    6  503    0 -0.34126189331E+02 -0.20527387541E+03 -0.82000383606E+02  0.22366498080E+03  0.00000000000E+00 0. -1.
         -3    1    6    6    0  503  0.58533745567E+02 -0.21822630044E+03 -0.82910334160E+02  0.24067206129E+03  0.00000000000E+00 0.  1.
<mgrwt>
<rscale>  0 0.12042673E+04</rscale>
<asrwt>0</asrwt>
<pdfrwt beam="1">  1        1 0.10810884E+00 0.12042673E+04</pdfrwt>
<pdfrwt beam="2">  1       -2 0.79377591E-01 0.12042673E+04</pdfrwt>
<totfact> 0.33023181E+01</totfact>
</mgrwt>
</event>
<event>
12    5  0.5221187E-008  0.1274465E+04  0.7818608E-02  0.9050063E-01
          1   -1    0    0  501    0  0.00000000000E+00  0.00000000000E+00  0.94044770144E+03  0.94044770144E+03  0.00000000000E+00 0. -1.
         -2   -1    0    0    0  501 -0.00000000000E+00 -0.00000000000E+00 -0.43177876105E+03  0.43177876105E+03  0.00000000000E+00 0.  1.
        -24    2    1    2    0    0  0.88155964995E+02 -0.15586993875E+03 -0.15856388842E+03  0.25298132825E+03  0.82402267930E+02 0.  0.
        254    2    1    2    0    0 -0.88155964995E+02  0.15586993875E+03  0.66723282882E+03  0.11192451342E+04  0.88059247709E+03 0.  0.
         23    2    4    4    0    0 -0.19608865317E+02 -0.90018468033E+02 -0.18451279984E+03  0.22525414216E+03  0.90590413801E+02 0.  0.
         23    2    4    4    0    0 -0.68547099677E+02  0.24588840678E+03  0.85174562865E+03  0.89399099208E+03  0.92679364081E+02 0.  0.
          1    1    3    3  502    0  0.50624207015E+02 -0.36477294396E+02 -0.92178960681E+02  0.11131201254E+03  0.00000000000E+00 0. -1.
         -2    1    3    3    0  502  0.37531757980E+02 -0.11939264436E+03 -0.66384927739E+02  0.14166931571E+03  0.00000000000E+00 0.  1.
         13    1    5    5    0    0 -0.29479657502E+02 -0.57399953772E+02 -0.38118478929E+02  0.74945469078E+02  0.00000000000E+00 0. -1.
        -13    1    5    5    0    0  0.98707921848E+01 -0.32618514261E+02 -0.14639432091E+03  0.15030867309E+03  0.00000000000E+00 0.  1.
          1    1    6    6  503    0 -0.55489795009E+01  0.20483234652E+00  0.28802661608E+00  0.55602238375E+01  0.00000000000E+00 0. -1.
         -1    1    6    6    0  503 -0.62998120176E+02  0.24568357444E+03  0.85145760203E+03  0.88843076824E+03  0.00000000000E+00 0.  1.
<mgrwt>
<rscale>  0 0.12744651E+04</rscale>
<asrwt>0</asrwt>
<pdfrwt beam="1">  1        1 0.14468426E+00 0.12744651E+04</pdfrwt>
<pdfrwt beam="2">  1       -2 0.66427502E-01 0.12744651E+04</pdfrwt>
<totfact> 0.30326705E+01</totfact>
</mgrwt>
</event>
<event>
12    5  0.5221187E-008  0.1543120E+04  0.7818608E-02  0.8856274E-01
          1   -1    0    0  501    0  0.00000000000E+00  0.00000000000E+00  0.23106554682E+04  0.23106554682E+04  0.00000000000E+00 0. -1.
         -2   -1    0    0    0  501 -0.00000000000E+00 -0.00000000000E+00 -0.25763463385E+03  0.25763463385E+03  0.00000000000E+00 0.  1.
        -24    2    1    2    0    0  0.26171598308E+03  0.38880273867E+03  0.42560316882E+03  0.63800710942E+03  0.79070784491E+02 0.  0.
        254    2    1    2    0    0 -0.26171598308E+03 -0.38880273867E+03  0.16274176655E+04  0.19302829927E+04  0.92619725124E+03 0.  0.
         23    2    4    4    0    0  0.96437725947E+02 -0.54120016212E+03  0.56032020540E+03  0.79063038193E+03  0.94550609716E+02 0.  0.
         23    2    4    4    0    0 -0.35815370903E+03  0.15239742345E+03  0.10670974601E+04  0.11396526107E+04  0.92801022082E+02 0.  0.
          1    1    3    3  502    0  0.13041631775E+02  0.34457585031E+02  0.64469870275E+02  0.74254787716E+02  0.00000000000E+00 0. -1.
         -2    1    3    3    0  502  0.24867435131E+03  0.35434515364E+03  0.36113329855E+03  0.56375232170E+03  0.00000000000E+00 0.  1.
         13    1    5    5    0    0  0.14516750621E+02 -0.33867984504E+03  0.32709426814E+03  0.47106839602E+03  0.00000000000E+00 0. -1.
        -13    1    5    5    0    0  0.81920975326E+02 -0.20252031709E+03  0.23322593725E+03  0.31956198591E+03  0.00000000000E+00 0.  1.
          3    1    6    6  503    0 -0.30623681134E+03  0.16291290320E+03  0.93996617257E+03  0.10019271452E+04  0.00000000000E+00 0. -1.
         -3    1    6    6    0  503 -0.51916897693E+02 -0.10515479749E+02  0.12713128758E+03  0.13772546555E+03  0.00000000000E+00 0.  1.
<mgrwt>
<rscale>  0 0.15431201E+04</rscale>
<asrwt>0</asrwt>
<pdfrwt beam="1">  1        1 0.35548544E+00 0.15431201E+04</pdfrwt>
<pdfrwt beam="2">  1       -2 0.39636099E-01 0.15431201E+04</pdfrwt>
<totfact> 0.93408675E+00</totfact>
</mgrwt>
</event>
<event>
12    5  0.5221187E-008  0.3525384E+04  0.7818608E-02  0.8107800E-01
         -2   -1    0    0    0  501 -0.00000000000E+00  0.00000000000E+00  0.85590509428E+03  0.85590509428E+03  0.00000000000E+00 0.  1.
          1   -1    0    0  501    0  0.00000000000E+00 -0.00000000000E+00 -0.36301733684E+04  0.36301733684E+04  0.00000000000E+00 0. -1.
        -24    2    1    2    0    0 -0.36942184715E+01 -0.11388755502E+04 -0.28047233526E+04  0.30281827266E+04  0.79789563657E+02 0.  0.
        254    2    1    2    0    0  0.36942184715E+01  0.11388755502E+04  0.30455078517E+02  0.14578957361E+04  0.90965999114E+03 0.  0.
         23    2    4    4    0    0 -0.20016882895E+03  0.11561930632E+04  0.17628021031E+03  0.11901986378E+04  0.92995297822E+02 0.  0.
         23    2    4    4    0    0  0.20386304742E+03 -0.17317512993E+02 -0.14582513180E+03  0.26769709831E+03  0.92394420936E+02 0.  0.
          1    1    3    3  502    0 -0.44260181066E+01 -0.11305205520E+04 -0.27967723539E+04  0.30166259144E+04  0.00000000000E+00 0. -1.
         -2    1    3    3    0  502  0.73179963514E+00 -0.83549981659E+01 -0.79509987492E+01  0.11556812111E+02  0.00000000000E+00 0.  1.
         13    1    5    5    0    0 -0.98493049659E+02  0.79905827855E+03  0.10236449505E+03  0.81158702749E+03  0.00000000000E+00 0. -1.
        -13    1    5    5    0    0 -0.10167577929E+03  0.35713478466E+03  0.73915715265E+02  0.37861161032E+03  0.00000000000E+00 0.  1.
          1    1    6    6  503    0  0.10605323319E+03 -0.52701317913E+02 -0.59528079023E+02  0.13254549925E+03  0.00000000000E+00 0. -1.
         -1    1    6    6    0  503  0.97809814235E+02  0.35383804921E+02 -0.86297052773E+02  0.13515159906E+03  0.00000000000E+00 0.  1.
<mgrwt>
<rscale>  0 0.35253844E+04</rscale>
<asrwt>0</asrwt>
<pdfrwt beam="1">  1        1 0.55848821E+00 0.35253844E+04</pdfrwt>
<pdfrwt beam="2">  1       -2 0.13167771E+00 0.35253844E+04</pdfrwt>
<totfact> 0.59199851E-02</totfact>
</mgrwt>
</event>
<event>
12    5  0.5221187E-008  0.1356371E+04  0.7818608E-02  0.8986019E-01
         -2   -1    0    0    0  501 -0.00000000000E+00  0.00000000000E+00  0.54021627229E+03  0.54021627229E+03  0.00000000000E+00 0.  1.
          1   -1    0    0  501    0  0.00000000000E+00 -0.00000000000E+00 -0.85139184885E+03  0.85139184885E+03  0.00000000000E+00 0. -1.
        -24    2    1    2    0    0 -0.96727911933E+02  0.21068110621E+03 -0.39059323037E+03  0.46114651230E+03  0.79688247162E+02 0.  0.
        254    2    1    2    0    0  0.96727911933E+02 -0.21068110621E+03  0.79417653818E+02  0.93046160883E+03  0.89761284768E+03 0.  0.
         23    2    4    4    0    0  0.28453370684E+03  0.16210933061E+03  0.29662556499E+03  0.45099519584E+03  0.90394001275E+02 0.  0.
         23    2    4    4    0    0 -0.18780579491E+03 -0.37279043682E+03 -0.21720791117E+03  0.47946641299E+03  0.92005641844E+02 0.  0.
          3    1    3    3  502    0 -0.71064233019E+02  0.20651005712E+03 -0.35922536555E+03  0.42040384414E+03  0.00000000000E+00 0. -1.
         -4    1    3    3    0  502 -0.25663678915E+02  0.41710490818E+01 -0.31367864821E+02  0.40742668166E+02  0.00000000000E+00 0.  1.
         13    1    5    5    0    0  0.98569219113E+02  0.63585386768E+02  0.16613580151E+03  0.20337181936E+03  0.00000000000E+00 0.  1.
        -13    1    5    5    0    0  0.18596448773E+03  0.98523943841E+02  0.13048976348E+03  0.24762337648E+03  0.00000000000E+00 0. -1.
          1    1    6    6  503    0 -0.69066466841E+02 -0.89965887269E+02 -0.21014204795E+02  0.11535005209E+03  0.00000000000E+00 0. -1.
         -1    1    6    6    0  503 -0.11873932807E+03 -0.28282454955E+03 -0.19619370637E+03  0.36411636090E+03  0.00000000000E+00 0.  1.
<mgrwt>
<rscale>  0 0.13563712E+04</rscale>
<asrwt>0</asrwt>
<pdfrwt beam="1">  1        1 0.13098336E+00 0.13563712E+04</pdfrwt>
<pdfrwt beam="2">  1       -2 0.83110196E-01 0.13563712E+04</pdfrwt>
<totfact> 0.21716738E+01</totfact>
</mgrwt>
</event>
<event>
12    5  0.5221187E-008  0.2282720E+04  0.7818608E-02  0.8484766E-01
          1   -1    0    0  501    0  0.00000000000E+00  0.00000000000E+00  0.15279529157E+04  0.15279529157E+04  0.00000000000E+00 0. -1.
         -2   -1    0    0    0  501 -0.00000000000E+00 -0.00000000000E+00 -0.85258032342E+03  0.85258032342E+03  0.00000000000E+00 0.  1.
        -24    2    1    2    0    0  0.80029101473E+03 -0.43761729191E+03 -0.28885981171E+02  0.91596170623E+03  0.78592906337E+02 0.  0.
        254    2    1    2    0    0 -0.80029101473E+03  0.43761729191E+03  0.70425857350E+03  0.14645715329E+04  0.90388883957E+03 0.  0.
         23    2    4    4    0    0 -0.16028614428E+02  0.10801804296E+03 -0.18294081448E+03  0.23194335318E+03  0.91681859685E+02 0.  0.
         23    2    4    4    0    0 -0.78426240030E+03  0.32959924895E+03  0.88719938798E+03  0.12326281798E+04  0.92446190125E+02 0.  0.
          3    1    3    3  502    0  0.38630151749E+03 -0.20235548491E+03  0.24683505305E+02  0.43679043044E+03  0.00000000000E+00 0. -1.
         -4    1    3    3    0  502  0.41398949724E+03 -0.23526180700E+03 -0.53569486476E+02  0.47917127579E+03  0.00000000000E+00 0.  1.
         13    1    5    5    0    0 -0.96709755280E+01  0.16695047037E+02  0.74542933898E+01  0.20683782371E+02  0.00000000000E+00 0. -1.
        -13    1    5    5    0    0 -0.63576389005E+01  0.91322995923E+02 -0.19039510787E+03  0.21125957081E+03  0.00000000000E+00 0.  1.
          2    1    6    6  503    0 -0.85917326781E+02  0.22124547093E+02  0.13210442224E+03  0.15913158392E+03  0.00000000000E+00 0. -1.
         -2    1    6    6    0  503 -0.69834507352E+03  0.30747470186E+03  0.75509496574E+03  0.10734965958E+04  0.00000000000E+00 0.  1.
<mgrwt>
<rscale>  0 0.22827199E+04</rscale>
<asrwt>0</asrwt>
<pdfrwt beam="1">  1        1 0.23506968E+00 0.22827199E+04</pdfrwt>
<pdfrwt beam="2">  1       -2 0.13116620E+00 0.22827199E+04</pdfrwt>
<totfact> 0.21112300E+00</totfact>
</mgrwt>
</event>
<event>
12    5  0.5221187E-008  0.3038090E+04  0.7818608E-02  0.8232937E-01
          1   -1    0    0  501    0  0.00000000000E+00  0.00000000000E+00  0.28959990510E+04  0.28959990510E+04  0.00000000000E+00 0. -1.
         -2   -1    0    0    0  501 -0.00000000000E+00 -0.00000000000E+00 -0.79678832246E+03  0.79678832246E+03  0.00000000000E+00 0.  1.
        -24    2    1    2    0    0 -0.44059072341E+03  0.33810625020E+03 -0.58559670271E+03  0.81092497566E+03  0.78992379057E+02 0.  0.
        254    2    1    2    0    0  0.44059072341E+03 -0.33810625020E+03  0.26848074312E+04  0.28818623978E+04  0.88797742932E+03 0.  0.
         23    2    4    4    0    0  0.51607166621E+03 -0.29364502696E+03  0.84036858874E+03  0.10329993848E+04  0.91164672329E+02 0.  0.
         23    2    4    4    0    0 -0.75480942802E+02 -0.44461223236E+02  0.18444388425E+04  0.18488630130E+04  0.93089333871E+02 0.  0.
          1    1    3    3  502    0 -0.18698942096E+02 -0.13138147798E+01 -0.27846926196E+02  0.33568256484E+02  0.00000000000E+00 0. -1.
         -2    1    3    3    0  502 -0.42189178131E+03  0.33942006498E+03 -0.55774977651E+03  0.77735671918E+03  0.00000000000E+00 0.  1.
         13    1    5    5    0    0  0.12037494830E+02 -0.84194245539E+01  0.56600353860E+02  0.58475533761E+02  0.00000000000E+00 0. -1.
        -13    1    5    5    0    0  0.50403417138E+03 -0.28522560241E+03  0.78376823488E+03  0.97452385102E+03  0.00000000000E+00 0.  1.
          3    1    6    6  503    0 -0.29353188836E+01 -0.11950922819E+02  0.26842241767E+02  0.29528741867E+02  0.00000000000E+00 0. -1.
         -3    1    6    6    0  503 -0.72545623918E+02 -0.32510300417E+02  0.18175966007E+04  0.18193342711E+04  0.00000000000E+00 0.  1.
<mgrwt>
<rscale>  0 0.30380903E+04</rscale>
<asrwt>0</asrwt>
<pdfrwt beam="1">  1        1 0.44553831E+00 0.30380903E+04</pdfrwt>
<pdfrwt beam="2">  1       -2 0.12258282E+00 0.30380903E+04</pdfrwt>
<totfact> 0.26718352E-01</totfact>
</mgrwt>
</event>
<event>
12    5  0.5221187E-008  0.2638953E+04  0.7818608E-02  0.8355089E-01
         -2   -1    0    0    0  501 -0.00000000000E+00  0.00000000000E+00  0.20129775377E+04  0.20129775377E+04  0.00000000000E+00 0.  1.
          1   -1    0    0  501    0  0.00000000000E+00 -0.00000000000E+00 -0.86489675428E+03  0.86489675428E+03  0.00000000000E+00 0. -1.
        -24    2    1    2    0    0  0.15376905811E+03  0.33090763185E+03 -0.69502582533E+03  0.79015673328E+03  0.90232927618E+02 0.  0.
        254    2    1    2    0    0 -0.15376905811E+03 -0.33090763185E+03  0.18431066087E+04  0.20877175587E+04  0.91015265184E+03 0.  0.
         23    2    4    4    0    0 -0.31349316733E+03  0.21661870763E+03  0.91175857066E+03  0.99194223075E+03  0.86279009813E+02 0.  0.
         23    2    4    4    0    0  0.15972410922E+03 -0.54752633948E+03  0.93134803805E+03  0.10957753279E+04  0.89540592932E+02 0.  0.
          1    1    3    3  502    0  0.94235745831E+02  0.26284854041E+03 -0.58110918444E+03  0.64471514270E+03  0.00000000000E+00 0. -1.
         -2    1    3    3    0  502  0.59533312283E+02  0.68059091449E+02 -0.11391664089E+03  0.14544159058E+03  0.00000000000E+00 0.  1.
         13    1    5    5    0    0 -0.93828339328E+02  0.66618856866E+02  0.18316665579E+03  0.21631424628E+03  0.00000000000E+00 0.  1.
        -13    1    5    5    0    0 -0.21966482800E+03  0.14999985076E+03  0.72859191487E+03  0.77562798448E+03  0.00000000000E+00 0. -1.
          4    1    6    6  503    0  0.14383186211E+03 -0.34192592196E+03  0.58560910622E+03  0.69320917908E+03  0.00000000000E+00 0. -1.
         -4    1    6    6    0  503  0.15892247102E+02 -0.20560041752E+03  0.34573893183E+03  0.40256614883E+03  0.00000000000E+00 0.  1.
<mgrwt>
<rscale>  0 0.26389526E+04</rscale>
<asrwt>0</asrwt>
<pdfrwt beam="1">  1        1 0.13306104E+00 0.26389526E+04</pdfrwt>
<pdfrwt beam="2">  1       -2 0.30968885E+00 0.26389526E+04</pdfrwt>
<totfact> 0.41521936E-01</totfact>
</mgrwt>
</event>
<event>
12    5  0.7330849E-008  0.2431136E+04  0.7818608E-02  0.8427938E-01
         -2   -1    0    0    0  501 -0.00000000000E+00  0.00000000000E+00  0.10010269301E+04  0.10010269301E+04  0.00000000000E+00 0.  1.
          1   -1    0    0  501    0  0.00000000000E+00 -0.00000000000E+00 -0.14760899044E+04  0.14760899044E+04  0.00000000000E+00 0. -1.
        -24    2    1    2    0    0 -0.82883322616E+03  0.25459961201E+03 -0.79683714546E+03  0.11797328699E+04  0.70955822850E+02 0.  0.
        254    2    1    2    0    0  0.82883322616E+03 -0.25459961201E+03  0.32177417117E+03  0.12973839646E+04  0.90987969262E+03 0.  0.
         23    2    4    4    0    0  0.40503774919E+03  0.12022653476E+03 -0.24079827586E+03  0.49407189351E+03  0.87253815787E+02 0.  0.
         23    2    4    4    0    0  0.42379547697E+03 -0.37482614677E+03  0.56257244703E+03  0.80331207105E+03  0.93409200420E+02 0.  0.
          1    1    3    3  502    0 -0.66595805748E+03  0.20292397014E+03 -0.59990993533E+03  0.91900500678E+03  0.00000000000E+00 0. -1.
         -4    1    3    3    0  502 -0.16287516868E+03  0.51675641866E+02 -0.19692721013E+03  0.26072786315E+03  0.00000000000E+00 0.  1.
         13    1    5    5    0    0  0.20894548289E+03  0.67127437750E+02 -0.17446883027E+03  0.28036347917E+03  0.00000000000E+00 0. -1.
        -13    1    5    5    0    0  0.19609226630E+03  0.53099097014E+02 -0.66329445596E+02  0.21370841434E+03  0.00000000000E+00 0.  1.
          4    1    6    6  503    0  0.28645911854E+03 -0.30515718437E+03  0.43068797264E+03  0.60055962530E+03  0.00000000000E+00 0.  1.
         -4    1    6    6    0  503  0.13733635843E+03 -0.69668962401E+02  0.13188447439E+03  0.20275244574E+03  0.00000000000E+00 0. -1.
<mgrwt>
<rscale>  0 0.24311362E+04</rscale>
<asrwt>0</asrwt>
<pdfrwt beam="1">  1        1 0.22709075E+00 0.24311362E+04</pdfrwt>
<pdfrwt beam="2">  1       -2 0.15400414E+00 0.24311362E+04</pdfrwt>
<totfact> 0.14896681E+00</totfact>
</mgrwt>
</event>
<event>
12    5  0.5221187E-008  0.1603611E+04  0.7818608E-02  0.8818333E-01
         -2   -1    0    0    0  501 -0.00000000000E+00  0.00000000000E+00  0.49527324733E+03  0.49527324733E+03  0.00000000000E+00 0.  1.
          1   -1    0    0  501    0  0.00000000000E+00 -0.00000000000E+00 -0.12980558222E+04  0.12980558222E+04  0.00000000000E+00 0. -1.
        -24    2    1    2    0    0 -0.43364446492E+03  0.33262216256E+03 -0.38995490073E+03  0.67592851448E+03  0.78291168687E+02 0.  0.
        254    2    1    2    0    0  0.43364446492E+03 -0.33262216256E+03 -0.41282767413E+03  0.11174005550E+04  0.88287727736E+03 0.  0.
         23    2    4    4    0    0  0.11638136341E+03  0.25387489509E+03  0.53564252542E+02  0.29857677717E+03  0.91004827383E+02 0.  0.
         23    2    4    4    0    0  0.31726310151E+03 -0.58649705765E+03 -0.46639192667E+03  0.81882377786E+03  0.91193616656E+02 0.  0.
          3    1    3    3  502    0 -0.94613593987E+02  0.10848995717E+03 -0.12609107807E+03  0.19136552182E+03  0.00000000000E+00 0. -1.
         -4    1    3    3    0  502 -0.33903087093E+03  0.22413220539E+03 -0.26386382266E+03  0.48456299265E+03  0.00000000000E+00 0.  1.
         13    1    5    5    0    0  0.84684907532E+02  0.10834863052E+03 -0.72341035949E+01  0.13770726762E+03  0.00000000000E+00 0.  1.
        -13    1    5    5    0    0  0.31696455883E+02  0.14552626457E+03  0.60798356137E+02  0.16086950955E+03  0.00000000000E+00 0. -1.
          1    1    6    6  503    0  0.28898027562E+03 -0.50371450712E+03 -0.43613401984E+03  0.72625807234E+03  0.00000000000E+00 0. -1.
         -1    1    6    6    0  503  0.28282825887E+02 -0.82782550531E+02 -0.30257906827E+02  0.92565705518E+02  0.00000000000E+00 0.  1.
<mgrwt>
<rscale>  0 0.16036113E+04</rscale>
<asrwt>0</asrwt>
<pdfrwt beam="1">  1        1 0.19970090E+00 0.16036113E+04</pdfrwt>
<pdfrwt beam="2">  1       -2 0.76195884E-01 0.16036113E+04</pdfrwt>
<totfact> 0.11772002E+01</totfact>
</mgrwt>
</event>
<event>
12    5  0.5221187E-008  0.3644534E+04  0.7818608E-02  0.8080366E-01
          1   -1    0    0  501    0  0.00000000000E+00  0.00000000000E+00  0.29723200840E+04  0.29723200840E+04  0.00000000000E+00 0. -1.
         -2   -1    0    0    0  501 -0.00000000000E+00 -0.00000000000E+00 -0.11171939059E+04  0.11171939059E+04  0.00000000000E+00 0.  1.
        -24    2    1    2    0    0 -0.32029077891E+03  0.10126409728E+04  0.23709064623E+04  0.25991624072E+04  0.80123925251E+02 0.  0.
        254    2    1    2    0    0  0.32029077891E+03 -0.10126409728E+04 -0.51578028415E+03  0.14903515826E+04  0.90944522392E+03 0.  0.
         23    2    4    4    0    0  0.33410616822E+03 -0.11164564452E+04 -0.25694503858E+03  0.11964861959E+04  0.86351251102E+02 0.  0.
         23    2    4    4    0    0 -0.13815389305E+02  0.10381547235E+03 -0.25883524557E+03  0.29386538667E+03  0.91611483205E+02 0.  0.
          1    1    3    3  502    0 -0.21427442616E+03  0.63151814412E+03  0.13983623942E+04  0.15492404854E+04  0.00000000000E+00 0. -1.
         -2    1    3    3    0  502 -0.10601635276E+03  0.38112282870E+03  0.97254406807E+03  0.10499219218E+04  0.00000000000E+00 0.  1.
         13    1    5    5    0    0  0.97204542017E+02 -0.29438882591E+03 -0.30596769793E+02  0.31152795401E+03  0.00000000000E+00 0.  1.
        -13    1    5    5    0    0  0.23690162620E+03 -0.82206761926E+03 -0.22634826879E+03  0.88495824191E+03  0.00000000000E+00 0. -1.
          3    1    6    6  503    0  0.79195373012E+01  0.69947583701E+02 -0.64726301854E+02  0.95628853849E+02  0.00000000000E+00 0. -1.
         -3    1    6    6    0  503 -0.21734926606E+02  0.33867888646E+02 -0.19410894371E+03  0.19823653282E+03  0.00000000000E+00 0.  1.
<mgrwt>
<rscale>  0 0.36445345E+04</rscale>
<asrwt>0</asrwt>
<pdfrwt beam="1">  1        1 0.45728001E+00 0.36445345E+04</pdfrwt>
<pdfrwt beam="2">  1       -2 0.17187599E+00 0.36445345E+04</pdfrwt>
<totfact> 0.91807076E-02</totfact>
</mgrwt>
</event>
<event>
12    5  0.5221187E-008  0.1948522E+04  0.7818608E-02  0.8631074E-01
          1   -1    0    0  501    0  0.00000000000E+00  0.00000000000E+00  0.32582796173E+04  0.32582796173E+04  0.00000000000E+00 0. -1.
         -2   -1    0    0    0  501 -0.00000000000E+00 -0.00000000000E+00 -0.29131452246E+03  0.29131452246E+03  0.00000000000E+00 0.  1.
        -24    2    1    2    0    0  0.56449284125E+03 -0.44224749889E+03  0.70955387041E+03  0.10124136760E+04  0.85321381680E+02 0.  0.
        254    2    1    2    0    0 -0.56449284125E+03  0.44224749889E+03  0.22574112244E+04  0.25371804637E+04  0.90947471187E+03 0.  0.
         23    2    4    4    0    0 -0.55813892719E+03 -0.50741918605E+02  0.16773276887E+04  0.17706480322E+04  0.87592661972E+02 0.  0.
         23    2    4    4    0    0 -0.63539140516E+01  0.49298941750E+03  0.58008353573E+03  0.76653243155E+03  0.89421038944E+02 0.  0.
          1    1    3    3  502    0  0.36393413739E+03 -0.26052426711E+03  0.49245452957E+03  0.66545654539E+03  0.00000000000E+00 0. -1.
         -2    1    3    3    0  502  0.20055870385E+03 -0.18172323178E+03  0.21709934084E+03  0.34695713057E+03  0.00000000000E+00 0.  1.
         13    1    5    5    0    0 -0.50479232997E+03 -0.37217438152E+02  0.15767023825E+04  0.16559561700E+04  0.00000000000E+00 0.  1.
        -13    1    5    5    0    0 -0.53346597221E+02 -0.13524480453E+02  0.10062530617E+03  0.11469186217E+03  0.00000000000E+00 0. -1.
          4    1    6    6  503    0 -0.47211515722E+02  0.22446289066E+03  0.27252967257E+03  0.35620912247E+03  0.00000000000E+00 0. -1.
         -4    1    6    6    0  503  0.40857601671E+02  0.26852652684E+03  0.30755386316E+03  0.41032330908E+03  0.00000000000E+00 0.  1.
<mgrwt>
<rscale>  0 0.19485217E+04</rscale>
<asrwt>0</asrwt>
<pdfrwt beam="1">  1        1 0.50127376E+00 0.19485217E+04</pdfrwt>
<pdfrwt beam="2">  1       -2 0.44817621E-01 0.19485217E+04</pdfrwt>
<totfact> 0.14898510E+00</totfact>
</mgrwt>
</event>
<event>
12    5  0.5221187E-008  0.2154498E+04  0.7818608E-02  0.8537609E-01
         -2   -1    0    0    0  501 -0.00000000000E+00  0.00000000000E+00  0.20872684068E+04  0.20872684068E+04  0.00000000000E+00 0.  1.
          3   -1    0    0  501    0  0.00000000000E+00 -0.00000000000E+00 -0.55597306836E+03  0.55597306836E+03  0.00000000000E+00 0. -1.
        -24    2    1    2    0    0  0.21855761349E+03  0.79951795361E+03  0.11018000360E+04  0.13810911068E+04  0.80330178465E+02 0.  0.
        254    2    1    2    0    0 -0.21855761349E+03 -0.79951795361E+03  0.42949530249E+03  0.12621503683E+04  0.84944743739E+03 0.  0.
         23    2    4    4    0    0 -0.52361367480E+03 -0.59888782018E+03  0.22120319118E+03  0.83051402446E+03  0.89357660284E+02 0.  0.
         23    2    4    4    0    0  0.30505606131E+03 -0.20063013343E+03  0.20829211132E+03  0.43163634388E+03  0.98044269306E+02 0.  0.
          3    1    3    3  502    0  0.13191183860E+03  0.43514632354E+03  0.54073390619E+03  0.70650280492E+03  0.00000000000E+00 0. -1.
         -4    1    3    3    0  502  0.86645774893E+02  0.36437163007E+03  0.56106612977E+03  0.67458830192E+03  0.00000000000E+00 0.  1.
         13    1    5    5    0    0 -0.13107106275E+03 -0.21194298952E+03  0.62187621044E+02  0.25683993947E+03  0.00000000000E+00 0. -1.
        -13    1    5    5    0    0 -0.39254261205E+03 -0.38694483066E+03  0.15901557013E+03  0.57367408500E+03  0.00000000000E+00 0.  1.
          4    1    6    6  503    0  0.44653271225E+02  0.57023465302E+01  0.34304977521E+02  0.56597375113E+02  0.00000000000E+00 0. -1.
         -4    1    6    6    0  503  0.26040279008E+03 -0.20633247996E+03  0.17398713379E+03  0.37503896877E+03  0.00000000000E+00 0.  1.
<mgrwt>
<rscale>  0 0.21544976E+04</rscale>
<asrwt>0</asrwt>
<pdfrwt beam="1">  1        3 0.85534319E-01 0.21544976E+04</pdfrwt>
<pdfrwt beam="2">  1       -2 0.32111821E+00 0.21544976E+04</pdfrwt>
<totfact> 0.11359135E-01</totfact>
</mgrwt>
</event>
<event>
12    5  0.5221187E-008  0.1740713E+04  0.7818608E-02  0.8738479E-01
         -2   -1    0    0    0  501 -0.00000000000E+00  0.00000000000E+00  0.11832627193E+04  0.11832627193E+04  0.00000000000E+00 0.  1.
          1   -1    0    0  501    0  0.00000000000E+00 -0.00000000000E+00 -0.64019631071E+03  0.64019631071E+03  0.00000000000E+00 0. -1.
        -24    2    1    2    0    0 -0.10567287329E+03  0.44696884226E+03 -0.26339136668E+03  0.53537490882E+03  0.79393821238E+02 0.  0.
        254    2    1    2    0    0  0.10567287329E+03 -0.44696884226E+03  0.80645777532E+03  0.12880841212E+04  0.89321814687E+03 0.  0.
         23    2    4    4    0    0 -0.11149722173E+03  0.18943357138E+03  0.50008236849E+01  0.23806266658E+03  0.91280428134E+02 0.  0.
         23    2    4    4    0    0  0.21717009502E+03 -0.63640241364E+03  0.80145695163E+03  0.10500214546E+04  0.89671219722E+02 0.  0.
          3    1    3    3  502    0 -0.98736147347E+02  0.41004364064E+03 -0.26440569897E+03  0.49779010403E+03  0.00000000000E+00 0. -1.
         -4    1    3    3    0  502 -0.69367259455E+01  0.36925201614E+02  0.10143322808E+01  0.37584804789E+02  0.00000000000E+00 0.  1.
         13    1    5    5    0    0  0.10532731920E+02  0.56057490572E+02 -0.29058490455E+01  0.57112386132E+02  0.00000000000E+00 0.  1.
        -13    1    5    5    0    0 -0.12202995365E+03  0.13337608081E+03  0.79066727304E+01  0.18095028045E+03  0.00000000000E+00 0. -1.
          1    1    6    6  503    0  0.19659837679E+03 -0.49024857199E+03  0.66267218694E+03  0.84742492967E+03  0.00000000000E+00 0. -1.
         -1    1    6    6    0  503  0.20571718229E+02 -0.14615384165E+03  0.13878476470E+03  0.20259652498E+03  0.00000000000E+00 0.  1.
<mgrwt>
<rscale>  0 0.17407130E+04</rscale>
<asrwt>0</asrwt>
<pdfrwt beam="1">  1        1 0.98491740E-01 0.17407130E+04</pdfrwt>
<pdfrwt beam="2">  1       -2 0.18204042E+00 0.17407130E+04</pdfrwt>
<totfact> 0.45365753E+00</totfact>
</mgrwt>
</event>
<event>
12    5  0.5221187E-008  0.2934112E+04  0.7818608E-02  0.8262800E-01
         -2   -1    0    0    0  501 -0.00000000000E+00  0.00000000000E+00  0.46801460718E+03  0.46801460718E+03  0.00000000000E+00 0.  1.
          1   -1    0    0  501    0  0.00000000000E+00 -0.00000000000E+00 -0.45986872778E+04  0.45986872778E+04  0.00000000000E+00 0. -1.
        -24    2    1    2    0    0 -0.27064216373E+03  0.55644973684E+03 -0.39027829623E+04  0.39523376202E+04  0.79839357040E+02 0.  0.
        254    2    1    2    0    0  0.27064216373E+03 -0.55644973684E+03 -0.22788970832E+03  0.11143642648E+04  0.89832650244E+03 0.  0.
         23    2    4    4    0    0  0.23746569924E+03  0.43526441794E+02 -0.40537787033E+03  0.48014685619E+03  0.89024020946E+02 0.  0.
         23    2    4    4    0    0  0.33176464491E+02 -0.59997617863E+03  0.17748816201E+03  0.63421740857E+03  0.98272992011E+02 0.  0.
          3    1    3    3  502    0 -0.17863628405E+03  0.43415939319E+03 -0.30527639082E+04  0.30886522594E+04  0.00000000000E+00 0. -1.
         -4    1    3    3    0  502 -0.92005879683E+02  0.12229034365E+03 -0.85001905415E+03  0.86368536080E+03  0.00000000000E+00 0.  1.
         13    1    5    5    0    0  0.23806172263E+03  0.35042967617E+02 -0.40563715197E+03  0.47163851881E+03  0.00000000000E+00 0. -1.
        -13    1    5    5    0    0 -0.59602339014E+00  0.84834741775E+01  0.25928164753E+00  0.85083373802E+01  0.00000000000E+00 0.  1.
          3    1    6    6  503    0  0.34003907409E+02 -0.57138498350E+03  0.14410628797E+03  0.59025730603E+03  0.00000000000E+00 0. -1.
         -3    1    6    6    0  503 -0.82744291816E+00 -0.28591195129E+02  0.33381874042E+02  0.43960102540E+02  0.00000000000E+00 0.  1.
<mgrwt>
<rscale>  0 0.29341117E+04</rscale>
<asrwt>0</asrwt>
<pdfrwt beam="1">  1        1 0.70749036E+00 0.29341117E+04</pdfrwt>
<pdfrwt beam="2">  1       -2 0.72002246E-01 0.29341117E+04</pdfrwt>
<totfact> 0.33431828E-02</totfact>
</mgrwt>
</event>
<event>
12    5  0.5221187E-008  0.1844227E+04  0.7818608E-02  0.8683127E-01
          1   -1    0    0  501    0  0.00000000000E+00  0.00000000000E+00  0.10305419394E+04  0.10305419394E+04  0.00000000000E+00 0. -1.
         -2   -1    0    0    0  501 -0.00000000000E+00 -0.00000000000E+00 -0.82509309820E+03  0.82509309820E+03  0.00000000000E+00 0.  1.
        -24    2    1    2    0    0  0.28487728047E+03 -0.22714492948E+03 -0.50813904132E+03  0.62923098157E+03  0.70544021314E+02 0.  0.
        254    2    1    2    0    0 -0.28487728047E+03  0.22714492948E+03  0.71358788252E+03  0.12264040560E+04  0.92849844300E+03 0.  0.
         23    2    4    4    0    0 -0.39642360486E+03  0.10996946349E+03 -0.64122467998E+02  0.42579210267E+03  0.89119394093E+02 0.  0.
         23    2    4    4    0    0  0.11154632439E+03  0.11717546599E+03  0.77771035052E+03  0.80061195337E+03  0.99867102952E+02 0.  0.
          1    1    3    3  502    0  0.12280622705E+02  0.48056814700E+01 -0.17594785134E+02  0.21988286253E+02  0.00000000000E+00 0. -1.
         -2    1    3    3    0  502  0.27259665777E+03 -0.23195061095E+03 -0.49054425619E+03  0.60724269532E+03  0.00000000000E+00 0.  1.
         13    1    5    5    0    0 -0.15365367735E+03  0.23741461180E+02  0.15225989844E+02  0.15622080626E+03  0.00000000000E+00 0.  1.
        -13    1    5    5    0    0 -0.24276992751E+03  0.86228002307E+02 -0.79348457842E+02  0.26957129641E+03  0.00000000000E+00 0. -1.
          1    1    6    6  503    0  0.12445676772E+03  0.92084018905E+02  0.55738039673E+03  0.57848237677E+03  0.00000000000E+00 0. -1.
         -1    1    6    6    0  503 -0.12910443332E+02  0.25091447089E+02  0.22032995379E+03  0.22212957660E+03  0.00000000000E+00 0.  1.
<mgrwt>
<rscale>  0 0.18442267E+04</rscale>
<asrwt>0</asrwt>
<pdfrwt beam="1">  1        1 0.15854491E+00 0.18442267E+04</pdfrwt>
<pdfrwt beam="2">  1       -2 0.12693740E+00 0.18442267E+04</pdfrwt>
<totfact> 0.54458761E+00</totfact>
</mgrwt>
</event>
<event>
12    5  0.5221187E-008  0.1871175E+04  0.7818608E-02  0.8669339E-01
         -2   -1    0    0    0  501 -0.00000000000E+00  0.00000000000E+00  0.58451827977E+03  0.58451827977E+03  0.00000000000E+00 0.  1.
          1   -1    0    0  501    0  0.00000000000E+00 -0.00000000000E+00 -0.14975130192E+04  0.14975130192E+04  0.00000000000E+00 0. -1.
        -24    2    1    2    0    0 -0.42443508764E+03 -0.68631053846E+02  0.28032994181E+03  0.51905529258E+03  0.77318531467E+02 0.  0.
        254    2    1    2    0    0  0.42443508764E+03  0.68631053846E+02 -0.11933246813E+04  0.15629760064E+04  0.91324412757E+03 0.  0.
         23    2    4    4    0    0  0.43547010991E+03 -0.22045697215E+03 -0.11546914578E+04  0.12571612556E+04  0.94374608473E+02 0.  0.
         23    2    4    4    0    0 -0.11035022266E+02  0.28908802599E+03 -0.38633223499E+02  0.30581475083E+03  0.91304311922E+02 0.  0.
          1    1    3    3  502    0 -0.19901158755E+03 -0.75553616882E+00  0.15568433525E+03  0.25267329708E+03  0.00000000000E+00 0. -1.
         -2    1    3    3    0  502 -0.22542350009E+03 -0.67875517677E+02  0.12464560656E+03  0.26638199550E+03  0.00000000000E+00 0.  1.
         13    1    5    5    0    0  0.13523996880E+03 -0.10726930552E+03 -0.47911913061E+03  0.50926583862E+03  0.00000000000E+00 0. -1.
        -13    1    5    5    0    0  0.30023014110E+03 -0.11318766663E+03 -0.67557232716E+03  0.74789541697E+03  0.00000000000E+00 0.  1.
          4    1    6    6  503    0  0.31313081787E+02  0.19535853729E+03 -0.44502093180E+02  0.20279522549E+03  0.00000000000E+00 0. -1.
         -4    1    6    6    0  503 -0.42348104054E+02  0.93729488701E+02  0.58688696809E+01  0.10301952534E+03  0.00000000000E+00 0.  1.
<mgrwt>
<rscale>  0 0.18711747E+04</rscale>
<asrwt>0</asrwt>
<pdfrwt beam="1">  1        1 0.23038662E+00 0.18711747E+04</pdfrwt>
<pdfrwt beam="2">  1       -2 0.89925890E-01 0.18711747E+04</pdfrwt>
<totfact> 0.57240976E+00</totfact>
</mgrwt>
</event>
<event>
12    5  0.5221187E-008  0.1857906E+04  0.7818608E-02  0.8676097E-01
          1   -1    0    0  501    0  0.00000000000E+00  0.00000000000E+00  0.92749433824E+03  0.92749433824E+03  0.00000000000E+00 0. -1.
         -2   -1    0    0    0  501 -0.00000000000E+00 -0.00000000000E+00 -0.93041434528E+03  0.93041434528E+03  0.00000000000E+00 0.  1.
        -24    2    1    2    0    0 -0.24009368515E+03 -0.56834445509E+03 -0.35119669844E+03  0.71439330573E+03  0.79738804879E+02 0.  0.
        254    2    1    2    0    0  0.24009368515E+03  0.56834445509E+03  0.34827669140E+03  0.11435153778E+04  0.89759142609E+03 0.  0.
         23    2    4    4    0    0  0.45756117789E+03  0.54451205023E+03 -0.73505815529E+01  0.71610375971E+03  0.83035891350E+02 0.  0.
         23    2    4    4    0    0 -0.21746749274E+03  0.23832404858E+02  0.35562727295E+03  0.42741161809E+03  0.91377459411E+02 0.  0.
          3    1    3    3  502    0 -0.11371858324E+03 -0.24961902934E+03 -0.20105528563E+03  0.34009528645E+03  0.00000000000E+00 0. -1.
         -4    1    3    3    0  502 -0.12637510190E+03 -0.31872542575E+03 -0.15014141280E+03  0.37429801929E+03  0.00000000000E+00 0.  1.
         13    1    5    5    0    0  0.30830391109E+03  0.42241889019E+03 -0.14117707418E+02  0.52315230100E+03  0.00000000000E+00 0.  1.
        -13    1    5    5    0    0  0.14925726681E+03  0.12209316004E+03  0.67671258648E+01  0.19295145870E+03  0.00000000000E+00 0. -1.
          1    1    6    6  503    0 -0.88156032093E+02 -0.46564611343E+01  0.70278130814E+02  0.11283698106E+03  0.00000000000E+00 0. -1.
         -1    1    6    6    0  503 -0.12931146065E+03  0.28488865993E+02  0.28534914213E+03  0.31457463702E+03  0.00000000000E+00 0.  1.
<mgrwt>
<rscale>  0 0.18579064E+04</rscale>
<asrwt>0</asrwt>
<pdfrwt beam="1">  1        1 0.14269144E+00 0.18579064E+04</pdfrwt>
<pdfrwt beam="2">  1       -2 0.14314067E+00 0.18579064E+04</pdfrwt>
<totfact> 0.48195990E+00</totfact>
</mgrwt>
</event>
<event>
12    5  0.5221187E-008  0.1871146E+04  0.7818608E-02  0.8669353E-01
         -2   -1    0    0    0  501 -0.00000000000E+00  0.00000000000E+00  0.24763932463E+03  0.24763932463E+03  0.00000000000E+00 0.  1.
          1   -1    0    0  501    0  0.00000000000E+00 -0.00000000000E+00 -0.35345649326E+04  0.35345649326E+04  0.00000000000E+00 0. -1.
        -24    2    1    2    0    0 -0.59488606494E+03  0.37583465594E+03 -0.10742509844E+04  0.12866242174E+04  0.79028985380E+02 0.  0.
        254    2    1    2    0    0  0.59488606494E+03 -0.37583465594E+03 -0.22126746235E+04  0.24955800398E+04  0.91479485478E+03 0.  0.
         23    2    4    4    0    0 -0.18452859121E+02  0.24683344244E+03 -0.68145296195E+03  0.73056205019E+03  0.89863860984E+02 0.  0.
         23    2    4    4    0    0  0.61333892406E+03 -0.62266809838E+03 -0.15312216616E+04  0.17650179896E+04  0.82149437532E+02 0.  0.
          3    1    3    3  502    0 -0.12937298565E+03  0.75457080253E+02 -0.29049869649E+03  0.32683425928E+03  0.00000000000E+00 0. -1.
         -4    1    3    3    0  502 -0.46551307929E+03  0.30037757568E+03 -0.78375228792E+03  0.95978995816E+03  0.00000000000E+00 0.  1.
         13    1    5    5    0    0 -0.27877806324E+02  0.23235257549E+03 -0.54636012425E+03  0.59436880536E+03  0.00000000000E+00 0. -1.
        -13    1    5    5    0    0  0.94249472030E+01  0.14480866947E+02 -0.13509283771E+03  0.13619324483E+03  0.00000000000E+00 0.  1.
          1    1    6    6  503    0  0.34741106347E+03 -0.31547054927E+03 -0.88383258679E+03  0.10006878414E+04  0.00000000000E+00 0. -1.
         -1    1    6    6    0  503  0.26592786059E+03 -0.30719754911E+03 -0.64738907480E+03  0.76433014816E+03  0.00000000000E+00 0.  1.
<mgrwt>
<rscale>  0 0.18711465E+04</rscale>
<asrwt>0</asrwt>
<pdfrwt beam="1">  1        1 0.54377918E+00 0.18711465E+04</pdfrwt>
<pdfrwt beam="2">  1       -2 0.38098361E-01 0.18711465E+04</pdfrwt>
<totfact> 0.12649360E+00</totfact>
</mgrwt>
</event>
<event>
12    5  0.5221187E-008  0.2617336E+04  0.7818608E-02  0.8362336E-01
          1   -1    0    0  501    0  0.00000000000E+00  0.00000000000E+00  0.12349313600E+04  0.12349313600E+04  0.00000000000E+00 0. -1.
         -2   -1    0    0    0  501 -0.00000000000E+00 -0.00000000000E+00 -0.13868074807E+04  0.13868074807E+04  0.00000000000E+00 0.  1.
        -24    2    1    2    0    0 -0.11218608489E+03 -0.21619466303E+03  0.10573787796E+04  0.10880358984E+04  0.80289368042E+02 0.  0.
        254    2    1    2    0    0  0.11218608489E+03  0.21619466303E+03 -0.12092549003E+04  0.15337029423E+04  0.91138435985E+03 0.  0.
         23    2    4    4    0    0  0.24793470372E+03  0.46240719542E+03 -0.38336647054E+03  0.65641175494E+03  0.92814382555E+02 0.  0.
         23    2    4    4    0    0 -0.13574861882E+03 -0.24621253239E+03 -0.82588842972E+03  0.87729118733E+03  0.92194524862E+02 0.  0.
          1    1    3    3  502    0 -0.95941054310E+02 -0.98159894952E+02  0.55483218248E+03  0.57155822240E+03  0.00000000000E+00 0. -1.
         -2    1    3    3    0  502 -0.16245030584E+02 -0.11803476808E+03  0.50254659716E+03  0.51647767600E+03  0.00000000000E+00 0.  1.
         13    1    5    5    0    0  0.63905892835E+01  0.66652406634E+01 -0.29468972998E+02  0.30881797779E+02  0.00000000000E+00 0. -1.
        -13    1    5    5    0    0  0.24154411443E+03  0.45574195476E+03 -0.35389749754E+03  0.62552995716E+03  0.00000000000E+00 0.  1.
          3    1    6    6  503    0 -0.94003031385E+02 -0.20113332807E+03 -0.73329815221E+03  0.76617058519E+03  0.00000000000E+00 0. -1.
         -3    1    6    6    0  503 -0.41745587437E+02 -0.45079204323E+02 -0.92590277505E+02  0.11112060215E+03  0.00000000000E+00 0.  1.
<mgrwt>
<rscale>  0 0.26173361E+04</rscale>
<asrwt>0</asrwt>
<pdfrwt beam="1">  1        1 0.18998944E+00 0.26173361E+04</pdfrwt>
<pdfrwt beam="2">  1       -2 0.21335500E+00 0.26173361E+04</pdfrwt>
<totfact> 0.84740110E-01</totfact>
</mgrwt>
</event>
<event>
12    5  0.6747841E-008  0.1672781E+04  0.7818608E-02  0.8777043E-01
          1   -1    0    0  501    0  0.00000000000E+00  0.00000000000E+00  0.91720816510E+03  0.91720816510E+03  0.00000000000E+00 0. -1.
         -2   -1    0    0    0  501 -0.00000000000E+00 -0.00000000000E+00 -0.76269361798E+03  0.76269361798E+03  0.00000000000E+00 0.  1.
        -24    2    1    2    0    0 -0.49152946964E+03 -0.30147970353E+03  0.18718607049E+03  0.61156561211E+03  0.80514854358E+02 0.  0.
        254    2    1    2    0    0  0.49152946964E+03  0.30147970353E+03 -0.32671523369E+02  0.10683361710E+04  0.89876777567E+03 0.  0.
         23    2    4    4    0    0  0.24560368280E+03  0.59629764314E+03 -0.12341810071E+03  0.66322102941E+03  0.93477580440E+02 0.  0.
         23    2    4    4    0    0  0.24592578683E+03 -0.29481793961E+03  0.90746577337E+02  0.40511514155E+03  0.92120716836E+02 0.  0.
          3    1    3    3  502    0 -0.34182962808E+03 -0.20965879687E+03  0.90487022595E+02  0.41108661739E+03  0.00000000000E+00 0. -1.
         -4    1    3    3    0  502 -0.14969984156E+03 -0.91820906657E+02  0.96699047895E+02  0.20047899473E+03  0.00000000000E+00 0.  1.
         13    1    5    5    0    0  0.24044141092E+03  0.51465233632E+03 -0.91324772805E+02  0.57534277913E+03  0.00000000000E+00 0. -1.
        -13    1    5    5    0    0  0.51622718844E+01  0.81645306814E+02 -0.32093327901E+02  0.87878250276E+02  0.00000000000E+00 0.  1.
          2    1    6    6  503    0  0.16746008161E+02  0.43519047995E+01 -0.69727894470E+00  0.17316294714E+02  0.00000000000E+00 0.  1.
         -2    1    6    6    0  503  0.22917977867E+03 -0.29916984441E+03  0.91443856282E+02  0.38779884684E+03  0.00000000000E+00 0. -1.
<mgrwt>
<rscale>  0 0.16727807E+04</rscale>
<asrwt>0</asrwt>
<pdfrwt beam="1">  1        1 0.14110895E+00 0.16727807E+04</pdfrwt>
<pdfrwt beam="2">  1       -2 0.11733748E+00 0.16727807E+04</pdfrwt>
<totfact> 0.82647032E+00</totfact>
</mgrwt>
</event>
<event>
12    5  0.5221187E-008  0.1627858E+04  0.7818608E-02  0.8803614E-01
          1   -1    0    0  501    0  0.00000000000E+00  0.00000000000E+00  0.23892904322E+04  0.23892904322E+04  0.00000000000E+00 0. -1.
         -2   -1    0    0    0  501 -0.00000000000E+00 -0.00000000000E+00 -0.27727086921E+03  0.27727086921E+03  0.00000000000E+00 0.  1.
        -24    2    1    2    0    0  0.17710056623E+03  0.11983512738E+03  0.15794335968E+04  0.15958868213E+04  0.80741509435E+02 0.  0.
        254    2    1    2    0    0 -0.17710056623E+03 -0.11983512738E+03  0.53258596613E+03  0.10706744801E+04  0.90386446032E+03 0.  0.
         23    2    4    4    0    0  0.16329113905E+03  0.29263345514E+03  0.59260051969E+02  0.34984378916E+03  0.81120822823E+02 0.  0.
         23    2    4    4    0    0 -0.34039170527E+03 -0.41246858251E+03  0.47332591416E+03  0.72083069091E+03  0.97788646388E+02 0.  0.
          1    1    3    3  502    0  0.13818981158E+03  0.12840025920E+03  0.13208708855E+04  0.13342724410E+04  0.00000000000E+00 0. -1.
         -2    1    3    3    0  502  0.38910754644E+02 -0.85651318278E+01  0.25856271128E+03  0.26161438029E+03  0.00000000000E+00 0.  1.
         13    1    5    5    0    0  0.60732648189E+02  0.12545308014E+03 -0.14868372709E+02  0.14017131796E+03  0.00000000000E+00 0.  1.
        -13    1    5    5    0    0  0.10255849086E+03  0.16718037500E+03  0.74128424677E+02  0.20967247120E+03  0.00000000000E+00 0. -1.
          1    1    6    6  503    0 -0.17677236733E+03 -0.15442353063E+03  0.16621515974E+03  0.28761532642E+03  0.00000000000E+00 0. -1.
         -1    1    6    6    0  503 -0.16361933794E+03 -0.25804505189E+03  0.30711075442E+03  0.43321536449E+03  0.00000000000E+00 0.  1.
<mgrwt>
<rscale>  0 0.16278583E+04</rscale>
<asrwt>0</asrwt>
<pdfrwt beam="1">  1        1 0.36758313E+00 0.16278583E+04</pdfrwt>
<pdfrwt beam="2">  1       -2 0.42657058E-01 0.16278583E+04</pdfrwt>
<totfact> 0.70873991E+00</totfact>
</mgrwt>
</event>
<event>
12    5  0.5221187E-008  0.1947971E+04  0.7818608E-02  0.8631340E-01
         -2   -1    0    0    0  501 -0.00000000000E+00  0.00000000000E+00  0.50551518964E+03  0.50551518964E+03  0.00000000000E+00 0.  1.
          1   -1    0    0  501    0  0.00000000000E+00 -0.00000000000E+00 -0.18765956285E+04  0.18765956285E+04  0.00000000000E+00 0. -1.
        -24    2    1    2    0    0 -0.59829532829E+03 -0.31975673686E+03 -0.11400109068E+03  0.69253416182E+03  0.80035279629E+02 0.  0.
        254    2    1    2    0    0  0.59829532829E+03  0.31975673686E+03 -0.12570793482E+04  0.16895766564E+04  0.90234091083E+03 0.  0.
         23    2    4    4    0    0 -0.89137741714E+02  0.19589360296E+03  0.17738061872E+02  0.23266985832E+03  0.86607063527E+02 0.  0.
         23    2    4    4    0    0  0.68743307000E+03  0.12386313391E+03 -0.12748174101E+04  0.14569067980E+04  0.97527880241E+02 0.  0.
          1    1    3    3  502    0 -0.37206387248E+03 -0.18968541276E+03 -0.10861739967E+03  0.43152035935E+03  0.00000000000E+00 0. -1.
         -2    1    3    3    0  502 -0.22623145581E+03 -0.13007132410E+03 -0.53836910068E+01  0.26101380247E+03  0.00000000000E+00 0.  1.
         13    1    5    5    0    0  0.62686136231E+01  0.37941658486E+02  0.28440382557E+02  0.47830119437E+02  0.00000000000E+00 0.  1.
        -13    1    5    5    0    0 -0.95406355337E+02  0.15795194447E+03 -0.10702320685E+02  0.18483973888E+03  0.00000000000E+00 0. -1.
          1    1    6    6  503    0  0.47720275111E+03  0.92366939778E+02 -0.97418288234E+03  0.10887085953E+04  0.00000000000E+00 0. -1.
         -1    1    6    6    0  503  0.21023031889E+03  0.31496194127E+02 -0.30063452777E+03  0.36819820275E+03  0.00000000000E+00 0.  1.
<mgrwt>
<rscale>  0 0.19479708E+04</rscale>
<asrwt>0</asrwt>
<pdfrwt beam="1">  1        1 0.28870702E+00 0.19479708E+04</pdfrwt>
<pdfrwt beam="2">  1       -2 0.77771568E-01 0.19479708E+04</pdfrwt>
<totfact> 0.43546990E+00</totfact>
</mgrwt>
</event>
<event>
12    5  0.5221187E-008  0.1365476E+04  0.7818608E-02  0.8979195E-01
         -2   -1    0    0    0  501 -0.00000000000E+00  0.00000000000E+00  0.49417515991E+03  0.49417515991E+03  0.00000000000E+00 0.  1.
          1   -1    0    0  501    0  0.00000000000E+00 -0.00000000000E+00 -0.94325115256E+03  0.94325115256E+03  0.00000000000E+00 0. -1.
        -24    2    1    2    0    0 -0.29344127588E+03 -0.16574864534E+03 -0.35108308768E+03  0.49309538184E+03  0.79393484063E+02 0.  0.
        254    2    1    2    0    0  0.29344127588E+03  0.16574864534E+03 -0.97992904977E+02  0.94433093063E+03  0.87668574832E+03 0.  0.
         23    2    4    4    0    0  0.26031607695E+03  0.51055892601E+02  0.36371599235E+03  0.45895480509E+03  0.89325393528E+02 0.  0.
         23    2    4    4    0    0  0.33125198926E+02  0.11469275274E+03 -0.46170889733E+03  0.48537612555E+03  0.90350268638E+02 0.  0.
          3    1    3    3  502    0 -0.35897184643E+02 -0.22148109999E+02 -0.89403033781E+02  0.98853675152E+02  0.00000000000E+00 0. -1.
         -4    1    3    3    0  502 -0.25754409124E+03 -0.14360053534E+03 -0.26168005390E+03  0.39424170669E+03  0.00000000000E+00 0.  1.
         13    1    5    5    0    0  0.88551979862E+02 -0.58121785115E+01  0.18220844313E+03  0.20267005528E+03  0.00000000000E+00 0.  1.
        -13    1    5    5    0    0  0.17176409709E+03  0.56868071113E+02  0.18150754922E+03  0.25628474981E+03  0.00000000000E+00 0. -1.
          2    1    6    6  503    0 -0.19319756187E+02  0.60272628632E+02 -0.30366206681E+03  0.31018815832E+03  0.00000000000E+00 0. -1.
         -2    1    6    6    0  503  0.52444955113E+02  0.54420124106E+02 -0.15804683052E+03  0.17518796723E+03  0.00000000000E+00 0.  1.
<mgrwt>
<rscale>  0 0.13654762E+04</rscale>
<asrwt>0</asrwt>
<pdfrwt beam="1">  1        1 0.14511556E+00 0.13654762E+04</pdfrwt>
<pdfrwt beam="2">  1       -2 0.76026948E-01 0.13654762E+04</pdfrwt>
<totfact> 0.22283574E+01</totfact>
</mgrwt>
</event>
<event>
12    5  0.5221187E-008  0.2082727E+04  0.7818608E-02  0.8568890E-01
          1   -1    0    0  501    0  0.00000000000E+00  0.00000000000E+00  0.10826236062E+04  0.10826236062E+04  0.00000000000E+00 0. -1.
         -2   -1    0    0    0  501 -0.00000000000E+00 -0.00000000000E+00 -0.10016762479E+04  0.10016762479E+04  0.00000000000E+00 0.  1.
        -24    2    1    2    0    0 -0.70261183341E+03  0.41447581098E+03  0.11074163843E+03  0.82710570900E+03  0.79915937305E+02 0.  0.
        254    2    1    2    0    0  0.70261183341E+03 -0.41447581098E+03 -0.29794280187E+02  0.12571941451E+04  0.95613588626E+03 0.  0.
         23    2    4    4    0    0 -0.96941245282E+02 -0.36023548713E+03 -0.20036627451E+03  0.43307017764E+03  0.90751989364E+02 0.  0.
         23    2    4    4    0    0  0.79955307869E+03 -0.54240323842E+02  0.17057199432E+03  0.82412396745E+03  0.88647448390E+02 0.  0.
          1    1    3    3  502    0 -0.13723977437E+03  0.48852303358E+02  0.32724821827E+02  0.14930578413E+03  0.00000000000E+00 0. -1.
         -2    1    3    3    0  502 -0.56537205905E+03  0.36562350762E+03  0.78016816607E+02  0.67779992487E+03  0.00000000000E+00 0.  1.
         13    1    5    5    0    0 -0.29344020969E+01 -0.18519320228E+03 -0.99200455985E+02  0.21010917008E+03  0.00000000000E+00 0.  1.
        -13    1    5    5    0    0 -0.94006843185E+02 -0.17504228486E+03 -0.10116581852E+03  0.22296100756E+03  0.00000000000E+00 0. -1.
          2    1    6    6  503    0  0.66593449168E+03 -0.62667410162E+02  0.11286164962E+03  0.67833155865E+03  0.00000000000E+00 0. -1.
         -2    1    6    6    0  503  0.13361858701E+03  0.84270863199E+01  0.57710344700E+02  0.14579240880E+03  0.00000000000E+00 0.  1.
<mgrwt>
<rscale>  0 0.20827274E+04</rscale>
<asrwt>0</asrwt>
<pdfrwt beam="1">  1        1 0.16655748E+00 0.20827274E+04</pdfrwt>
<pdfrwt beam="2">  1       -2 0.15410404E+00 0.20827274E+04</pdfrwt>
<totfact> 0.29428504E+00</totfact>
</mgrwt>
</event>
<event>
12    5  0.5221187E-008  0.1448364E+04  0.7818608E-02  0.8919536E-01
         -2   -1    0    0    0  501 -0.00000000000E+00  0.00000000000E+00  0.77562608101E+03  0.77562608101E+03  0.00000000000E+00 0.  1.
          1   -1    0    0  501    0  0.00000000000E+00 -0.00000000000E+00 -0.67614963115E+03  0.67614963115E+03  0.00000000000E+00 0. -1.
        -24    2    1    2    0    0  0.36697949460E+03 -0.24803183143E+03 -0.15813222692E+02  0.45036715372E+03  0.79917308982E+02 0.  0.
        254    2    1    2    0    0 -0.36697949460E+03  0.24803183143E+03  0.11528967256E+03  0.10014085584E+04  0.89069279410E+03 0.  0.
         23    2    4    4    0    0  0.53819894783E+02  0.34236946846E+03  0.35142279951E+03  0.50174572132E+03  0.90207266039E+02 0.  0.
         23    2    4    4    0    0 -0.42079938938E+03 -0.94337637028E+02 -0.23613312695E+03  0.49966283712E+03  0.89063916874E+02 0.  0.
          1    1    3    3  502    0  0.29898361920E+03 -0.22524583182E+03 -0.35463660674E+02  0.37601138351E+03  0.00000000000E+00 0. -1.
         -2    1    3    3    0  502  0.67995875405E+02 -0.22785999610E+02  0.19650437982E+02  0.74355770208E+02  0.00000000000E+00 0.  1.
         13    1    5    5    0    0  0.11886111507E+02  0.24159825236E+03  0.28566400865E+03  0.37431927686E+03  0.00000000000E+00 0.  1.
        -13    1    5    5    0    0  0.41933783276E+02  0.10077121609E+03  0.65758790852E+02  0.12742644446E+03  0.00000000000E+00 0. -1.
          4    1    6    6  503    0 -0.25718055948E+03 -0.48694502578E+02 -0.19062427892E+03  0.32380643983E+03  0.00000000000E+00 0.  1.
         -4    1    6    6    0  503 -0.16361882990E+03 -0.45643134450E+02 -0.45508848027E+02  0.17585639729E+03  0.00000000000E+00 0. -1.
<mgrwt>
<rscale>  0 0.14483636E+04</rscale>
<asrwt>0</asrwt>
<pdfrwt beam="1">  1        1 0.10402302E+00 0.14483636E+04</pdfrwt>
<pdfrwt beam="2">  1       -2 0.11932709E+00 0.14483636E+04</pdfrwt>
<totfact> 0.13145386E+01</totfact>
</mgrwt>
</event>
<event>
12    5  0.5221187E-008  0.1319009E+04  0.7818608E-02  0.9014625E-01
          1   -1    0    0  501    0  0.00000000000E+00  0.00000000000E+00  0.45380126097E+03  0.45380126097E+03  0.00000000000E+00 0. -1.
         -2   -1    0    0    0  501 -0.00000000000E+00 -0.00000000000E+00 -0.95845099923E+03  0.95845099923E+03  0.00000000000E+00 0.  1.
        -24    2    1    2    0    0  0.31650474940E+03 -0.16272040710E+02 -0.25807043987E+03  0.41611169306E+03  0.78157235486E+02 0.  0.
        254    2    1    2    0    0 -0.31650474940E+03  0.16272040710E+02 -0.24657929839E+03  0.99614056714E+03  0.91162198493E+03 0.  0.
         23    2    4    4    0    0  0.13607356277E+03  0.21033784102E+03  0.19538396963E+03  0.32798161140E+03  0.81480181486E+02 0.  0.
         23    2    4    4    0    0 -0.45257831217E+03 -0.19406580031E+03 -0.44196326802E+03  0.66815895574E+03  0.92823468797E+02 0.  0.
          3    1    3    3  502    0  0.81032415997E+02 -0.12520011255E+02 -0.27375958256E+02  0.86443312145E+02  0.00000000000E+00 0. -1.
         -4    1    3    3    0  502  0.23547233341E+03 -0.37520294550E+01 -0.23069448162E+03  0.32966838091E+03  0.00000000000E+00 0.  1.
         13    1    5    5    0    0  0.40236547430E+02  0.12324515934E+03  0.12721301493E+03  0.18163562485E+03  0.00000000000E+00 0. -1.
        -13    1    5    5    0    0  0.95837015339E+02  0.87092681686E+02  0.68170954707E+02  0.14634598655E+03  0.00000000000E+00 0.  1.
          3    1    6    6  503    0 -0.10229156355E+01 -0.90205037680E+01 -0.23912686104E+02  0.25577967107E+02  0.00000000000E+00 0. -1.
         -3    1    6    6    0  503 -0.45155539654E+03 -0.18504529654E+03 -0.41805058192E+03  0.64258098864E+03  0.00000000000E+00 0.  1.
<mgrwt>
<rscale>  0 0.13190091E+04</rscale>
<asrwt>0</asrwt>
<pdfrwt beam="1">  1        1 0.69815579E-01 0.13190091E+04</pdfrwt>
<pdfrwt beam="2">  1       -2 0.14745400E+00 0.13190091E+04</pdfrwt>
<totfact> 0.13599674E+01</totfact>
</mgrwt>
</event>
<event>
12    5  0.5221187E-008  0.3470828E+04  0.7818608E-02  0.8120738E-01
          1   -1    0    0  501    0  0.00000000000E+00  0.00000000000E+00  0.12087084129E+04  0.12087084129E+04  0.00000000000E+00 0. -1.
         -2   -1    0    0    0  501 -0.00000000000E+00 -0.00000000000E+00 -0.24916357178E+04  0.24916357178E+04  0.00000000000E+00 0.  1.
        -24    2    1    2    0    0 -0.44611778575E+03  0.65603904019E+03  0.89811996821E+03  0.12009275538E+04  0.78735069949E+02 0.  0.
        254    2    1    2    0    0  0.44611778575E+03 -0.65603904019E+03 -0.21810472731E+04  0.24994165768E+04  0.92774334592E+03 0.  0.
         23    2    4    4    0    0  0.33890946473E+03 -0.20308946771E+03 -0.18322946329E+03  0.44607186521E+03  0.96447475532E+02 0.  0.
         23    2    4    4    0    0  0.10720832102E+03 -0.45294957248E+03 -0.19978178098E+04  0.20533447116E+04  0.91058026206E+02 0.  0.
          1    1    3    3  502    0 -0.38258143355E+03  0.59229841260E+03  0.82255437166E+03  0.10834120441E+04  0.00000000000E+00 0. -1.
         -2    1    3    3    0  502 -0.63536352199E+02  0.63740627590E+02  0.75565596554E+02  0.11751550978E+03  0.00000000000E+00 0.  1.
         13    1    5    5    0    0  0.13004813998E+03 -0.10762396291E+03 -0.33990106164E+02  0.17219397034E+03  0.00000000000E+00 0. -1.
        -13    1    5    5    0    0  0.20886132475E+03 -0.95465504798E+02 -0.14923935712E+03  0.27387789487E+03  0.00000000000E+00 0.  1.
          4    1    6    6  503    0  0.92443192313E+02 -0.19611094487E+03 -0.94473611489E+03  0.96929436875E+03  0.00000000000E+00 0. -1.
         -4    1    6    6    0  503  0.14765128703E+02 -0.25683862761E+03 -0.10530816949E+04  0.10840503428E+04  0.00000000000E+00 0.  1.
<mgrwt>
<rscale>  0 0.34708276E+04</rscale>
<asrwt>0</asrwt>
<pdfrwt beam="1">  1        1 0.18595514E+00 0.34708276E+04</pdfrwt>
<pdfrwt beam="2">  1       -2 0.38332857E+00 0.34708276E+04</pdfrwt>
<totfact> 0.71979893E-02</totfact>
</mgrwt>
</event>
<event>
12    5  0.5221187E-008  0.1262678E+04  0.7818608E-02  0.9059697E-01
         -2   -1    0    0    0  501 -0.00000000000E+00  0.00000000000E+00  0.10078383523E+04  0.10078383523E+04  0.00000000000E+00 0.  1.
          1   -1    0    0  501    0  0.00000000000E+00 -0.00000000000E+00 -0.39548899347E+03  0.39548899347E+03  0.00000000000E+00 0. -1.
        -24    2    1    2    0    0 -0.21678979168E+03  0.82304528453E+02  0.37181345358E+03  0.44519901350E+03  0.78645204402E+02 0.  0.
        254    2    1    2    0    0  0.21678979168E+03 -0.82304528453E+02  0.24053590525E+03  0.95812833228E+03  0.89798693210E+03 0.  0.
         23    2    4    4    0    0  0.19265141087E+03  0.32706267738E+03 -0.11549087395E+03  0.40763984652E+03  0.93528292261E+02 0.  0.
         23    2    4    4    0    0  0.24138380811E+02 -0.40936720584E+03  0.35602677920E+03  0.55048848576E+03  0.90101802434E+02 0.  0.
          1    1    3    3  502    0 -0.39473939665E+01 -0.99832488440E+01  0.31959554710E+02  0.33714393274E+02  0.00000000000E+00 0. -1.
         -2    1    3    3    0  502 -0.21284239771E+03  0.92287777297E+02  0.33985389887E+03  0.41148462022E+03  0.00000000000E+00 0.  1.
         13    1    5    5    0    0  0.86189948436E+02  0.21719641559E+03 -0.98959149616E+02  0.25376347935E+03  0.00000000000E+00 0.  1.
        -13    1    5    5    0    0  0.10646146243E+03  0.10986626179E+03 -0.16531724337E+02  0.15387636717E+03  0.00000000000E+00 0. -1.
          3    1    6    6  503    0  0.12466763740E+02 -0.75997935074E+01  0.17525222524E+01  0.14705386556E+02  0.00000000000E+00 0. -1.
         -3    1    6    6    0  503  0.11671617071E+02 -0.40176741233E+03  0.35427425695E+03  0.53578309921E+03  0.00000000000E+00 0.  1.
<mgrwt>
<rscale>  0 0.12626781E+04</rscale>
<asrwt>0</asrwt>
<pdfrwt beam="1">  1        1 0.60844461E-01 0.12626781E+04</pdfrwt>
<pdfrwt beam="2">  1       -2 0.15505205E+00 0.12626781E+04</pdfrwt>
<totfact> 0.14365688E+01</totfact>
</mgrwt>
</event>
<event>
12    5  0.5221187E-008  0.1667957E+04  0.7818608E-02  0.8779854E-01
         -2   -1    0    0    0  501 -0.00000000000E+00  0.00000000000E+00  0.22902504885E+03  0.22902504885E+03  0.00000000000E+00 0.  1.
          1   -1    0    0  501    0  0.00000000000E+00 -0.00000000000E+00 -0.30368737822E+04  0.30368737822E+04  0.00000000000E+00 0. -1.
        -24    2    1    2    0    0 -0.43733224105E+03  0.33256613594E+03 -0.13657474451E+04  0.14743417143E+04  0.80979522235E+02 0.  0.
        254    2    1    2    0    0  0.43733224105E+03 -0.33256613594E+03 -0.14421012883E+04  0.17915571167E+04  0.91003354499E+03 0.  0.
         23    2    4    4    0    0  0.69679929391E+01  0.21257304454E+03 -0.82904833408E+03  0.86069876411E+03  0.90804020369E+02 0.  0.
         23    2    4    4    0    0  0.43036424811E+03 -0.54513918048E+03 -0.61305295422E+03  0.93085835263E+03  0.90957329825E+02 0.  0.
          3    1    3    3  502    0 -0.30008366487E+03  0.23603702595E+03 -0.84548176030E+03  0.92768695719E+03  0.00000000000E+00 0. -1.
         -2    1    3    3    0  502 -0.13724857618E+03  0.96529109990E+02 -0.52026568476E+03  0.54665475711E+03  0.00000000000E+00 0.  1.
         13    1    5    5    0    0 -0.13606584087E+02  0.39744318590E+02 -0.67422822007E+02  0.79439202653E+02  0.00000000000E+00 0. -1.
        -13    1    5    5    0    0  0.20574577026E+02  0.17282872595E+03 -0.76162551207E+03  0.78125956146E+03  0.00000000000E+00 0.  1.
          3    1    6    6  503    0  0.27566176038E+02 -0.77435098097E+01 -0.30150996481E+02  0.41580507384E+02  0.00000000000E+00 0. -1.
         -3    1    6    6    0  503  0.40279807207E+03 -0.53739567067E+03 -0.58290195773E+03  0.88927784525E+03  0.00000000000E+00 0.  1.
<mgrwt>
<rscale>  0 0.16679570E+04</rscale>
<asrwt>0</asrwt>
<pdfrwt beam="1">  1        1 0.46721135E+00 0.16679570E+04</pdfrwt>
<pdfrwt beam="2">  1       -2 0.35234623E-01 0.16679570E+04</pdfrwt>
<totfact> 0.35765012E+00</totfact>
</mgrwt>
</event>
<event>
12    5  0.5221187E-008  0.1788420E+04  0.7818608E-02  0.8712482E-01
          1   -1    0    0  501    0  0.00000000000E+00  0.00000000000E+00  0.10221308010E+04  0.10221308010E+04  0.00000000000E+00 0. -1.
         -2   -1    0    0    0  501 -0.00000000000E+00 -0.00000000000E+00 -0.78229877696E+03  0.78229877696E+03  0.00000000000E+00 0.  1.
        -24    2    1    2    0    0  0.56879401984E+03 -0.19211213068E+03  0.37889621938E+03  0.71429264165E+03  0.78853821061E+02 0.  0.
        254    2    1    2    0    0 -0.56879401984E+03  0.19211213068E+03 -0.13906419535E+03  0.10901369363E+04  0.89923633250E+03 0.  0.
         23    2    4    4    0    0 -0.75388624674E+03  0.31993595510E+03 -0.17862390863E+03  0.84335119173E+03  0.92904485741E+02 0.  0.
         23    2    4    4    0    0  0.18509222690E+03 -0.12782382442E+03  0.39559713283E+02  0.24678574456E+03  0.93488877715E+02 0.  0.
          3    1    3    3  502    0  0.30370707174E+03 -0.10734501683E+03  0.15695884468E+03  0.35832529493E+03  0.00000000000E+00 0. -1.
         -2    1    3    3    0  502  0.26508694811E+03 -0.84767113848E+02  0.22193737470E+03  0.35596734672E+03  0.00000000000E+00 0.  1.
         13    1    5    5    0    0 -0.50177894818E+03  0.23167523116E+03 -0.16103147459E+03  0.57566193324E+03  0.00000000000E+00 0. -1.
        -13    1    5    5    0    0 -0.25210729856E+03  0.88260723939E+02 -0.17592434040E+02  0.26768925849E+03  0.00000000000E+00 0.  1.
          2    1    6    6  503    0  0.14315776007E+02 -0.45538331240E+02  0.31214960721E+02  0.57035557573E+02  0.00000000000E+00 0. -1.
         -2    1    6    6    0  503  0.17077645089E+03 -0.82285493178E+02  0.83447525626E+01  0.18975018699E+03  0.00000000000E+00 0.  1.
<mgrwt>
<rscale>  0 0.17884202E+04</rscale>
<asrwt>0</asrwt>
<pdfrwt beam="1">  1        1 0.15725089E+00 0.17884202E+04</pdfrwt>
<pdfrwt beam="2">  1       -2 0.12035366E+00 0.17884202E+04</pdfrwt>
<totfact> 0.63473376E+00</totfact>
</mgrwt>
</event>
<event>
12    5  0.5221187E-008  0.1232793E+04  0.7818608E-02  0.9084627E-01
          3   -1    0    0  501    0  0.00000000000E+00  0.00000000000E+00  0.75132204054E+03  0.75132204054E+03  0.00000000000E+00 0. -1.
         -4   -1    0    0    0  501 -0.00000000000E+00 -0.00000000000E+00 -0.50570150649E+03  0.50570150649E+03  0.00000000000E+00 0.  1.
        -24    2    1    2    0    0 -0.55385323056E+01 -0.88007095783E+02  0.33709509745E+03  0.35673434903E+03  0.76487690562E+02 0.  0.
        254    2    1    2    0    0  0.55385323056E+01  0.88007095783E+02 -0.91474563407E+02  0.90028919800E+03  0.89127836282E+03 0.  0.
         23    2    4    4    0    0  0.23501997324E+03  0.22059518931E+03  0.27950242261E+03  0.43564574627E+03  0.88141855131E+02 0.  0.
         23    2    4    4    0    0 -0.22948144094E+03 -0.13258809353E+03 -0.37097698602E+03  0.46464345173E+03  0.89600662949E+02 0.  0.
          1    1    3    3  502    0 -0.18252622263E+02 -0.98522785925E+02  0.28640662221E+03  0.30342816417E+03  0.00000000000E+00 0. -1.
         -2    1    3    3    0  502  0.12714089957E+02  0.10515690141E+02  0.50688475237E+02  0.53306184861E+02  0.00000000000E+00 0.  1.
         13    1    5    5    0    0  0.13706350321E+03  0.13280954017E+03  0.22008757776E+03  0.29131309576E+03  0.00000000000E+00 0.  1.
        -13    1    5    5    0    0  0.97956470029E+02  0.87785649141E+02  0.59414844849E+02  0.14433265051E+03  0.00000000000E+00 0. -1.
          3    1    6    6  503    0 -0.21791083990E+03 -0.11456154719E+03 -0.36837097580E+03  0.44306507203E+03  0.00000000000E+00 0. -1.
         -3    1    6    6    0  503 -0.11570601035E+02 -0.18026546337E+02 -0.26060102159E+01  0.21578379698E+02  0.00000000000E+00 0.  1.
<mgrwt>
<rscale>  0 0.12327931E+04</rscale>
<asrwt>0</asrwt>
<pdfrwt beam="1">  1        3 0.11558801E+00 0.12327931E+04</pdfrwt>
<pdfrwt beam="2">  1       -4 0.77800232E-01 0.12327931E+04</pdfrwt>
<totfact> 0.20658041E+00</totfact>
</mgrwt>
</event>
<event>
12    5  0.5221187E-008  0.1094264E+04  0.7818608E-02  0.9210801E-01
          1   -1    0    0  501    0  0.00000000000E+00  0.00000000000E+00  0.27454261532E+04  0.27454261532E+04  0.00000000000E+00 0. -1.
         -2   -1    0    0    0  501 -0.00000000000E+00 -0.00000000000E+00 -0.10903717061E+03  0.10903717061E+03  0.00000000000E+00 0.  1.
        -24    2    1    2    0    0  0.11926334573E+03 -0.99247686598E+02  0.37724632682E+03  0.41560116367E+03  0.79597030167E+02 0.  0.
        254    2    1    2    0    0 -0.11926334573E+03  0.99247686598E+02  0.22591426557E+04  0.24388621601E+04  0.90567612762E+03 0.  0.
         23    2    4    4    0    0  0.20089871870E+03 -0.24456330008E+03  0.40044832763E+03  0.51950891473E+03  0.96742681715E+02 0.  0.
         23    2    4    4    0    0 -0.32016206442E+03  0.34381098667E+03  0.18586943281E+04  0.19193532454E+04  0.91992027772E+02 0.  0.
          1    1    3    3  502    0  0.78300476959E+02 -0.47975145750E+02  0.30251134515E+03  0.31614188784E+03  0.00000000000E+00 0. -1.
         -2    1    3    3    0  502  0.40962868769E+02 -0.51272540848E+02  0.74734981672E+02  0.99459275829E+02  0.00000000000E+00 0.  1.
         13    1    5    5    0    0  0.16490737602E+03 -0.15483786751E+03  0.22420356101E+03  0.31849088630E+03  0.00000000000E+00 0. -1.
        -13    1    5    5    0    0  0.35991342674E+02 -0.89725432561E+02  0.17624476661E+03  0.20101802843E+03  0.00000000000E+00 0.  1.
          2    1    6    6  503    0 -0.26012915616E+03  0.28706607398E+03  0.16508517817E+04  0.16956962327E+04  0.00000000000E+00 0. -1.
         -2    1    6    6    0  503 -0.60032908265E+02  0.56744912692E+02  0.20784254643E+03  0.22365701262E+03  0.00000000000E+00 0.  1.
<mgrwt>
<rscale>  0 0.10942641E+04</rscale>
<asrwt>0</asrwt>
<pdfrwt beam="1">  1        1 0.42237320E+00 0.10942641E+04</pdfrwt>
<pdfrwt beam="2">  1       -2 0.16774951E-01 0.10942641E+04</pdfrwt>
<totfact> 0.23443643E+01</totfact>
</mgrwt>
</event>
<event>
12    5  0.5221187E-008  0.2413293E+04  0.7818608E-02  0.8434544E-01
         -2   -1    0    0    0  501 -0.00000000000E+00  0.00000000000E+00  0.10801736843E+04  0.10801736843E+04  0.00000000000E+00 0.  1.
          1   -1    0    0  501    0  0.00000000000E+00 -0.00000000000E+00 -0.13479269350E+04  0.13479269350E+04  0.00000000000E+00 0. -1.
        -24    2    1    2    0    0  0.77238358715E+03  0.39837201341E+03 -0.68958203117E+03  0.11115552385E+04  0.68956535607E+02 0.  0.
        254    2    1    2    0    0 -0.77238358715E+03 -0.39837201341E+03  0.42182878047E+03  0.13165453808E+04  0.89446942530E+03 0.  0.
         23    2    4    4    0    0 -0.14111418759E+03 -0.12643152391E+03  0.57085220389E+03  0.60821904191E+03  0.90332829433E+02 0.  0.
         23    2    4    4    0    0 -0.63126939957E+03 -0.27194048950E+03 -0.14902342342E+03  0.70832633885E+03  0.84056748269E+02 0.  0.
          1    1    3    3  502    0  0.55686231361E+03  0.30175788572E+03 -0.53695559246E+03  0.83034617250E+03  0.00000000000E+00 0. -1.
         -2    1    3    3    0  502  0.21552127355E+03  0.96614127690E+02 -0.15262643871E+03  0.28120906602E+03  0.00000000000E+00 0.  1.
         13    1    5    5    0    0 -0.13019712446E+03 -0.11758495213E+03  0.39988698695E+03  0.43667735746E+03  0.00000000000E+00 0.  1.
        -13    1    5    5    0    0 -0.10917063130E+02 -0.88465717817E+01  0.17096521694E+03  0.17154168445E+03  0.00000000000E+00 0. -1.
          2    1    6    6  503    0 -0.35405124748E+03 -0.13960056409E+03 -0.41366078736E+02  0.38282078811E+03  0.00000000000E+00 0. -1.
         -2    1    6    6    0  503 -0.27721815208E+03 -0.13233992540E+03 -0.10765734469E+03  0.32550555074E+03  0.00000000000E+00 0.  1.
<mgrwt>
<rscale>  0 0.24132925E+04</rscale>
<asrwt>0</asrwt>
<pdfrwt beam="1">  1        1 0.20737337E+00 0.24132925E+04</pdfrwt>
<pdfrwt beam="2">  1       -2 0.16618057E+00 0.24132925E+04</pdfrwt>
<totfact> 0.14913223E+00</totfact>
</mgrwt>
</event>
<event>
12    5  0.5221187E-008  0.1081959E+04  0.7818608E-02  0.9222956E-01
          1   -1    0    0  501    0  0.00000000000E+00  0.00000000000E+00  0.12313402092E+04  0.12313402092E+04  0.00000000000E+00 0. -1.
         -2   -1    0    0    0  501 -0.00000000000E+00 -0.00000000000E+00 -0.23767520768E+03  0.23767520768E+03  0.00000000000E+00 0.  1.
        -24    2    1    2    0    0  0.17391877513E+02 -0.96589337609E+02  0.29339478611E+03  0.31938810888E+03  0.79349140087E+02 0.  0.
        254    2    1    2    0    0 -0.17391877513E+02  0.96589337609E+02  0.70027021537E+03  0.11496273080E+04  0.90643951543E+03 0.  0.
         23    2    4    4    0    0 -0.44891959329E+03  0.36720704711E+02  0.40693421333E+03  0.61435223458E+03  0.94636159867E+02 0.  0.
         23    2    4    4    0    0  0.43152771577E+03  0.59868632898E+02  0.29333600204E+03  0.53527507339E+03  0.10331007411E+03 0.  0.
          3    1    3    3  502    0 -0.19560451214E+02 -0.39322087293E+02  0.19374727240E+03  0.19866263706E+03  0.00000000000E+00 0. -1.
         -4    1    3    3    0  502  0.36952328728E+02 -0.57267250316E+02  0.99647513712E+02  0.12072547182E+03  0.00000000000E+00 0.  1.
         13    1    5    5    0    0 -0.33606242818E+03  0.30438122423E+02  0.24556001338E+03  0.41732979177E+03  0.00000000000E+00 0. -1.
        -13    1    5    5    0    0 -0.11285716511E+03  0.62825822889E+01  0.16137419996E+03  0.19702244280E+03  0.00000000000E+00 0.  1.
          4    1    6    6  503    0  0.41927094274E+03  0.63622459293E+02  0.25495743184E+03  0.49481232078E+03  0.00000000000E+00 0. -1.
         -4    1    6    6    0  503  0.12256773037E+02 -0.37538263954E+01  0.38378570195E+02  0.40462752602E+02  0.00000000000E+00 0.  1.
<mgrwt>
<rscale>  0 0.10819594E+04</rscale>
<asrwt>0</asrwt>
<pdfrwt beam="1">  1        1 0.18943695E+00 0.10819594E+04</pdfrwt>
<pdfrwt beam="2">  1       -2 0.36565417E-01 0.10819594E+04</pdfrwt>
<totfact> 0.62443962E+01</totfact>
</mgrwt>
</event>
<event>
12    5  0.5221187E-008  0.2393027E+04  0.7818608E-02  0.8442119E-01
          1   -1    0    0  501    0  0.00000000000E+00  0.00000000000E+00  0.12218427838E+04  0.12218427838E+04  0.00000000000E+00 0. -1.
         -2   -1    0    0    0  501 -0.00000000000E+00 -0.00000000000E+00 -0.11717091032E+04  0.11717091032E+04  0.00000000000E+00 0.  1.
        -24    2    1    2    0    0 -0.90232109460E+03 -0.22538564198E+03  0.33512775063E+03  0.99136453756E+03  0.74236054010E+02 0.  0.
        254    2    1    2    0    0  0.90232109460E+03  0.22538564198E+03 -0.28499407002E+03  0.14021873494E+04  0.10099137079E+04 0.  0.
         23    2    4    4    0    0  0.26525847252E+02 -0.30475952190E+03 -0.18573454104E+03  0.36955155283E+03  0.92136006563E+02 0.  0.
         23    2    4    4    0    0  0.87579524735E+03  0.53014516388E+03 -0.99259528978E+02  0.10326357966E+04  0.91722539027E+02 0.  0.
          1    1    3    3  502    0 -0.75317784590E+03 -0.21231503876E+03  0.26645925974E+03  0.82665293826E+03  0.00000000000E+00 0. -1.
         -2    1    3    3    0  502 -0.14914324870E+03 -0.13070603225E+02  0.68668490893E+02  0.16471159930E+03  0.00000000000E+00 0.  1.
         13    1    5    5    0    0  0.58225381763E+02 -0.18776523895E+03 -0.96232407614E+02  0.21887589249E+03  0.00000000000E+00 0.  1.
        -13    1    5    5    0    0 -0.31699534512E+02 -0.11699428295E+03 -0.89502133428E+02  0.15067566034E+03  0.00000000000E+00 0. -1.
          3    1    6    6  503    0  0.11860767429E+03  0.38694378737E+02 -0.21495997720E+02  0.12659823562E+03  0.00000000000E+00 0. -1.
         -3    1    6    6    0  503  0.75718757306E+03  0.49145078514E+03 -0.77763531258E+02  0.90603756093E+03  0.00000000000E+00 0.  1.
<mgrwt>
<rscale>  0 0.23930268E+04</rscale>
<asrwt>0</asrwt>
<pdfrwt beam="1">  1        1 0.18797581E+00 0.23930268E+04</pdfrwt>
<pdfrwt beam="2">  1       -2 0.18026294E+00 0.23930268E+04</pdfrwt>
<totfact> 0.14633009E+00</totfact>
</mgrwt>
</event>
<event>
12    5  0.5221187E-008  0.2152513E+04  0.7818608E-02  0.8538457E-01
          1   -1    0    0  501    0  0.00000000000E+00  0.00000000000E+00  0.84905093486E+03  0.84905093486E+03  0.00000000000E+00 0. -1.
         -2   -1    0    0    0  501 -0.00000000000E+00 -0.00000000000E+00 -0.13642626506E+04  0.13642626506E+04  0.00000000000E+00 0.  1.
        -24    2    1    2    0    0 -0.46103444222E+03 -0.36145335280E+03 -0.90669898731E+03  0.10832209357E+04  0.89795650499E+02 0.  0.
        254    2    1    2    0    0  0.46103444222E+03  0.36145335280E+03  0.39148727158E+03  0.11300926497E+04  0.88354164019E+03 0.  0.
         23    2    4    4    0    0  0.26444050650E+03 -0.20086128733E+03 -0.94066889007E+02  0.35633369987E+03  0.88606364499E+02 0.  0.
         23    2    4    4    0    0  0.19659393572E+03  0.56231464013E+03  0.48555416059E+03  0.77375894984E+03  0.89961878181E+02 0.  0.
          3    1    3    3  502    0 -0.21416829161E+03 -0.15847160272E+03 -0.33253715813E+03  0.42610124095E+03  0.00000000000E+00 0. -1.
         -4    1    3    3    0  502 -0.24686615061E+03 -0.20298175008E+03 -0.57416182918E+03  0.65711969478E+03  0.00000000000E+00 0.  1.
         13    1    5    5    0    0  0.13474341416E+03 -0.93969283863E+02 -0.11253298883E+01  0.16427805799E+03  0.00000000000E+00 0. -1.
        -13    1    5    5    0    0  0.12969709233E+03 -0.10689200346E+03 -0.92941559119E+02  0.19205564187E+03  0.00000000000E+00 0.  1.
          2    1    6    6  503    0  0.19511520072E+03  0.56283380387E+03  0.47175598707E+03  0.75987205743E+03  0.00000000000E+00 0. -1.
         -2    1    6    6    0  503  0.14787349987E+01 -0.51916374121E+00  0.13798173524E+02  0.13886892409E+02  0.00000000000E+00 0.  1.
<mgrwt>
<rscale>  0 0.21525134E+04</rscale>
<asrwt>0</asrwt>
<pdfrwt beam="1">  1        1 0.13062322E+00 0.21525134E+04</pdfrwt>
<pdfrwt beam="2">  1       -2 0.20988656E+00 0.21525134E+04</pdfrwt>
<totfact> 0.18460310E+00</totfact>
</mgrwt>
</event>
<event>
12    5  0.5221187E-008  0.1646292E+04  0.7818608E-02  0.8792603E-01
         -2   -1    0    0    0  501 -0.00000000000E+00  0.00000000000E+00  0.37927594950E+03  0.37927594950E+03  0.00000000000E+00 0.  1.
          1   -1    0    0  501    0  0.00000000000E+00 -0.00000000000E+00 -0.17864811919E+04  0.17864811919E+04  0.00000000000E+00 0. -1.
        -24    2    1    2    0    0  0.54327500374E+03  0.12644616627E+03 -0.67985671103E+03  0.88265435854E+03  0.75744349390E+02 0.  0.
        254    2    1    2    0    0 -0.54327500374E+03 -0.12644616627E+03 -0.72734853133E+03  0.12831027828E+04  0.89787554962E+03 0.  0.
         23    2    4    4    0    0 -0.58478395805E+03  0.54990568415E+02 -0.76928228697E+02  0.59893818936E+03  0.88389830260E+02 0.  0.
         23    2    4    4    0    0  0.41508954314E+02 -0.18143673468E+03 -0.65042030263E+03  0.68416459346E+03  0.10194282168E+03 0.  0.
          1    1    3    3  502    0  0.17030137697E+03  0.28884075760E+02 -0.26495424547E+03  0.31628721286E+03  0.00000000000E+00 0. -1.
         -2    1    3    3    0  502  0.37297362677E+03  0.97562090509E+02 -0.41490246556E+03  0.56636714567E+03  0.00000000000E+00 0.  1.
         13    1    5    5    0    0 -0.29534690202E+03  0.32431313371E+02  0.54149635769E+01  0.29717150680E+03  0.00000000000E+00 0.  1.
        -13    1    5    5    0    0 -0.28943705603E+03  0.22559255045E+02 -0.82343192274E+02  0.30176668256E+03  0.00000000000E+00 0. -1.
          4    1    6    6  503    0 -0.23351680696E+02 -0.52187130630E+02 -0.10128805520E+03  0.11631022191E+03  0.00000000000E+00 0.  1.
         -4    1    6    6    0  503  0.64860635011E+02 -0.12924960405E+03 -0.54913224743E+03  0.56785437155E+03  0.00000000000E+00 0. -1.
<mgrwt>
<rscale>  0 0.16462920E+04</rscale>
<asrwt>0</asrwt>
<pdfrwt beam="1">  1        1 0.27484326E+00 0.16462920E+04</pdfrwt>
<pdfrwt beam="2">  1       -2 0.58350147E-01 0.16462920E+04</pdfrwt>
<totfact> 0.95920275E+00</totfact>
</mgrwt>
</event>
<event>
12    5  0.5221187E-008  0.1526987E+04  0.7818608E-02  0.8866703E-01
         -2   -1    0    0    0  501 -0.00000000000E+00  0.00000000000E+00  0.12074871482E+04  0.12074871482E+04  0.00000000000E+00 0.  1.
          1   -1    0    0  501    0  0.00000000000E+00 -0.00000000000E+00 -0.48275633957E+03  0.48275633957E+03  0.00000000000E+00 0. -1.
        -24    2    1    2    0    0 -0.38179045894E+03  0.25181785577E+03  0.42007475688E+03  0.62595755275E+03  0.78637582935E+02 0.  0.
        254    2    1    2    0    0  0.38179045894E+03 -0.25181785577E+03  0.30465605171E+03  0.10642859350E+04  0.91143461341E+03 0.  0.
         23    2    4    4    0    0  0.55958371352E+03 -0.43295764791E+03  0.87587777105E+02  0.71863510848E+03  0.90435298015E+02 0.  0.
         23    2    4    4    0    0 -0.17779325458E+03  0.18113979214E+03  0.21706827460E+03  0.34565082649E+03  0.89071838129E+02 0.  0.
          1    1    3    3  502    0 -0.81769504664E+02  0.39852680695E+02  0.47009247944E+02  0.10239315135E+03  0.00000000000E+00 0. -1.
         -2    1    3    3    0  502 -0.30002095428E+03  0.21196517508E+03  0.37306550894E+03  0.52356440140E+03  0.00000000000E+00 0.  1.
         13    1    5    5    0    0  0.91900297903E+02 -0.79839965435E+02 -0.18360041555E+02  0.12311448315E+03  0.00000000000E+00 0. -1.
        -13    1    5    5    0    0  0.46768341561E+03 -0.35311768248E+03  0.10594781866E+03  0.59552062533E+03  0.00000000000E+00 0.  1.
          4    1    6    6  503    0  0.72950522431E+01  0.15054753537E+02  0.30423589576E+02  0.34719709013E+02  0.00000000000E+00 0. -1.
         -4    1    6    6    0  503 -0.18508830682E+03  0.16608503860E+03  0.18664468503E+03  0.31093111748E+03  0.00000000000E+00 0.  1.
<mgrwt>
<rscale>  0 0.15269867E+04</rscale>
<asrwt>0</asrwt>
<pdfrwt beam="1">  1        1 0.74270207E-01 0.15269867E+04</pdfrwt>
<pdfrwt beam="2">  1       -2 0.18576725E+00 0.15269867E+04</pdfrwt>
<totfact> 0.64944760E+00</totfact>
</mgrwt>
</event>
<event>
12    5  0.5221187E-008  0.1686129E+04  0.7818608E-02  0.8769315E-01
          1   -1    0    0  501    0  0.00000000000E+00  0.00000000000E+00  0.40640567951E+03  0.40640567951E+03  0.00000000000E+00 0. -1.
         -2   -1    0    0    0  501 -0.00000000000E+00 -0.00000000000E+00 -0.17488866250E+04  0.17488866250E+04  0.00000000000E+00 0.  1.
        -24    2    1    2    0    0 -0.40389540608E+03  0.55426140386E+02 -0.10395700399E+04  0.11195227939E+04  0.80136521229E+02 0.  0.
        254    2    1    2    0    0  0.40389540608E+03 -0.55426140386E+02 -0.30291090559E+03  0.10357695106E+04  0.90269591023E+03 0.  0.
         23    2    4    4    0    0 -0.21722118569E+02  0.20821843529E+03 -0.44973509246E+03  0.50543034972E+03  0.96806083491E+02 0.  0.
         23    2    4    4    0    0  0.42561752465E+03 -0.26364457567E+03  0.14682418687E+03  0.53033916091E+03  0.95097550842E+02 0.  0.
          3    1    3    3  502    0 -0.16667281412E+03 -0.16597843080E+02 -0.42924778743E+03  0.46076998424E+03  0.00000000000E+00 0. -1.
         -4    1    3    3    0  502 -0.23722259197E+03  0.72023983467E+02 -0.61032225247E+03  0.65875280963E+03  0.00000000000E+00 0.  1.
         13    1    5    5    0    0  0.24619163786E+02  0.14126906449E+03 -0.22939810101E+03  0.27053011026E+03  0.00000000000E+00 0. -1.
        -13    1    5    5    0    0 -0.46341282355E+02  0.66949370797E+02 -0.22033699144E+03  0.23490023946E+03  0.00000000000E+00 0.  1.
          2    1    6    6  503    0  0.78524796705E+02 -0.89268304266E+01  0.20060413954E+02  0.81536815041E+02  0.00000000000E+00 0.  1.
         -2    1    6    6    0  503  0.34709272795E+03 -0.25471774525E+03  0.12676377291E+03  0.44880234587E+03  0.00000000000E+00 0. -1.
<mgrwt>
<rscale>  0 0.16861287E+04</rscale>
<asrwt>0</asrwt>
<pdfrwt beam="1">  1        1 0.62523951E-01 0.16861287E+04</pdfrwt>
<pdfrwt beam="2">  1       -2 0.26905948E+00 0.16861287E+04</pdfrwt>
<totfact> 0.24052195E+00</totfact>
</mgrwt>
</event>
<event>
12    5  0.5221187E-008  0.2569924E+04  0.7818608E-02  0.8378490E-01
          1   -1    0    0  501    0  0.00000000000E+00  0.00000000000E+00  0.23305749135E+04  0.23305749135E+04  0.00000000000E+00 0. -1.
         -2   -1    0    0    0  501 -0.00000000000E+00 -0.00000000000E+00 -0.70846340353E+03  0.70846340353E+03  0.00000000000E+00 0.  1.
        -24    2    1    2    0    0  0.97217669784E+03 -0.37165253343E+03  0.21101504034E+03  0.10652153761E+04  0.83086176482E+02 0.  0.
        254    2    1    2    0    0 -0.97217669784E+03  0.37165253343E+03  0.14110964696E+04  0.19738229410E+04  0.90638326237E+03 0.  0.
         23    2    4    4    0    0 -0.10715538502E+04  0.12136423433E+03  0.99939432270E+03  0.14725113045E+04  0.80892511396E+02 0.  0.
         23    2    4    4    0    0  0.99377152323E+02  0.25028829910E+03  0.41170214694E+03  0.50131163650E+03  0.96408754943E+02 0.  0.
          3    1    3    3  502    0  0.17146633832E+03 -0.49525425763E+02  0.83949794625E+01  0.17867274178E+03  0.00000000000E+00 0. -1.
         -4    1    3    3    0  502  0.80071035952E+03 -0.32212710767E+03  0.20262006087E+03  0.88654263429E+03  0.00000000000E+00 0.  1.
         13    1    5    5    0    0 -0.64383130518E+03  0.95469202946E+02  0.64667720133E+03  0.91750995688E+03  0.00000000000E+00 0. -1.
        -13    1    5    5    0    0 -0.42772254498E+03  0.25895031382E+02  0.35271712137E+03  0.55500134761E+03  0.00000000000E+00 0.  1.
          2    1    6    6  503    0  0.29184581398E+02  0.17858375495E+03  0.30649492277E+03  0.35592560319E+03  0.00000000000E+00 0.  1.
         -2    1    6    6    0  503  0.70192570925E+02  0.71704544154E+02  0.10520722417E+03  0.14538603331E+03  0.00000000000E+00 0. -1.
<mgrwt>
<rscale>  0 0.25699238E+04</rscale>
<asrwt>0</asrwt>
<pdfrwt beam="1">  1        1 0.35854998E+00 0.25699238E+04</pdfrwt>
<pdfrwt beam="2">  1       -2 0.10899437E+00 0.25699238E+04</pdfrwt>
<totfact> 0.92466978E-01</totfact>
</mgrwt>
</event>
<event>
12    5  0.5221187E-008  0.1699898E+04  0.7818608E-02  0.8761422E-01
         -2   -1    0    0    0  501 -0.00000000000E+00  0.00000000000E+00  0.11965175812E+04  0.11965175812E+04  0.00000000000E+00 0.  1.
          3   -1    0    0  501    0  0.00000000000E+00 -0.00000000000E+00 -0.60376354851E+03  0.60376354851E+03  0.00000000000E+00 0. -1.
        -24    2    1    2    0    0 -0.12489290328E+03  0.57156476500E+03  0.76601482897E+02  0.59548124042E+03  0.80284510494E+02 0.  0.
        254    2    1    2    0    0  0.12489290328E+03 -0.57156476500E+03  0.51615254978E+03  0.12047998893E+04  0.91806579321E+03 0.  0.
         23    2    4    4    0    0 -0.14277290451E+03  0.20237249832E+03  0.10288844141E+03  0.28284885135E+03  0.89881649959E+02 0.  0.
         23    2    4    4    0    0  0.26766580779E+03 -0.77393726332E+03  0.41326410837E+03  0.92195103792E+03  0.92642435377E+02 0.  0.
          1    1    3    3  502    0 -0.12875067725E+03  0.44450284038E+03  0.71444930248E+02  0.46825622266E+03  0.00000000000E+00 0. -1.
         -2    1    3    3    0  502  0.38577739748E+01  0.12706192462E+03  0.51565526492E+01  0.12722501776E+03  0.00000000000E+00 0.  1.
         13    1    5    5    0    0 -0.10758761915E+03  0.93221493170E+02  0.87606122479E+02  0.16715314918E+03  0.00000000000E+00 0. -1.
        -13    1    5    5    0    0 -0.35185285353E+02  0.10915100515E+03  0.15282318933E+02  0.11569570218E+03  0.00000000000E+00 0.  1.
          4    1    6    6  503    0  0.75772351961E+02 -0.18370346746E+03  0.58876311400E+02  0.20725547839E+03  0.00000000000E+00 0. -1.
         -4    1    6    6    0  503  0.19189345583E+03 -0.59023379587E+03  0.35438779697E+03  0.71469555953E+03  0.00000000000E+00 0.  1.
<mgrwt>
<rscale>  0 0.16998985E+04</rscale>
<asrwt>0</asrwt>
<pdfrwt beam="1">  1        3 0.92886700E-01 0.16998985E+04</pdfrwt>
<pdfrwt beam="2">  1       -2 0.18407963E+00 0.16998985E+04</pdfrwt>
<totfact> 0.69981769E-01</totfact>
</mgrwt>
</event>
<event>
12    5  0.5221187E-008  0.4137004E+04  0.7818608E-02  0.7977465E-01
         -2   -1    0    0    0  501 -0.00000000000E+00  0.00000000000E+00  0.14953191508E+04  0.14953191508E+04  0.00000000000E+00 0.  1.
          1   -1    0    0  501    0  0.00000000000E+00 -0.00000000000E+00 -0.28613963772E+04  0.28613963772E+04  0.00000000000E+00 0. -1.
        -24    2    1    2    0    0 -0.12884410391E+04 -0.96810372115E+03  0.53869327373E+03  0.17012085981E+04  0.81333418732E+02 0.  0.
        254    2    1    2    0    0  0.12884410391E+04  0.96810372115E+03 -0.19047705002E+04  0.26555069299E+04  0.90898914742E+03 0.  0.
         23    2    4    4    0    0  0.85896773282E+03  0.32562525696E+03 -0.15405733091E+04  0.17959216550E+04  0.90061624567E+02 0.  0.
         23    2    4    4    0    0  0.42947330631E+03  0.64247846419E+03 -0.36419719107E+03  0.85958527488E+03  0.94980803434E+02 0.  0.
          1    1    3    3  502    0 -0.28551499370E+03 -0.25783155385E+03  0.12969979028E+03  0.40597777942E+03  0.00000000000E+00 0. -1.
         -2    1    3    3    0  502 -0.10029260454E+04 -0.71027216730E+03  0.40899348345E+03  0.12952308187E+04  0.00000000000E+00 0.  1.
         13    1    5    5    0    0  0.57737584515E+03  0.25176422798E+03 -0.11076640787E+04  0.12742322411E+04  0.00000000000E+00 0.  1.
        -13    1    5    5    0    0  0.28159188767E+03  0.73861028978E+02 -0.43290923041E+03  0.52168941390E+03  0.00000000000E+00 0. -1.
          1    1    6    6  503    0  0.19847810472E+03  0.28545255367E+03 -0.21578313370E+03  0.40919320527E+03  0.00000000000E+00 0. -1.
         -1    1    6    6    0  503  0.23099520159E+03  0.35702591052E+03 -0.14841405738E+03  0.45039206961E+03  0.00000000000E+00 0.  1.
<mgrwt>
<rscale>  0 0.41370041E+04</rscale>
<asrwt>0</asrwt>
<pdfrwt beam="1">  1        1 0.44021483E+00 0.41370041E+04</pdfrwt>
<pdfrwt beam="2">  1       -2 0.23004910E+00 0.41370041E+04</pdfrwt>
<totfact> 0.43830278E-02</totfact>
</mgrwt>
</event>
<event>
12    5  0.5221187E-008  0.1894627E+04  0.7818608E-02  0.8657536E-01
         -2   -1    0    0    0  501 -0.00000000000E+00  0.00000000000E+00  0.27478209408E+03  0.27478209408E+03  0.00000000000E+00 0.  1.
          1   -1    0    0  501    0  0.00000000000E+00 -0.00000000000E+00 -0.32658707403E+04  0.32658707403E+04  0.00000000000E+00 0. -1.
        -24    2    1    2    0    0 -0.49954161413E+03 -0.53122422470E+03 -0.10495382411E+04  0.12805032671E+04  0.80106780802E+02 0.  0.
        254    2    1    2    0    0  0.49954161413E+03  0.53122422470E+03 -0.19415504051E+04  0.22601495673E+04  0.89828563928E+03 0.  0.
         23    2    4    4    0    0  0.23443663628E+03 -0.36210945284E+01 -0.14778613795E+04  0.14989359228E+04  0.88096507797E+02 0.  0.
         23    2    4    4    0    0  0.26510497786E+03  0.53484531923E+03 -0.46368902560E+03  0.76121364454E+03  0.89991862886E+02 0.  0.
          1    1    3    3  502    0 -0.21100144492E+03 -0.17166169785E+03 -0.36546572880E+03  0.45558154835E+03  0.00000000000E+00 0. -1.
         -4    1    3    3    0  502 -0.28854016921E+03 -0.35956252685E+03 -0.68407251227E+03  0.82492171872E+03  0.00000000000E+00 0.  1.
         13    1    5    5    0    0  0.14650943508E+03  0.34618699939E+02 -0.76671597468E+03  0.78135577990E+03  0.00000000000E+00 0. -1.
        -13    1    5    5    0    0  0.87927201195E+02 -0.38239794468E+02 -0.71114540485E+03  0.71758014286E+03  0.00000000000E+00 0.  1.
          1    1    6    6  503    0  0.11779499805E+03  0.32806764215E+03 -0.24416253368E+03  0.42558122872E+03  0.00000000000E+00 0. -1.
         -1    1    6    6    0  503  0.14730997981E+03  0.20677767708E+03 -0.21952649193E+03  0.33563241582E+03  0.00000000000E+00 0.  1.
<mgrwt>
<rscale>  0 0.18946269E+04</rscale>
<asrwt>0</asrwt>
<pdfrwt beam="1">  1        1 0.50244165E+00 0.18946269E+04</pdfrwt>
<pdfrwt beam="2">  1       -2 0.42274169E-01 0.18946269E+04</pdfrwt>
<totfact> 0.16598681E+00</totfact>
</mgrwt>
</event>
<event>
12    5  0.5221187E-008  0.1588948E+04  0.7818608E-02  0.8827367E-01
         -2   -1    0    0    0  501 -0.00000000000E+00  0.00000000000E+00  0.64393750038E+03  0.64393750038E+03  0.00000000000E+00 0.  1.
          1   -1    0    0  501    0  0.00000000000E+00 -0.00000000000E+00 -0.98020225922E+03  0.98020225922E+03  0.00000000000E+00 0. -1.
        -24    2    1    2    0    0  0.23098023557E+03  0.43885899607E+03 -0.34324681888E+03  0.60862874586E+03  0.81617914413E+02 0.  0.
        254    2    1    2    0    0 -0.23098023557E+03 -0.43885899607E+03  0.69820600477E+01  0.10155110137E+04  0.88615166998E+03 0.  0.
         23    2    4    4    0    0 -0.48964140892E+03 -0.14158697597E+03 -0.20583075775E+03  0.55826927269E+03  0.97481787535E+02 0.  0.
         23    2    4    4    0    0  0.25866117334E+03 -0.29727202010E+03  0.21281281780E+03  0.45724174106E+03  0.92219617288E+02 0.  0.
          3    1    3    3  502    0  0.99080310160E+02  0.24066899361E+03 -0.21867705334E+03  0.33993841502E+03  0.00000000000E+00 0. -1.
         -4    1    3    3    0  502  0.13189992541E+03  0.19819000246E+03 -0.12456976554E+03  0.26869033084E+03  0.00000000000E+00 0.  1.
         13    1    5    5    0    0 -0.41073295028E+03 -0.79175833921E+02 -0.16323127681E+03  0.44901538821E+03  0.00000000000E+00 0.  1.
        -13    1    5    5    0    0 -0.78908458632E+02 -0.62411142049E+02 -0.42599480946E+02  0.10925388447E+03  0.00000000000E+00 0. -1.
          4    1    6    6  503    0  0.59567693724E+02 -0.36406301524E+02  0.71558229183E+02  0.99971541401E+02  0.00000000000E+00 0. -1.
         -4    1    6    6    0  503  0.19909347962E+03 -0.26086571858E+03  0.14125458862E+03  0.35727019965E+03  0.00000000000E+00 0.  1.
<mgrwt>
<rscale>  0 0.15889481E+04</rscale>
<asrwt>0</asrwt>
<pdfrwt beam="1">  1        1 0.15080035E+00 0.15889481E+04</pdfrwt>
<pdfrwt beam="2">  1       -2 0.99067308E-01 0.15889481E+04</pdfrwt>
<totfact> 0.11150877E+01</totfact>
</mgrwt>
</event>
<event>
12    5  0.5221187E-008  0.2093399E+04  0.7818608E-02  0.8564157E-01
          1   -1    0    0  501    0  0.00000000000E+00  0.00000000000E+00  0.80898262355E+03  0.80898262355E+03  0.00000000000E+00 0. -1.
         -2   -1    0    0    0  501 -0.00000000000E+00 -0.00000000000E+00 -0.13542681527E+04  0.13542681527E+04  0.00000000000E+00 0.  1.
        -24    2    1    2    0    0 -0.34806829643E+03 -0.76544548937E+03 -0.80231122229E+02  0.84843220153E+03  0.79635616639E+02 0.  0.
        254    2    1    2    0    0  0.34806829643E+03  0.76544548937E+03 -0.46505440688E+03  0.13148185747E+04  0.89744857611E+03 0.  0.
         23    2    4    4    0    0  0.14179500132E+03  0.29816877762E+03 -0.67385761342E+03  0.75588065582E+03  0.90890265309E+02 0.  0.
         23    2    4    4    0    0  0.20627329512E+03  0.46727671175E+03  0.20880320654E+03  0.55893791886E+03  0.88975392398E+02 0.  0.
          3    1    3    3  502    0 -0.31751483672E+03 -0.71540827449E+03 -0.93656056076E+02  0.78828683078E+03  0.00000000000E+00 0. -1.
         -4    1    3    3    0  502 -0.30553459710E+02 -0.50037214882E+02  0.13424933847E+02  0.60145370746E+02  0.00000000000E+00 0.  1.
         13    1    5    5    0    0  0.14610481307E+03  0.23172942318E+03 -0.57166207970E+03  0.63391062094E+03  0.00000000000E+00 0. -1.
        -13    1    5    5    0    0 -0.43098117554E+01  0.66439354448E+02 -0.10219553371E+03  0.12197003488E+03  0.00000000000E+00 0.  1.
          1    1    6    6  503    0  0.19662970401E+03  0.45138891007E+03  0.21769293858E+03  0.53833577268E+03  0.00000000000E+00 0. -1.
         -1    1    6    6    0  503  0.96435911068E+01  0.15887801674E+02 -0.88897320373E+01  0.20602146179E+02  0.00000000000E+00 0.  1.
<mgrwt>
<rscale>  0 0.20933986E+04</rscale>
<asrwt>0</asrwt>
<pdfrwt beam="1">  1        1 0.12445887E+00 0.20933986E+04</pdfrwt>
<pdfrwt beam="2">  1       -2 0.20834894E+00 0.20933986E+04</pdfrwt>
<totfact> 0.20539784E+00</totfact>
</mgrwt>
</event>
<event>
12    5  0.5221187E-008  0.1509079E+04  0.7818608E-02  0.8878438E-01
         -4   -1    0    0    0  501 -0.00000000000E+00  0.00000000000E+00  0.27168230094E+03  0.27168230094E+03  0.00000000000E+00 0.  1.
          1   -1    0    0  501    0  0.00000000000E+00 -0.00000000000E+00 -0.20955724363E+04  0.20955724363E+04  0.00000000000E+00 0. -1.
        -24    2    1    2    0    0 -0.33247435557E+03  0.35685660269E+03 -0.68480697849E+03  0.84434210095E+03  0.77891935827E+02 0.  0.
        254    2    1    2    0    0  0.33247435557E+03 -0.35685660269E+03 -0.11390831569E+04  0.15229126363E+04  0.88536242718E+03 0.  0.
         23    2    4    4    0    0  0.17562666180E+03  0.86779664485E+02 -0.99896092712E+03  0.10229463894E+04  0.10060291844E+03 0.  0.
         23    2    4    4    0    0  0.15684769377E+03 -0.44363626717E+03 -0.14012222974E+03  0.49996624685E+03  0.94433426967E+02 0.  0.
          3    1    3    3  502    0 -0.31674260235E+03  0.35154293989E+03 -0.67704275927E+03  0.82601162982E+03  0.00000000000E+00 0. -1.
         -4    1    3    3    0  502 -0.15731753222E+02  0.53136627972E+01 -0.77642192194E+01  0.18330471130E+02  0.00000000000E+00 0.  1.
         13    1    5    5    0    0  0.12531777384E+03  0.34059260784E+02 -0.42556587245E+03  0.44493919751E+03  0.00000000000E+00 0.  1.
        -13    1    5    5    0    0  0.50308887960E+02  0.52720403701E+02 -0.57339505467E+03  0.57800719190E+03  0.00000000000E+00 0. -1.
          4    1    6    6  503    0  0.20727603801E+02 -0.15319610827E+02  0.76227716673E+01  0.26878070674E+02  0.00000000000E+00 0. -1.
         -4    1    6    6    0  503  0.13612008997E+03 -0.42831665634E+03 -0.14774500140E+03  0.47308817617E+03  0.00000000000E+00 0.  1.
<mgrwt>
<rscale>  0 0.15090791E+04</rscale>
<asrwt>0</asrwt>
<pdfrwt beam="1">  1        1 0.32239577E+00 0.15090791E+04</pdfrwt>
<pdfrwt beam="2">  1       -4 0.41797276E-01 0.15090791E+04</pdfrwt>
<totfact> 0.68613437E+00</totfact>
</mgrwt>
</event>
<event>
12    5  0.5221187E-008  0.1002983E+04  0.7818608E-02  0.9305279E-01
          1   -1    0    0  501    0  0.00000000000E+00  0.00000000000E+00  0.25400305202E+04  0.25400305202E+04  0.00000000000E+00 0. -1.
         -2   -1    0    0    0  501 -0.00000000000E+00 -0.00000000000E+00 -0.99012154462E+02  0.99012154462E+02  0.00000000000E+00 0.  1.
        -24    2    1    2    0    0  0.34802951082E+02 -0.12336092888E+02  0.52384156935E+03  0.53085282575E+03  0.77661497768E+02 0.  0.
        254    2    1    2    0    0 -0.34802951082E+02  0.12336092888E+02  0.19171767963E+04  0.21081898489E+04  0.87609026124E+03 0.  0.
         23    2    4    4    0    0  0.22071867449E+03  0.24571131983E+03  0.30879338265E+03  0.46028873328E+03  0.86148585895E+02 0.  0.
         23    2    4    4    0    0 -0.25552162557E+03 -0.23337522694E+03  0.16083834137E+04  0.16479011156E+04  0.94475307088E+02 0.  0.
          1    1    3    3  502    0  0.15962421295E+02  0.21011406776E+02  0.40781499443E+03  0.40866777190E+03  0.00000000000E+00 0. -1.
         -2    1    3    3    0  502  0.18840529787E+02 -0.33347499663E+02  0.11602657492E+03  0.12218505385E+03  0.00000000000E+00 0.  1.
         13    1    5    5    0    0  0.87413626062E+02  0.74394968850E+02  0.16081194818E+03  0.19757589956E+03  0.00000000000E+00 0. -1.
        -13    1    5    5    0    0  0.13330504843E+03  0.17131635098E+03  0.14798143447E+03  0.26271283371E+03  0.00000000000E+00 0.  1.
          2    1    6    6  503    0 -0.67595807477E+02 -0.30799221910E+02  0.21747696521E+03  0.22981300150E+03  0.00000000000E+00 0. -1.
         -2    1    6    6    0  503 -0.18792581809E+03 -0.20257600503E+03  0.13909064485E+04  0.14180881141E+04  0.00000000000E+00 0.  1.
<mgrwt>
<rscale>  0 0.10029833E+04</rscale>
<asrwt>0</asrwt>
<pdfrwt beam="1">  1        1 0.39077388E+00 0.10029833E+04</pdfrwt>
<pdfrwt beam="2">  1       -2 0.15232641E-01 0.10029833E+04</pdfrwt>
<totfact> 0.38764441E+01</totfact>
</mgrwt>
</event>
<event>
12    5  0.5221187E-008  0.1192915E+04  0.7818608E-02  0.9119080E-01
         -2   -1    0    0    0  501 -0.00000000000E+00  0.00000000000E+00  0.43580606311E+03  0.43580606311E+03  0.00000000000E+00 0.  1.
          1   -1    0    0  501    0  0.00000000000E+00 -0.00000000000E+00 -0.81633058354E+03  0.81633058354E+03  0.00000000000E+00 0. -1.
        -24    2    1    2    0    0  0.25751111490E+03  0.22875153758E+01 -0.38925295975E+02  0.27234866751E+03  0.79632976835E+02 0.  0.
        254    2    1    2    0    0 -0.25751111490E+03 -0.22875153758E+01 -0.34159922445E+03  0.97978797914E+03  0.88146312850E+03 0.  0.
         23    2    4    4    0    0 -0.45354627658E+03 -0.27284225196E+03 -0.74900838943E+02  0.54229475091E+03  0.91248790368E+02 0.  0.
         23    2    4    4    0    0  0.19603516167E+03  0.27055473658E+03 -0.26669838551E+03  0.43749322823E+03  0.92965831420E+02 0.  0.
          1    1    3    3  502    0  0.26186413405E+03  0.23272004604E+01 -0.44126456684E+02  0.26556615888E+03  0.00000000000E+00 0. -1.
         -2    1    3    3    0  502 -0.43530191424E+01 -0.39685084616E-01  0.52011607089E+01  0.67825086273E+01  0.00000000000E+00 0.  1.
         13    1    5    5    0    0 -0.37631691670E+03 -0.18288035267E+03 -0.63331003597E+02  0.42316717879E+03  0.00000000000E+00 0.  1.
        -13    1    5    5    0    0 -0.77229359872E+02 -0.89961899284E+02 -0.11569835346E+02  0.11912757212E+03  0.00000000000E+00 0. -1.
          4    1    6    6  503    0  0.91521736782E+01  0.37072842286E+02 -0.22054092745E+01  0.38249467294E+02  0.00000000000E+00 0. -1.
         -4    1    6    6    0  503  0.18688298799E+03  0.23348189430E+03 -0.26449297624E+03  0.39924376093E+03  0.00000000000E+00 0.  1.
<mgrwt>
<rscale>  0 0.11929155E+04</rscale>
<asrwt>0</asrwt>
<pdfrwt beam="1">  1        1 0.12558932E+00 0.11929155E+04</pdfrwt>
<pdfrwt beam="2">  1       -2 0.67047087E-01 0.11929155E+04</pdfrwt>
<totfact> 0.37915299E+01</totfact>
</mgrwt>
</event>
<event>
12    5  0.5221187E-008  0.1832199E+04  0.7818608E-02  0.8689361E-01
          3   -1    0    0  501    0  0.00000000000E+00  0.00000000000E+00  0.26183358955E+04  0.26183358955E+04  0.00000000000E+00 0. -1.
         -4   -1    0    0    0  501 -0.00000000000E+00 -0.00000000000E+00 -0.32052363707E+03  0.32052363707E+03  0.00000000000E+00 0.  1.
        -24    2    1    2    0    0 -0.10471685288E+03  0.80731120357E+02  0.19556468542E+04  0.19618291625E+04  0.82072596341E+02 0.  0.
        254    2    1    2    0    0  0.10471685288E+03 -0.80731120357E+02  0.34216540416E+03  0.97703037009E+03  0.90555400016E+03 0.  0.
         23    2    4    4    0    0 -0.13168893084E+03  0.36697972372E+03  0.14264539586E+03  0.42508103619E+03  0.91269306172E+02 0.  0.
         23    2    4    4    0    0  0.23640578372E+03 -0.44771084407E+03  0.19952000830E+03  0.55194933389E+03  0.92234153091E+02 0.  0.
          3    1    3    3  502    0 -0.10597619999E+03  0.52010126059E+02  0.17737915732E+04  0.17777155435E+04  0.00000000000E+00 0. -1.
         -2    1    3    3    0  502  0.12593471073E+01  0.28720994298E+02  0.18185528100E+03  0.18411361899E+03  0.00000000000E+00 0.  1.
         13    1    5    5    0    0 -0.14190341024E+03  0.34017350738E+03  0.14547716512E+03  0.39625521893E+03  0.00000000000E+00 0. -1.
        -13    1    5    5    0    0  0.10214479402E+02  0.26806216334E+02 -0.28317692590E+01  0.28825817260E+02  0.00000000000E+00 0.  1.
          4    1    6    6  503    0  0.77548330140E+02 -0.16983040081E+03  0.27934821433E+02  0.18877622412E+03  0.00000000000E+00 0.  1.
         -4    1    6    6    0  503  0.15885745358E+03 -0.27788044327E+03  0.17158518687E+03  0.36317310977E+03  0.00000000000E+00 0. -1.
<mgrwt>
<rscale>  0 0.18321993E+04</rscale>
<asrwt>0</asrwt>
<pdfrwt beam="1">  1        3 0.40282089E+00 0.18321993E+04</pdfrwt>
<pdfrwt beam="2">  1       -4 0.49311330E-01 0.18321993E+04</pdfrwt>
<totfact> 0.92700787E-02</totfact>
</mgrwt>
</event>
<event>
12    5  0.5221187E-008  0.2254704E+04  0.7818608E-02  0.8495998E-01
          1   -1    0    0  501    0  0.00000000000E+00  0.00000000000E+00  0.93799458491E+03  0.93799458491E+03  0.00000000000E+00 0. -1.
         -4   -1    0    0    0  501 -0.00000000000E+00 -0.00000000000E+00 -0.13549357091E+04  0.13549357091E+04  0.00000000000E+00 0.  1.
        -24    2    1    2    0    0  0.21300897855E+03  0.68738323974E+03  0.44822258684E+03  0.85153382781E+03  0.79610485079E+02 0.  0.
        254    2    1    2    0    0 -0.21300897855E+03 -0.68738323974E+03 -0.86516371104E+03  0.14413964662E+04  0.90069250174E+03 0.  0.
         23    2    4    4    0    0 -0.11914069396E+03 -0.82986906386E+03 -0.39185727472E+03  0.92973091650E+03  0.89276453910E+02 0.  0.
         23    2    4    4    0    0 -0.93868284584E+02  0.14248582413E+03 -0.47330643632E+03  0.51166554971E+03  0.93108469904E+02 0.  0.
          1    1    3    3  502    0  0.66020117846E+02  0.27655611495E+03  0.13720387851E+03  0.31570056217E+03  0.00000000000E+00 0. -1.
         -4    1    3    3    0  502  0.14698886070E+03  0.41082712478E+03  0.31101870834E+03  0.53583326564E+03  0.00000000000E+00 0.  1.
         13    1    5    5    0    0 -0.35386244722E+02 -0.39141359354E+03 -0.14002077539E+03  0.41720810762E+03  0.00000000000E+00 0. -1.
        -13    1    5    5    0    0 -0.83754449240E+02 -0.43845547033E+03 -0.25183649933E+03  0.51252280888E+03  0.00000000000E+00 0.  1.
          1    1    6    6  503    0 -0.10869241898E+03  0.12057496466E+03 -0.44088211323E+03  0.46981847751E+03  0.00000000000E+00 0. -1.
         -1    1    6    6    0  503  0.14824134401E+02  0.21910859472E+02 -0.32424323099E+02  0.41847072203E+02  0.00000000000E+00 0.  1.
<mgrwt>
<rscale>  0 0.22547038E+04</rscale>
<asrwt>0</asrwt>
<pdfrwt beam="1">  1        1 0.14430686E+00 0.22547038E+04</pdfrwt>
<pdfrwt beam="2">  1       -4 0.20845165E+00 0.22547038E+04</pdfrwt>
<totfact> 0.85890341E-01</totfact>
</mgrwt>
</event>
<event>
12    5  0.5221187E-008  0.3630987E+04  0.7818608E-02  0.8083430E-01
         -2   -1    0    0    0  501 -0.00000000000E+00  0.00000000000E+00  0.23447546547E+04  0.23447546547E+04  0.00000000000E+00 0.  1.
          1   -1    0    0  501    0  0.00000000000E+00 -0.00000000000E+00 -0.14056978386E+04  0.14056978386E+04  0.00000000000E+00 0. -1.
        -24    2    1    2    0    0 -0.74049661475E+03  0.15211684488E+04  0.68424594109E+03  0.18267048064E+04  0.79807617139E+02 0.  0.
        254    2    1    2    0    0  0.74049661475E+03 -0.15211684488E+04  0.25481087504E+03  0.19237476870E+04  0.87953845579E+03 0.  0.
         23    2    4    4    0    0  0.43861494163E+03 -0.71404053821E+03 -0.29975474608E+03  0.89494976039E+03  0.94048969126E+02 0.  0.
         23    2    4    4    0    0  0.30188167311E+03 -0.80712791055E+03  0.55456562112E+03  0.10287979266E+04  0.91072153252E+02 0.  0.
          1    1    3    3  502    0 -0.43124450470E+03  0.87524201311E+03  0.35226771202E+03  0.10373586387E+04  0.00000000000E+00 0. -1.
         -2    1    3    3    0  502 -0.30925211005E+03  0.64592643565E+03  0.33197822907E+03  0.78934616767E+03  0.00000000000E+00 0.  1.
         13    1    5    5    0    0  0.24295606778E+02 -0.89248084970E+02 -0.47386342251E+02  0.10392767972E+03  0.00000000000E+00 0. -1.
        -13    1    5    5    0    0  0.41431933486E+03 -0.62479245324E+03 -0.25236840383E+03  0.79102208067E+03  0.00000000000E+00 0.  1.
          1    1    6    6  503    0  0.14338381388E+03 -0.26468206649E+03  0.17824532058E+03  0.34983840372E+03  0.00000000000E+00 0. -1.
         -1    1    6    6    0  503  0.15849785923E+03 -0.54244584406E+03  0.37632030054E+03  0.67895952289E+03  0.00000000000E+00 0.  1.
<mgrwt>
<rscale>  0 0.36309869E+04</rscale>
<asrwt>0</asrwt>
<pdfrwt beam="1">  1        1 0.21626121E+00 0.36309869E+04</pdfrwt>
<pdfrwt beam="2">  1       -2 0.36073148E+00 0.36309869E+04</pdfrwt>
<totfact> 0.71727047E-02</totfact>
</mgrwt>
</event>
<event>
12    5  0.5221187E-008  0.1408296E+04  0.7818608E-02  0.8947836E-01
          1   -1    0    0  501    0  0.00000000000E+00  0.00000000000E+00  0.13862699179E+04  0.13862699179E+04  0.00000000000E+00 0. -1.
         -2   -1    0    0    0  501 -0.00000000000E+00 -0.00000000000E+00 -0.35766780416E+03  0.35766780416E+03  0.00000000000E+00 0.  1.
        -24    2    1    2    0    0 -0.65140398539E+02 -0.25281390531E+03 -0.69334228644E+02  0.28354076094E+03  0.86197364330E+02 0.  0.
        254    2    1    2    0    0  0.65140398539E+02  0.25281390531E+03  0.10979363423E+04  0.14603969611E+04  0.92689639651E+03 0.  0.
         23    2    4    4    0    0  0.29515920289E+03 -0.21801888135E+03  0.22852126243E+03  0.44131970005E+03  0.88825236238E+02 0.  0.
         23    2    4    4    0    0 -0.23001880436E+03  0.47083278665E+03  0.86941507990E+03  0.10190772610E+04  0.89686785156E+02 0.  0.
          3    1    3    3  502    0 -0.83245035491E+02 -0.16355218375E+03 -0.39718255687E+02  0.18776738955E+03  0.00000000000E+00 0. -1.
         -2    1    3    3    0  502  0.18104636952E+02 -0.89261721553E+02 -0.29615972957E+02  0.95773371393E+02  0.00000000000E+00 0.  1.
         13    1    5    5    0    0  0.27358727445E+03 -0.22549130390E+03  0.21134775948E+03  0.41275198402E+03  0.00000000000E+00 0.  1.
        -13    1    5    5    0    0  0.21571928440E+02  0.74724225523E+01  0.17173502955E+02  0.28567716030E+02  0.00000000000E+00 0. -1.
          3    1    6    6  503    0 -0.12057950117E+03  0.14933593260E+03  0.30534460768E+03  0.36066045848E+03  0.00000000000E+00 0. -1.
         -3    1    6    6    0  503 -0.10943930319E+03  0.32149685405E+03  0.56407047222E+03  0.65841680254E+03  0.00000000000E+00 0.  1.
<mgrwt>
<rscale>  0 0.14082956E+04</rscale>
<asrwt>0</asrwt>
<pdfrwt beam="1">  1        1 0.21327229E+00 0.14082956E+04</pdfrwt>
<pdfrwt beam="2">  1       -2 0.55025817E-01 0.14082956E+04</pdfrwt>
<totfact> 0.20857759E+01</totfact>
</mgrwt>
</event>
<event>
12    5  0.5221187E-008  0.1819388E+04  0.7818608E-02  0.8696056E-01
          1   -1    0    0  501    0  0.00000000000E+00  0.00000000000E+00  0.89049860697E+03  0.89049860697E+03  0.00000000000E+00 0. -1.
         -2   -1    0    0    0  501 -0.00000000000E+00 -0.00000000000E+00 -0.92930356002E+03  0.92930356002E+03  0.00000000000E+00 0.  1.
        -24    2    1    2    0    0 -0.38900427901E+03  0.26291801659E+03  0.48367765176E+03  0.67907224581E+03  0.82126924239E+02 0.  0.
        254    2    1    2    0    0  0.38900427901E+03 -0.26291801659E+03 -0.52248260480E+03  0.11407299212E+04  0.89879167120E+03 0.  0.
         23    2    4    4    0    0 -0.16011831820E+03 -0.17375535429E+03  0.12445737249E+03  0.28231480829E+03  0.91559895382E+02 0.  0.
         23    2    4    4    0    0  0.54912259720E+03 -0.89162662299E+02 -0.64693997729E+03  0.85841511289E+03  0.94125260756E+02 0.  0.
          1    1    3    3  502    0 -0.34196338213E+03  0.25206357016E+03  0.40610735830E+03  0.58770586570E+03  0.00000000000E+00 0. -1.
         -2    1    3    3    0  502 -0.47040896883E+02  0.10854446434E+02  0.77570293459E+02  0.91366380109E+02  0.00000000000E+00 0.  1.
         13    1    5    5    0    0 -0.10646545475E+03 -0.12626363818E+03  0.13037774682E+03  0.21041805115E+03  0.00000000000E+00 0.  1.
        -13    1    5    5    0    0 -0.53652863444E+02 -0.47491716112E+02 -0.59203743284E+01  0.71896757140E+02  0.00000000000E+00 0. -1.
          1    1    6    6  503    0  0.11893281769E+03 -0.16455643068E+02 -0.20384585314E+03  0.23657754575E+03  0.00000000000E+00 0. -1.
         -1    1    6    6    0  503  0.43018977952E+03 -0.72707019231E+02 -0.44309412415E+03  0.62183756714E+03  0.00000000000E+00 0.  1.
<mgrwt>
<rscale>  0 0.18193884E+04</rscale>
<asrwt>0</asrwt>
<pdfrwt beam="1">  1        1 0.13699979E+00 0.18193884E+04</pdfrwt>
<pdfrwt beam="2">  1       -2 0.14296978E+00 0.18193884E+04</pdfrwt>
<totfact> 0.51995234E+00</totfact>
</mgrwt>
</event>
<event>
12    5  0.5221187E-008  0.1749542E+04  0.7818608E-02  0.8733602E-01
         -4   -1    0    0    0  501 -0.00000000000E+00  0.00000000000E+00  0.64660822392E+03  0.64660822392E+03  0.00000000000E+00 0.  1.
          3   -1    0    0  501    0  0.00000000000E+00 -0.00000000000E+00 -0.11834438435E+04  0.11834438435E+04  0.00000000000E+00 0. -1.
        -24    2    1    2    0    0 -0.46504395484E+03 -0.42071846427E+03 -0.34129385745E+03  0.71831996335E+03  0.78944072012E+02 0.  0.
        254    2    1    2    0    0  0.46504395484E+03  0.42071846427E+03 -0.19554176213E+03  0.11117321041E+04  0.89690678690E+03 0.  0.
         23    2    4    4    0    0  0.26978239845E+03 -0.32384873163E+02 -0.46210526241E+03  0.54381547417E+03  0.91447656506E+02 0.  0.
         23    2    4    4    0    0  0.19526155639E+03  0.45310333743E+03  0.26656350028E+03  0.56791662990E+03  0.89685500713E+02 0.  0.
          3    1    3    3  502    0 -0.37635960154E+03 -0.34781158501E+03 -0.31150625757E+03  0.59971292869E+03  0.00000000000E+00 0. -1.
         -4    1    3    3    0  502 -0.88684353302E+02 -0.72906879261E+02 -0.29787599884E+02  0.11860703466E+03  0.00000000000E+00 0.  1.
         13    1    5    5    0    0  0.27360044172E+02  0.33150517771E+01 -0.95274516872E+01  0.29160485610E+02  0.00000000000E+00 0.  1.
        -13    1    5    5    0    0  0.24242235428E+03 -0.35699924940E+02 -0.45257781072E+03  0.51465498856E+03  0.00000000000E+00 0. -1.
          1    1    6    6  503    0  0.17058754829E+03  0.28954258549E+03  0.17930849693E+03  0.38090229392E+03  0.00000000000E+00 0. -1.
         -1    1    6    6    0  503  0.24674008103E+02  0.16356075194E+03  0.87255003357E+02  0.18701433598E+03  0.00000000000E+00 0.  1.
<mgrwt>
<rscale>  0 0.17495423E+04</rscale>
<asrwt>0</asrwt>
<pdfrwt beam="1">  1        3 0.18206828E+00 0.17495423E+04</pdfrwt>
<pdfrwt beam="2">  1       -4 0.99478189E-01 0.17495423E+04</pdfrwt>
<totfact> 0.34926317E-01</totfact>
</mgrwt>
</event>
<event>
12    5  0.5221187E-008  0.1590656E+04  0.7818608E-02  0.8826309E-01
          1   -1    0    0  501    0  0.00000000000E+00  0.00000000000E+00  0.12626331144E+04  0.12626331144E+04  0.00000000000E+00 0. -1.
         -2   -1    0    0    0  501 -0.00000000000E+00 -0.00000000000E+00 -0.50097405229E+03  0.50097405229E+03  0.00000000000E+00 0.  1.
        -24    2    1    2    0    0 -0.16914016348E+03 -0.43082460845E+03 -0.43765488214E+02  0.47199336883E+03  0.81511251450E+02 0.  0.
        254    2    1    2    0    0  0.16914016348E+03  0.43082460845E+03  0.80542455035E+03  0.12916137979E+04  0.89740696366E+03 0.  0.
         23    2    4    4    0    0  0.42254875510E+03 -0.10941415849E+02  0.15156022588E+03  0.45782787993E+03  0.89267578392E+02 0.  0.
         23    2    4    4    0    0 -0.25340859163E+03  0.44176602430E+03  0.65386432447E+03  0.83378591795E+03  0.91034430991E+02 0.  0.
          1    1    3    3  502    0 -0.12671328195E+03 -0.32797423336E+03  0.22167802491E+01  0.35160811664E+03  0.00000000000E+00 0. -1.
         -2    1    3    3    0  502 -0.42426881532E+02 -0.10285037509E+03 -0.45982268463E+02  0.12038525219E+03  0.00000000000E+00 0.  1.
         13    1    5    5    0    0  0.10951737749E+03 -0.29871961309E+02  0.71526432410E+02  0.13417309931E+03  0.00000000000E+00 0. -1.
        -13    1    5    5    0    0  0.31303137761E+03  0.18930545460E+02  0.80033793472E+02  0.32365478062E+03  0.00000000000E+00 0.  1.
          2    1    6    6  503    0 -0.15294210950E+03  0.32466280347E+03  0.40658628590E+03  0.54231875562E+03  0.00000000000E+00 0. -1.
         -2    1    6    6    0  503 -0.10046648212E+03  0.11710322083E+03  0.24727803857E+03  0.29146716233E+03  0.00000000000E+00 0.  1.
<mgrwt>
<rscale>  0 0.15906557E+04</rscale>
<asrwt>0</asrwt>
<pdfrwt beam="1">  1        1 0.19425125E+00 0.15906557E+04</pdfrwt>
<pdfrwt beam="2">  1       -2 0.77072931E-01 0.15906557E+04</pdfrwt>
<totfact> 0.12180309E+01</totfact>
</mgrwt>
</event>
<event>
12    5  0.5221187E-008  0.2169878E+04  0.7818608E-02  0.8531071E-01
          1   -1    0    0  501    0  0.00000000000E+00  0.00000000000E+00  0.77525691435E+03  0.77525691435E+03  0.00000000000E+00 0. -1.
         -2   -1    0    0    0  501 -0.00000000000E+00 -0.00000000000E+00 -0.15183264568E+04  0.15183264568E+04  0.00000000000E+00 0.  1.
        -24    2    1    2    0    0 -0.35007748933E+03  0.61808115967E+03  0.26550373839E+03  0.76255518537E+03  0.80122451010E+02 0.  0.
        254    2    1    2    0    0  0.35007748933E+03 -0.61808115967E+03 -0.10085732808E+04  0.15310281857E+04  0.90677928644E+03 0.  0.
         23    2    4    4    0    0  0.29248796729E+03 -0.83666559848E+03 -0.67531705556E+03  0.11180946808E+04  0.92325809016E+02 0.  0.
         23    2    4    4    0    0  0.57589522039E+02  0.21858443881E+03 -0.33325622524E+03  0.41293350494E+03  0.91425696066E+02 0.  0.
          1    1    3    3  502    0 -0.28688421928E+03  0.54700581574E+03  0.24927386457E+03  0.66607460339E+03  0.00000000000E+00 0. -1.
         -2    1    3    3    0  502 -0.63193270052E+02  0.71075343933E+02  0.16229873828E+02  0.96480581982E+02  0.00000000000E+00 0.  1.
         13    1    5    5    0    0  0.26963604049E+03 -0.70390663458E+03 -0.54073822292E+03  0.92767772974E+03  0.00000000000E+00 0.  1.
        -13    1    5    5    0    0  0.22851926801E+02 -0.13275896390E+03 -0.13457883264E+03  0.19041695106E+03  0.00000000000E+00 0. -1.
          4    1    6    6  503    0  0.56745458778E+02  0.10098660011E+03 -0.10583612370E+03  0.15690642299E+03  0.00000000000E+00 0. -1.
         -4    1    6    6    0  503  0.84406326115E+00  0.11759783870E+03 -0.22742010154E+03  0.25602708195E+03  0.00000000000E+00 0.  1.
<mgrwt>
<rscale>  0 0.21698784E+04</rscale>
<asrwt>0</asrwt>
<pdfrwt beam="1">  1        1 0.11927029E+00 0.21698784E+04</pdfrwt>
<pdfrwt beam="2">  1       -2 0.23358869E+00 0.21698784E+04</pdfrwt>
<totfact> 0.15116295E+00</totfact>
</mgrwt>
</event>
<event>
12    5  0.5221187E-008  0.1702786E+04  0.7818608E-02  0.8759777E-01
         -2   -1    0    0    0  501 -0.00000000000E+00  0.00000000000E+00  0.34172998370E+03  0.34172998370E+03  0.00000000000E+00 0.  1.
          1   -1    0    0  501    0  0.00000000000E+00 -0.00000000000E+00 -0.21211766967E+04  0.21211766967E+04  0.00000000000E+00 0. -1.
        -24    2    1    2    0    0 -0.29260554032E+03  0.69844167785E+02  0.12466360386E+03  0.33466992371E+03  0.77244635495E+02 0.  0.
        254    2    1    2    0    0  0.29260554032E+03 -0.69844167785E+02 -0.19041103168E+04  0.21282367567E+04  0.90180895078E+03 0.  0.
         23    2    4    4    0    0  0.59741467430E+03 -0.72389669233E+02 -0.10194016132E+04  0.11872647505E+04  0.90958130903E+02 0.  0.
         23    2    4    4    0    0 -0.30480913398E+03  0.25455014482E+01 -0.88470870363E+03  0.94097200612E+03  0.99013828785E+02 0.  0.
          1    1    3    3  502    0 -0.84631516844E+02  0.42812878306E+02  0.70177482244E+02  0.11798438543E+03  0.00000000000E+00 0. -1.
         -2    1    3    3    0  502 -0.20797402347E+03  0.27031289479E+02  0.54486121618E+02  0.21668553828E+03  0.00000000000E+00 0.  1.
         13    1    5    5    0    0  0.28960363887E+03 -0.61992251043E+01 -0.55750817615E+03  0.62827069366E+03  0.00000000000E+00 0. -1.
        -13    1    5    5    0    0  0.30781103543E+03 -0.66190444129E+02 -0.46189343706E+03  0.55899405688E+03  0.00000000000E+00 0.  1.
          3    1    6    6  503    0 -0.17974454689E+03  0.35441620889E+02 -0.61768918462E+03  0.64428575914E+03  0.00000000000E+00 0. -1.
         -3    1    6    6    0  503 -0.12506458709E+03 -0.32896119441E+02 -0.26701951901E+03  0.29668624698E+03  0.00000000000E+00 0.  1.
<mgrwt>
<rscale>  0 0.17027856E+04</rscale>
<asrwt>0</asrwt>
<pdfrwt beam="1">  1        1 0.32633488E+00 0.17027856E+04</pdfrwt>
<pdfrwt beam="2">  1       -2 0.52573844E-01 0.17027856E+04</pdfrwt>
<totfact> 0.70336352E+00</totfact>
</mgrwt>
</event>
<event>
12    5  0.5221187E-008  0.1003030E+04  0.7818608E-02  0.9305227E-01
          1   -1    0    0  501    0  0.00000000000E+00  0.00000000000E+00  0.55702944952E+03  0.55702944952E+03  0.00000000000E+00 0. -1.
         -2   -1    0    0    0  501 -0.00000000000E+00 -0.00000000000E+00 -0.45153364978E+03  0.45153364978E+03  0.00000000000E+00 0.  1.
        -24    2    1    2    0    0  0.10952320005E+02 -0.11540081355E+02 -0.69947132841E+02  0.10932469319E+03  0.82499456711E+02 0.  0.
        254    2    1    2    0    0 -0.10952320005E+02  0.11540081355E+02  0.17544293258E+03  0.89923840611E+03  0.88181424441E+03 0.  0.
         23    2    4    4    0    0 -0.19795929793E+03  0.30226872299E+03 -0.16334307404E+03  0.40656087509E+03  0.89758123745E+02 0.  0.
         23    2    4    4    0    0  0.18700697793E+03 -0.29072864164E+03  0.33878600662E+03  0.49267753103E+03  0.91980641647E+02 0.  0.
          3    1    3    3  502    0  0.12233670143E+01  0.17319106211E+02  0.12525372785E+02  0.21408713885E+02  0.00000000000E+00 0. -1.
         -4    1    3    3    0  502  0.97289529907E+01 -0.28859187566E+02 -0.82472505625E+02  0.87915979307E+02  0.00000000000E+00 0.  1.
         13    1    5    5    0    0 -0.54427442000E+01  0.45644993834E+02  0.12656914833E+01  0.45985768467E+02  0.00000000000E+00 0.  1.
        -13    1    5    5    0    0 -0.19251655373E+03  0.25662372916E+03 -0.16460876552E+03  0.36057510662E+03  0.00000000000E+00 0. -1.
          2    1    6    6  503    0  0.14053084131E+03 -0.26955335458E+03  0.30943433536E+03  0.43377129484E+03  0.00000000000E+00 0. -1.
         -2    1    6    6    0  503  0.46476136613E+02 -0.21175287061E+02  0.29351671254E+02  0.58906236189E+02  0.00000000000E+00 0.  1.
<mgrwt>
<rscale>  0 0.10030305E+04</rscale>
<asrwt>0</asrwt>
<pdfrwt beam="1">  1        1 0.85696838E-01 0.10030305E+04</pdfrwt>
<pdfrwt beam="2">  1       -2 0.69466715E-01 0.10030305E+04</pdfrwt>
<totfact> 0.63208633E+01</totfact>
</mgrwt>
</event>
<event>
12    5  0.5221187E-008  0.1744078E+04  0.7818608E-02  0.8736617E-01
         -2   -1    0    0    0  501 -0.00000000000E+00  0.00000000000E+00  0.74533598087E+03  0.74533598087E+03  0.00000000000E+00 0.  1.
          1   -1    0    0  501    0  0.00000000000E+00 -0.00000000000E+00 -0.10202806513E+04  0.10202806513E+04  0.00000000000E+00 0. -1.
        -24    2    1    2    0    0  0.47351363006E+02  0.33786133223E+03 -0.64251265926E+03  0.73171094628E+03  0.78650875416E+02 0.  0.
        254    2    1    2    0    0 -0.47351363006E+02 -0.33786133223E+03  0.36756798883E+03  0.10339056859E+04  0.90413622285E+03 0.  0.
         23    2    4    4    0    0  0.19835894286E+03  0.10437998036E+03  0.45157699653E+03  0.51282702436E+03  0.93959153925E+02 0.  0.
         23    2    4    4    0    0 -0.24571030586E+03 -0.44224131259E+03 -0.84009007699E+02  0.52107866152E+03  0.92274184610E+02 0.  0.
          1    1    3    3  502    0  0.39275203638E+02  0.28470036862E+03 -0.59134938679E+03  0.65748835638E+03  0.00000000000E+00 0. -1.
         -2    1    3    3    0  502  0.80761593673E+01  0.53160963617E+02 -0.51163272468E+02  0.74222589907E+02  0.00000000000E+00 0.  1.
         13    1    5    5    0    0  0.20561828875E+03  0.10956543681E+03  0.44255915934E+03  0.50014205495E+03  0.00000000000E+00 0. -1.
        -13    1    5    5    0    0 -0.72593458886E+01 -0.51854564564E+01  0.90178371927E+01  0.12684969414E+02  0.00000000000E+00 0.  1.
          1    1    6    6  503    0 -0.69353880884E+02 -0.21922399013E+03 -0.36081458956E+02  0.23274662258E+03  0.00000000000E+00 0. -1.
         -1    1    6    6    0  503 -0.17635642498E+03 -0.22301732246E+03 -0.47927548743E+02  0.28833203893E+03  0.00000000000E+00 0.  1.
<mgrwt>
<rscale>  0 0.17440778E+04</rscale>
<asrwt>0</asrwt>
<pdfrwt beam="1">  1        1 0.15696625E+00 0.17440778E+04</pdfrwt>
<pdfrwt beam="2">  1       -2 0.11466707E+00 0.17440778E+04</pdfrwt>
<totfact> 0.72013858E+00</totfact>
</mgrwt>
</event>
<event>
12    5  0.5221187E-008  0.2039365E+04  0.7818608E-02  0.8588434E-01
         -2   -1    0    0    0  501 -0.00000000000E+00  0.00000000000E+00  0.31522212847E+03  0.31522212847E+03  0.00000000000E+00 0.  1.
          1   -1    0    0  501    0  0.00000000000E+00 -0.00000000000E+00 -0.32984741073E+04  0.32984741073E+04  0.00000000000E+00 0. -1.
        -24    2    1    2    0    0  0.30047641570E+03 -0.93594060316E+02 -0.25553897160E+04  0.25759548850E+04  0.80504936001E+02 0.  0.
        254    2    1    2    0    0 -0.30047641570E+03  0.93594060316E+02 -0.42786226283E+03  0.10377413507E+04  0.89151279885E+03 0.  0.
         23    2    4    4    0    0  0.96281314124E+02 -0.16718486284E+03  0.16721704408E+03  0.27037584311E+03  0.88998240956E+02 0.  0.
         23    2    4    4    0    0 -0.39675772983E+03  0.26077892316E+03 -0.59507930691E+03  0.76736550761E+03  0.96478483745E+02 0.  0.
          3    1    3    3  502    0  0.27680711932E+03 -0.10262766629E+03 -0.24413528818E+04  0.24591377579E+04  0.00000000000E+00 0. -1.
         -4    1    3    3    0  502  0.23669296385E+02  0.90336059721E+01 -0.11403683420E+03  0.11681712709E+03  0.00000000000E+00 0.  1.
         13    1    5    5    0    0  0.52200151152E+02 -0.12348375415E+03  0.60861434593E+02  0.14723181565E+03  0.00000000000E+00 0.  1.
        -13    1    5    5    0    0  0.44081162972E+02 -0.43701108695E+02  0.10635560948E+03  0.12314402746E+03  0.00000000000E+00 0. -1.
          2    1    6    6  503    0 -0.33264941187E+03  0.25142841238E+03 -0.54051483605E+03  0.68266255629E+03  0.00000000000E+00 0. -1.
         -2    1    6    6    0  503 -0.64108317954E+02  0.93505107722E+01 -0.54564470858E+02  0.84702951322E+02  0.00000000000E+00 0.  1.
<mgrwt>
<rscale>  0 0.20393646E+04</rscale>
<asrwt>0</asrwt>
<pdfrwt beam="1">  1        1 0.50745758E+00 0.20393646E+04</pdfrwt>
<pdfrwt beam="2">  1       -2 0.48495710E-01 0.20393646E+04</pdfrwt>
<totfact> 0.11748972E+00</totfact>
</mgrwt>
</event>
<event>
12    5  0.5221187E-008  0.2061453E+04  0.7818608E-02  0.8578416E-01
         -2   -1    0    0    0  501 -0.00000000000E+00  0.00000000000E+00  0.25308650090E+04  0.25308650090E+04  0.00000000000E+00 0.  1.
          1   -1    0    0  501    0  0.00000000000E+00 -0.00000000000E+00 -0.41977619595E+03  0.41977619595E+03  0.00000000000E+00 0. -1.
        -24    2    1    2    0    0  0.46365361773E+03  0.33587297506E+03  0.17322762509E+04  0.18260427793E+04  0.76589096733E+02 0.  0.
        254    2    1    2    0    0 -0.46365361773E+03 -0.33587297506E+03  0.37881256218E+03  0.11245984257E+04  0.89075099169E+03 0.  0.
         23    2    4    4    0    0  0.25441437097E+03 -0.16063792848E+03  0.12985289418E+03  0.33930798597E+03  0.87959757833E+02 0.  0.
         23    2    4    4    0    0 -0.71806798870E+03 -0.17523504658E+03  0.24895966800E+03  0.78529043972E+03  0.91494264751E+02 0.  0.
          3    1    3    3  502    0  0.10080457578E+03  0.89710913856E+02  0.50798067334E+03  0.52559868250E+03  0.00000000000E+00 0. -1.
         -4    1    3    3    0  502  0.36284904195E+03  0.24616206121E+03  0.12242955776E+04  0.13004440968E+04  0.00000000000E+00 0.  1.
         13    1    5    5    0    0  0.10305404385E+03 -0.11066533580E+03  0.40379716510E+02  0.15651668922E+03  0.00000000000E+00 0.  1.
        -13    1    5    5    0    0  0.15136032712E+03 -0.49972592685E+02  0.89473177671E+02  0.18279129675E+03  0.00000000000E+00 0. -1.
          4    1    6    6  503    0 -0.50644181569E+03 -0.12955523334E+03  0.13174423766E+03  0.53909592404E+03  0.00000000000E+00 0. -1.
         -4    1    6    6    0  503 -0.21162617301E+03 -0.45679813239E+02  0.11721543033E+03  0.24619451568E+03  0.00000000000E+00 0.  1.
<mgrwt>
<rscale>  0 0.20614528E+04</rscale>
<asrwt>0</asrwt>
<pdfrwt beam="1">  1        1 0.64580955E-01 0.20614528E+04</pdfrwt>
<pdfrwt beam="2">  1       -2 0.38936384E+00 0.20614528E+04</pdfrwt>
<totfact> 0.39647324E-01</totfact>
</mgrwt>
</event>
<event>
12    5  0.5221187E-008  0.1287571E+04  0.7818608E-02  0.9039480E-01
          1   -1    0    0  501    0  0.00000000000E+00  0.00000000000E+00  0.13117194551E+04  0.13117194551E+04  0.00000000000E+00 0. -1.
         -4   -1    0    0    0  501 -0.00000000000E+00 -0.00000000000E+00 -0.31596691944E+03  0.31596691944E+03  0.00000000000E+00 0.  1.
        -24    2    1    2    0    0 -0.72626303069E+00  0.28374874062E+03  0.93965034008E+02  0.30921029807E+03  0.79168842088E+02 0.  0.
        254    2    1    2    0    0  0.72626303069E+00 -0.28374874062E+03  0.90178750169E+03  0.13184760765E+04  0.91904547811E+03 0.  0.
         23    2    4    4    0    0  0.34289352271E+03 -0.66288400991E+02  0.41623627903E+02  0.36321529888E+03  0.90679142650E+02 0.  0.
         23    2    4    4    0    0 -0.34216725968E+03 -0.21746033963E+03  0.86016387378E+03  0.95526077762E+03  0.90960599074E+02 0.  0.
          1    1    3    3  502    0 -0.80569039917E+01 -0.46832690875E+00  0.98146948551E+01  0.12706741011E+02  0.00000000000E+00 0. -1.
         -2    1    3    3    0  502  0.73306409610E+01  0.28421706753E+03  0.84150339153E+02  0.29650355706E+03  0.00000000000E+00 0.  1.
         13    1    5    5    0    0  0.34663314249E+03 -0.57821390631E+02  0.42166548326E+02  0.35394330971E+03  0.00000000000E+00 0.  1.
        -13    1    5    5    0    0 -0.37396197787E+01 -0.84670103608E+01 -0.54292042236E+00  0.92719891676E+01  0.00000000000E+00 0. -1.
          3    1    6    6  503    0 -0.93381729456E+01 -0.32762836187E+02  0.55774780170E+02  0.65356185721E+02  0.00000000000E+00 0. -1.
         -3    1    6    6    0  503 -0.33282908674E+03 -0.18469750344E+03  0.80438909361E+03  0.88990459190E+03  0.00000000000E+00 0.  1.
<mgrwt>
<rscale>  0 0.12875713E+04</rscale>
<asrwt>0</asrwt>
<pdfrwt beam="1">  1        1 0.20180299E+00 0.12875713E+04</pdfrwt>
<pdfrwt beam="2">  1       -4 0.48610296E-01 0.12875713E+04</pdfrwt>
<totfact> 0.17511745E+01</totfact>
</mgrwt>
</event>
<event>
12    5  0.5221187E-008  0.1675625E+04  0.7818608E-02  0.8775390E-01
         -2   -1    0    0    0  501 -0.00000000000E+00  0.00000000000E+00  0.49063127067E+03  0.49063127067E+03  0.00000000000E+00 0.  1.
          1   -1    0    0  501    0  0.00000000000E+00 -0.00000000000E+00 -0.14306658195E+04  0.14306658195E+04  0.00000000000E+00 0. -1.
        -24    2    1    2    0    0 -0.52872125691E+03 -0.16518324362E+03 -0.48502103205E+02  0.56129706069E+03  0.76617653579E+02 0.  0.
        254    2    1    2    0    0  0.52872125691E+03  0.16518324362E+03 -0.89153244560E+03  0.13600000295E+04  0.86483426568E+03 0.  0.
         23    2    4    4    0    0  0.40162236131E+03 -0.20648132490E+03 -0.99572447309E+02  0.47144964829E+03  0.91733526954E+02 0.  0.
         23    2    4    4    0    0  0.12709889560E+03  0.37166456852E+03 -0.79195999829E+03  0.88855038117E+03  0.89623993609E+02 0.  0.
          3    1    3    3  502    0 -0.24316113172E+03 -0.52124653279E+02 -0.52399168006E+02  0.25414560446E+03  0.00000000000E+00 0. -1.
         -4    1    3    3    0  502 -0.28556012519E+03 -0.11305859034E+03  0.38970648016E+01  0.30715145623E+03  0.00000000000E+00 0.  1.
         13    1    5    5    0    0  0.98511479168E+02 -0.13594765383E+02 -0.33188321833E+01  0.99500471460E+02  0.00000000000E+00 0.  1.
        -13    1    5    5    0    0  0.30311088214E+03 -0.19288655952E+03 -0.96253615126E+02  0.37194917683E+03  0.00000000000E+00 0. -1.
          2    1    6    6  503    0  0.76314288507E+02  0.18982097070E+03 -0.50697373189E+03  0.54669757305E+03  0.00000000000E+00 0. -1.
         -2    1    6    6    0  503  0.50784607092E+02  0.18184359782E+03 -0.28498626640E+03  0.34185280812E+03  0.00000000000E+00 0.  1.
<mgrwt>
<rscale>  0 0.16756245E+04</rscale>
<asrwt>0</asrwt>
<pdfrwt beam="1">  1        1 0.22010243E+00 0.16756245E+04</pdfrwt>
<pdfrwt beam="2">  1       -2 0.75481734E-01 0.16756245E+04</pdfrwt>
<totfact> 0.96302078E+00</totfact>
</mgrwt>
</event>
<event>
12    5  0.5221187E-008  0.1406654E+04  0.7818608E-02  0.8949016E-01
         -2   -1    0    0    0  501 -0.00000000000E+00  0.00000000000E+00  0.22953675195E+04  0.22953675195E+04  0.00000000000E+00 0.  1.
          1   -1    0    0  501    0  0.00000000000E+00 -0.00000000000E+00 -0.21550758148E+03  0.21550758148E+03  0.00000000000E+00 0. -1.
        -24    2    1    2    0    0 -0.33526621789E+02 -0.38154912599E+03  0.79029209578E+03  0.88179174582E+03  0.79317819173E+02 0.  0.
        254    2    1    2    0    0  0.33526621789E+02  0.38154912599E+03  0.12895678423E+04  0.16290833552E+04  0.91881640626E+03 0.  0.
         23    2    4    4    0    0  0.37238544703E+03 -0.10256808995E+03  0.48446849853E+03  0.62637217286E+03  0.91876213558E+02 0.  0.
         23    2    4    4    0    0 -0.33885882525E+03  0.48411721594E+03  0.80509934372E+03  0.10027111823E+04  0.89721678895E+02 0.  0.
          3    1    3    3  502    0 -0.33492546723E+02 -0.24303491341E+03  0.41948336940E+03  0.48595680571E+03  0.00000000000E+00 0. -1.
         -4    1    3    3    0  502 -0.34075065981E-01 -0.13851421258E+03  0.37080872638E+03  0.39583494011E+03  0.00000000000E+00 0.  1.
         13    1    5    5    0    0  0.45140723804E+02 -0.37736847551E+02  0.11079937475E+03  0.12545220625E+03  0.00000000000E+00 0. -1.
        -13    1    5    5    0    0  0.32724472323E+03 -0.64831242401E+02  0.37366912379E+03  0.50091996661E+03  0.00000000000E+00 0.  1.
          4    1    6    6  503    0 -0.73037459561E+02  0.17016751378E+03  0.27927585434E+03  0.33509171291E+03  0.00000000000E+00 0. -1.
         -4    1    6    6    0  503 -0.26582136569E+03  0.31394970217E+03  0.52582348938E+03  0.66761946940E+03  0.00000000000E+00 0.  1.
<mgrwt>
<rscale>  0 0.14066543E+04</rscale>
<asrwt>0</asrwt>
<pdfrwt beam="1">  1        1 0.33155014E-01 0.14066543E+04</pdfrwt>
<pdfrwt beam="2">  1       -2 0.35313345E+00 0.14066543E+04</pdfrwt>
<totfact> 0.17210239E+00</totfact>
</mgrwt>
</event>
<event>
12    5  0.5221187E-008  0.2741598E+04  0.7818608E-02  0.8321633E-01
          1   -1    0    0  501    0  0.00000000000E+00  0.00000000000E+00  0.24835510415E+04  0.24835510415E+04  0.00000000000E+00 0. -1.
         -2   -1    0    0    0  501 -0.00000000000E+00 -0.00000000000E+00 -0.75661407996E+03  0.75661407996E+03  0.00000000000E+00 0.  1.
        -24    2    1    2    0    0 -0.51203357329E+03  0.79608973825E+01 -0.52488580887E+03  0.73763782422E+03  0.79766479775E+02 0.  0.
        254    2    1    2    0    0  0.51203357329E+03 -0.79608973825E+01  0.22518227704E+04  0.25025272973E+04  0.96420709812E+03 0.  0.
         23    2    4    4    0    0  0.15820436078E+03  0.38560106403E+02 -0.32193247069E+02  0.18891022355E+03  0.90195154126E+02 0.  0.
         23    2    4    4    0    0  0.35382921251E+03 -0.46521003786E+02  0.22840160175E+04  0.23136170737E+04  0.93463790780E+02 0.  0.
          3    1    3    3  502    0 -0.12787113203E+03  0.30530945331E+02 -0.16273594992E+03  0.20920361954E+03  0.00000000000E+00 0. -1.
         -4    1    3    3    0  502 -0.38416244127E+03 -0.22570047948E+02 -0.36214985895E+03  0.52843420468E+03  0.00000000000E+00 0.  1.
         13    1    5    5    0    0  0.49478543463E+01 -0.22216622850E+01 -0.29813275434E+02  0.30302614376E+02  0.00000000000E+00 0. -1.
        -13    1    5    5    0    0  0.15325650644E+03  0.40781768688E+02 -0.23799716352E+01  0.15860760917E+03  0.00000000000E+00 0.  1.
          2    1    6    6  503    0  0.26044043681E+03 -0.15877133081E+02  0.13957135411E+04  0.14198935148E+04  0.00000000000E+00 0.  1.
         -2    1    6    6    0  503  0.93388775702E+02 -0.30643870705E+02  0.88830247640E+03  0.89372355894E+03  0.00000000000E+00 0. -1.
<mgrwt>
<rscale>  0 0.27415978E+04</rscale>
<asrwt>0</asrwt>
<pdfrwt beam="1">  1        1 0.38208477E+00 0.27415978E+04</pdfrwt>
<pdfrwt beam="2">  1       -2 0.11640217E+00 0.27415978E+04</pdfrwt>
<totfact> 0.60899007E-01</totfact>
</mgrwt>
</event>
<event>
12    5  0.5221187E-008  0.2120636E+04  0.7818608E-02  0.8552207E-01
          1   -1    0    0  501    0  0.00000000000E+00  0.00000000000E+00  0.39510029768E+04  0.39510029768E+04  0.00000000000E+00 0. -1.
         -2   -1    0    0    0  501 -0.00000000000E+00 -0.00000000000E+00 -0.28455411754E+03  0.28455411754E+03  0.00000000000E+00 0.  1.
        -24    2    1    2    0    0 -0.54287966431E+03  0.40841859313E+03  0.42132498224E+03  0.80324892923E+03  0.78549503582E+02 0.  0.
        254    2    1    2    0    0  0.54287966431E+03 -0.40841859313E+03  0.32451238770E+04  0.34323081651E+04  0.88791119257E+03 0.  0.
         23    2    4    4    0    0  0.69488558750E+03 -0.73514109515E+02  0.16742933837E+04  0.18164367298E+04  0.88959285752E+02 0.  0.
         23    2    4    4    0    0 -0.15200592319E+03 -0.33490448362E+03  0.15708304933E+04  0.16158714353E+04  0.90913381710E+02 0.  0.
          1    1    3    3  502    0 -0.44419349586E+02  0.17874474731E+02  0.12422644985E+02  0.49466125510E+02  0.00000000000E+00 0. -1.
         -2    1    3    3    0  502 -0.49846031472E+03  0.39054411840E+03  0.40890233725E+03  0.75378280372E+03  0.00000000000E+00 0.  1.
         13    1    5    5    0    0  0.16751215747E+02  0.60311226660E+01  0.19994194755E+02  0.26772102897E+02  0.00000000000E+00 0. -1.
        -13    1    5    5    0    0  0.67813437175E+03 -0.79545232181E+02  0.16542991889E+04  0.17896646269E+04  0.00000000000E+00 0.  1.
          1    1    6    6  503    0  0.58538972346E+01 -0.65492304894E+02  0.23448978886E+03  0.24353433268E+03  0.00000000000E+00 0. -1.
         -1    1    6    6    0  503 -0.15785982042E+03 -0.26941217872E+03  0.13363407045E+04  0.13723371027E+04  0.00000000000E+00 0.  1.
<mgrwt>
<rscale>  0 0.21206359E+04</rscale>
<asrwt>0</asrwt>
<pdfrwt beam="1">  1        1 0.60784657E+00 0.21206359E+04</pdfrwt>
<pdfrwt beam="2">  1       -2 0.43777559E-01 0.21206359E+04</pdfrwt>
<totfact> 0.42538858E-01</totfact>
</mgrwt>
</event>
<event>
12    5  0.5221187E-008  0.2442423E+04  0.7818608E-02  0.8423790E-01
         -2   -1    0    0    0  501 -0.00000000000E+00  0.00000000000E+00  0.21117802088E+04  0.21117802088E+04  0.00000000000E+00 0.  1.
          1   -1    0    0  501    0  0.00000000000E+00 -0.00000000000E+00 -0.70620845511E+03  0.70620845511E+03  0.00000000000E+00 0. -1.
        -24    2    1    2    0    0  0.56668270164E+03 -0.55085037433E+03  0.13777336520E+04  0.15903154104E+04  0.79922896591E+02 0.  0.
        254    2    1    2    0    0 -0.56668270164E+03  0.55085037433E+03  0.27838101697E+02  0.12276732535E+04  0.93906402247E+03 0.  0.
         23    2    4    4    0    0  0.12868004931E+03 -0.10235952516E+03 -0.16474327525E+03  0.25001236715E+03  0.91267790098E+02 0.  0.
         23    2    4    4    0    0 -0.69536275096E+03  0.65320989949E+03  0.19258137694E+03  0.97766088638E+03  0.92307604316E+02 0.  0.
          3    1    3    3  502    0  0.53055016661E+03 -0.50209697929E+03  0.13055793345E+04  0.14960355125E+04  0.00000000000E+00 0. -1.
         -4    1    3    3    0  502  0.36132535033E+02 -0.48753395043E+02  0.72154317506E+02  0.94279897916E+02  0.00000000000E+00 0.  1.
         13    1    5    5    0    0  0.57029250355E+02 -0.54300160178E+02 -0.19575791132E+02  0.81142186252E+02  0.00000000000E+00 0.  1.
        -13    1    5    5    0    0  0.71650798960E+02 -0.48059364978E+02 -0.14516748411E+03  0.16887018090E+03  0.00000000000E+00 0. -1.
          3    1    6    6  503    0 -0.59770180781E+03  0.52475195800E+03  0.18213570702E+03  0.81595679068E+03  0.00000000000E+00 0. -1.
         -3    1    6    6    0  503 -0.97660943141E+02  0.12845794149E+03  0.10445669927E+02  0.16170409570E+03  0.00000000000E+00 0.  1.
<mgrwt>
<rscale>  0 0.24424226E+04</rscale>
<asrwt>0</asrwt>
<pdfrwt beam="1">  1        1 0.10864746E+00 0.24424226E+04</pdfrwt>
<pdfrwt beam="2">  1       -2 0.32488926E+00 0.24424226E+04</pdfrwt>
<totfact> 0.46999775E-01</totfact>
</mgrwt>
</event>
<event>
12    5  0.5221187E-008  0.2283219E+04  0.7818608E-02  0.8484567E-01
          1   -1    0    0  501    0  0.00000000000E+00  0.00000000000E+00  0.20357804361E+04  0.20357804361E+04  0.00000000000E+00 0. -1.
         -2   -1    0    0    0  501 -0.00000000000E+00 -0.00000000000E+00 -0.64018299949E+03  0.64018299949E+03  0.00000000000E+00 0.  1.
        -24    2    1    2    0    0  0.32788517679E+03 -0.85235696488E+03  0.94261930370E+03  0.13148329367E+04  0.78951979815E+02 0.  0.
        254    2    1    2    0    0 -0.32788517679E+03  0.85235696488E+03  0.45297813290E+03  0.13611304988E+04  0.90192347856E+03 0.  0.
         23    2    4    4    0    0 -0.20216122785E+03  0.37086062861E+02  0.48136890021E+03  0.53063353843E+03  0.87243314473E+02 0.  0.
         23    2    4    4    0    0 -0.12572394894E+03  0.81527090202E+03 -0.28390767311E+02  0.83049696038E+03  0.91902179052E+02 0.  0.
          1    1    3    3  502    0  0.13996185787E+03 -0.41125861115E+03  0.49923356429E+03  0.66178328675E+03  0.00000000000E+00 0. -1.
         -2    1    3    3    0  502  0.18792331892E+03 -0.44109835373E+03  0.44338573941E+03  0.65304965000E+03  0.00000000000E+00 0.  1.
         13    1    5    5    0    0 -0.17167260157E+02 -0.10532379016E+02  0.12197920468E+03  0.12363078987E+03  0.00000000000E+00 0. -1.
        -13    1    5    5    0    0 -0.18499396769E+03  0.47618441878E+02  0.35938969553E+03  0.40700274856E+03  0.00000000000E+00 0.  1.
          2    1    6    6  503    0 -0.29424269342E+02  0.47038362132E+02 -0.73346357476E+01  0.55965989850E+02  0.00000000000E+00 0. -1.
         -2    1    6    6    0  503 -0.96299679601E+02  0.76823253989E+03 -0.21056131563E+02  0.77453097053E+03  0.00000000000E+00 0.  1.
<mgrwt>
<rscale>  0 0.22832188E+04</rscale>
<asrwt>0</asrwt>
<pdfrwt beam="1">  1        1 0.31319699E+00 0.22832188E+04</pdfrwt>
<pdfrwt beam="2">  1       -2 0.98489693E-01 0.22832188E+04</pdfrwt>
<totfact> 0.19187310E+00</totfact>
</mgrwt>
</event>
<event>
12    5  0.5221187E-008  0.2463162E+04  0.7818608E-02  0.8416228E-01
          1   -1    0    0  501    0  0.00000000000E+00  0.00000000000E+00  0.12116243446E+04  0.12116243446E+04  0.00000000000E+00 0. -1.
         -2   -1    0    0    0  501 -0.00000000000E+00 -0.00000000000E+00 -0.12518667989E+04  0.12518667989E+04  0.00000000000E+00 0.  1.
        -24    2    1    2    0    0  0.55315155864E+03  0.64796309276E+03  0.62507696607E+03  0.10598453128E+04  0.81963755156E+02 0.  0.
        254    2    1    2    0    0 -0.55315155864E+03 -0.64796309276E+03 -0.66531942041E+03  0.14036458306E+04  0.89539872141E+03 0.  0.
         23    2    4    4    0    0  0.80883861161E+02  0.41328187287E+01  0.14017528322E+03  0.18536292605E+03  0.90283027978E+02 0.  0.
         23    2    4    4    0    0 -0.63403541980E+03 -0.65209591149E+03 -0.80549470363E+03  0.12182829046E+04  0.90341168375E+02 0.  0.
          3    1    3    3  502    0  0.48118796819E+03  0.60001838776E+03  0.57002204687E+03  0.95733435137E+03  0.00000000000E+00 0. -1.
         -4    1    3    3    0  502  0.71963590448E+02  0.47944705004E+02  0.55054919198E+02  0.10251096144E+03  0.00000000000E+00 0.  1.
         13    1    5    5    0    0 -0.18213701923E+01 -0.12809867734E+02 -0.77211596388E+01  0.15067395492E+02  0.00000000000E+00 0. -1.
        -13    1    5    5    0    0  0.82705231353E+02  0.16942686462E+02  0.14789644286E+03  0.17029553056E+03  0.00000000000E+00 0.  1.
          2    1    6    6  503    0 -0.34020701048E+03 -0.40545227557E+03 -0.49630624130E+03  0.72557028805E+03  0.00000000000E+00 0. -1.
         -2    1    6    6    0  503 -0.29382840933E+03 -0.24664363592E+03 -0.30918846233E+03  0.49271261655E+03  0.00000000000E+00 0.  1.
<mgrwt>
<rscale>  0 0.24631624E+04</rscale>
<asrwt>0</asrwt>
<pdfrwt beam="1">  1        1 0.18640375E+00 0.24631624E+04</pdfrwt>
<pdfrwt beam="2">  1       -2 0.19259489E+00 0.24631624E+04</pdfrwt>
<totfact> 0.12202800E+00</totfact>
</mgrwt>
</event>
<event>
12    5  0.5221187E-008  0.1853604E+04  0.7818608E-02  0.8678301E-01
         -2   -1    0    0    0  501 -0.00000000000E+00  0.00000000000E+00  0.12894365489E+04  0.12894365489E+04  0.00000000000E+00 0.  1.
          1   -1    0    0  501    0  0.00000000000E+00 -0.00000000000E+00 -0.66615319560E+03  0.66615319560E+03  0.00000000000E+00 0. -1.
        -24    2    1    2    0    0  0.58877799817E+03  0.20189077464E+03 -0.86896866734E+02  0.63349584782E+03  0.79664971841E+02 0.  0.
        254    2    1    2    0    0 -0.58877799817E+03 -0.20189077464E+03  0.71018022004E+03  0.13220938967E+04  0.92528747461E+03 0.  0.
         23    2    4    4    0    0  0.53264699717E+02 -0.41184404964E+03  0.35385998778E+03  0.55295574196E+03  0.89947274291E+02 0.  0.
         23    2    4    4    0    0 -0.64204269789E+03  0.20995327500E+03  0.35632023225E+03  0.76913815471E+03  0.91160240889E+02 0.  0.
          3    1    3    3  502    0  0.47764227348E+03  0.17729538843E+03 -0.42273494671E+02  0.51123658371E+03  0.00000000000E+00 0. -1.
         -4    1    3    3    0  502  0.11113572470E+03  0.24595386213E+02 -0.44623372063E+02  0.12225926411E+03  0.00000000000E+00 0.  1.
         13    1    5    5    0    0 -0.50791671526E+01 -0.97924099871E+02  0.42137157688E+02  0.10672613238E+03  0.00000000000E+00 0.  1.
        -13    1    5    5    0    0  0.58343866869E+02 -0.31391994977E+03  0.31172283010E+03  0.44622960958E+03  0.00000000000E+00 0. -1.
          2    1    6    6  503    0 -0.62369792112E+03  0.21857950676E+03  0.35031788231E+03  0.74799646807E+03  0.00000000000E+00 0. -1.
         -2    1    6    6    0  503 -0.18344776769E+02 -0.86262317543E+01  0.60023499451E+01  0.21141686636E+02  0.00000000000E+00 0.  1.
<mgrwt>
<rscale>  0 0.18536044E+04</rscale>
<asrwt>0</asrwt>
<pdfrwt beam="1">  1        1 0.10248511E+00 0.18536044E+04</pdfrwt>
<pdfrwt beam="2">  1       -2 0.19837485E+00 0.18536044E+04</pdfrwt>
<totfact> 0.32899128E+00</totfact>
</mgrwt>
</event>
<event>
12    5  0.5221187E-008  0.1620656E+04  0.7818608E-02  0.8807958E-01
          1   -1    0    0  501    0  0.00000000000E+00  0.00000000000E+00  0.22852921289E+04  0.22852921289E+04  0.00000000000E+00 0. -1.
         -2   -1    0    0    0  501 -0.00000000000E+00 -0.00000000000E+00 -0.28732944213E+03  0.28732944213E+03  0.00000000000E+00 0.  1.
        -24    2    1    2    0    0  0.32636002412E+03  0.79624212082E+02 -0.15405003261E+02  0.34554246789E+03  0.79444335855E+02 0.  0.
        254    2    1    2    0    0 -0.32636002412E+03 -0.79624212082E+02  0.20133676901E+04  0.22270791032E+04  0.89071936989E+03 0.  0.
         23    2    4    4    0    0  0.34634714300E+02  0.34220595378E+03  0.50870231298E+03  0.62059924599E+03  0.89782529759E+02 0.  0.
         23    2    4    4    0    0 -0.36099473841E+03 -0.42183016586E+03  0.15046653771E+04  0.16064798572E+04  0.92204905228E+02 0.  0.
          3    1    3    3  502    0  0.77488573704E+02  0.26664965435E+02 -0.37540426212E+02  0.90137578382E+02  0.00000000000E+00 0. -1.
         -4    1    3    3    0  502  0.24887145041E+03  0.52959246647E+02  0.22135422951E+02  0.25540488951E+03  0.00000000000E+00 0.  1.
         13    1    5    5    0    0 -0.13168083530E+02  0.25776092238E+03  0.35728600778E+03  0.44075773718E+03  0.00000000000E+00 0.  1.
        -13    1    5    5    0    0  0.47802797829E+02  0.84445031398E+02  0.15141630521E+03  0.17984150881E+03  0.00000000000E+00 0. -1.
          1    1    6    6  503    0 -0.67080962440E+02 -0.32176413536E+02  0.21868476608E+03  0.23099394802E+03  0.00000000000E+00 0. -1.
         -1    1    6    6    0  503 -0.29391377598E+03 -0.38965375233E+03  0.12859806110E+04  0.13754859092E+04  0.00000000000E+00 0.  1.
<mgrwt>
<rscale>  0 0.16206563E+04</rscale>
<asrwt>0</asrwt>
<pdfrwt beam="1">  1        1 0.35158339E+00 0.16206563E+04</pdfrwt>
<pdfrwt beam="2">  1       -2 0.44204531E-01 0.16206563E+04</pdfrwt>
<totfact> 0.77844448E+00</totfact>
</mgrwt>
</event>
<event>
12    5  0.5221187E-008  0.2049570E+04  0.7818608E-02  0.8583789E-01
          1   -1    0    0  501    0  0.00000000000E+00  0.00000000000E+00  0.95861635645E+03  0.95861635645E+03  0.00000000000E+00 0. -1.
         -2   -1    0    0    0  501 -0.00000000000E+00 -0.00000000000E+00 -0.10955211122E+04  0.10955211122E+04  0.00000000000E+00 0.  1.
        -24    2    1    2    0    0  0.10882598592E+03 -0.78037929243E+03 -0.30889998665E+03  0.84997758210E+03  0.78789295341E+02 0.  0.
        254    2    1    2    0    0 -0.10882598592E+03  0.78037929243E+03  0.17199523088E+03  0.12041598866E+04  0.89419446301E+03 0.  0.
         23    2    4    4    0    0 -0.28435287984E+03  0.37623181049E+03  0.46401617059E+03  0.66785487274E+03  0.91171206905E+02 0.  0.
         23    2    4    4    0    0  0.17552689392E+03  0.40414748193E+03 -0.29202093971E+03  0.53630501382E+03  0.90564678420E+02 0.  0.
          1    1    3    3  502    0 -0.45198464461E-01 -0.11685154826E+03 -0.71010183441E+02  0.13673599572E+03  0.00000000000E+00 0. -1.
         -2    1    3    3    0  502  0.10887118439E+03 -0.66352774417E+03 -0.23788980321E+03  0.71324158638E+03  0.00000000000E+00 0.  1.
         13    1    5    5    0    0 -0.75896505729E+02  0.10878874968E+03  0.77284974139E+02  0.15351950647E+03  0.00000000000E+00 0. -1.
        -13    1    5    5    0    0 -0.20845637411E+03  0.26744306081E+03  0.38673119645E+03  0.51433536627E+03  0.00000000000E+00 0.  1.
          2    1    6    6  503    0 -0.79329781723E+01  0.36272776785E+02 -0.12441318635E+02  0.39159071590E+02  0.00000000000E+00 0. -1.
         -2    1    6    6    0  503  0.18345987209E+03  0.36787470515E+03 -0.27957962107E+03  0.49714594223E+03  0.00000000000E+00 0.  1.
<mgrwt>
<rscale>  0 0.20495702E+04</rscale>
<asrwt>0</asrwt>
<pdfrwt beam="1">  1        1 0.14747944E+00 0.20495702E+04</pdfrwt>
<pdfrwt beam="2">  1       -2 0.16854171E+00 0.20495702E+04</pdfrwt>
<totfact> 0.28831353E+00</totfact>
</mgrwt>
</event>
<event>
12    5  0.5221187E-008  0.1661996E+04  0.7818608E-02  0.8783341E-01
          1   -1    0    0  501    0  0.00000000000E+00  0.00000000000E+00  0.43094182467E+04  0.43094182467E+04  0.00000000000E+00 0. -1.
         -2   -1    0    0    0  501 -0.00000000000E+00 -0.00000000000E+00 -0.16024389105E+03  0.16024389105E+03  0.00000000000E+00 0.  1.
        -24    2    1    2    0    0 -0.21178086249E+03  0.18844076045E+03  0.97742949360E+02  0.31034215092E+03  0.79984452074E+02 0.  0.
        254    2    1    2    0    0  0.21178086249E+03 -0.18844076045E+03  0.40514314063E+04  0.41593199868E+04  0.89748830581E+03 0.  0.
         23    2    4    4    0    0  0.52697101065E+03 -0.27668096286E+03  0.25770548617E+04  0.26463485056E+04  0.87737402107E+02 0.  0.
         23    2    4    4    0    0 -0.31519014816E+03  0.88240202418E+02  0.14743765446E+04  0.15129714812E+04  0.90362297929E+02 0.  0.
          1    1    3    3  502    0 -0.13959733648E+03  0.11617430497E+03  0.10164895927E+03  0.20812591479E+03  0.00000000000E+00 0. -1.
         -2    1    3    3    0  502 -0.72183526006E+02  0.72266455481E+02 -0.39060099121E+01  0.10221623613E+03  0.00000000000E+00 0.  1.
         13    1    5    5    0    0  0.34174708506E+03 -0.14581478156E+03  0.17307428995E+04  0.17701762638E+04  0.00000000000E+00 0. -1.
        -13    1    5    5    0    0  0.18522392559E+03 -0.13086618130E+03  0.84631196214E+03  0.87617224179E+03  0.00000000000E+00 0.  1.
          1    1    6    6  503    0 -0.29262627670E+03  0.92216940949E+02  0.12365855244E+04  0.12740792210E+04  0.00000000000E+00 0. -1.
         -1    1    6    6    0  503 -0.22563871468E+02 -0.39767385307E+01  0.23779102017E+03  0.23889226028E+03  0.00000000000E+00 0.  1.
<mgrwt>
<rscale>  0 0.16619963E+04</rscale>
<asrwt>0</asrwt>
<pdfrwt beam="1">  1        1 0.66298734E+00 0.16619963E+04</pdfrwt>
<pdfrwt beam="2">  1       -2 0.24652910E-01 0.16619963E+04</pdfrwt>
<totfact> 0.62700308E-01</totfact>
</mgrwt>
</event>
<event>
12    5  0.5221187E-008  0.1687280E+04  0.7818608E-02  0.8768652E-01
         -2   -1    0    0    0  501 -0.00000000000E+00  0.00000000000E+00  0.53248470986E+03  0.53248470986E+03  0.00000000000E+00 0.  1.
          1   -1    0    0  501    0  0.00000000000E+00 -0.00000000000E+00 -0.13366177810E+04  0.13366177810E+04  0.00000000000E+00 0. -1.
        -24    2    1    2    0    0 -0.41421240024E+03 -0.31311557425E+03  0.51652612590E+02  0.52728417343E+03  0.75811158892E+02 0.  0.
        254    2    1    2    0    0  0.41421240024E+03  0.31311557425E+03 -0.85578568371E+03  0.13418183174E+04  0.89358490652E+03 0.  0.
         23    2    4    4    0    0  0.49410481758E+03  0.58341841457E+02 -0.92272199375E+03  0.10522279699E+04  0.90688927846E+02 0.  0.
         23    2    4    4    0    0 -0.79892417344E+02  0.25477373280E+03  0.66936310037E+02  0.28959034753E+03  0.89942462226E+02 0.  0.
          1    1    3    3  502    0 -0.65144343658E+02 -0.87590782586E+02  0.11598306147E+02  0.10977454810E+03  0.00000000000E+00 0. -1.
         -2    1    3    3    0  502 -0.34906805658E+03 -0.22552479167E+03  0.40054306443E+02  0.41750962533E+03  0.00000000000E+00 0.  1.
         13    1    5    5    0    0  0.25972294037E+03  0.20133879659E+02 -0.57374280488E+03  0.63011283514E+03  0.00000000000E+00 0.  1.
        -13    1    5    5    0    0  0.23438187721E+03  0.38207961798E+02 -0.34897918887E+03  0.42211513474E+03  0.00000000000E+00 0. -1.
          3    1    6    6  503    0 -0.59809184943E+02  0.10565636771E+03  0.67933047999E+02  0.13912334689E+03  0.00000000000E+00 0. -1.
         -3    1    6    6    0  503 -0.20083232401E+02  0.14911736509E+03 -0.99673796218E+00  0.15046700064E+03  0.00000000000E+00 0.  1.
<mgrwt>
<rscale>  0 0.16872801E+04</rscale>
<asrwt>0</asrwt>
<pdfrwt beam="1">  1        1 0.20563351E+00 0.16872801E+04</pdfrwt>
<pdfrwt beam="2">  1       -2 0.81920724E-01 0.16872801E+04</pdfrwt>
<totfact> 0.93270666E+00</totfact>
</mgrwt>
</event>
<event>
12    5  0.5221187E-008  0.1679322E+04  0.7818608E-02  0.8773246E-01
          1   -1    0    0  501    0  0.00000000000E+00  0.00000000000E+00  0.11481345006E+04  0.11481345006E+04  0.00000000000E+00 0. -1.
         -2   -1    0    0    0  501 -0.00000000000E+00 -0.00000000000E+00 -0.61406615369E+03  0.61406615369E+03  0.00000000000E+00 0.  1.
        -24    2    1    2    0    0 -0.18879371511E+03  0.14398733646E+03 -0.38104421764E+03  0.45587100214E+03  0.79045903564E+02 0.  0.
        254    2    1    2    0    0  0.18879371511E+03 -0.14398733646E+03  0.91511256455E+03  0.13063296522E+04  0.90149361304E+03 0.  0.
         23    2    4    4    0    0  0.52064619491E+03  0.46018515961E+02  0.61570249300E+03  0.81265227144E+03  0.90133180869E+02 0.  0.
         23    2    4    4    0    0 -0.33185247980E+03 -0.19000585242E+03  0.29941007155E+03  0.49367738071E+03  0.88558867283E+02 0.  0.
          1    1    3    3  502    0 -0.43298054414E+02 -0.27695326395E+01 -0.59330485101E+02  0.73501689024E+02  0.00000000000E+00 0. -1.
         -2    1    3    3    0  502 -0.14549566070E+03  0.14675686910E+03 -0.32171373254E+03  0.38236931312E+03  0.00000000000E+00 0.  1.
         13    1    5    5    0    0  0.23738700022E+03  0.25803726869E+02  0.35040062530E+03  0.42402714348E+03  0.00000000000E+00 0.  1.
        -13    1    5    5    0    0  0.28325919469E+03  0.20214789092E+02  0.26530186770E+03  0.38862512796E+03  0.00000000000E+00 0. -1.
          1    1    6    6  503    0 -0.96084987747E+02 -0.21678778321E+02  0.10951700968E+03  0.14729653665E+03  0.00000000000E+00 0. -1.
         -1    1    6    6    0  503 -0.23576749206E+03 -0.16832707410E+03  0.18989306186E+03  0.34638084406E+03  0.00000000000E+00 0.  1.
<mgrwt>
<rscale>  0 0.16793219E+04</rscale>
<asrwt>0</asrwt>
<pdfrwt beam="1">  1        1 0.17663608E+00 0.16793219E+04</pdfrwt>
<pdfrwt beam="2">  1       -2 0.94471716E-01 0.16793219E+04</pdfrwt>
<totfact> 0.92118918E+00</totfact>
</mgrwt>
</event>
<event>
12    5  0.5221187E-008  0.1148230E+04  0.7818608E-02  0.9159418E-01
         -2   -1    0    0    0  501 -0.00000000000E+00  0.00000000000E+00  0.22638431722E+03  0.22638431722E+03  0.00000000000E+00 0.  1.
          1   -1    0    0  501    0  0.00000000000E+00 -0.00000000000E+00 -0.14559671518E+04  0.14559671518E+04  0.00000000000E+00 0. -1.
        -24    2    1    2    0    0 -0.14642104237E+03  0.10124758657E+03 -0.36602519726E+03  0.41463076601E+03  0.79082435886E+02 0.  0.
        254    2    1    2    0    0  0.14642104237E+03 -0.10124758657E+03 -0.86355763731E+03  0.12677207030E+04  0.91087528916E+03 0.  0.
         23    2    4    4    0    0 -0.53127790067E+02  0.19724665623E+01 -0.98967386696E+03  0.99532908631E+03  0.91647009857E+02 0.  0.
         23    2    4    4    0    0  0.19954883244E+03 -0.10322005313E+03  0.12611622964E+03  0.27239161668E+03  0.88418174394E+02 0.  0.
          1    1    3    3  502    0 -0.80512097239E+02  0.35312396732E+02 -0.10216197013E+03  0.13478216242E+03  0.00000000000E+00 0. -1.
         -2    1    3    3    0  502 -0.65908945132E+02  0.65935189833E+02 -0.26386322713E+03  0.27984860360E+03  0.00000000000E+00 0.  1.
         13    1    5    5    0    0 -0.37428445079E+02  0.43477092883E+02 -0.69092647777E+03  0.69330407744E+03  0.00000000000E+00 0.  1.
        -13    1    5    5    0    0 -0.15699344988E+02 -0.41504626320E+02 -0.29874738918E+03  0.30202500887E+03  0.00000000000E+00 0. -1.
          3    1    6    6  503    0  0.41637900732E+02  0.13841262572E+02  0.13796426742E+02  0.45996051111E+02  0.00000000000E+00 0. -1.
         -3    1    6    6    0  503  0.15791093171E+03 -0.11706131570E+03  0.11231980290E+03  0.22639556557E+03  0.00000000000E+00 0.  1.
<mgrwt>
<rscale>  0 0.11482302E+04</rscale>
<asrwt>0</asrwt>
<pdfrwt beam="1">  1        1 0.22399494E+00 0.11482302E+04</pdfrwt>
<pdfrwt beam="2">  1       -2 0.34828358E-01 0.11482302E+04</pdfrwt>
<totfact> 0.47302747E+01</totfact>
</mgrwt>
</event>
<event>
12    5  0.5221187E-008  0.1189339E+04  0.7818608E-02  0.9122240E-01
          1   -1    0    0  501    0  0.00000000000E+00  0.00000000000E+00  0.20419910484E+04  0.20419910484E+04  0.00000000000E+00 0. -1.
         -2   -1    0    0    0  501 -0.00000000000E+00 -0.00000000000E+00 -0.17317987034E+03  0.17317987034E+03  0.00000000000E+00 0.  1.
        -24    2    1    2    0    0 -0.16387806555E+03 -0.16688863012E+03  0.47663417262E+03  0.53728002253E+03  0.82352005829E+02 0.  0.
        254    2    1    2    0    0  0.16387806555E+03  0.16688863012E+03  0.13921770055E+04  0.16778908962E+04  0.90689206078E+03 0.  0.
         23    2    4    4    0    0 -0.12090608308E+03 -0.16092608745E+02 -0.74430872617E+02  0.16996252171E+03  0.92032880031E+02 0.  0.
         23    2    4    4    0    0  0.28478414863E+03  0.18298123886E+03  0.14666078781E+04  0.15079283745E+04  0.91242367108E+02 0.  0.
          1    1    3    3  502    0 -0.43622319798E+02 -0.79345088577E+02  0.25282560412E+03  0.26855043467E+03  0.00000000000E+00 0. -1.
         -2    1    3    3    0  502 -0.12025574575E+03 -0.87543541540E+02  0.22380856851E+03  0.26872958785E+03  0.00000000000E+00 0.  1.
         13    1    5    5    0    0 -0.13378288552E+03 -0.21180631977E+02 -0.55198308401E+02  0.14626459886E+03  0.00000000000E+00 0.  1.
        -13    1    5    5    0    0  0.12876802438E+02  0.50880232310E+01 -0.19232564217E+02  0.23697922858E+02  0.00000000000E+00 0. -1.
          4    1    6    6  503    0  0.33334264650E+02  0.43337196259E+02  0.37934623326E+03  0.38326603093E+03  0.00000000000E+00 0. -1.
         -4    1    6    6    0  503  0.25144988398E+03  0.13964404260E+03  0.10872616448E+04  0.11246623436E+04  0.00000000000E+00 0.  1.
<mgrwt>
<rscale>  0 0.11893389E+04</rscale>
<asrwt>0</asrwt>
<pdfrwt beam="1">  1        1 0.31415245E+00 0.11893389E+04</pdfrwt>
<pdfrwt beam="2">  1       -2 0.26643058E-01 0.11893389E+04</pdfrwt>
<totfact> 0.31064104E+01</totfact>
</mgrwt>
</event>
<event>
12    5  0.5221187E-008  0.1784458E+04  0.7818608E-02  0.8714608E-01
          1   -1    0    0  501    0  0.00000000000E+00  0.00000000000E+00  0.12346750253E+04  0.12346750253E+04  0.00000000000E+00 0. -1.
         -2   -1    0    0    0  501 -0.00000000000E+00 -0.00000000000E+00 -0.64476307316E+03  0.64476307316E+03  0.00000000000E+00 0.  1.
        -24    2    1    2    0    0  0.38239338094E+03 -0.53550266327E+03  0.30777544040E+03  0.73080725015E+03  0.79785431033E+02 0.  0.
        254    2    1    2    0    0 -0.38239338094E+03  0.53550266327E+03  0.28213651174E+03  0.11486308483E+04  0.89820043101E+03 0.  0.
         23    2    4    4    0    0 -0.69914728787E+02  0.31869883181E+03 -0.29577829545E+03  0.45051514988E+03  0.94984659339E+02 0.  0.
         23    2    4    4    0    0 -0.31247865215E+03  0.21680383146E+03  0.57791480719E+03  0.69811569843E+03  0.93451563068E+02 0.  0.
          3    1    3    3  502    0  0.13085373459E+03 -0.15016201795E+03  0.12802174728E+03  0.23677182955E+03  0.00000000000E+00 0. -1.
         -4    1    3    3    0  502  0.25153964635E+03 -0.38534064532E+03  0.17975369312E+03  0.49403542060E+03  0.00000000000E+00 0.  1.
         13    1    5    5    0    0 -0.21520810014E+02  0.20325131037E+03 -0.12791326823E+03  0.24111417342E+03  0.00000000000E+00 0. -1.
        -13    1    5    5    0    0 -0.48393918773E+02  0.11544752144E+03 -0.16786502722E+03  0.20940097646E+03  0.00000000000E+00 0.  1.
          1    1    6    6  503    0 -0.13185568072E+03  0.45398830004E+02  0.25139154083E+03  0.28747987947E+03  0.00000000000E+00 0. -1.
         -1    1    6    6    0  503 -0.18062297143E+03  0.17140500145E+03  0.32652326636E+03  0.41063581895E+03  0.00000000000E+00 0.  1.
<mgrwt>
<rscale>  0 0.17844583E+04</rscale>
<asrwt>0</asrwt>
<pdfrwt beam="1">  1        1 0.18995000E+00 0.17844583E+04</pdfrwt>
<pdfrwt beam="2">  1       -2 0.99194320E-01 0.17844583E+04</pdfrwt>
<totfact> 0.70354282E+00</totfact>
</mgrwt>
</event>
<event>
12    5  0.5221187E-008  0.1908948E+04  0.7818608E-02  0.8650415E-01
         -2   -1    0    0    0  501 -0.00000000000E+00  0.00000000000E+00  0.65100015602E+03  0.65100015602E+03  0.00000000000E+00 0.  1.
          1   -1    0    0  501    0  0.00000000000E+00 -0.00000000000E+00 -0.13994164927E+04  0.13994164927E+04  0.00000000000E+00 0. -1.
        -24    2    1    2    0    0 -0.51708528522E+02  0.71346554630E+03 -0.75144329525E+02  0.72404110574E+03  0.82957789655E+02 0.  0.
        254    2    1    2    0    0  0.51708528522E+02 -0.71346554630E+03 -0.67327200713E+03  0.13263755430E+04  0.89121828285E+03 0.  0.
         23    2    4    4    0    0 -0.37853802105E+03 -0.33389548728E+03 -0.12583649843E+03  0.52815082308E+03  0.91275614384E+02 0.  0.
         23    2    4    4    0    0  0.43024654957E+03 -0.37957005902E+03 -0.54743550870E+03  0.79822471987E+03  0.91057916241E+02 0.  0.
          1    1    3    3  502    0 -0.35228055224E+01  0.11936077028E+03 -0.43696097638E+02  0.12715640995E+03  0.00000000000E+00 0. -1.
         -2    1    3    3    0  502 -0.48185722999E+02  0.59410477601E+03 -0.31448231886E+02  0.59688469579E+03  0.00000000000E+00 0.  1.
         13    1    5    5    0    0 -0.22727122114E+03 -0.15648508945E+03 -0.35893246204E+02  0.27825908125E+03  0.00000000000E+00 0.  1.
        -13    1    5    5    0    0 -0.15126679991E+03 -0.17741039783E+03 -0.89943252226E+02  0.24989174183E+03  0.00000000000E+00 0. -1.
          2    1    6    6  503    0  0.26490727138E+03 -0.28350252180E+03 -0.33747523773E+03  0.51423640321E+03  0.00000000000E+00 0.  1.
         -2    1    6    6    0  503  0.16533927819E+03 -0.96067537215E+02 -0.20996027097E+03  0.28398831667E+03  0.00000000000E+00 0. -1.
<mgrwt>
<rscale>  0 0.19089477E+04</rscale>
<asrwt>0</asrwt>
<pdfrwt beam="1">  1        1 0.21529484E+00 0.19089477E+04</pdfrwt>
<pdfrwt beam="2">  1       -2 0.10015387E+00 0.19089477E+04</pdfrwt>
<totfact> 0.51923869E+00</totfact>
</mgrwt>
</event>
<event>
12    5  0.5221187E-008  0.3285569E+04  0.7818608E-02  0.8166577E-01
          1   -1    0    0  501    0  0.00000000000E+00  0.00000000000E+00  0.11835996424E+04  0.11835996424E+04  0.00000000000E+00 0. -1.
         -2   -1    0    0    0  501 -0.00000000000E+00 -0.00000000000E+00 -0.22801123408E+04  0.22801123408E+04  0.00000000000E+00 0.  1.
        -24    2    1    2    0    0 -0.10867006342E+04 -0.94151544700E+03 -0.10317662569E+04  0.17715467759E+04  0.80416198830E+02 0.  0.
        254    2    1    2    0    0  0.10867006342E+04  0.94151544700E+03 -0.64746441523E+02  0.16921652072E+04  0.88986593454E+03 0.  0.
         23    2    4    4    0    0  0.91516226843E+03  0.25532857891E+03  0.97449413553E+02  0.95950910160E+03  0.91905751127E+02 0.  0.
         23    2    4    4    0    0  0.17153836579E+03  0.68618686809E+03 -0.16219585508E+03  0.73265610561E+03  0.10099329087E+03 0.  0.
          3    1    3    3  502    0 -0.64822279971E+01 -0.16635754469E+01 -0.11454823295E-01  0.66923011205E+01  0.00000000000E+00 0. -1.
         -4    1    3    3    0  502 -0.10802184062E+04 -0.93985187156E+03 -0.10317548021E+04  0.17648544748E+04  0.00000000000E+00 0.  1.
         13    1    5    5    0    0  0.42941698189E+03  0.12464529900E+03  0.91759528858E+02  0.45645942430E+03  0.00000000000E+00 0. -1.
        -13    1    5    5    0    0  0.48574528654E+03  0.13068327991E+03  0.56898846953E+01  0.50304967730E+03  0.00000000000E+00 0.  1.
          1    1    6    6  503    0  0.74505067717E+02  0.14212481557E+03 -0.17781537009E+02  0.16145169982E+03  0.00000000000E+00 0. -1.
         -1    1    6    6    0  503  0.97033298073E+02  0.54406205252E+03 -0.14441431807E+03  0.57120440579E+03  0.00000000000E+00 0.  1.
<mgrwt>
<rscale>  0 0.32855685E+04</rscale>
<asrwt>0</asrwt>
<pdfrwt beam="1">  1        1 0.18209226E+00 0.32855685E+04</pdfrwt>
<pdfrwt beam="2">  1       -2 0.35078651E+00 0.32855685E+04</pdfrwt>
<totfact> 0.12315534E-01</totfact>
</mgrwt>
</event>
<event>
12    5  0.5221187E-008  0.1753649E+04  0.7818608E-02  0.8731344E-01
          1   -1    0    0  501    0  0.00000000000E+00  0.00000000000E+00  0.27072023210E+04  0.27072023210E+04  0.00000000000E+00 0. -1.
         -2   -1    0    0    0  501 -0.00000000000E+00 -0.00000000000E+00 -0.28399099926E+03  0.28399099926E+03  0.00000000000E+00 0.  1.
        -24    2    1    2    0    0  0.10547901004E+03  0.63695768245E+03  0.88472833950E+03  0.10981628526E+04  0.79853023522E+02 0.  0.
        254    2    1    2    0    0 -0.10547901004E+03 -0.63695768245E+03  0.15384829822E+04  0.18930304676E+04  0.89431177673E+03 0.  0.
         23    2    4    4    0    0  0.28710633497E+03 -0.45563126215E+03  0.12519650031E+04  0.13660709190E+04  0.93292509277E+02 0.  0.
         23    2    4    4    0    0 -0.39258534500E+03 -0.18132642030E+03  0.28651797919E+03  0.52695954863E+03  0.92689210156E+02 0.  0.
          3    1    3    3  502    0 -0.85285838690E+01  0.12073753639E+03  0.18746746927E+03  0.22314645744E+03  0.00000000000E+00 0. -1.
         -4    1    3    3    0  502  0.11400759391E+03  0.51622014605E+03  0.69726087024E+03  0.87501639517E+03  0.00000000000E+00 0.  1.
         13    1    5    5    0    0  0.11785740965E+03 -0.25091303310E+03  0.55953150088E+03  0.62443832334E+03  0.00000000000E+00 0.  1.
        -13    1    5    5    0    0  0.16924892532E+03 -0.20471822905E+03  0.69243350218E+03  0.74163259568E+03  0.00000000000E+00 0. -1.
          4    1    6    6  503    0 -0.26405641662E+02 -0.41081582604E+02  0.19631311452E+02  0.52634045353E+02  0.00000000000E+00 0. -1.
         -4    1    6    6    0  503 -0.36617970334E+03 -0.14024483769E+03  0.26688666774E+03  0.47432550327E+03  0.00000000000E+00 0.  1.
<mgrwt>
<rscale>  0 0.17536489E+04</rscale>
<asrwt>0</asrwt>
<pdfrwt beam="1">  1        1 0.41649265E+00 0.17536489E+04</pdfrwt>
<pdfrwt beam="2">  1       -2 0.43690925E-01 0.17536489E+04</pdfrwt>
<totfact> 0.40172583E+00</totfact>
</mgrwt>
</event>
<event>
12    5  0.5221187E-008  0.2576957E+04  0.7818608E-02  0.8376071E-01
          1   -1    0    0  501    0  0.00000000000E+00  0.00000000000E+00  0.14237994488E+04  0.14237994488E+04  0.00000000000E+00 0. -1.
         -2   -1    0    0    0  501 -0.00000000000E+00 -0.00000000000E+00 -0.11660186404E+04  0.11660186404E+04  0.00000000000E+00 0.  1.
        -24    2    1    2    0    0 -0.93847342227E+03 -0.62705352404E+03  0.15251695580E+03  0.11416425362E+04  0.78471474703E+02 0.  0.
        254    2    1    2    0    0  0.93847342227E+03  0.62705352404E+03  0.10526385262E+03  0.14481755529E+04  0.90122331697E+03 0.  0.
         23    2    4    4    0    0 -0.68747722198E+02  0.30163265791E+03 -0.15172806984E+03  0.35527016243E+03  0.86527287682E+02 0.  0.
         23    2    4    4    0    0  0.10072211445E+04  0.32542086613E+03  0.25699192246E+03  0.10929053905E+04  0.89466029011E+02 0.  0.
          3    1    3    3  502    0 -0.21472539795E+03 -0.11645540647E+03  0.96538871227E+01  0.24446279013E+03  0.00000000000E+00 0. -1.
         -4    1    3    3    0  502 -0.72374802432E+03 -0.51059811757E+03  0.14286306867E+03  0.89717974607E+03  0.00000000000E+00 0.  1.
         13    1    5    5    0    0 -0.51490567939E+02  0.13363896908E+03 -0.11193018541E+03  0.18176638592E+03  0.00000000000E+00 0. -1.
        -13    1    5    5    0    0 -0.17257154259E+02  0.16799368883E+03 -0.39797884423E+02  0.17350377652E+03  0.00000000000E+00 0.  1.
          2    1    6    6  503    0  0.70578893664E+02  0.38916659574E+02  0.38641337253E+02  0.89381427422E+02  0.00000000000E+00 0. -1.
         -2    1    6    6    0  503  0.93664225081E+03  0.28650420656E+03  0.21835058520E+03  0.10035239631E+04  0.00000000000E+00 0.  1.
<mgrwt>
<rscale>  0 0.25769569E+04</rscale>
<asrwt>0</asrwt>
<pdfrwt beam="1">  1        1 0.21904607E+00 0.25769569E+04</pdfrwt>
<pdfrwt beam="2">  1       -2 0.17938748E+00 0.25769569E+04</pdfrwt>
<totfact> 0.10488886E+00</totfact>
</mgrwt>
</event>
<event>
12    5  0.5221187E-008  0.2407149E+04  0.7818608E-02  0.8436832E-01
         -2   -1    0    0    0  501 -0.00000000000E+00  0.00000000000E+00  0.94903489800E+03  0.94903489800E+03  0.00000000000E+00 0.  1.
          1   -1    0    0  501    0  0.00000000000E+00 -0.00000000000E+00 -0.15263844502E+04  0.15263844502E+04  0.00000000000E+00 0. -1.
        -24    2    1    2    0    0 -0.19834873972E+03 -0.33183180023E+03  0.76074692514E+03  0.85702061941E+03  0.79334051892E+02 0.  0.
        254    2    1    2    0    0  0.19834873972E+03  0.33183180023E+03 -0.13380964773E+04  0.16183987288E+04  0.82417091459E+03 0.  0.
         23    2    4    4    0    0  0.34189303985E+03 -0.15542709902E+03 -0.67668723381E+03  0.77938678513E+03  0.92139647384E+02 0.  0.
         23    2    4    4    0    0 -0.14354430013E+03  0.48725889926E+03 -0.66140924350E+03  0.83901194363E+03  0.91938311726E+02 0.  0.
          3    1    3    3  502    0 -0.27258741835E+02 -0.10971515567E+03  0.18900845814E+03  0.22023771620E+03  0.00000000000E+00 0. -1.
         -4    1    3    3    0  502 -0.17108999789E+03 -0.22211664456E+03  0.57173846700E+03  0.63678290321E+03  0.00000000000E+00 0.  1.
         13    1    5    5    0    0  0.20179114674E+03 -0.13368096784E+03 -0.47117955940E+03  0.52971732581E+03  0.00000000000E+00 0.  1.
        -13    1    5    5    0    0  0.14010189311E+03 -0.21746131183E+02 -0.20550767441E+03  0.24966945932E+03  0.00000000000E+00 0. -1.
          3    1    6    6  503    0 -0.21661048246E+02  0.81138487896E+02 -0.17243889174E+03  0.19180152922E+03  0.00000000000E+00 0. -1.
         -3    1    6    6    0  503 -0.12188325188E+03  0.40612041136E+03 -0.48897035177E+03  0.64721041441E+03  0.00000000000E+00 0.  1.
<mgrwt>
<rscale>  0 0.24071494E+04</rscale>
<asrwt>0</asrwt>
<pdfrwt beam="1">  1        1 0.23482837E+00 0.24071494E+04</pdfrwt>
<pdfrwt beam="2">  1       -2 0.14600537E+00 0.24071494E+04</pdfrwt>
<totfact> 0.15870925E+00</totfact>
</mgrwt>
</event>
<event>
12    5  0.5221187E-008  0.2567260E+04  0.7818608E-02  0.8379408E-01
         -2   -1    0    0    0  501 -0.00000000000E+00  0.00000000000E+00  0.21920136726E+04  0.21920136726E+04  0.00000000000E+00 0.  1.
          1   -1    0    0  501    0  0.00000000000E+00 -0.00000000000E+00 -0.75168575680E+03  0.75168575680E+03  0.00000000000E+00 0. -1.
        -24    2    1    2    0    0 -0.78692108143E+03 -0.50308792129E+03  0.12537223359E+04  0.15656475588E+04  0.84204143473E+02 0.  0.
        254    2    1    2    0    0  0.78692108143E+03  0.50308792129E+03  0.18660557986E+03  0.13780518706E+04  0.99592322530E+03 0.  0.
         23    2    4    4    0    0  0.97050904614E+02  0.21437536344E+03 -0.36531831270E+03  0.44385947234E+03  0.90432776462E+02 0.  0.
         23    2    4    4    0    0  0.68987017682E+03  0.28871255785E+03  0.55192389255E+03  0.93419239826E+03  0.93913001631E+02 0.  0.
          1    1    3    3  502    0 -0.39335148330E+03 -0.20297505855E+03  0.60837377426E+03  0.75235823450E+03  0.00000000000E+00 0. -1.
         -2    1    3    3    0  502 -0.39356959813E+03 -0.30011286274E+03  0.64534856167E+03  0.81328932429E+03  0.00000000000E+00 0.  1.
         13    1    5    5    0    0  0.69880194716E+02  0.16434083025E+03 -0.19566649751E+03  0.26490852827E+03  0.00000000000E+00 0.  1.
        -13    1    5    5    0    0  0.27170709898E+02  0.50034533185E+02 -0.16965181519E+03  0.17895094407E+03  0.00000000000E+00 0. -1.
          1    1    6    6  503    0  0.22753565330E+03  0.14256821470E+03  0.20995801785E+03  0.34085266410E+03  0.00000000000E+00 0. -1.
         -1    1    6    6    0  503  0.46233452352E+03  0.14614434315E+03  0.34196587471E+03  0.59333973416E+03  0.00000000000E+00 0.  1.
<mgrwt>
<rscale>  0 0.25672596E+04</rscale>
<asrwt>0</asrwt>
<pdfrwt beam="1">  1        1 0.11564396E+00 0.25672596E+04</pdfrwt>
<pdfrwt beam="2">  1       -2 0.33723287E+00 0.25672596E+04</pdfrwt>
<totfact> 0.35376993E-01</totfact>
</mgrwt>
</event>
<event>
12    5  0.5221187E-008  0.1354260E+04  0.7818608E-02  0.8987610E-01
          1   -1    0    0  501    0  0.00000000000E+00  0.00000000000E+00  0.80583408452E+03  0.80583408452E+03  0.00000000000E+00 0. -1.
         -2   -1    0    0    0  501 -0.00000000000E+00 -0.00000000000E+00 -0.56898156372E+03  0.56898156372E+03  0.00000000000E+00 0.  1.
        -24    2    1    2    0    0  0.26070168189E+03 -0.90342956534E+02  0.32941986162E+03  0.43709729493E+03  0.80058623960E+02 0.  0.
        254    2    1    2    0    0 -0.26070168189E+03  0.90342956534E+02 -0.92567340823E+02  0.93771835331E+03  0.89141448317E+03 0.  0.
         23    2    4    4    0    0  0.27464180303E+03 -0.45674319054E+02 -0.21662227003E+03  0.36413637909E+03  0.90309641323E+02 0.  0.
         23    2    4    4    0    0 -0.53534348492E+03  0.13601727559E+03  0.12405492921E+03  0.57358197422E+03  0.92267597705E+02 0.  0.
          3    1    3    3  502    0  0.26298426832E+03 -0.82570210140E+02  0.30372371531E+03  0.41015443461E+03  0.00000000000E+00 0. -1.
         -4    1    3    3    0  502 -0.22825864280E+01 -0.77727463940E+01  0.25696146307E+02  0.26942860322E+02  0.00000000000E+00 0.  1.
         13    1    5    5    0    0  0.65873284871E+02  0.27505769212E+02 -0.49083388827E+02  0.86631611196E+02  0.00000000000E+00 0.  1.
        -13    1    5    5    0    0  0.20876851815E+03 -0.73180088265E+02 -0.16753888120E+03  0.27750476790E+03  0.00000000000E+00 0. -1.
          4    1    6    6  503    0 -0.28047140642E+03  0.11287114685E+03  0.44549717336E+02  0.30559578355E+03  0.00000000000E+00 0. -1.
         -4    1    6    6    0  503 -0.25487207849E+03  0.23146128739E+02  0.79505211872E+02  0.26798619066E+03  0.00000000000E+00 0.  1.
<mgrwt>
<rscale>  0 0.13542596E+04</rscale>
<asrwt>0</asrwt>
<pdfrwt beam="1">  1        1 0.12397448E+00 0.13542596E+04</pdfrwt>
<pdfrwt beam="2">  1       -2 0.87535625E-01 0.13542596E+04</pdfrwt>
<totfact> 0.21106737E+01</totfact>
</mgrwt>
</event>
<event>
12    5  0.5221187E-008  0.2040369E+04  0.7818608E-02  0.8587976E-01
          1   -1    0    0  501    0  0.00000000000E+00  0.00000000000E+00  0.12647855246E+04  0.12647855246E+04  0.00000000000E+00 0. -1.
         -2   -1    0    0    0  501 -0.00000000000E+00 -0.00000000000E+00 -0.82288765770E+03  0.82288765770E+03  0.00000000000E+00 0.  1.
        -24    2    1    2    0    0 -0.37628385088E+03 -0.52787709403E+03  0.59433376551E+03  0.88249252966E+03  0.72915548678E+02 0.  0.
        254    2    1    2    0    0  0.37628385088E+03  0.52787709403E+03 -0.15243589857E+03  0.12051806527E+04  0.10044799349E+04 0.  0.
         23    2    4    4    0    0  0.62532569730E+03  0.64549171335E+03 -0.87507848519E+02  0.90752622811E+03  0.90854011761E+02 0.  0.
         23    2    4    4    0    0 -0.24904184643E+03 -0.11761461932E+03 -0.64928050052E+02  0.29765442457E+03  0.92344273416E+02 0.  0.
          1    1    3    3  502    0 -0.31918607127E+03 -0.39959292574E+03  0.48037525141E+03  0.70165136397E+03  0.00000000000E+00 0. -1.
         -2    1    3    3    0  502 -0.57097779606E+02 -0.12828416830E+03  0.11395851410E+03  0.18084116569E+03  0.00000000000E+00 0.  1.
         13    1    5    5    0    0  0.20845770205E+03  0.18916202441E+03  0.10723704835E+02  0.28169466248E+03  0.00000000000E+00 0.  1.
        -13    1    5    5    0    0  0.41686799525E+03  0.45632968894E+03 -0.98231553353E+02  0.62583156564E+03  0.00000000000E+00 0. -1.
          3    1    6    6  503    0 -0.15048161464E+03 -0.86190133319E+02  0.37960358245E+01  0.17345854062E+03  0.00000000000E+00 0. -1.
         -3    1    6    6    0  503 -0.98560231791E+02 -0.31424485997E+02 -0.68724085876E+02  0.12419588395E+03  0.00000000000E+00 0.  1.
<mgrwt>
<rscale>  0 0.20403690E+04</rscale>
<asrwt>0</asrwt>
<pdfrwt beam="1">  1        1 0.19458239E+00 0.20403690E+04</pdfrwt>
<pdfrwt beam="2">  1       -2 0.12659810E+00 0.20403690E+04</pdfrwt>
<totfact> 0.36114820E+00</totfact>
</mgrwt>
</event>
<event>
12    5  0.5221187E-008  0.1328108E+04  0.7818608E-02  0.9007568E-01
          1   -1    0    0  501    0  0.00000000000E+00  0.00000000000E+00  0.44274955104E+03  0.44274955104E+03  0.00000000000E+00 0. -1.
         -2   -1    0    0    0  501 -0.00000000000E+00 -0.00000000000E+00 -0.99597546451E+03  0.99597546451E+03  0.00000000000E+00 0.  1.
        -24    2    1    2    0    0 -0.11471371152E+03 -0.31743069846E+03 -0.64536301641E+02  0.35265341741E+03  0.79233923562E+02 0.  0.
        254    2    1    2    0    0  0.11471371152E+03  0.31743069846E+03 -0.48868961184E+03  0.10860715981E+04  0.90929230484E+03 0.  0.
         23    2    4    4    0    0 -0.30301701111E+03  0.32707112724E+03 -0.24897743354E+02  0.45523026535E+03  0.88430003812E+02 0.  0.
         23    2    4    4    0    0  0.41773072263E+03 -0.96404287740E+01 -0.46379186848E+03  0.63084133279E+03  0.90917519686E+02 0.  0.
          3    1    3    3  502    0 -0.41401936674E+02 -0.11665102810E+03  0.14794030732E+02  0.12466132545E+03  0.00000000000E+00 0. -1.
         -4    1    3    3    0  502 -0.73311774845E+02 -0.20077967036E+03 -0.79330332373E+02  0.22799209196E+03  0.00000000000E+00 0.  1.
         13    1    5    5    0    0 -0.82280322424E+02  0.37760206219E+02 -0.88008449033E+00  0.90535402913E+02  0.00000000000E+00 0.  1.
        -13    1    5    5    0    0 -0.22073668869E+03  0.28931092102E+03 -0.24017658863E+02  0.36469486244E+03  0.00000000000E+00 0. -1.
          1    1    6    6  503    0  0.30250705768E+03 -0.35458984204E+02 -0.37496517261E+03  0.48308046967E+03  0.00000000000E+00 0. -1.
         -1    1    6    6    0  503  0.11522366496E+03  0.25818555430E+02 -0.88826695876E+02  0.14776086312E+03  0.00000000000E+00 0.  1.
<mgrwt>
<rscale>  0 0.13281080E+04</rscale>
<asrwt>0</asrwt>
<pdfrwt beam="1">  1        1 0.68115316E-01 0.13281080E+04</pdfrwt>
<pdfrwt beam="2">  1       -2 0.15322699E+00 0.13281080E+04</pdfrwt>
<totfact> 0.12687746E+01</totfact>
</mgrwt>
</event>
<event>
12    5  0.5221187E-008  0.2160077E+04  0.7818608E-02  0.8535231E-01
          1   -1    0    0  501    0  0.00000000000E+00  0.00000000000E+00  0.54925472833E+03  0.54925472833E+03  0.00000000000E+00 0. -1.
         -2   -1    0    0    0  501 -0.00000000000E+00 -0.00000000000E+00 -0.21237557194E+04  0.21237557194E+04  0.00000000000E+00 0.  1.
        -24    2    1    2    0    0 -0.27701706181E+03 -0.78022408967E+03 -0.10486895427E+04  0.13383696618E+04  0.77430692219E+02 0.  0.
        254    2    1    2    0    0  0.27701706181E+03  0.78022408967E+03 -0.52581144841E+03  0.13346407859E+04  0.90515206765E+03 0.  0.
         23    2    4    4    0    0 -0.13966274157E+03  0.79312131447E+02  0.17595227663E+03  0.25495240255E+03  0.90804340964E+02 0.  0.
         23    2    4    4    0    0  0.41667980338E+03  0.70091195823E+03 -0.70176372504E+03  0.10796883834E+04  0.91405950105E+02 0.  0.
          1    1    3    3  502    0 -0.74749660024E+02 -0.27535252635E+03 -0.40959785906E+03  0.49917625302E+03  0.00000000000E+00 0. -1.
         -2    1    3    3    0  502 -0.20226740178E+03 -0.50487156333E+03 -0.63909168364E+03  0.83919340881E+03  0.00000000000E+00 0.  1.
         13    1    5    5    0    0 -0.12565217622E+03  0.78526531895E+02  0.18591868741E+03  0.23774070734E+03  0.00000000000E+00 0. -1.
        -13    1    5    5    0    0 -0.14010565354E+02  0.78559955291E+00 -0.99664107791E+01  0.17211695210E+02  0.00000000000E+00 0.  1.
          4    1    6    6  503    0  0.25577820727E+03  0.47121308121E+03 -0.50976799495E+03  0.73981596894E+03  0.00000000000E+00 0. -1.
         -4    1    6    6    0  503  0.16090159611E+03  0.22969887701E+03 -0.19199573009E+03  0.33987241445E+03  0.00000000000E+00 0.  1.
<mgrwt>
<rscale>  0 0.21600767E+04</rscale>
<asrwt>0</asrwt>
<pdfrwt beam="1">  1        1 0.84500728E-01 0.21600767E+04</pdfrwt>
<pdfrwt beam="2">  1       -2 0.32673165E+00 0.21600767E+04</pdfrwt>
<totfact> 0.67818684E-01</totfact>
</mgrwt>
</event>
<event>
12    5  0.5221187E-008  0.1339888E+04  0.7818608E-02  0.8998518E-01
          1   -1    0    0  501    0  0.00000000000E+00  0.00000000000E+00  0.15883711324E+04  0.15883711324E+04  0.00000000000E+00 0. -1.
         -4   -1    0    0    0  501 -0.00000000000E+00 -0.00000000000E+00 -0.28256930154E+03  0.28256930154E+03  0.00000000000E+00 0.  1.
        -24    2    1    2    0    0 -0.13925180778E+02  0.33531086953E+03  0.54602531189E+03  0.64612461183E+03  0.81890676562E+02 0.  0.
        254    2    1    2    0    0  0.13925180778E+02 -0.33531086953E+03  0.75977651896E+03  0.12248158221E+04  0.90015895786E+03 0.  0.
         23    2    4    4    0    0 -0.18503375573E+03 -0.55934305489E+03  0.67213957211E+03  0.89847775476E+03  0.91588905428E+02 0.  0.
         23    2    4    4    0    0  0.19895893651E+03  0.22403218537E+03  0.87636946849E+02  0.32633806733E+03  0.95085336636E+02 0.  0.
          1    1    3    3  502    0 -0.17709100475E+02  0.26692235729E+03  0.48732197279E+03  0.55591713612E+03  0.00000000000E+00 0. -1.
         -2    1    3    3    0  502  0.37839196967E+01  0.68388512231E+02  0.58703339101E+02  0.90207475716E+02  0.00000000000E+00 0.  1.
         13    1    5    5    0    0 -0.20020506217E+02 -0.12661120374E+03  0.19647881280E+03  0.23459569788E+03  0.00000000000E+00 0.  1.
        -13    1    5    5    0    0 -0.16501324951E+03 -0.43273185115E+03  0.47566075931E+03  0.66388205689E+03  0.00000000000E+00 0. -1.
          3    1    6    6  503    0  0.41794007033E+02  0.35786683972E+02  0.56964679133E+02  0.79198487626E+02  0.00000000000E+00 0. -1.
         -3    1    6    6    0  503  0.15716492947E+03  0.18824550139E+03  0.30672267716E+02  0.24713957971E+03  0.00000000000E+00 0.  1.
<mgrwt>
<rscale>  0 0.13398879E+04</rscale>
<asrwt>0</asrwt>
<pdfrwt beam="1">  1        1 0.24436478E+00 0.13398879E+04</pdfrwt>
<pdfrwt beam="2">  1       -4 0.43472201E-01 0.13398879E+04</pdfrwt>
<totfact> 0.14128908E+01</totfact>
</mgrwt>
</event>
<event>
12    5  0.5221187E-008  0.1502386E+04  0.7818608E-02  0.8882868E-01
          1   -1    0    0  501    0  0.00000000000E+00  0.00000000000E+00  0.10962006441E+04  0.10962006441E+04  0.00000000000E+00 0. -1.
         -2   -1    0    0    0  501 -0.00000000000E+00 -0.00000000000E+00 -0.51476982068E+03  0.51476982068E+03  0.00000000000E+00 0.  1.
        -24    2    1    2    0    0  0.34939782747E+03  0.13630284241E+03  0.48064801914E+03  0.61477324866E+03  0.79160105326E+02 0.  0.
        254    2    1    2    0    0 -0.34939782747E+03 -0.13630284241E+03  0.10078280427E+03  0.99619721610E+03  0.91738455025E+03 0.  0.
         23    2    4    4    0    0  0.13005861430E+03  0.19628678496E+03 -0.20956959383E+03  0.32901252593E+03  0.94266019633E+02 0.  0.
         23    2    4    4    0    0 -0.47945644177E+03 -0.33258962736E+03  0.31035239809E+03  0.66718469017E+03  0.91227517845E+02 0.  0.
          1    1    3    3  502    0  0.26483825485E+03  0.89603633251E+02  0.40474857541E+03  0.49192430477E+03  0.00000000000E+00 0. -1.
         -2    1    3    3    0  502  0.84559572616E+02  0.46699209156E+02  0.75899443736E+02  0.12284894390E+03  0.00000000000E+00 0.  1.
         13    1    5    5    0    0  0.53039572676E+02  0.56719872233E+02 -0.12858027187E+03  0.15021060711E+03  0.00000000000E+00 0.  1.
        -13    1    5    5    0    0  0.77019041626E+02  0.13956691272E+03 -0.80989321959E+02  0.17880191881E+03  0.00000000000E+00 0. -1.
          4    1    6    6  503    0 -0.19060392163E+03 -0.10662664646E+03  0.72717875101E+02  0.23018902240E+03  0.00000000000E+00 0. -1.
         -4    1    6    6    0  503 -0.28885252014E+03 -0.22596298090E+03  0.23763452299E+03  0.43699566777E+03  0.00000000000E+00 0.  1.
<mgrwt>
<rscale>  0 0.15023861E+04</rscale>
<asrwt>0</asrwt>
<pdfrwt beam="1">  1        1 0.16864625E+00 0.15023861E+04</pdfrwt>
<pdfrwt beam="2">  1       -2 0.79195357E-01 0.15023861E+04</pdfrwt>
<totfact> 0.15306216E+01</totfact>
</mgrwt>
</event>
<event>
12    5  0.5221187E-008  0.1373591E+04  0.7818608E-02  0.8973160E-01
         -2   -1    0    0    0  501 -0.00000000000E+00  0.00000000000E+00  0.60443680624E+03  0.60443680624E+03  0.00000000000E+00 0.  1.
          1   -1    0    0  501    0  0.00000000000E+00 -0.00000000000E+00 -0.78037601593E+03  0.78037601593E+03  0.00000000000E+00 0. -1.
        -24    2    1    2    0    0  0.17983303263E+03  0.61944309877E+02  0.28443406627E+03  0.35185040623E+03  0.81969220785E+02 0.  0.
        254    2    1    2    0    0 -0.17983303263E+03 -0.61944309877E+02 -0.46037327596E+03  0.10329624159E+04  0.90492584358E+03 0.  0.
         23    2    4    4    0    0 -0.32951728966E+03  0.65918008419E+02  0.15431204495E+03  0.38078578474E+03  0.90877822521E+02 0.  0.
         23    2    4    4    0    0  0.14968425703E+03 -0.12786231830E+03 -0.61468532090E+03  0.65217663120E+03  0.93499547082E+02 0.  0.
          1    1    3    3  502    0  0.86698412893E+02  0.35794969494E+02  0.71396675951E+02  0.11787866633E+03  0.00000000000E+00 0. -1.
         -2    1    3    3    0  502  0.93134619741E+02  0.26149340383E+02  0.21303739032E+03  0.23397173990E+03  0.00000000000E+00 0.  1.
         13    1    5    5    0    0 -0.18859586004E+03 -0.67250808008E+01  0.97140124081E+02  0.21224944957E+03  0.00000000000E+00 0.  1.
        -13    1    5    5    0    0 -0.14092142962E+03  0.72643089220E+02  0.57171920866E+02  0.16853633517E+03  0.00000000000E+00 0. -1.
          4    1    6    6  503    0  0.49711969670E+02 -0.32364191554E+01 -0.23541464424E+03  0.24062794738E+03  0.00000000000E+00 0.  1.
         -4    1    6    6    0  503  0.99972287359E+02 -0.12462589914E+03 -0.37927067667E+03  0.41154868382E+03  0.00000000000E+00 0. -1.
<mgrwt>
<rscale>  0 0.13735909E+04</rscale>
<asrwt>0</asrwt>
<pdfrwt beam="1">  1        1 0.12005785E+00 0.13735909E+04</pdfrwt>
<pdfrwt beam="2">  1       -2 0.92990278E-01 0.13735909E+04</pdfrwt>
<totfact> 0.19292368E+01</totfact>
</mgrwt>
</event>
<event>
12    5  0.5221187E-008  0.1968641E+04  0.7818608E-02  0.8621424E-01
          1   -1    0    0  501    0  0.00000000000E+00  0.00000000000E+00  0.27048866251E+04  0.27048866251E+04  0.00000000000E+00 0. -1.
         -2   -1    0    0    0  501 -0.00000000000E+00 -0.00000000000E+00 -0.35819872918E+03  0.35819872918E+03  0.00000000000E+00 0.  1.
        -24    2    1    2    0    0 -0.27946414820E+03  0.12505908111E+03 -0.15983355664E+03  0.35481384294E+03  0.81278000824E+02 0.  0.
        254    2    1    2    0    0  0.27946414820E+03 -0.12505908111E+03  0.25065214525E+04  0.27082715113E+04  0.97895086857E+03 0.  0.
         23    2    4    4    0    0 -0.16941767058E+02 -0.32468611084E+03  0.24541826887E+03  0.41735365527E+03  0.90806678364E+02 0.  0.
         23    2    4    4    0    0  0.29640591525E+03  0.19962702973E+03  0.22611031837E+04  0.22909178560E+04  0.89496359267E+02 0.  0.
          3    1    3    3  502    0 -0.51565475299E+02  0.42398236487E+02 -0.45372655695E+01  0.66911848569E+02  0.00000000000E+00 0. -1.
         -4    1    3    3    0  502 -0.22789867290E+03  0.82660844621E+02 -0.15529629107E+03  0.28790199437E+03  0.00000000000E+00 0.  1.
         13    1    5    5    0    0 -0.28694728021E+02 -0.71583061394E+02  0.23736324371E+02  0.80690366150E+02  0.00000000000E+00 0. -1.
        -13    1    5    5    0    0  0.11752960962E+02 -0.25310304944E+03  0.22168194449E+03  0.33666328912E+03  0.00000000000E+00 0.  1.
          1    1    6    6  503    0  0.96404922841E+02  0.37337050927E+02  0.87516837554E+03  0.88125345393E+03  0.00000000000E+00 0. -1.
         -1    1    6    6    0  503  0.20000099241E+03  0.16228997880E+03  0.13859348081E+04  0.14096644021E+04  0.00000000000E+00 0.  1.
<mgrwt>
<rscale>  0 0.19686411E+04</rscale>
<asrwt>0</asrwt>
<pdfrwt beam="1">  1        1 0.41613639E+00 0.19686411E+04</pdfrwt>
<pdfrwt beam="2">  1       -2 0.55107498E-01 0.19686411E+04</pdfrwt>
<totfact> 0.24659732E+00</totfact>
</mgrwt>
</event>
<event>
12    5  0.5221187E-008  0.1061005E+04  0.7818608E-02  0.9244055E-01
          1   -1    0    0  501    0  0.00000000000E+00  0.00000000000E+00  0.53802298241E+03  0.53802298241E+03  0.00000000000E+00 0. -1.
         -2   -1    0    0    0  501 -0.00000000000E+00 -0.00000000000E+00 -0.52308727819E+03  0.52308727819E+03  0.00000000000E+00 0.  1.
        -24    2    1    2    0    0  0.13162316872E+03  0.73177783002E+02 -0.15295271572E+02  0.17111424514E+03  0.79790306986E+02 0.  0.
        254    2    1    2    0    0 -0.13162316872E+03 -0.73177783002E+02  0.30230975798E+02  0.88999601546E+03  0.87664094655E+03 0.  0.
         23    2    4    4    0    0  0.11542015492E+03  0.78911228972E+02 -0.35917306790E+03  0.39525165679E+03  0.87577310253E+02 0.  0.
         23    2    4    4    0    0 -0.24704332363E+03 -0.15208901197E+03  0.38940404369E+03  0.49474435867E+03  0.94736475963E+02 0.  0.
          1    1    3    3  502    0  0.10047040037E+03  0.79252440603E+02  0.12959514579E+02  0.12862037051E+03  0.00000000000E+00 0. -1.
         -2    1    3    3    0  502  0.31152768352E+02 -0.60746576005E+01 -0.28254786150E+02  0.42493874633E+02  0.00000000000E+00 0.  1.
         13    1    5    5    0    0  0.12174073221E+03  0.51539768016E+02 -0.32597843136E+03  0.35176567667E+03  0.00000000000E+00 0. -1.
        -13    1    5    5    0    0 -0.63205772991E+01  0.27371460956E+02 -0.33194636532E+02  0.43485980117E+02  0.00000000000E+00 0.  1.
          4    1    6    6  503    0 -0.23724667038E+03 -0.12744735948E+03  0.38167409967E+03  0.46712303561E+03  0.00000000000E+00 0. -1.
         -4    1    6    6    0  503 -0.97966532590E+01 -0.24641652498E+02  0.77299440220E+01  0.27621323058E+02  0.00000000000E+00 0.  1.
<mgrwt>
<rscale>  0 0.10610051E+04</rscale>
<asrwt>0</asrwt>
<pdfrwt beam="1">  1        1 0.82772767E-01 0.10610051E+04</pdfrwt>
<pdfrwt beam="2">  1       -2 0.80474966E-01 0.10610051E+04</pdfrwt>
<totfact> 0.47722932E+01</totfact>
</mgrwt>
</event>
<event>
12    5  0.5221187E-008  0.1260391E+04  0.7818608E-02  0.9061579E-01
          1   -1    0    0  501    0  0.00000000000E+00  0.00000000000E+00  0.16105121746E+04  0.16105121746E+04  0.00000000000E+00 0. -1.
         -2   -1    0    0    0  501 -0.00000000000E+00 -0.00000000000E+00 -0.24659614062E+03  0.24659614062E+03  0.00000000000E+00 0.  1.
        -24    2    1    2    0    0 -0.25095703203E+03 -0.30531097045E+02  0.51740559892E+03  0.58120411784E+03  0.78600845958E+02 0.  0.
        254    2    1    2    0    0  0.25095703203E+03  0.30531097045E+02  0.84651043502E+03  0.12759041973E+04  0.92056505711E+03 0.  0.
         23    2    4    4    0    0  0.96857643502E+02 -0.17455905231E+03  0.95697501152E+03  0.98192798919E+03  0.92353329365E+02 0.  0.
         23    2    4    4    0    0  0.15409938853E+03  0.20509014935E+03 -0.11046457650E+03  0.29397620814E+03  0.91711489944E+02 0.  0.
          3    1    3    3  502    0 -0.18640460322E+03  0.12624823789E+02  0.37709289663E+03  0.42083858541E+03  0.00000000000E+00 0. -1.
         -4    1    3    3    0  502 -0.64552428815E+02 -0.43155920834E+02  0.14031270229E+03  0.16036553243E+03  0.00000000000E+00 0.  1.
         13    1    5    5    0    0  0.11462727662E+03 -0.14719342655E+03  0.84144361244E+03  0.86187741024E+03  0.00000000000E+00 0. -1.
        -13    1    5    5    0    0 -0.17769633119E+02 -0.27365625760E+02  0.11553139908E+03  0.12005057896E+03  0.00000000000E+00 0.  1.
          3    1    6    6  503    0  0.11715541285E+03  0.19350490424E+03 -0.67332125564E+02  0.23601515599E+03  0.00000000000E+00 0. -1.
         -3    1    6    6    0  503  0.36943975681E+02  0.11585245115E+02 -0.43132450933E+02  0.57961052156E+02  0.00000000000E+00 0.  1.
<mgrwt>
<rscale>  0 0.12603906E+04</rscale>
<asrwt>0</asrwt>
<pdfrwt beam="1">  1        1 0.24777110E+00 0.12603906E+04</pdfrwt>
<pdfrwt beam="2">  1       -2 0.37937869E-01 0.12603906E+04</pdfrwt>
<totfact> 0.31124947E+01</totfact>
</mgrwt>
</event>
<event>
12    5  0.5221187E-008  0.1247399E+04  0.7818608E-02  0.9072351E-01
         -2   -1    0    0    0  501 -0.00000000000E+00  0.00000000000E+00  0.37594533829E+03  0.37594533829E+03  0.00000000000E+00 0.  1.
          1   -1    0    0  501    0  0.00000000000E+00 -0.00000000000E+00 -0.10347270876E+04  0.10347270876E+04  0.00000000000E+00 0. -1.
        -24    2    1    2    0    0  0.78341685358E+02 -0.27329134770E+03 -0.10055967826E+03  0.31604398866E+03  0.94583156466E+02 0.  0.
        254    2    1    2    0    0 -0.78341685358E+02  0.27329134770E+03 -0.55822207103E+03  0.10946284372E+04  0.89764912666E+03 0.  0.
         23    2    4    4    0    0  0.15887948987E+03 -0.49600222302E+02 -0.64657725319E+03  0.67407218936E+03  0.92780912788E+02 0.  0.
         23    2    4    4    0    0 -0.23722117523E+03  0.32289157000E+03  0.88355182154E+02  0.42055624786E+03  0.92347536223E+02 0.  0.
          3    1    3    3  502    0  0.85107814553E+02 -0.16823334972E+03 -0.93723379688E+02  0.21054660282E+03  0.00000000000E+00 0. -1.
         -4    1    3    3    0  502 -0.67661291943E+01 -0.10505799797E+03 -0.68362985758E+01  0.10549738585E+03  0.00000000000E+00 0.  1.
         13    1    5    5    0    0 -0.12121741304E+02  0.11601304371E+01 -0.42014333973E+02  0.43743419780E+02  0.00000000000E+00 0.  1.
        -13    1    5    5    0    0  0.17100123117E+03 -0.50760352740E+02 -0.60456291921E+03  0.63032876958E+03  0.00000000000E+00 0. -1.
          1    1    6    6  503    0 -0.22894877082E+03  0.32862594899E+03  0.82541397314E+02  0.40893231259E+03  0.00000000000E+00 0. -1.
         -1    1    6    6    0  503 -0.82724044092E+01 -0.57343789861E+01  0.58137848406E+01  0.11623935273E+02  0.00000000000E+00 0.  1.
<mgrwt>
<rscale>  0 0.12473986E+04</rscale>
<asrwt>0</asrwt>
<pdfrwt beam="1">  1        1 0.15918878E+00 0.12473986E+04</pdfrwt>
<pdfrwt beam="2">  1       -2 0.57837745E-01 0.12473986E+04</pdfrwt>
<totfact> 0.34410335E+01</totfact>
</mgrwt>
</event>
<event>
12    5  0.5221187E-008  0.1227022E+04  0.7818608E-02  0.9089527E-01
          1   -1    0    0  501    0  0.00000000000E+00  0.00000000000E+00  0.62230366211E+03  0.62230366211E+03  0.00000000000E+00 0. -1.
         -2   -1    0    0    0  501 -0.00000000000E+00 -0.00000000000E+00 -0.60484287643E+03  0.60484287643E+03  0.00000000000E+00 0.  1.
        -24    2    1    2    0    0  0.20860934642E+03  0.16785678338E+03 -0.76212294213E+02  0.29089161989E+03  0.84355566474E+02 0.  0.
        254    2    1    2    0    0 -0.20860934642E+03 -0.16785678338E+03  0.93673079896E+02  0.93625491865E+03  0.89224708891E+03 0.  0.
         23    2    4    4    0    0 -0.46101297841E+02 -0.40040187642E+02 -0.38751465392E+03  0.40364227570E+03  0.95031223487E+02 0.  0.
         23    2    4    4    0    0 -0.16250804858E+03 -0.12781659574E+03  0.48118773382E+03  0.53261264296E+03  0.96895016712E+02 0.  0.
          3    1    3    3  502    0  0.18326920037E+03  0.16424313255E+03 -0.44415474119E+02  0.25007227102E+03  0.00000000000E+00 0. -1.
         -4    1    3    3    0  502  0.25340146049E+02  0.36136508314E+01 -0.31796820094E+02  0.40819348871E+02  0.00000000000E+00 0.  1.
         13    1    5    5    0    0 -0.51969819761E+02 -0.15793413328E+02 -0.90263080742E+02  0.10534570620E+03  0.00000000000E+00 0. -1.
        -13    1    5    5    0    0  0.58685219201E+01 -0.24246774314E+02 -0.29725157318E+03  0.29829656949E+03  0.00000000000E+00 0.  1.
          4    1    6    6  503    0 -0.33282803948E+02 -0.47366086006E+02  0.24405260654E+03  0.25082457196E+03  0.00000000000E+00 0. -1.
         -4    1    6    6    0  503 -0.12922524463E+03 -0.80450509730E+02  0.23713512728E+03  0.28178807099E+03  0.00000000000E+00 0.  1.
<mgrwt>
<rscale>  0 0.12270223E+04</rscale>
<asrwt>0</asrwt>
<pdfrwt beam="1">  1        1 0.95739024E-01 0.12270223E+04</pdfrwt>
<pdfrwt beam="2">  1       -2 0.93052751E-01 0.12270223E+04</pdfrwt>
<totfact> 0.27471062E+01</totfact>
</mgrwt>
</event>
<event>
12    5  0.5221187E-008  0.1734618E+04  0.7818608E-02  0.8741863E-01
         -2   -1    0    0    0  501 -0.00000000000E+00  0.00000000000E+00  0.21123124962E+04  0.21123124962E+04  0.00000000000E+00 0.  1.
          1   -1    0    0  501    0  0.00000000000E+00 -0.00000000000E+00 -0.35611453188E+03  0.35611453188E+03  0.00000000000E+00 0. -1.
        -24    2    1    2    0    0  0.62909584991E+03 -0.59818941898E+02  0.58002302011E+03  0.86147453566E+03  0.79823414828E+02 0.  0.
        254    2    1    2    0    0 -0.62909584991E+03  0.59818941898E+02  0.11761749442E+04  0.16069524924E+04  0.89418617710E+03 0.  0.
         23    2    4    4    0    0 -0.26749002103E+02  0.83227639513E+02 -0.12052760252E+03  0.17411484802E+03  0.90259228010E+02 0.  0.
         23    2    4    4    0    0 -0.60234684781E+03 -0.23408697615E+02  0.12967025467E+04  0.14328376444E+04  0.90645067770E+02 0.  0.
          3    1    3    3  502    0  0.60310744375E+03 -0.68342504849E+02  0.53658770765E+03  0.81014545280E+03  0.00000000000E+00 0. -1.
         -4    1    3    3    0  502  0.25988406157E+02  0.85235629519E+01  0.43435312453E+02  0.51329082866E+02  0.00000000000E+00 0.  1.
         13    1    5    5    0    0 -0.13089390356E+01 -0.13730174993E+01 -0.74456095781E+02  0.74480257098E+02  0.00000000000E+00 0.  1.
        -13    1    5    5    0    0 -0.25440063068E+02  0.84600657012E+02 -0.46071506738E+02  0.99634590925E+02  0.00000000000E+00 0. -1.
          1    1    6    6  503    0 -0.34366689647E+03 -0.47383219558E+02  0.80933662286E+03  0.88055543512E+03  0.00000000000E+00 0. -1.
         -1    1    6    6    0  503 -0.25867995134E+03  0.23974521942E+02  0.48736592387E+03  0.55228220928E+03  0.00000000000E+00 0.  1.
<mgrwt>
<rscale>  0 0.17346183E+04</rscale>
<asrwt>0</asrwt>
<pdfrwt beam="1">  1        1 0.54786852E-01 0.17346183E+04</pdfrwt>
<pdfrwt beam="2">  1       -2 0.32497115E+00 0.17346183E+04</pdfrwt>
<totfact> 0.12993999E+00</totfact>
</mgrwt>
</event>
<event>
12    5  0.5221187E-008  0.1806038E+04  0.7818608E-02  0.8703095E-01
          1   -1    0    0  501    0  0.00000000000E+00  0.00000000000E+00  0.24699522768E+04  0.24699522768E+04  0.00000000000E+00 0. -1.
         -2   -1    0    0    0  501 -0.00000000000E+00 -0.00000000000E+00 -0.33014554314E+03  0.33014554314E+03  0.00000000000E+00 0.  1.
        -24    2    1    2    0    0  0.56611126814E+03 -0.10909897321E+03  0.27520028481E+03  0.64408159367E+03  0.81983831796E+02 0.  0.
        254    2    1    2    0    0 -0.56611126814E+03  0.10909897321E+03  0.18646064489E+04  0.21560162263E+04  0.91611364192E+03 0.  0.
         23    2    4    4    0    0 -0.13991032033E+03  0.47577292430E+03  0.99740940164E+03  0.11181148305E+04  0.97059190554E+02 0.  0.
         23    2    4    4    0    0 -0.42620094781E+03 -0.36667395109E+03  0.86719704722E+03  0.10379013958E+04  0.95454461920E+02 0.  0.
          1    1    3    3  502    0  0.18422290824E+01  0.59572981773E+01  0.12400444168E+01  0.63577448613E+01  0.00000000000E+00 0. -1.
         -2    1    3    3    0  502  0.56426903906E+03 -0.11505627139E+03  0.27396024039E+03  0.63772384881E+03  0.00000000000E+00 0.  1.
         13    1    5    5    0    0 -0.40005569625E+02  0.20493695856E+03  0.51801197885E+03  0.55851232109E+03  0.00000000000E+00 0. -1.
        -13    1    5    5    0    0 -0.99904750709E+02  0.27083596574E+03  0.47939742279E+03  0.55960250941E+03  0.00000000000E+00 0.  1.
          4    1    6    6  503    0 -0.19529846636E+02  0.40107570972E+01  0.33432343001E+02  0.38925860821E+02  0.00000000000E+00 0. -1.
         -4    1    6    6    0  503 -0.40667110117E+03 -0.37068470819E+03  0.83376470422E+03  0.99897553495E+03  0.00000000000E+00 0.  1.
<mgrwt>
<rscale>  0 0.18060385E+04</rscale>
<asrwt>0</asrwt>
<pdfrwt beam="1">  1        1 0.37999265E+00 0.18060385E+04</pdfrwt>
<pdfrwt beam="2">  1       -2 0.50791623E-01 0.18060385E+04</pdfrwt>
<totfact> 0.43185832E+00</totfact>
</mgrwt>
</event>
<event>
12    5  0.5221187E-008  0.1415393E+04  0.7818608E-02  0.8942751E-01
         -2   -1    0    0    0  501 -0.00000000000E+00  0.00000000000E+00  0.44287688705E+03  0.44287688705E+03  0.00000000000E+00 0.  1.
          1   -1    0    0  501    0  0.00000000000E+00 -0.00000000000E+00 -0.11308656732E+04  0.11308656732E+04  0.00000000000E+00 0. -1.
        -24    2    1    2    0    0  0.39422870293E+03  0.11643475032E+03 -0.28436534143E+03  0.50598006668E+03  0.78605719767E+02 0.  0.
        254    2    1    2    0    0 -0.39422870293E+03 -0.11643475032E+03 -0.40362344469E+03  0.10677624935E+04  0.89901698327E+03 0.  0.
         23    2    4    4    0    0 -0.52538923742E+03  0.16442112763E+03 -0.47934743186E+03  0.73568164956E+03  0.91571671741E+02 0.  0.
         23    2    4    4    0    0  0.13116053450E+03 -0.28085587794E+03  0.75723987164E+02  0.33208084397E+03  0.91980730131E+02 0.  0.
          1    1    3    3  502    0  0.36955712765E+03  0.10637165209E+03 -0.23726410053E+03  0.45186463942E+03  0.00000000000E+00 0. -1.
         -2    1    3    3    0  502  0.24671575278E+02  0.10063098231E+02 -0.47101240900E+02  0.54115427255E+02  0.00000000000E+00 0.  1.
         13    1    5    5    0    0 -0.97497206214E+02 -0.19690678474E+01 -0.10503349599E+03  0.14332347235E+03  0.00000000000E+00 0. -1.
        -13    1    5    5    0    0 -0.42789203121E+03  0.16639019547E+03 -0.37431393587E+03  0.59235817721E+03  0.00000000000E+00 0.  1.
          1    1    6    6  503    0 -0.16491814020E+01 -0.10616783162E+02 -0.14221097741E+02  0.17823453789E+02  0.00000000000E+00 0. -1.
         -1    1    6    6    0  503  0.13280971590E+03 -0.27023909478E+03  0.89945084905E+02  0.31425739018E+03  0.00000000000E+00 0.  1.
<mgrwt>
<rscale>  0 0.14153929E+04</rscale>
<asrwt>0</asrwt>
<pdfrwt beam="1">  1        1 0.17397933E+00 0.14153929E+04</pdfrwt>
<pdfrwt beam="2">  1       -2 0.68134907E-01 0.14153929E+04</pdfrwt>
<totfact> 0.20240960E+01</totfact>
</mgrwt>
</event>
<event>
12    5  0.5221187E-008  0.1263624E+04  0.7818608E-02  0.9058919E-01
          1   -1    0    0  501    0  0.00000000000E+00  0.00000000000E+00  0.25915504600E+04  0.25915504600E+04  0.00000000000E+00 0. -1.
         -2   -1    0    0    0  501 -0.00000000000E+00 -0.00000000000E+00 -0.15403392689E+03  0.15403392689E+03  0.00000000000E+00 0.  1.
        -24    2    1    2    0    0 -0.21209053782E+03  0.15171814522E+03  0.27101649142E+03  0.38453770344E+03  0.80115634694E+02 0.  0.
        254    2    1    2    0    0  0.21209053782E+03 -0.15171814522E+03  0.21665000416E+04  0.23610466834E+04  0.90156431772E+03 0.  0.
         23    2    4    4    0    0  0.56128332555E+02 -0.50709931418E+03  0.14743442289E+04  0.15628904273E+04  0.92927275085E+02 0.  0.
         23    2    4    4    0    0  0.15596220526E+03  0.35538116896E+03  0.69215581276E+03  0.79815625607E+03  0.85754039289E+02 0.  0.
          3    1    3    3  502    0 -0.66274368321E+01  0.24615552315E+02  0.54283892157E+02  0.59971570619E+02  0.00000000000E+00 0. -1.
         -4    1    3    3    0  502 -0.20546310099E+03  0.12710259291E+03  0.21673259927E+03  0.32456613282E+03  0.00000000000E+00 0.  1.
         13    1    5    5    0    0  0.57214321981E+02 -0.46824581651E+03  0.14182637753E+04  0.14946570709E+04  0.00000000000E+00 0.  1.
        -13    1    5    5    0    0 -0.10859894265E+01 -0.38853497674E+02  0.56080453624E+02  0.68233356455E+02  0.00000000000E+00 0. -1.
          1    1    6    6  503    0 -0.10708601869E+02  0.30363762491E+02  0.55472575328E+02  0.64139214527E+02  0.00000000000E+00 0. -1.
         -1    1    6    6    0  503  0.16667080713E+03  0.32501740647E+03  0.63668323743E+03  0.73401704154E+03  0.00000000000E+00 0.  1.
<mgrwt>
<rscale>  0 0.12636245E+04</rscale>
<asrwt>0</asrwt>
<pdfrwt beam="1">  1        1 0.39870004E+00 0.12636245E+04</pdfrwt>
<pdfrwt beam="2">  1       -2 0.23697529E-01 0.12636245E+04</pdfrwt>
<totfact> 0.16086473E+01</totfact>
</mgrwt>
</event>
<event>
12    5  0.5221187E-008  0.1493209E+04  0.7818608E-02  0.8888982E-01
          1   -1    0    0  501    0  0.00000000000E+00  0.00000000000E+00  0.18757648582E+04  0.18757648582E+04  0.00000000000E+00 0. -1.
         -2   -1    0    0    0  501 -0.00000000000E+00 -0.00000000000E+00 -0.29716839822E+03  0.29716839822E+03  0.00000000000E+00 0.  1.
        -24    2    1    2    0    0  0.35881292176E+03  0.30692873649E+02  0.95661832254E+03  0.10253777013E+04  0.81191439959E+02 0.  0.
        254    2    1    2    0    0 -0.35881292176E+03 -0.30692873649E+02  0.62197813740E+03  0.11475555551E+04  0.89461622128E+03 0.  0.
         23    2    4    4    0    0 -0.65057692861E+03 -0.19951907321E+02  0.43203529312E+03  0.78731325462E+03  0.97771405631E+02 0.  0.
         23    2    4    4    0    0  0.29176400685E+03 -0.10740966327E+02  0.18994284428E+03  0.36024230050E+03  0.91949045281E+02 0.  0.
          3    1    3    3  502    0  0.23889906993E+03  0.90005204932E+01  0.72888962147E+03  0.76709442396E+03  0.00000000000E+00 0. -1.
         -4    1    3    3    0  502  0.11991385183E+03  0.21692353155E+02  0.22772870107E+03  0.25828327731E+03  0.00000000000E+00 0.  1.
         13    1    5    5    0    0 -0.48406075695E+03  0.15932457411E+02  0.35426700984E+03  0.60006147508E+03  0.00000000000E+00 0. -1.
        -13    1    5    5    0    0 -0.16651617166E+03 -0.35884364732E+02  0.77768283278E+02  0.18725177954E+03  0.00000000000E+00 0.  1.
          2    1    6    6  503    0  0.18630708400E+03  0.27271500185E+01  0.16969028935E+03  0.25201698593E+03  0.00000000000E+00 0. -1.
         -2    1    6    6    0  503  0.10545692284E+03 -0.13468116346E+02  0.20252554935E+02  0.10822531457E+03  0.00000000000E+00 0.  1.
<mgrwt>
<rscale>  0 0.14932087E+04</rscale>
<asrwt>0</asrwt>
<pdfrwt beam="1">  1        1 0.28857920E+00 0.14932087E+04</pdfrwt>
<pdfrwt beam="2">  1       -2 0.45718216E-01 0.14932087E+04</pdfrwt>
<totfact> 0.13953200E+01</totfact>
</mgrwt>
</event>
<event>
12    5  0.5221187E-008  0.2054750E+04  0.7818608E-02  0.8581443E-01
          1   -1    0    0  501    0  0.00000000000E+00  0.00000000000E+00  0.15875657274E+04  0.15875657274E+04  0.00000000000E+00 0. -1.
         -2   -1    0    0    0  501 -0.00000000000E+00 -0.00000000000E+00 -0.66485380090E+03  0.66485380090E+03  0.00000000000E+00 0.  1.
        -24    2    1    2    0    0  0.66577042656E+03 -0.39853726042E+03  0.72066925578E+03  0.10620102714E+04  0.80121354900E+02 0.  0.
        254    2    1    2    0    0 -0.66577042656E+03  0.39853726042E+03  0.20204267076E+03  0.11904092569E+04  0.87986973432E+03 0.  0.
         23    2    4    4    0    0 -0.22552864498E+03 -0.23789514290E+03  0.23248704802E+03  0.41134502093E+03  0.87733859043E+02 0.  0.
         23    2    4    4    0    0 -0.44024178159E+03  0.63643240332E+03 -0.30444377264E+02  0.77906423601E+03  0.84588376706E+02 0.  0.
          1    1    3    3  502    0  0.30081864429E+02 -0.13178823196E+02  0.55492714840E+02  0.64482876399E+02  0.00000000000E+00 0. -1.
         -2    1    3    3    0  502  0.63568856214E+03 -0.38535843722E+03  0.66517654094E+03  0.99752739500E+03  0.00000000000E+00 0.  1.
         13    1    5    5    0    0 -0.17994403304E+03 -0.12941413274E+03  0.14940119931E+03  0.26729869273E+03  0.00000000000E+00 0. -1.
        -13    1    5    5    0    0 -0.45584611936E+02 -0.10848101016E+03  0.83085848718E+02  0.14404632820E+03  0.00000000000E+00 0.  1.
          1    1    6    6  503    0 -0.30513859626E+03  0.46597145472E+03 -0.57183445171E+02  0.55991866011E+03  0.00000000000E+00 0. -1.
         -1    1    6    6    0  503 -0.13510318533E+03  0.17046094860E+03  0.26739067907E+02  0.21914557590E+03  0.00000000000E+00 0.  1.
<mgrwt>
<rscale>  0 0.20547497E+04</rscale>
<asrwt>0</asrwt>
<pdfrwt beam="1">  1        1 0.24424088E+00 0.20547497E+04</pdfrwt>
<pdfrwt beam="2">  1       -2 0.10228520E+00 0.20547497E+04</pdfrwt>
<totfact> 0.36104842E+00</totfact>
</mgrwt>
</event>
<event>
12    5  0.5221187E-008  0.1418066E+04  0.7818608E-02  0.8940845E-01
          1   -1    0    0  501    0  0.00000000000E+00  0.00000000000E+00  0.26691488586E+04  0.26691488586E+04  0.00000000000E+00 0. -1.
         -2   -1    0    0    0  501 -0.00000000000E+00 -0.00000000000E+00 -0.18834750289E+03  0.18834750289E+03  0.00000000000E+00 0.  1.
        -24    2    1    2    0    0  0.22405533780E+03  0.32744193489E+03  0.50768631231E+03  0.64990494314E+03  0.84923661548E+02 0.  0.
        254    2    1    2    0    0 -0.22405533780E+03 -0.32744193489E+03  0.19731150434E+04  0.22075914184E+04  0.90711514196E+03 0.  0.
         23    2    4    4    0    0  0.84039087571E+02 -0.50261937918E+03  0.62604207429E+03  0.81210525454E+03  0.88867638109E+02 0.  0.
         23    2    4    4    0    0 -0.30809442537E+03  0.17517744429E+03  0.13470729691E+04  0.13954861638E+04  0.84656584866E+02 0.  0.
          3    1    3    3  502    0  0.74178384208E+02  0.13654859883E+03  0.26159103492E+03  0.30426603832E+03  0.00000000000E+00 0. -1.
         -4    1    3    3    0  502  0.14987695359E+03  0.19089333607E+03  0.24609527739E+03  0.34563890483E+03  0.00000000000E+00 0.  1.
         13    1    5    5    0    0  0.78566636070E+02 -0.45023755323E+03  0.51094118656E+03  0.68552714517E+03  0.00000000000E+00 0.  1.
        -13    1    5    5    0    0  0.54724515015E+01 -0.52381825947E+02  0.11510088773E+03  0.12657810937E+03  0.00000000000E+00 0. -1.
          3    1    6    6  503    0 -0.16357172777E+03  0.82466085681E+02  0.53602319680E+03  0.56646026597E+03  0.00000000000E+00 0. -1.
         -3    1    6    6    0  503 -0.14452269760E+03  0.92711358604E+02  0.81104977231E+03  0.82902589784E+03  0.00000000000E+00 0.  1.
<mgrwt>
<rscale>  0 0.14180656E+04</rscale>
<asrwt>0</asrwt>
<pdfrwt beam="1">  1        1 0.41063826E+00 0.14180656E+04</pdfrwt>
<pdfrwt beam="2">  1       -2 0.28976541E-01 0.14180656E+04</pdfrwt>
<totfact> 0.96945907E+00</totfact>
</mgrwt>
</event>
<event>
12    5  0.5221187E-008  0.1362744E+04  0.7818608E-02  0.8981237E-01
         -2   -1    0    0    0  501 -0.00000000000E+00  0.00000000000E+00  0.31991766038E+03  0.31991766038E+03  0.00000000000E+00 0.  1.
          1   -1    0    0  501    0  0.00000000000E+00 -0.00000000000E+00 -0.14512106142E+04  0.14512106142E+04  0.00000000000E+00 0. -1.
        -24    2    1    2    0    0  0.23119136068E+03 -0.25847427448E+03 -0.52124078416E+03  0.63111704394E+03  0.79739402176E+02 0.  0.
        254    2    1    2    0    0 -0.23119136068E+03  0.25847427448E+03 -0.61005216965E+03  0.11400112306E+04  0.89844507927E+03 0.  0.
         23    2    4    4    0    0 -0.25363676435E+03 -0.10881294409E+03  0.12299453325E+03  0.31464782995E+03  0.87770932827E+02 0.  0.
         23    2    4    4    0    0  0.22445403666E+02  0.36728721857E+03 -0.73304670291E+03  0.82536340069E+03  0.91997703712E+02 0.  0.
          3    1    3    3  502    0  0.17369676451E+03 -0.17145507643E+03 -0.30168746052E+03  0.38804991054E+03  0.00000000000E+00 0. -1.
         -4    1    3    3    0  502  0.57494596172E+02 -0.87019198043E+02 -0.21955332365E+03  0.24306713340E+03  0.00000000000E+00 0.  1.
         13    1    5    5    0    0 -0.25675523118E+03 -0.99396604285E+02  0.12790113614E+03  0.30358134710E+03  0.00000000000E+00 0. -1.
        -13    1    5    5    0    0  0.31184668289E+01 -0.94163398063E+01 -0.49066028888E+01  0.11066482848E+02  0.00000000000E+00 0.  1.
          1    1    6    6  503    0  0.56234433273E+02  0.18256155419E+03 -0.39043587232E+03  0.43466217105E+03  0.00000000000E+00 0. -1.
         -1    1    6    6    0  503 -0.33789029607E+02  0.18472566438E+03 -0.34261083059E+03  0.39070122964E+03  0.00000000000E+00 0.  1.
<mgrwt>
<rscale>  0 0.13627441E+04</rscale>
<asrwt>0</asrwt>
<pdfrwt beam="1">  1        1 0.22326318E+00 0.13627441E+04</pdfrwt>
<pdfrwt beam="2">  1       -2 0.49218101E-01 0.13627441E+04</pdfrwt>
<totfact> 0.23716123E+01</totfact>
</mgrwt>
</event>
<event>
12    5  0.5221187E-008  0.1280049E+04  0.7818608E-02  0.9045538E-01
          1   -1    0    0  501    0  0.00000000000E+00  0.00000000000E+00  0.62987098098E+03  0.62987098098E+03  0.00000000000E+00 0. -1.
         -2   -1    0    0    0  501 -0.00000000000E+00 -0.00000000000E+00 -0.65034130296E+03  0.65034130296E+03  0.00000000000E+00 0.  1.
        -24    2    1    2    0    0  0.24264242777E+03  0.72119363793E+02 -0.20220885583E+03  0.33513028440E+03  0.85716601403E+02 0.  0.
        254    2    1    2    0    0 -0.24264242777E+03 -0.72119363793E+02  0.18173853385E+03  0.94508199955E+03  0.89223009409E+03 0.  0.
         23    2    4    4    0    0  0.12508869079E+03  0.26725674849E+03  0.29137444653E+03  0.42510536765E+03  0.93499493782E+02 0.  0.
         23    2    4    4    0    0 -0.36773111856E+03 -0.33937611228E+03 -0.10963591268E+03  0.51997663190E+03  0.89181518405E+02 0.  0.
          1    1    3    3  502    0  0.89100356417E+02  0.12726013004E+02 -0.25348620032E+02  0.93506028994E+02  0.00000000000E+00 0. -1.
         -2    1    3    3    0  502  0.15354207135E+03  0.59393350789E+02 -0.17686023579E+03  0.24162425540E+03  0.00000000000E+00 0.  1.
         13    1    5    5    0    0  0.95888059416E+02  0.25977098394E+03  0.24463781341E+03  0.36949038389E+03  0.00000000000E+00 0.  1.
        -13    1    5    5    0    0  0.29200631375E+02  0.74857645503E+01  0.46736633118E+02  0.55614983761E+02  0.00000000000E+00 0. -1.
          3    1    6    6  503    0 -0.23169797252E+03 -0.15596372064E+03 -0.73218404838E+02  0.28873788707E+03  0.00000000000E+00 0. -1.
         -3    1    6    6    0  503 -0.13603314605E+03 -0.18341239165E+03 -0.36417507841E+02  0.23123874483E+03  0.00000000000E+00 0.  1.
<mgrwt>
<rscale>  0 0.12800486E+04</rscale>
<asrwt>0</asrwt>
<pdfrwt beam="1">  1        1 0.96903228E-01 0.12800486E+04</pdfrwt>
<pdfrwt beam="2">  1       -2 0.10005251E+00 0.12800486E+04</pdfrwt>
<totfact> 0.22672044E+01</totfact>
</mgrwt>
</event>
<event>
12    5  0.5221187E-008  0.1218384E+04  0.7818608E-02  0.9096915E-01
          3   -1    0    0  501    0  0.00000000000E+00  0.00000000000E+00  0.22479275975E+04  0.22479275975E+04  0.00000000000E+00 0. -1.
         -2   -1    0    0    0  501 -0.00000000000E+00 -0.00000000000E+00 -0.16509214615E+03  0.16509214615E+03  0.00000000000E+00 0.  1.
        -24    2    1    2    0    0  0.92327107146E+02 -0.23147762739E+03  0.28339046250E+03  0.38698986030E+03  0.85701873039E+02 0.  0.
        254    2    1    2    0    0 -0.92327107146E+02  0.23147762739E+03  0.17994449889E+04  0.20260298834E+04  0.89704438777E+03 0.  0.
         23    2    4    4    0    0  0.19052553061E+02 -0.31174033830E+03  0.98366538648E+03  0.10359842698E+04  0.90115351042E+02 0.  0.
         23    2    4    4    0    0 -0.11137966021E+03  0.54321796569E+03  0.81577960238E+03  0.99004561352E+03  0.84869135893E+02 0.  0.
          3    1    3    3  502    0  0.22651000818E+02 -0.91664316374E+02  0.16823040526E+03  0.19291677996E+03  0.00000000000E+00 0. -1.
         -4    1    3    3    0  502  0.69676106328E+02 -0.13981331102E+03  0.11516005724E+03  0.19407308034E+03  0.00000000000E+00 0.  1.
         13    1    5    5    0    0  0.38144511807E+02 -0.13307917480E+03  0.32511524632E+03  0.35336241160E+03  0.00000000000E+00 0. -1.
        -13    1    5    5    0    0 -0.19091958747E+02 -0.17866116350E+03  0.65855014017E+03  0.68262185824E+03  0.00000000000E+00 0.  1.
          4    1    6    6  503    0 -0.97007868972E+02  0.30139111354E+03  0.50421453035E+03  0.59538174525E+03  0.00000000000E+00 0. -1.
         -4    1    6    6    0  503 -0.14371791235E+02  0.24182685216E+03  0.31156507204E+03  0.39466386827E+03  0.00000000000E+00 0.  1.
<mgrwt>
<rscale>  0 0.12183845E+04</rscale>
<asrwt>0</asrwt>
<pdfrwt beam="1">  1        3 0.34583499E+00 0.12183845E+04</pdfrwt>
<pdfrwt beam="2">  1       -2 0.25398793E-01 0.12183845E+04</pdfrwt>
<totfact> 0.12224917E+00</totfact>
</mgrwt>
</event>
<event>
12    5  0.5221187E-008  0.1108243E+04  0.7818608E-02  0.9197195E-01
         -2   -1    0    0    0  501 -0.00000000000E+00  0.00000000000E+00  0.11433880981E+04  0.11433880981E+04  0.00000000000E+00 0.  1.
          1   -1    0    0  501    0  0.00000000000E+00 -0.00000000000E+00 -0.26854461339E+03  0.26854461339E+03  0.00000000000E+00 0. -1.
        -24    2    1    2    0    0 -0.88273425412E+02 -0.73108781463E+02 -0.32791928387E+02  0.14428641973E+03  0.81278341464E+02 0.  0.
        254    2    1    2    0    0  0.88273425412E+02  0.73108781463E+02  0.90763541311E+03  0.12676462918E+04  0.87748959331E+03 0.  0.
         23    2    4    4    0    0  0.30973853163E+03  0.10288304635E+03  0.96275878906E+03  0.10206340115E+04  0.90919857003E+02 0.  0.
         23    2    4    4    0    0 -0.22146510622E+03 -0.29774264889E+02 -0.55123375945E+02  0.24701228024E+03  0.89683777199E+02 0.  0.
          1    1    3    3  502    0 -0.94308465109E+02 -0.33701812800E+02 -0.28870218674E+02  0.10422757938E+03  0.00000000000E+00 0. -1.
         -2    1    3    3    0  502  0.60350396970E+01 -0.39406968663E+02 -0.39217097132E+01  0.40058840353E+02  0.00000000000E+00 0.  1.
         13    1    5    5    0    0  0.25136920413E+03  0.43210249651E+02  0.74273001368E+03  0.78530342905E+03  0.00000000000E+00 0.  1.
        -13    1    5    5    0    0  0.58369327499E+02  0.59672796701E+02  0.22002877538E+03  0.23533058249E+03  0.00000000000E+00 0. -1.
          2    1    6    6  503    0 -0.19547505580E+03 -0.46208150662E+02 -0.22398871643E+02  0.20210739739E+03  0.00000000000E+00 0. -1.
         -2    1    6    6    0  503 -0.25990050417E+02  0.16433885774E+02 -0.32724504301E+02  0.44904882853E+02  0.00000000000E+00 0.  1.
<mgrwt>
<rscale>  0 0.11082431E+04</rscale>
<asrwt>0</asrwt>
<pdfrwt beam="1">  1        1 0.41314557E-01 0.11082431E+04</pdfrwt>
<pdfrwt beam="2">  1       -2 0.17590586E+00 0.11082431E+04</pdfrwt>
<totfact> 0.17023818E+01</totfact>
</mgrwt>
</event>
<event>
12    5  0.5221187E-008  0.2792649E+04  0.7818608E-02  0.8305554E-01
          1   -1    0    0  501    0  0.00000000000E+00  0.00000000000E+00  0.15562994753E+04  0.15562994753E+04  0.00000000000E+00 0. -1.
         -2   -1    0    0    0  501 -0.00000000000E+00 -0.00000000000E+00 -0.12527938668E+04  0.12527938668E+04  0.00000000000E+00 0.  1.
        -24    2    1    2    0    0  0.27446486655E+03  0.11485294160E+04 -0.27547891174E+03  0.12153947533E+04  0.82734473565E+02 0.  0.
        254    2    1    2    0    0 -0.27446486655E+03 -0.11485294160E+04  0.57898452022E+03  0.15936985888E+04  0.90011184579E+03 0.  0.
         23    2    4    4    0    0 -0.11829717528E+03 -0.88031459398E+03  0.80250274588E+03  0.12005696467E+04  0.91699582699E+02 0.  0.
         23    2    4    4    0    0 -0.15616769126E+03 -0.26821482204E+03 -0.22351822565E+03  0.39312894209E+03  0.90897906214E+02 0.  0.
          3    1    3    3  502    0  0.14260253756E+02  0.10461137104E+03 -0.32490968512E+01  0.10562883327E+03  0.00000000000E+00 0. -1.
         -4    1    3    3    0  502  0.26020461279E+03  0.10439180450E+04 -0.27222981489E+03  0.11097659200E+04  0.00000000000E+00 0.  1.
         13    1    5    5    0    0 -0.34044239209E+02 -0.20196834896E+03  0.13601456806E+03  0.24586619721E+03  0.00000000000E+00 0. -1.
        -13    1    5    5    0    0 -0.84252936074E+02 -0.67834624503E+03  0.66648817782E+03  0.95470344953E+03  0.00000000000E+00 0.  1.
          4    1    6    6  503    0 -0.24100032948E+02 -0.71951415720E+02 -0.10215233477E+03  0.12725139414E+03  0.00000000000E+00 0. -1.
         -4    1    6    6    0  503 -0.13206765831E+03 -0.19626340632E+03 -0.12136589088E+03  0.26587754795E+03  0.00000000000E+00 0.  1.
<mgrwt>
<rscale>  0 0.27926492E+04</rscale>
<asrwt>0</asrwt>
<pdfrwt beam="1">  1        1 0.23943069E+00 0.27926492E+04</pdfrwt>
<pdfrwt beam="2">  1       -2 0.19273752E+00 0.27926492E+04</pdfrwt>
<totfact> 0.67617055E-01</totfact>
</mgrwt>
</event>
<event>
12    5  0.5221187E-008  0.1803053E+04  0.7818608E-02  0.8704678E-01
          1   -1    0    0  501    0  0.00000000000E+00  0.00000000000E+00  0.60500214867E+03  0.60500214867E+03  0.00000000000E+00 0. -1.
         -2   -1    0    0    0  501 -0.00000000000E+00 -0.00000000000E+00 -0.13433838808E+04  0.13433838808E+04  0.00000000000E+00 0.  1.
        -24    2    1    2    0    0  0.32432982244E+03 -0.52142361165E+03  0.18867607272E+02  0.61958221855E+03  0.80335063522E+02 0.  0.
        254    2    1    2    0    0 -0.32432982244E+03  0.52142361165E+03 -0.75724933937E+03  0.13288038109E+04  0.90289566915E+03 0.  0.
         23    2    4    4    0    0  0.17860019932E+03  0.53890632500E+03 -0.46550688553E+03  0.73989562125E+03  0.91819450802E+02 0.  0.
         23    2    4    4    0    0 -0.50293002176E+03 -0.17482713352E+02 -0.29174245384E+03  0.58890818965E+03  0.91950771665E+02 0.  0.
          1    1    3    3  502    0  0.89765990183E+02 -0.17898468568E+03  0.39109349518E+02  0.20401713635E+03  0.00000000000E+00 0. -1.
         -2    1    3    3    0  502  0.23456383225E+03 -0.34243892596E+03 -0.20241742246E+02  0.41556508220E+03  0.00000000000E+00 0.  1.
         13    1    5    5    0    0  0.11361202614E+02  0.32823480587E+01 -0.17981987645E+01  0.11961782995E+02  0.00000000000E+00 0. -1.
        -13    1    5    5    0    0  0.16723899671E+03  0.53562397694E+03 -0.46370868677E+03  0.72793383826E+03  0.00000000000E+00 0.  1.
          4    1    6    6  503    0 -0.29281602392E+03 -0.27768897529E+02 -0.21755278791E+03  0.36584361558E+03  0.00000000000E+00 0. -1.
         -4    1    6    6    0  503 -0.21011399784E+03  0.10286184177E+02 -0.74189665930E+02  0.22306457407E+03  0.00000000000E+00 0.  1.
<mgrwt>
<rscale>  0 0.18030531E+04</rscale>
<asrwt>0</asrwt>
<pdfrwt beam="1">  1        1 0.93077255E-01 0.18030531E+04</pdfrwt>
<pdfrwt beam="2">  1       -2 0.20667444E+00 0.18030531E+04</pdfrwt>
<totfact> 0.33596884E+00</totfact>
</mgrwt>
</event>
<event>
12    5  0.5221187E-008  0.1899705E+04  0.7818608E-02  0.8655003E-01
         -2   -1    0    0    0  501 -0.00000000000E+00  0.00000000000E+00  0.10236140142E+04  0.10236140142E+04  0.00000000000E+00 0.  1.
          1   -1    0    0  501    0  0.00000000000E+00 -0.00000000000E+00 -0.88140648641E+03  0.88140648641E+03  0.00000000000E+00 0. -1.
        -24    2    1    2    0    0 -0.22534899414E+03 -0.42651344176E+03 -0.49956970468E+03  0.69882954651E+03  0.78083033250E+02 0.  0.
        254    2    1    2    0    0  0.22534899414E+03  0.42651344176E+03  0.64177723249E+03  0.12061909541E+04  0.90017926910E+03 0.  0.
         23    2    4    4    0    0 -0.61353158889E+02  0.50753883184E+03  0.71569471261E+03  0.88422869797E+03  0.91003256671E+02 0.  0.
         23    2    4    4    0    0  0.28670215303E+03 -0.81025390083E+02 -0.73917480113E+02  0.32196225616E+03  0.97121893173E+02 0.  0.
          1    1    3    3  502    0 -0.55687332080E+00 -0.21363225398E+02 -0.44641620825E+02  0.49493149194E+02  0.00000000000E+00 0. -1.
         -2    1    3    3    0  502 -0.22479212082E+03 -0.40515021636E+03 -0.45492808385E+03  0.64933639731E+03  0.00000000000E+00 0.  1.
         13    1    5    5    0    0 -0.84502908798E+02  0.35571943747E+03  0.49699509704E+03  0.61699366793E+03  0.00000000000E+00 0. -1.
        -13    1    5    5    0    0  0.23149749909E+02  0.15181939437E+03  0.21869961557E+03  0.26723503003E+03  0.00000000000E+00 0.  1.
          1    1    6    6  503    0  0.24812258076E+03 -0.54011748939E+02 -0.26801544858E+02  0.25534370349E+03  0.00000000000E+00 0. -1.
         -1    1    6    6    0  503  0.38579572274E+02 -0.27013641144E+02 -0.47115935255E+02  0.66618552668E+02  0.00000000000E+00 0.  1.
<mgrwt>
<rscale>  0 0.18997053E+04</rscale>
<asrwt>0</asrwt>
<pdfrwt beam="1">  1        1 0.13560100E+00 0.18997053E+04</pdfrwt>
<pdfrwt beam="2">  1       -2 0.15747908E+00 0.18997053E+04</pdfrwt>
<totfact> 0.40639358E+00</totfact>
</mgrwt>
</event>
<event>
12    5  0.5221187E-008  0.1430319E+04  0.7818608E-02  0.8932160E-01
         -2   -1    0    0    0  501 -0.00000000000E+00  0.00000000000E+00  0.40953188757E+03  0.40953188757E+03  0.00000000000E+00 0.  1.
          1   -1    0    0  501    0  0.00000000000E+00 -0.00000000000E+00 -0.12488722600E+04  0.12488722600E+04  0.00000000000E+00 0. -1.
        -24    2    1    2    0    0 -0.80939079909E+02  0.28325749361E+03  0.98640728680E+02  0.32140671704E+03  0.82379257470E+02 0.  0.
        254    2    1    2    0    0  0.80939079909E+02 -0.28325749361E+03 -0.93798110116E+03  0.13369974306E+04  0.90607264658E+03 0.  0.
         23    2    4    4    0    0 -0.19166036776E+03 -0.52708548297E+03 -0.47490728197E+03  0.73996211340E+03  0.86337708247E+02 0.  0.
         23    2    4    4    0    0  0.27259944767E+03  0.24382798936E+03 -0.46307381918E+03  0.59703531717E+03  0.90836450124E+02 0.  0.
          3    1    3    3  502    0  0.10069726069E+02  0.52936061381E+01 -0.30012751920E+01  0.11765598235E+02  0.00000000000E+00 0. -1.
         -4    1    3    3    0  502 -0.91008805977E+02  0.27796388747E+03  0.10164200387E+03  0.30964111881E+03  0.00000000000E+00 0.  1.
         13    1    5    5    0    0  0.50534965717E+01 -0.79315360470E+01 -0.20426074067E+02  0.22487142847E+02  0.00000000000E+00 0.  1.
        -13    1    5    5    0    0 -0.19671386433E+03 -0.51915394693E+03 -0.45448120791E+03  0.71747497055E+03  0.00000000000E+00 0. -1.
          1    1    6    6  503    0  0.20628322482E+03  0.12750445003E+03 -0.28438104764E+03  0.37374153352E+03  0.00000000000E+00 0. -1.
         -1    1    6    6    0  503  0.66316222845E+02  0.11632353934E+03 -0.17869277154E+03  0.22329378365E+03  0.00000000000E+00 0.  1.
<mgrwt>
<rscale>  0 0.14303189E+04</rscale>
<asrwt>0</asrwt>
<pdfrwt beam="1">  1        1 0.19213419E+00 0.14303189E+04</pdfrwt>
<pdfrwt beam="2">  1       -2 0.63004907E-01 0.14303189E+04</pdfrwt>
<totfact> 0.19607192E+01</totfact>
</mgrwt>
</event>
<event>
12    5  0.5221187E-008  0.1635041E+04  0.7818608E-02  0.8799305E-01
          1   -1    0    0  501    0  0.00000000000E+00  0.00000000000E+00  0.14131496414E+04  0.14131496414E+04  0.00000000000E+00 0. -1.
         -2   -1    0    0    0  501 -0.00000000000E+00 -0.00000000000E+00 -0.47294355847E+03  0.47294355847E+03  0.00000000000E+00 0.  1.
        -24    2    1    2    0    0  0.86054487537E+02 -0.48863879040E+03  0.87850990207E+03  0.10119883272E+04  0.78533331073E+02 0.  0.
        254    2    1    2    0    0 -0.86054487537E+02  0.48863879040E+03  0.61696180905E+02  0.87410487270E+03  0.71699349190E+03 0.  0.
         23    2    4    4    0    0  0.18756871715E+03 -0.87105572405E+02  0.52841590327E+01  0.22746009014E+03  0.94555623167E+02 0.  0.
         23    2    4    4    0    0 -0.27362320468E+03  0.57574436280E+03  0.56412021872E+02  0.64664478256E+03  0.92822029516E+02 0.  0.
          3    1    3    3  502    0  0.36771937364E+02 -0.38964821499E+03  0.66838105365E+03  0.77453930804E+03  0.00000000000E+00 0. -1.
         -4    1    3    3    0  502  0.49282550173E+02 -0.98990575408E+02  0.21012884842E+03  0.23744901918E+03  0.00000000000E+00 0.  1.
         13    1    5    5    0    0 -0.10107092466E+02 -0.10178818578E+02  0.54460250683E+01  0.15343430346E+02  0.00000000000E+00 0.  1.
        -13    1    5    5    0    0  0.19767580961E+03 -0.76926753827E+02 -0.16186603559E+00  0.21211665979E+03  0.00000000000E+00 0. -1.
          1    1    6    6  503    0 -0.26971127208E+03  0.49875703532E+03  0.46332982720E+02  0.56890200901E+03  0.00000000000E+00 0. -1.
         -1    1    6    6    0  503 -0.39119326068E+01  0.76987327481E+02  0.10079039153E+02  0.77742773553E+02  0.00000000000E+00 0.  1.
<mgrwt>
<rscale>  0 0.16350413E+04</rscale>
<asrwt>0</asrwt>
<pdfrwt beam="1">  1        1 0.21740764E+00 0.16350413E+04</pdfrwt>
<pdfrwt beam="2">  1       -2 0.72760548E-01 0.16350413E+04</pdfrwt>
<totfact> 0.10780938E+01</totfact>
</mgrwt>
</event>
<event>
12    5  0.5221187E-008  0.2968203E+04  0.7818608E-02  0.8252869E-01
          1   -1    0    0  501    0  0.00000000000E+00  0.00000000000E+00  0.13172732683E+04  0.13172732683E+04  0.00000000000E+00 0. -1.
         -2   -1    0    0    0  501 -0.00000000000E+00 -0.00000000000E+00 -0.16720580036E+04  0.16720580036E+04  0.00000000000E+00 0.  1.
        -24    2    1    2    0    0  0.68630692062E+03 -0.84762355292E+03 -0.95376798925E+03  0.14510679662E+04  0.80261998579E+02 0.  0.
        254    2    1    2    0    0 -0.68630692062E+03  0.84762355292E+03  0.59898325397E+03  0.15382633057E+04  0.90442809680E+03 0.  0.
         23    2    4    4    0    0 -0.60654275289E+03  0.26275335480E+03  0.65895546604E+03  0.93782681454E+03  0.91451578934E+02 0.  0.
         23    2    4    4    0    0 -0.79764167726E+02  0.58487019812E+03 -0.59972212074E+02  0.60043649113E+03  0.92151194034E+02 0.  0.
          1    1    3    3  502    0  0.23574183153E+03 -0.26701101794E+03 -0.26639421787E+03  0.44478643656E+03  0.00000000000E+00 0. -1.
         -2    1    3    3    0  502  0.45056508909E+03 -0.58061253498E+03 -0.68737377138E+03  0.10062815296E+04  0.00000000000E+00 0.  1.
         13    1    5    5    0    0 -0.16132187853E+03  0.11080812589E+03  0.21924315397E+03  0.29388900936E+03  0.00000000000E+00 0.  1.
        -13    1    5    5    0    0 -0.44522087436E+03  0.15194522891E+03  0.43971231207E+03  0.64393780518E+03  0.00000000000E+00 0. -1.
          4    1    6    6  503    0 -0.39792977247E+02  0.45705814220E+03 -0.14520033641E+02  0.45901683822E+03  0.00000000000E+00 0. -1.
         -4    1    6    6    0  503 -0.39971190479E+02  0.12781205592E+03 -0.45452178433E+02  0.14141965291E+03  0.00000000000E+00 0.  1.
<mgrwt>
<rscale>  0 0.29682030E+04</rscale>
<asrwt>0</asrwt>
<pdfrwt beam="1">  1        1 0.20265743E+00 0.29682030E+04</pdfrwt>
<pdfrwt beam="2">  1       -2 0.25723969E+00 0.29682030E+04</pdfrwt>
<totfact> 0.38210172E-01</totfact>
</mgrwt>
</event>
<event>
12    5  0.5221187E-008  0.1217270E+04  0.7818608E-02  0.9097873E-01
          1   -1    0    0  501    0  0.00000000000E+00  0.00000000000E+00  0.85049140745E+03  0.85049140745E+03  0.00000000000E+00 0. -1.
         -2   -1    0    0    0  501 -0.00000000000E+00 -0.00000000000E+00 -0.43555575414E+03  0.43555575414E+03  0.00000000000E+00 0.  1.
        -24    2    1    2    0    0  0.22401146240E+03 -0.52065858054E+01 -0.58157853280E+02  0.24549679581E+03  0.81719624538E+02 0.  0.
        254    2    1    2    0    0 -0.22401146240E+03  0.52065858054E+01  0.47309350659E+03  0.10405503658E+04  0.89928824852E+03 0.  0.
         23    2    4    4    0    0 -0.33882062056E+03  0.35514978182E+03  0.42932776675E+03  0.65841574984E+03  0.90874572282E+02 0.  0.
         23    2    4    4    0    0  0.11480915817E+03 -0.34994319602E+03  0.43765739837E+02  0.38213461594E+03  0.92032828244E+02 0.  0.
          1    1    3    3  502    0  0.90316997066E+02 -0.41619270226E+02 -0.32148761686E+02  0.10451251835E+03  0.00000000000E+00 0. -1.
         -2    1    3    3    0  502  0.13369446533E+03  0.36412684421E+02 -0.26009091595E+02  0.14098427746E+03  0.00000000000E+00 0.  1.
         13    1    5    5    0    0 -0.32659045235E+03  0.30506641036E+03  0.37359889824E+03  0.58249718889E+03  0.00000000000E+00 0. -1.
        -13    1    5    5    0    0 -0.12230168213E+02  0.50083371468E+02  0.55728868507E+02  0.75918560954E+02  0.00000000000E+00 0.  1.
          1    1    6    6  503    0  0.58464470512E+01  0.38096436735E+01  0.74433322560E+01  0.10202819371E+02  0.00000000000E+00 0. -1.
         -1    1    6    6    0  503  0.10896271111E+03 -0.35375283969E+03  0.36322407581E+02  0.37193179657E+03  0.00000000000E+00 0.  1.
<mgrwt>
<rscale>  0 0.12172698E+04</rscale>
<asrwt>0</asrwt>
<pdfrwt beam="1">  1        1 0.13084483E+00 0.12172698E+04</pdfrwt>
<pdfrwt beam="2">  1       -2 0.67008578E-01 0.12172698E+04</pdfrwt>
<totfact> 0.35437559E+01</totfact>
</mgrwt>
</event>
<event>
12    5  0.5221187E-008  0.1216278E+04  0.7818608E-02  0.9098727E-01
         -2   -1    0    0    0  501 -0.00000000000E+00  0.00000000000E+00  0.15303456707E+04  0.15303456707E+04  0.00000000000E+00 0.  1.
          1   -1    0    0  501    0  0.00000000000E+00 -0.00000000000E+00 -0.24166628405E+03  0.24166628405E+03  0.00000000000E+00 0. -1.
        -24    2    1    2    0    0  0.12551075916E+03 -0.20915406919E+03  0.13599738493E+03  0.28776997315E+03  0.69411046769E+02 0.  0.
        254    2    1    2    0    0 -0.12551075916E+03  0.20915406919E+03  0.11526820017E+04  0.14842419816E+04  0.90266277618E+03 0.  0.
         23    2    4    4    0    0 -0.46220566282E+03 -0.73671613271E+02  0.69811116957E+03  0.84545469058E+03  0.91503264426E+02 0.  0.
         23    2    4    4    0    0  0.33669490367E+03  0.28282568246E+03  0.45457083212E+03  0.63878729098E+03  0.89781606665E+02 0.  0.
          3    1    3    3  502    0  0.18073398004E+02 -0.69406250345E+02  0.13159817690E+02  0.72918146603E+02  0.00000000000E+00 0. -1.
         -4    1    3    3    0  502  0.10743736115E+03 -0.13974781885E+03  0.12283756724E+03  0.21485182654E+03  0.00000000000E+00 0.  1.
         13    1    5    5    0    0 -0.46253343934E+03 -0.69639005224E+02  0.67039597801E+03  0.81744574186E+03  0.00000000000E+00 0. -1.
        -13    1    5    5    0    0  0.32777651977E+00 -0.40326080471E+01  0.27715191558E+02  0.28008948717E+02  0.00000000000E+00 0.  1.
          4    1    6    6  503    0  0.27632822170E+03  0.19426504364E+03  0.30733913424E+03  0.45667662160E+03  0.00000000000E+00 0. -1.
         -4    1    6    6    0  503  0.60366681967E+02  0.88560638825E+02  0.14723169788E+03  0.18211066938E+03  0.00000000000E+00 0.  1.
<mgrwt>
<rscale>  0 0.12162778E+04</rscale>
<asrwt>0</asrwt>
<pdfrwt beam="1">  1        1 0.37179429E-01 0.12162778E+04</pdfrwt>
<pdfrwt beam="2">  1       -2 0.23543779E+00 0.12162778E+04</pdfrwt>
<totfact> 0.79347986E+00</totfact>
</mgrwt>
</event>
<event>
12    5  0.5221187E-008  0.1218380E+04  0.7818608E-02  0.9096919E-01
         -2   -1    0    0    0  501 -0.00000000000E+00  0.00000000000E+00  0.16750458504E+03  0.16750458504E+03  0.00000000000E+00 0.  1.
          1   -1    0    0  501    0  0.00000000000E+00 -0.00000000000E+00 -0.22155357409E+04  0.22155357409E+04  0.00000000000E+00 0. -1.
        -24    2    1    2    0    0 -0.12896402667E+03  0.42021983711E+02 -0.92202636512E+03  0.93528912975E+03  0.78965631505E+02 0.  0.
        254    2    1    2    0    0  0.12896402667E+03 -0.42021983711E+02 -0.11260047907E+04  0.14477511962E+04  0.89983285670E+03 0.  0.
         23    2    4    4    0    0 -0.18084485244E+03 -0.35527811450E+03 -0.77646914055E+03  0.87755490222E+03  0.90944383489E+02 0.  0.
         23    2    4    4    0    0  0.30980887912E+03  0.31325613078E+03 -0.34953565016E+03  0.57019629394E+03  0.94009030632E+02 0.  0.
          3    1    3    3  502    0 -0.94308873365E+02  0.36662894434E+02 -0.41909880132E+03  0.43114050690E+03  0.00000000000E+00 0. -1.
         -4    1    3    3    0  502 -0.34655153310E+02  0.53590892766E+01 -0.50292756380E+03  0.50414862285E+03  0.00000000000E+00 0.  1.
         13    1    5    5    0    0  0.59953212529E+01 -0.38678228463E+02 -0.51296575708E+02  0.64523545418E+02  0.00000000000E+00 0. -1.
        -13    1    5    5    0    0 -0.18684017370E+03 -0.31659988603E+03 -0.72517256485E+03  0.81303135680E+03  0.00000000000E+00 0.  1.
          3    1    6    6  503    0  0.42463512726E+01  0.30898864567E+02 -0.87423692671E+01  0.32391362290E+02  0.00000000000E+00 0. -1.
         -3    1    6    6    0  503  0.30556252784E+03  0.28235726622E+03 -0.34079328089E+03  0.53780493165E+03  0.00000000000E+00 0.  1.
<mgrwt>
<rscale>  0 0.12183799E+04</rscale>
<asrwt>0</asrwt>
<pdfrwt beam="1">  1        1 0.34085168E+00 0.12183799E+04</pdfrwt>
<pdfrwt beam="2">  1       -2 0.25769934E-01 0.12183799E+04</pdfrwt>
<totfact> 0.25127601E+01</totfact>
</mgrwt>
</event>
<event>
12    5  0.5221187E-008  0.2095014E+04  0.7818608E-02  0.8563443E-01
          1   -1    0    0  501    0  0.00000000000E+00  0.00000000000E+00  0.13856008394E+04  0.13856008394E+04  0.00000000000E+00 0. -1.
         -2   -1    0    0    0  501 -0.00000000000E+00 -0.00000000000E+00 -0.79190952363E+03  0.79190952363E+03  0.00000000000E+00 0.  1.
        -24    2    1    2    0    0 -0.40213457188E+03 -0.73916412367E+03  0.66991247959E+02  0.84791011609E+03  0.79924477090E+02 0.  0.
        254    2    1    2    0    0  0.40213457188E+03  0.73916412367E+03  0.52670006779E+03  0.13296002469E+04  0.88450440339E+03 0.  0.
         23    2    4    4    0    0 -0.14591581154E+03 -0.10748571330E+03  0.13667130189E+03  0.24438500831E+03  0.90555976641E+02 0.  0.
         23    2    4    4    0    0  0.54805038341E+03  0.84664983697E+03  0.39002876590E+03  0.10852152386E+04  0.91621540619E+02 0.  0.
          1    1    3    3  502    0 -0.11359655636E+02 -0.46094395470E+01  0.59942002890E+01  0.13646213622E+02  0.00000000000E+00 0. -1.
         -2    1    3    3    0  502 -0.39077491624E+03 -0.73455468413E+03  0.60997047670E+02  0.83426390247E+03  0.00000000000E+00 0.  1.
         13    1    5    5    0    0 -0.56932185500E+01 -0.16350375690E+02  0.56178222012E+02  0.58785543725E+02  0.00000000000E+00 0.  1.
        -13    1    5    5    0    0 -0.14022259299E+03 -0.91135337612E+02  0.80493079879E+02  0.18559946458E+03  0.00000000000E+00 0. -1.
          2    1    6    6  503    0  0.26176255423E+03  0.32671236698E+03  0.17843843828E+03  0.45508337894E+03  0.00000000000E+00 0. -1.
         -2    1    6    6    0  503  0.28628782918E+03  0.51993747000E+03  0.21159032763E+03  0.63013185969E+03  0.00000000000E+00 0.  1.
<mgrwt>
<rscale>  0 0.20950136E+04</rscale>
<asrwt>0</asrwt>
<pdfrwt beam="1">  1        1 0.21316936E+00 0.20950136E+04</pdfrwt>
<pdfrwt beam="2">  1       -2 0.12183223E+00 0.20950136E+04</pdfrwt>
<totfact> 0.32470966E+00</totfact>
</mgrwt>
</event>
<event>
12    5  0.5221187E-008  0.1952181E+04  0.7818608E-02  0.8629310E-01
          1   -1    0    0  501    0  0.00000000000E+00  0.00000000000E+00  0.90724839520E+03  0.90724839520E+03  0.00000000000E+00 0. -1.
         -2   -1    0    0    0  501 -0.00000000000E+00 -0.00000000000E+00 -0.10501568654E+04  0.10501568654E+04  0.00000000000E+00 0.  1.
        -24    2    1    2    0    0 -0.58734869230E+03 -0.56061815978E+01 -0.54816487811E+03  0.80623425191E+03  0.67223654605E+02 0.  0.
        254    2    1    2    0    0  0.58734869230E+03  0.56061815978E+01  0.40525640788E+03  0.11511710087E+04  0.90330062525E+03 0.  0.
         23    2    4    4    0    0  0.36406613829E+03  0.34751422129E+03  0.50728075189E+03  0.72036654173E+03  0.91015966462E+02 0.  0.
         23    2    4    4    0    0  0.22328255401E+03 -0.34190803969E+03 -0.10202434402E+03  0.43080446699E+03  0.91800411082E+02 0.  0.
          1    1    3    3  502    0 -0.30569231446E+03  0.21957631492E+02 -0.25416145529E+03  0.39815571584E+03  0.00000000000E+00 0. -1.
         -4    1    3    3    0  502 -0.28165637783E+03 -0.27563813089E+02 -0.29400342282E+03  0.40807853606E+03  0.00000000000E+00 0.  1.
         13    1    5    5    0    0  0.27399731271E+03  0.20272663946E+03  0.33119544575E+03  0.47525050342E+03  0.00000000000E+00 0.  1.
        -13    1    5    5    0    0  0.90068825574E+02  0.14478758183E+03  0.17608530615E+03  0.24511603830E+03  0.00000000000E+00 0. -1.
          4    1    6    6  503    0  0.16255675568E+03 -0.17988019734E+03 -0.33744259371E+02  0.24478615004E+03  0.00000000000E+00 0. -1.
         -4    1    6    6    0  503  0.60725798330E+02 -0.16202784236E+03 -0.68280084647E+02  0.18601831695E+03  0.00000000000E+00 0.  1.
<mgrwt>
<rscale>  0 0.19521815E+04</rscale>
<asrwt>0</asrwt>
<pdfrwt beam="1">  1        1 0.13957668E+00 0.19521815E+04</pdfrwt>
<pdfrwt beam="2">  1       -2 0.16156259E+00 0.19521815E+04</pdfrwt>
<totfact> 0.35933204E+00</totfact>
</mgrwt>
</event>
<event>
12    5  0.5221187E-008  0.2158650E+04  0.7818608E-02  0.8535839E-01
          1   -1    0    0  501    0  0.00000000000E+00  0.00000000000E+00  0.31558206226E+04  0.31558206226E+04  0.00000000000E+00 0. -1.
         -2   -1    0    0    0  501 -0.00000000000E+00 -0.00000000000E+00 -0.36914087464E+03  0.36914087464E+03  0.00000000000E+00 0.  1.
        -24    2    1    2    0    0 -0.59903493219E+03 -0.62998636456E+03  0.15501483206E+04  0.17790249903E+04  0.79021710127E+02 0.  0.
        254    2    1    2    0    0  0.59903493219E+03  0.62998636456E+03  0.12365314274E+04  0.17459365070E+04  0.87381842848E+03 0.  0.
         23    2    4    4    0    0  0.34878276039E+02  0.18668392290E+01  0.77192630939E+03  0.77791883497E+03  0.89819304408E+02 0.  0.
         23    2    4    4    0    0  0.56415665615E+03  0.62811952533E+03  0.46460511799E+03  0.96801767200E+03  0.91615647426E+02 0.  0.
          1    1    3    3  502    0 -0.93724676951E+01 -0.98470925582E+01  0.51586785925E+02  0.53347960267E+02  0.00000000000E+00 0. -1.
         -2    1    3    3    0  502 -0.58966246450E+03 -0.62013927201E+03  0.14985615347E+04  0.17256770300E+04  0.00000000000E+00 0.  1.
         13    1    5    5    0    0  0.20743945106E+02  0.28068619989E+02  0.68771314441E+03  0.68859823387E+03  0.00000000000E+00 0. -1.
        -13    1    5    5    0    0  0.14134330932E+02 -0.26201780760E+02  0.84213164976E+02  0.89320601102E+02  0.00000000000E+00 0.  1.
          2    1    6    6  503    0  0.46553631142E+03  0.46298212104E+03  0.34799780879E+03  0.74308746226E+03  0.00000000000E+00 0. -1.
         -2    1    6    6    0  503  0.98620344735E+02  0.16513740430E+03  0.11660730920E+03  0.22493020974E+03  0.00000000000E+00 0.  1.
<mgrwt>
<rscale>  0 0.21586499E+04</rscale>
<asrwt>0</asrwt>
<pdfrwt beam="1">  1        1 0.48551085E+00 0.21586499E+04</pdfrwt>
<pdfrwt beam="2">  1       -2 0.56790906E-01 0.21586499E+04</pdfrwt>
<totfact> 0.10742060E+00</totfact>
</mgrwt>
</event>
<event>
12    5  0.5221187E-008  0.1257046E+04  0.7818608E-02  0.9064339E-01
          1   -1    0    0  501    0  0.00000000000E+00  0.00000000000E+00  0.15230729814E+04  0.15230729814E+04  0.00000000000E+00 0. -1.
         -2   -1    0    0    0  501 -0.00000000000E+00 -0.00000000000E+00 -0.25937131326E+03  0.25937131326E+03  0.00000000000E+00 0.  1.
        -24    2    1    2    0    0 -0.27395509621E+02 -0.27793968207E+03  0.37045428458E+03  0.47070424478E+03  0.79530674998E+02 0.  0.
        254    2    1    2    0    0  0.27395509621E+02  0.27793968207E+03  0.89324738356E+03  0.13117400499E+04  0.91911375216E+03 0.  0.
         23    2    4    4    0    0 -0.27587379445E+03 -0.22489594488E+03  0.34813868809E+03  0.50535032549E+03  0.86567134889E+02 0.  0.
         23    2    4    4    0    0  0.30326930407E+03  0.50283562696E+03  0.54510869547E+03  0.80638972439E+03  0.91131548848E+02 0.  0.
          1    1    3    3  502    0 -0.38866350603E+02 -0.81987586484E+02  0.15197872472E+03  0.17700307996E+03  0.00000000000E+00 0. -1.
         -2    1    3    3    0  502  0.11470840983E+02 -0.19595209559E+03  0.21847555986E+03  0.29370116482E+03  0.00000000000E+00 0.  1.
         13    1    5    5    0    0 -0.25942734645E+03 -0.18982432225E+03  0.27696218223E+03  0.42431576896E+03  0.00000000000E+00 0. -1.
        -13    1    5    5    0    0 -0.16446448000E+02 -0.35071622636E+02  0.71176505863E+02  0.81034556536E+02  0.00000000000E+00 0.  1.
          3    1    6    6  503    0  0.42339540193E-01  0.18546555983E+02  0.38595376677E+02  0.42820317985E+02  0.00000000000E+00 0.  1.
         -3    1    6    6    0  503  0.30322696453E+03  0.48428907097E+03  0.50651331879E+03  0.76356940640E+03  0.00000000000E+00 0. -1.
<mgrwt>
<rscale>  0 0.12570464E+04</rscale>
<asrwt>0</asrwt>
<pdfrwt beam="1">  1        1 0.23431892E+00 0.12570464E+04</pdfrwt>
<pdfrwt beam="2">  1       -2 0.39903280E-01 0.12570464E+04</pdfrwt>
<totfact> 0.32403545E+01</totfact>
</mgrwt>
</event>
<event>
12    5  0.5221187E-008  0.2476657E+04  0.7818608E-02  0.8411349E-01
         -2   -1    0    0    0  501 -0.00000000000E+00  0.00000000000E+00  0.10825960600E+04  0.10825960600E+04  0.00000000000E+00 0.  1.
          1   -1    0    0  501    0  0.00000000000E+00 -0.00000000000E+00 -0.14164632660E+04  0.14164632660E+04  0.00000000000E+00 0. -1.
        -24    2    1    2    0    0 -0.98168916993E+01 -0.93526858192E+02  0.93273572093E+03  0.94107668903E+03  0.82375754764E+02 0.  0.
        254    2    1    2    0    0  0.98168916993E+01  0.93526858192E+02 -0.12666029269E+04  0.15579826369E+04  0.90232105029E+03 0.  0.
         23    2    4    4    0    0 -0.13060561823E+03 -0.14855524583E+03  0.37587396850E+02  0.22083710830E+03  0.90717845110E+02 0.  0.
         23    2    4    4    0    0  0.14042250993E+03  0.24208210402E+03 -0.13041903238E+04  0.13371455286E+04  0.93399880224E+02 0.  0.
          1    1    3    3  502    0  0.18788488047E+02 -0.30151455656E+01  0.54511939073E+02  0.57737768292E+02  0.00000000000E+00 0. -1.
         -2    1    3    3    0  502 -0.28605379746E+02 -0.90511712627E+02  0.87822378185E+03  0.88333892073E+03  0.00000000000E+00 0.  1.
         13    1    5    5    0    0 -0.18529889690E+01  0.90072793729E+01 -0.81439262602E+01  0.12283655187E+02  0.00000000000E+00 0. -1.
        -13    1    5    5    0    0 -0.12875262926E+03 -0.15756252520E+03  0.45731323111E+02  0.20855345311E+03  0.00000000000E+00 0.  1.
          4    1    6    6  503    0  0.57696982321E+02  0.18474001558E+03 -0.90462899836E+03  0.92510077278E+03  0.00000000000E+00 0. -1.
         -4    1    6    6    0  503  0.82725527611E+02  0.57342088440E+02 -0.39956132541E+03  0.41204475581E+03  0.00000000000E+00 0.  1.
<mgrwt>
<rscale>  0 0.24766571E+04</rscale>
<asrwt>0</asrwt>
<pdfrwt beam="1">  1        1 0.21791743E+00 0.24766571E+04</pdfrwt>
<pdfrwt beam="2">  1       -2 0.16655324E+00 0.24766571E+04</pdfrwt>
<totfact> 0.13190408E+00</totfact>
</mgrwt>
</event>
<event>
12    5  0.5221187E-008  0.2763395E+04  0.7818608E-02  0.8314724E-01
          1   -1    0    0  501    0  0.00000000000E+00  0.00000000000E+00  0.17657826228E+04  0.17657826228E+04  0.00000000000E+00 0. -1.
         -2   -1    0    0    0  501 -0.00000000000E+00 -0.00000000000E+00 -0.10811565491E+04  0.10811565491E+04  0.00000000000E+00 0.  1.
        -24    2    1    2    0    0  0.74371963784E+03 -0.32730880531E+03  0.12359133908E+04  0.14814605186E+04  0.83626580058E+02 0.  0.
        254    2    1    2    0    0 -0.74371963784E+03  0.32730880531E+03 -0.55128731705E+03  0.13654786533E+04  0.94887527784E+03 0.  0.
         23    2    4    4    0    0 -0.23820389890E+03  0.50831616781E+03 -0.58895273643E+03  0.81881332806E+03  0.91997372462E+02 0.  0.
         23    2    4    4    0    0 -0.50551573894E+03 -0.18100736250E+03  0.37665419387E+02  0.54666532523E+03  0.95469714515E+02 0.  0.
          3    1    3    3  502    0  0.52846629544E+03 -0.20457984454E+03  0.91056508751E+03  0.10725009635E+04  0.00000000000E+00 0. -1.
         -4    1    3    3    0  502  0.21525334240E+03 -0.12272896077E+03  0.32534830332E+03  0.40895955509E+03  0.00000000000E+00 0.  1.
         13    1    5    5    0    0 -0.13981930058E+03  0.22789482183E+03 -0.32934951496E+03  0.42421290602E+03  0.00000000000E+00 0.  1.
        -13    1    5    5    0    0 -0.98384598318E+02  0.28042134599E+03 -0.25960322147E+03  0.39460042203E+03  0.00000000000E+00 0. -1.
          2    1    6    6  503    0 -0.33787696889E+03 -0.14692842626E+03 -0.11669541534E+02  0.36862580858E+03  0.00000000000E+00 0. -1.
         -2    1    6    6    0  503 -0.16763877005E+03 -0.34078936245E+02  0.49334960921E+02  0.17803951665E+03  0.00000000000E+00 0.  1.
<mgrwt>
<rscale>  0 0.27633946E+04</rscale>
<asrwt>0</asrwt>
<pdfrwt beam="1">  1        1 0.27165886E+00 0.27633946E+04</pdfrwt>
<pdfrwt beam="2">  1       -2 0.16633178E+00 0.27633946E+04</pdfrwt>
<totfact> 0.74274076E-01</totfact>
</mgrwt>
</event>
<event>
12    5  0.5221187E-008  0.1341234E+04  0.7818608E-02  0.8997491E-01
          1   -1    0    0  501    0  0.00000000000E+00  0.00000000000E+00  0.10185249769E+04  0.10185249769E+04  0.00000000000E+00 0. -1.
         -2   -1    0    0    0  501 -0.00000000000E+00 -0.00000000000E+00 -0.44154735265E+03  0.44154735265E+03  0.00000000000E+00 0.  1.
        -24    2    1    2    0    0  0.15054049059E+03 -0.31348099533E+03  0.16483305341E+03  0.39318702366E+03  0.80581178562E+02 0.  0.
        254    2    1    2    0    0 -0.15054049059E+03  0.31348099533E+03  0.41214457083E+03  0.10668853059E+04  0.92056957091E+03 0.  0.
         23    2    4    4    0    0  0.27169750377E+03  0.11066115826E+03 -0.13853307628E+03  0.33724169733E+03  0.92060435005E+02 0.  0.
         23    2    4    4    0    0 -0.42223799436E+03  0.20281983707E+03  0.55067764710E+03  0.72964360854E+03  0.98555133187E+02 0.  0.
          1    1    3    3  502    0  0.42963968903E+02 -0.88590238795E+02  0.88709958410E+02  0.13252769429E+03  0.00000000000E+00 0. -1.
         -4    1    3    3    0  502  0.10757652169E+03 -0.22489075654E+03  0.76123094996E+02  0.26065932937E+03  0.00000000000E+00 0.  1.
         13    1    5    5    0    0  0.21193159032E+03  0.77941505392E+02 -0.60755144848E+02  0.23383982736E+03  0.00000000000E+00 0.  1.
        -13    1    5    5    0    0  0.59765913452E+02  0.32719652868E+02 -0.77777931430E+02  0.10340186996E+03  0.00000000000E+00 0. -1.
          3    1    6    6  503    0 -0.64424537558E+00  0.12710016697E+02  0.33551062234E+02  0.35883608425E+02  0.00000000000E+00 0. -1.
         -3    1    6    6    0  503 -0.42159374898E+03  0.19010982038E+03  0.51712658487E+03  0.69376000012E+03  0.00000000000E+00 0.  1.
<mgrwt>
<rscale>  0 0.13412338E+04</rscale>
<asrwt>0</asrwt>
<pdfrwt beam="1">  1        1 0.15669615E+00 0.13412338E+04</pdfrwt>
<pdfrwt beam="2">  1       -2 0.67930362E-01 0.13412338E+04</pdfrwt>
<totfact> 0.24944221E+01</totfact>
</mgrwt>
</event>
<event>
12    5  0.5221187E-008  0.1709185E+04  0.7818608E-02  0.8756143E-01
         -2   -1    0    0    0  501 -0.00000000000E+00  0.00000000000E+00  0.34408289205E+03  0.34408289205E+03  0.00000000000E+00 0.  1.
          1   -1    0    0  501    0  0.00000000000E+00 -0.00000000000E+00 -0.21225352293E+04  0.21225352293E+04  0.00000000000E+00 0. -1.
        -24    2    1    2    0    0 -0.42521903745E+03  0.24144743750E+03 -0.13545857874E+04  0.14423346304E+04  0.79488587926E+02 0.  0.
        254    2    1    2    0    0  0.42521903745E+03 -0.24144743750E+03 -0.42386654977E+03  0.10242834909E+04  0.79396833871E+03 0.  0.
         23    2    4    4    0    0 -0.16000052071E+03  0.13739232065E+03 -0.11891184468E+03  0.25795594032E+03  0.89019233551E+02 0.  0.
         23    2    4    4    0    0  0.58521955815E+03 -0.37883975816E+03 -0.30495470509E+03  0.76632755060E+03  0.90879310336E+02 0.  0.
          1    1    3    3  502    0 -0.40077715983E+03  0.24640361042E+03 -0.12871334697E+04  0.13704195124E+04  0.00000000000E+00 0. -1.
         -2    1    3    3    0  502 -0.24441877621E+02 -0.49561729125E+01 -0.67452317705E+02  0.71915117989E+02  0.00000000000E+00 0.  1.
         13    1    5    5    0    0 -0.13273555005E+03  0.12455902544E+03 -0.13225458770E+03  0.22499989563E+03  0.00000000000E+00 0.  1.
        -13    1    5    5    0    0 -0.27264970653E+02  0.12833295217E+02  0.13342743015E+02  0.32956044696E+02  0.00000000000E+00 0. -1.
          2    1    6    6  503    0  0.29992593300E+03 -0.16746773723E+03 -0.10690397781E+03  0.35976307310E+03  0.00000000000E+00 0. -1.
         -2    1    6    6    0  503  0.28529362515E+03 -0.21137202093E+03 -0.19805072728E+03  0.40656447750E+03  0.00000000000E+00 0.  1.
<mgrwt>
<rscale>  0 0.17091847E+04</rscale>
<asrwt>0</asrwt>
<pdfrwt beam="1">  1        1 0.32654388E+00 0.17091847E+04</pdfrwt>
<pdfrwt beam="2">  1       -2 0.52935830E-01 0.17091847E+04</pdfrwt>
<totfact> 0.69162019E+00</totfact>
</mgrwt>
</event>
<event>
12    5  0.5221187E-008  0.1521459E+04  0.7818608E-02  0.8870307E-01
         -2   -1    0    0    0  501 -0.00000000000E+00  0.00000000000E+00  0.71467250812E+03  0.71467250812E+03  0.00000000000E+00 0.  1.
          1   -1    0    0  501    0  0.00000000000E+00 -0.00000000000E+00 -0.80975434527E+03  0.80975434527E+03  0.00000000000E+00 0. -1.
        -24    2    1    2    0    0  0.54420046143E+02 -0.47489773469E+03  0.94838132847E+02  0.49376034214E+03  0.79470775766E+02 0.  0.
        254    2    1    2    0    0 -0.54420046143E+02  0.47489773469E+03 -0.18991996999E+03  0.10306665112E+04  0.89314862288E+03 0.  0.
         23    2    4    4    0    0  0.18965883832E+03  0.28825331423E+03  0.28560305397E+03  0.45694566827E+03  0.90386897287E+02 0.  0.
         23    2    4    4    0    0 -0.24407888447E+03  0.18664442046E+03 -0.47552302396E+03  0.57372084297E+03  0.92859128845E+02 0.  0.
          1    1    3    3  502    0  0.15632835421E+02 -0.16735521456E+03 -0.48275079134E+01  0.16815307972E+03  0.00000000000E+00 0. -1.
         -2    1    3    3    0  502  0.38787210722E+02 -0.30754252012E+03  0.99665640760E+02  0.32560726243E+03  0.00000000000E+00 0.  1.
         13    1    5    5    0    0  0.75092260136E+02  0.19501780758E+03  0.16586811463E+03  0.26680146974E+03  0.00000000000E+00 0.  1.
        -13    1    5    5    0    0  0.11456657819E+03  0.93235506651E+02  0.11973493934E+03  0.19014419853E+03  0.00000000000E+00 0. -1.
          1    1    6    6  503    0 -0.13440133865E+03  0.11959873850E+03 -0.19597341964E+03  0.26603225234E+03  0.00000000000E+00 0. -1.
         -1    1    6    6    0  503 -0.10967754582E+03  0.67045681959E+02 -0.27954960432E+03  0.30768859063E+03  0.00000000000E+00 0.  1.
<mgrwt>
<rscale>  0 0.15214587E+04</rscale>
<asrwt>0</asrwt>
<pdfrwt beam="1">  1        1 0.12457759E+00 0.15214587E+04</pdfrwt>
<pdfrwt beam="2">  1       -2 0.10994962E+00 0.15214587E+04</pdfrwt>
<totfact> 0.12063895E+01</totfact>
</mgrwt>
</event>
<event>
12    5  0.5221187E-008  0.1945515E+04  0.7818608E-02  0.8632526E-01
          1   -1    0    0  501    0  0.00000000000E+00  0.00000000000E+00  0.17930509637E+04  0.17930509637E+04  0.00000000000E+00 0. -1.
         -2   -1    0    0    0  501 -0.00000000000E+00 -0.00000000000E+00 -0.52773596405E+03  0.52773596405E+03  0.00000000000E+00 0.  1.
        -24    2    1    2    0    0 -0.67307031258E+03 -0.62096903667E+02  0.83047312184E+02  0.68581396342E+03  0.81020153297E+02 0.  0.
        254    2    1    2    0    0  0.67307031258E+03  0.62096903667E+02  0.11822676875E+04  0.16349729644E+04  0.90470991934E+03 0.  0.
         23    2    4    4    0    0  0.25214907853E+03 -0.36736472313E+03  0.78843149463E+03  0.91026145925E+03  0.91737150956E+02 0.  0.
         23    2    4    4    0    0  0.42092123405E+03  0.42946162680E+03  0.39383619287E+03  0.72471150511E+03  0.92129499381E+02 0.  0.
          3    1    3    3  502    0 -0.12227238664E+01  0.25132341388E+01  0.58285246304E+01  0.64639847507E+01  0.00000000000E+00 0. -1.
         -4    1    3    3    0  502 -0.67184758872E+03 -0.64610137806E+02  0.77218787554E+02  0.67934997867E+03  0.00000000000E+00 0.  1.
         13    1    5    5    0    0  0.21546132735E+03 -0.31325750562E+03  0.59518486451E+03  0.70625694428E+03  0.00000000000E+00 0.  1.
        -13    1    5    5    0    0  0.36687751186E+02 -0.54107217518E+02  0.19324663012E+03  0.20400451496E+03  0.00000000000E+00 0. -1.
          4    1    6    6  503    0  0.22975477733E+03  0.23232530882E+03  0.15895580754E+03  0.36335830192E+03  0.00000000000E+00 0. -1.
         -4    1    6    6    0  503  0.19116645672E+03  0.19713631798E+03  0.23488038534E+03  0.36135320319E+03  0.00000000000E+00 0.  1.
<mgrwt>
<rscale>  0 0.19455153E+04</rscale>
<asrwt>0</asrwt>
<pdfrwt beam="1">  1        1 0.27585399E+00 0.19455153E+04</pdfrwt>
<pdfrwt beam="2">  1       -2 0.81190149E-01 0.19455153E+04</pdfrwt>
<totfact> 0.45059237E+00</totfact>
</mgrwt>
</event>
<event>
12    5  0.5221187E-008  0.1077156E+04  0.7818608E-02  0.9227748E-01
          1   -1    0    0  501    0  0.00000000000E+00  0.00000000000E+00  0.16187677175E+04  0.16187677175E+04  0.00000000000E+00 0. -1.
         -2   -1    0    0    0  501 -0.00000000000E+00 -0.00000000000E+00 -0.17918951673E+03  0.17918951673E+03  0.00000000000E+00 0.  1.
        -24    2    1    2    0    0 -0.13140167745E+03 -0.19503440584E+01  0.23859045670E+03  0.28413160520E+03  0.80840326357E+02 0.  0.
        254    2    1    2    0    0  0.13140167745E+03  0.19503440584E+01  0.12009877440E+04  0.15138256290E+04  0.91215473960E+03 0.  0.
         23    2    4    4    0    0 -0.73339284033E+02 -0.40631756208E+03  0.37645425004E+03  0.56632012439E+03  0.92347545056E+02 0.  0.
         23    2    4    4    0    0  0.20474096148E+03  0.40826790614E+03  0.82453349398E+03  0.94750550459E+03  0.96486548494E+02 0.  0.
          1    1    3    3  502    0 -0.86082922215E+02 -0.85292233634E+01  0.21679394081E+03  0.23341514501E+03  0.00000000000E+00 0. -1.
         -2    1    3    3    0  502 -0.45318755237E+02  0.65788793050E+01  0.21796515891E+02  0.50716460189E+02  0.00000000000E+00 0.  1.
         13    1    5    5    0    0  0.22246152362E+02 -0.82946993951E+02  0.75368339005E+02  0.11426058649E+03  0.00000000000E+00 0. -1.
        -13    1    5    5    0    0 -0.95585436395E+02 -0.32337056813E+03  0.30108591104E+03  0.45205953790E+03  0.00000000000E+00 0.  1.
          4    1    6    6  503    0  0.62863250655E+02  0.21902651432E+03  0.35649194364E+03  0.42309680705E+03  0.00000000000E+00 0. -1.
         -4    1    6    6    0  503  0.14187771083E+03  0.18924139182E+03  0.46804155035E+03  0.52440869754E+03  0.00000000000E+00 0.  1.
<mgrwt>
<rscale>  0 0.10771559E+04</rscale>
<asrwt>0</asrwt>
<pdfrwt beam="1">  1        1 0.24904118E+00 0.10771559E+04</pdfrwt>
<pdfrwt beam="2">  1       -2 0.27567619E-01 0.10771559E+04</pdfrwt>
<totfact> 0.56938444E+01</totfact>
</mgrwt>
</event>
<event>
12    5  0.5221187E-008  0.1576534E+04  0.7818608E-02  0.8835095E-01
         -2   -1    0    0    0  501 -0.00000000000E+00  0.00000000000E+00  0.64296002924E+03  0.64296002924E+03  0.00000000000E+00 0.  1.
          1   -1    0    0  501    0  0.00000000000E+00 -0.00000000000E+00 -0.96641294986E+03  0.96641294986E+03  0.00000000000E+00 0. -1.
        -24    2    1    2    0    0  0.21257792851E+03  0.45479803469E+03  0.11334046775E+00  0.50816390344E+03  0.78739519079E+02 0.  0.
        254    2    1    2    0    0 -0.21257792851E+03 -0.45479803469E+03 -0.32356626109E+03  0.11012090757E+04  0.92516791716E+03 0.  0.
         23    2    4    4    0    0 -0.42223571425E+03 -0.70219440356E+02 -0.45931469987E+03  0.63435883178E+03  0.90704827627E+02 0.  0.
         23    2    4    4    0    0  0.20965778574E+03 -0.38457859434E+03  0.13574843878E+03  0.46685024387E+03  0.87546725969E+02 0.  0.
          3    1    3    3  502    0  0.19888798607E+03  0.44605300597E+03  0.11171608859E+02  0.48851255868E+03  0.00000000000E+00 0. -1.
         -4    1    3    3    0  502  0.13689942436E+02  0.87450287208E+01 -0.11058268391E+02  0.19651344764E+02  0.00000000000E+00 0.  1.
         13    1    5    5    0    0 -0.77192348523E+02 -0.49862881705E+02 -0.96577979201E+02  0.13331268398E+03  0.00000000000E+00 0. -1.
        -13    1    5    5    0    0 -0.34504336572E+03 -0.20356558651E+02 -0.36273672067E+03  0.50104614781E+03  0.00000000000E+00 0.  1.
          3    1    6    6  503    0 -0.85061943834E+00  0.38328941845E+01 -0.15461744134E+01  0.42196310947E+01  0.00000000000E+00 0. -1.
         -3    1    6    6    0  503  0.21050840518E+03 -0.38841148852E+03  0.13729461319E+03  0.46263061278E+03  0.00000000000E+00 0.  1.
<mgrwt>
<rscale>  0 0.15765340E+04</rscale>
<asrwt>0</asrwt>
<pdfrwt beam="1">  1        1 0.14867891E+00 0.15765340E+04</pdfrwt>
<pdfrwt beam="2">  1       -2 0.98916928E-01 0.15765340E+04</pdfrwt>
<totfact> 0.11487158E+01</totfact>
</mgrwt>
</event>
<event>
12    5  0.5221187E-008  0.1660734E+04  0.7818608E-02  0.8784081E-01
         -2   -1    0    0    0  501 -0.00000000000E+00  0.00000000000E+00  0.25104647617E+03  0.25104647617E+03  0.00000000000E+00 0.  1.
          1   -1    0    0  501    0  0.00000000000E+00 -0.00000000000E+00 -0.27465412283E+04  0.27465412283E+04  0.00000000000E+00 0. -1.
        -24    2    1    2    0    0 -0.12785159239E+03  0.17321267553E+03  0.94621214112E+02  0.24744794940E+03  0.76997745819E+02 0.  0.
        254    2    1    2    0    0  0.12785159239E+03 -0.17321267553E+03 -0.25901159662E+04  0.27501397550E+04  0.89901017413E+03 0.  0.
         23    2    4    4    0    0 -0.82093089175E+02  0.17856158658E+03 -0.12711800948E+03  0.25143024792E+03  0.91840436321E+02 0.  0.
         23    2    4    4    0    0  0.20994468157E+03 -0.35177426211E+03 -0.24629979567E+04  0.24987095071E+04  0.96790316166E+02 0.  0.
          1    1    3    3  502    0 -0.75159838290E+02  0.60803784806E+02  0.99696225770E+01  0.97187936046E+02  0.00000000000E+00 0. -1.
         -2    1    3    3    0  502 -0.52691754104E+02  0.11240889073E+03  0.84651591535E+02  0.15026001336E+03  0.00000000000E+00 0.  1.
         13    1    5    5    0    0 -0.27137719093E+02  0.15461519949E+03 -0.92694197097E+02  0.18230340064E+03  0.00000000000E+00 0. -1.
        -13    1    5    5    0    0 -0.54955370082E+02  0.23946387088E+02 -0.34423812380E+02  0.69126847275E+02  0.00000000000E+00 0.  1.
          3    1    6    6  503    0  0.16262981665E+03 -0.30065646556E+03 -0.18089054082E+04  0.18409186683E+04  0.00000000000E+00 0. -1.
         -3    1    6    6    0  503  0.47314864915E+02 -0.51117796549E+02 -0.65409254854E+03  0.65779083881E+03  0.00000000000E+00 0.  1.
<mgrwt>
<rscale>  0 0.16607342E+04</rscale>
<asrwt>0</asrwt>
<pdfrwt beam="1">  1        1 0.42254479E+00 0.16607342E+04</pdfrwt>
<pdfrwt beam="2">  1       -2 0.38622536E-01 0.16607342E+04</pdfrwt>
<totfact> 0.48445636E+00</totfact>
</mgrwt>
</event>
<event>
12    5  0.5221187E-008  0.1258778E+04  0.7818608E-02  0.9062909E-01
          1   -1    0    0  501    0  0.00000000000E+00  0.00000000000E+00  0.76379020923E+03  0.76379020923E+03  0.00000000000E+00 0. -1.
         -2   -1    0    0    0  501 -0.00000000000E+00 -0.00000000000E+00 -0.51863805677E+03  0.51863805677E+03  0.00000000000E+00 0.  1.
        -24    2    1    2    0    0 -0.95681389055E+02 -0.19859077267E+00 -0.23059552427E+03  0.26221570504E+03  0.80173639700E+02 0.  0.
        254    2    1    2    0    0  0.95681389055E+02  0.19859077267E+00  0.47574767674E+03  0.10202125610E+04  0.89740896473E+03 0.  0.
         23    2    4    4    0    0  0.47617649794E+03 -0.92879095632E+02  0.20895713042E+03  0.53590491660E+03  0.90335008092E+02 0.  0.
         23    2    4    4    0    0 -0.38049510888E+03  0.93077686404E+02  0.26679054632E+03  0.48430764437E+03  0.99683073777E+02 0.  0.
          3    1    3    3  502    0 -0.44050971957E+01  0.17756896849E+02 -0.62253075965E+01  0.19325287104E+02  0.00000000000E+00 0. -1.
         -4    1    3    3    0  502 -0.91276291859E+02 -0.17955487621E+02 -0.22437021668E+03  0.24289041793E+03  0.00000000000E+00 0.  1.
         13    1    5    5    0    0  0.39479301725E+03 -0.10857756877E+03  0.18718208052E+03  0.45020855854E+03  0.00000000000E+00 0. -1.
        -13    1    5    5    0    0  0.81383480683E+02  0.15698473135E+02  0.21775049904E+02  0.85696358062E+02  0.00000000000E+00 0.  1.
          3    1    6    6  503    0 -0.32305698337E+03  0.85998288625E+02  0.17915164538E+03  0.37928463216E+03  0.00000000000E+00 0. -1.
         -3    1    6    6    0  503 -0.57438125514E+02  0.70793977790E+01  0.87638900940E+02  0.10502301221E+03  0.00000000000E+00 0.  1.
<mgrwt>
<rscale>  0 0.12587782E+04</rscale>
<asrwt>0</asrwt>
<pdfrwt beam="1">  1        1 0.11750619E+00 0.12587782E+04</pdfrwt>
<pdfrwt beam="2">  1       -2 0.79790470E-01 0.12587782E+04</pdfrwt>
<totfact> 0.28577895E+01</totfact>
</mgrwt>
</event>
<event>
12    5  0.5221187E-008  0.1675645E+04  0.7818608E-02  0.8775378E-01
         -2   -1    0    0    0  501 -0.00000000000E+00  0.00000000000E+00  0.30527645897E+03  0.30527645897E+03  0.00000000000E+00 0.  1.
          1   -1    0    0  501    0  0.00000000000E+00 -0.00000000000E+00 -0.22993786743E+04  0.22993786743E+04  0.00000000000E+00 0. -1.
        -24    2    1    2    0    0 -0.64826049499E+02 -0.10430390378E+03 -0.16129848942E+04  0.16196356349E+04  0.80109923821E+02 0.  0.
        254    2    1    2    0    0  0.64826049499E+02  0.10430390378E+03 -0.38111732119E+03  0.98501949842E+03  0.89996182070E+03 0.  0.
         23    2    4    4    0    0  0.83605674308E+01 -0.10720888556E+03  0.26329882706E+03  0.29859215255E+03  0.90925007570E+02 0.  0.
         23    2    4    4    0    0  0.56465482068E+02  0.21151278934E+03 -0.64441614825E+03  0.68642734587E+03  0.89355012794E+02 0.  0.
          3    1    3    3  502    0 -0.48998503294E+02 -0.48258838221E+02 -0.45309870121E+03  0.45828833918E+03  0.00000000000E+00 0. -1.
         -2    1    3    3    0  502 -0.15827546205E+02 -0.56045065559E+02 -0.11598861930E+04  0.11613472957E+04  0.00000000000E+00 0.  1.
         13    1    5    5    0    0 -0.15682803535E+02 -0.53019084176E+02  0.41843042891E+02  0.69338400990E+02  0.00000000000E+00 0.  1.
        -13    1    5    5    0    0  0.24043370966E+02 -0.54189801386E+02  0.22145578417E+03  0.22925375156E+03  0.00000000000E+00 0. -1.
          2    1    6    6  503    0 -0.14081332118E+02  0.96880409940E+02 -0.33477821902E+03  0.34879872946E+03  0.00000000000E+00 0. -1.
         -2    1    6    6    0  503  0.70546814186E+02  0.11463237940E+03 -0.30963792923E+03  0.33762861641E+03  0.00000000000E+00 0.  1.
<mgrwt>
<rscale>  0 0.16756446E+04</rscale>
<asrwt>0</asrwt>
<pdfrwt beam="1">  1        1 0.35375058E+00 0.16756446E+04</pdfrwt>
<pdfrwt beam="2">  1       -2 0.46965607E-01 0.16756446E+04</pdfrwt>
<totfact> 0.67100949E+00</totfact>
</mgrwt>
</event>
<event>
12    5  0.5221187E-008  0.2498412E+04  0.7818608E-02  0.8403551E-01
         -2   -1    0    0    0  501 -0.00000000000E+00  0.00000000000E+00  0.12339514862E+04  0.12339514862E+04  0.00000000000E+00 0.  1.
          1   -1    0    0  501    0  0.00000000000E+00 -0.00000000000E+00 -0.12646490514E+04  0.12646490514E+04  0.00000000000E+00 0. -1.
        -24    2    1    2    0    0  0.72392287332E+03 -0.46238578539E+03 -0.67610850599E+03  0.10962021359E+04  0.81679065909E+02 0.  0.
        254    2    1    2    0    0 -0.72392287332E+03  0.46238578539E+03  0.64541094078E+03  0.14023984018E+04  0.90127745657E+03 0.  0.
         23    2    4    4    0    0 -0.48444344341E+03  0.23715138782E+03 -0.12436564206E+03  0.56053494931E+03  0.88353754153E+02 0.  0.
         23    2    4    4    0    0 -0.23947942991E+03  0.22523439757E+03  0.76977658284E+03  0.84186345244E+03  0.89984186803E+02 0.  0.
          1    1    3    3  502    0  0.56462417305E+03 -0.32295417011E+03 -0.52886095240E+03  0.83832795477E+03  0.00000000000E+00 0. -1.
         -2    1    3    3    0  502  0.15929870027E+03 -0.13943161527E+03 -0.14724755359E+03  0.25787418112E+03  0.00000000000E+00 0.  1.
         13    1    5    5    0    0 -0.73848961532E+02  0.60065421772E+02  0.41377101232E+01  0.95281921985E+02  0.00000000000E+00 0. -1.
        -13    1    5    5    0    0 -0.41059448187E+03  0.17708596605E+03 -0.12850335218E+03  0.46525302733E+03  0.00000000000E+00 0.  1.
          2    1    6    6  503    0 -0.12339403605E+03  0.89611177468E+02  0.25629040823E+03  0.29822981844E+03  0.00000000000E+00 0. -1.
         -2    1    6    6    0  503 -0.11608539386E+03  0.13562322010E+03  0.51348617461E+03  0.54363363400E+03  0.00000000000E+00 0.  1.
<mgrwt>
<rscale>  0 0.24984120E+04</rscale>
<asrwt>0</asrwt>
<pdfrwt beam="1">  1        1 0.19456139E+00 0.24984120E+04</pdfrwt>
<pdfrwt beam="2">  1       -2 0.18983869E+00 0.24984120E+04</pdfrwt>
<totfact> 0.11620099E+00</totfact>
</mgrwt>
</event>
<event>
12    5  0.5221187E-008  0.2555868E+04  0.7818608E-02  0.8383348E-01
         -2   -1    0    0    0  501 -0.00000000000E+00  0.00000000000E+00  0.79110028652E+03  0.79110028652E+03  0.00000000000E+00 0.  1.
          1   -1    0    0  501    0  0.00000000000E+00 -0.00000000000E+00 -0.20643593845E+04  0.20643593845E+04  0.00000000000E+00 0. -1.
        -24    2    1    2    0    0  0.21450412445E+02 -0.84431818982E+03 -0.13763828216E+04  0.16167812379E+04  0.78857935303E+02 0.  0.
        254    2    1    2    0    0 -0.21450412445E+02  0.84431818982E+03  0.10312372361E+03  0.12386784331E+04  0.90019799618E+03 0.  0.
         23    2    4    4    0    0  0.37310642594E+03  0.70818249170E+03  0.37582467157E+02  0.80649743817E+03  0.91075953486E+02 0.  0.
         23    2    4    4    0    0 -0.39455683838E+03  0.13613569812E+03  0.65541256455E+02  0.43218099490E+03  0.90976530169E+02 0.  0.
          1    1    3    3  502    0 -0.13586450815E+02 -0.66102066307E+03 -0.10956827889E+04  0.12797084365E+04  0.00000000000E+00 0. -1.
         -2    1    3    3    0  502  0.35036863259E+02 -0.18329752675E+03 -0.28070003269E+03  0.33707280141E+03  0.00000000000E+00 0.  1.
         13    1    5    5    0    0  0.17730657055E+03  0.24972942852E+03  0.32135670026E+02  0.30795309499E+03  0.00000000000E+00 0. -1.
        -13    1    5    5    0    0  0.19579985539E+03  0.45845306318E+03  0.54467971307E+01  0.49854434317E+03  0.00000000000E+00 0.  1.
          1    1    6    6  503    0 -0.21198477355E+03  0.43889757870E+02  0.70190225837E+02  0.22757531252E+03  0.00000000000E+00 0. -1.
         -1    1    6    6    0  503 -0.18257206483E+03  0.92245940249E+02 -0.46489693826E+01  0.20460568239E+03  0.00000000000E+00 0.  1.
<mgrwt>
<rscale>  0 0.25558680E+04</rscale>
<asrwt>0</asrwt>
<pdfrwt beam="1">  1        1 0.31759375E+00 0.25558680E+04</pdfrwt>
<pdfrwt beam="2">  1       -2 0.12170774E+00 0.25558680E+04</pdfrwt>
<totfact> 0.10732879E+00</totfact>
</mgrwt>
</event>
<event>
12    5  0.5221187E-008  0.1092369E+04  0.7818608E-02  0.9212662E-01
         -2   -1    0    0    0  501 -0.00000000000E+00  0.00000000000E+00  0.94599475052E+02  0.94599475052E+02  0.00000000000E+00 0.  1.
          1   -1    0    0  501    0  0.00000000000E+00 -0.00000000000E+00 -0.31534771965E+04  0.31534771965E+04  0.00000000000E+00 0. -1.
        -24    2    1    2    0    0 -0.15169704851E+03 -0.30771353465E+02 -0.52555110364E+03  0.55366533842E+03  0.79890385598E+02 0.  0.
        254    2    1    2    0    0  0.15169704851E+03  0.30771353465E+02 -0.25333266178E+04  0.26944113331E+04  0.90451633976E+03 0.  0.
         23    2    4    4    0    0  0.12629023404E+03 -0.36387882778E+03 -0.59376586381E+03  0.71281890857E+03  0.84828479076E+02 0.  0.
         23    2    4    4    0    0  0.25406814472E+02  0.39465018125E+03 -0.19395607540E+04  0.19815924246E+04  0.91751549651E+02 0.  0.
          3    1    3    3  502    0 -0.11589982328E+02  0.12059822339E+02 -0.14857454799E+02  0.22372102456E+02  0.00000000000E+00 0. -1.
         -4    1    3    3    0  502 -0.14010706618E+03 -0.42831175805E+02 -0.51069364885E+03  0.53129323597E+03  0.00000000000E+00 0.  1.
         13    1    5    5    0    0  0.30367011899E+02 -0.48933725812E+02 -0.14676585768E+03  0.15766065430E+03  0.00000000000E+00 0. -1.
        -13    1    5    5    0    0  0.95923222137E+02 -0.31494510197E+03 -0.44700000613E+03  0.55515825427E+03  0.00000000000E+00 0.  1.
          1    1    6    6  503    0 -0.29235024077E+02  0.24061130928E+03 -0.11321210187E+04  0.11577765284E+04  0.00000000000E+00 0. -1.
         -1    1    6    6    0  503  0.54641838549E+02  0.15403887197E+03 -0.80743973533E+03  0.82381589617E+03  0.00000000000E+00 0.  1.
<mgrwt>
<rscale>  0 0.10923686E+04</rscale>
<asrwt>0</asrwt>
<pdfrwt beam="1">  1        1 0.48515025E+00 0.10923686E+04</pdfrwt>
<pdfrwt beam="2">  1       -2 0.14553768E-01 0.10923686E+04</pdfrwt>
<totfact> 0.15211332E+01</totfact>
</mgrwt>
</event>
<event>
12    5  0.5221187E-008  0.2107537E+04  0.7818608E-02  0.8557931E-01
          1   -1    0    0  501    0  0.00000000000E+00  0.00000000000E+00  0.15643130634E+04  0.15643130634E+04  0.00000000000E+00 0. -1.
         -2   -1    0    0    0  501 -0.00000000000E+00 -0.00000000000E+00 -0.70985024316E+03  0.70985024316E+03  0.00000000000E+00 0.  1.
        -24    2    1    2    0    0 -0.43913807923E+03 -0.45329527704E+02 -0.44633462990E+03  0.63273639125E+03  0.79017214905E+02 0.  0.
        254    2    1    2    0    0  0.43913807923E+03  0.45329527704E+02  0.13007974502E+04  0.16414269153E+04  0.89850503244E+03 0.  0.
         23    2    4    4    0    0  0.41456621453E+03 -0.37542040304E+02  0.10396677048E+03  0.43843673247E+03  0.90239281853E+02 0.  0.
         23    2    4    4    0    0  0.24571864701E+02  0.82871568008E+02  0.11968306797E+04  0.12029901829E+04  0.85499888460E+02 0.  0.
          1    1    3    3  502    0 -0.27522928797E+03 -0.63464357667E+02 -0.25988237155E+03  0.38381992222E+03  0.00000000000E+00 0. -1.
         -2    1    3    3    0  502 -0.16390879126E+03  0.18134829963E+02 -0.18645225835E+03  0.24891646903E+03  0.00000000000E+00 0.  1.
         13    1    5    5    0    0  0.36941573261E+03 -0.22791664444E+02  0.11873149181E+03  0.38869603884E+03  0.00000000000E+00 0. -1.
        -13    1    5    5    0    0  0.45150481928E+02 -0.14750375859E+02 -0.14764721329E+02  0.49740693625E+02  0.00000000000E+00 0.  1.
          1    1    6    6  503    0 -0.12409043916E+02  0.15334315267E+02  0.69560276693E+03  0.69588241461E+03  0.00000000000E+00 0. -1.
         -1    1    6    6    0  503  0.36980908616E+02  0.67537252740E+02  0.50122791275E+03  0.50710776826E+03  0.00000000000E+00 0.  1.
<mgrwt>
<rscale>  0 0.21075370E+04</rscale>
<asrwt>0</asrwt>
<pdfrwt beam="1">  1        1 0.24066355E+00 0.21075370E+04</pdfrwt>
<pdfrwt beam="2">  1       -2 0.10920773E+00 0.21075370E+04</pdfrwt>
<totfact> 0.31856163E+00</totfact>
</mgrwt>
</event>
<event>
12    5  0.5221187E-008  0.1387391E+04  0.7818608E-02  0.8962996E-01
         -2   -1    0    0    0  501 -0.00000000000E+00  0.00000000000E+00  0.30821267153E+03  0.30821267153E+03  0.00000000000E+00 0.  1.
          1   -1    0    0  501    0  0.00000000000E+00 -0.00000000000E+00 -0.15613035527E+04  0.15613035527E+04  0.00000000000E+00 0. -1.
        -24    2    1    2    0    0  0.29234623767E+03  0.15438181003E+03 -0.93427848060E+02  0.35265715378E+03  0.79613060301E+02 0.  0.
        254    2    1    2    0    0 -0.29234623767E+03 -0.15438181003E+03 -0.11596630331E+04  0.15168590705E+04  0.92018640683E+03 0.  0.
         23    2    4    4    0    0 -0.54797861399E+03  0.21401455748E+02 -0.38115517623E+03  0.67393463357E+03  0.90388263923E+02 0.  0.
         23    2    4    4    0    0  0.25563237633E+03 -0.17578326578E+03 -0.77850785691E+03  0.84292443691E+03  0.90550840513E+02 0.  0.
          3    1    3    3  502    0  0.69774392348E+02  0.24408105054E+02 -0.54840344219E+02  0.92041755600E+02  0.00000000000E+00 0. -1.
         -4    1    3    3    0  502  0.22257184532E+03  0.12997370498E+03 -0.38587503841E+02  0.26061539818E+03  0.00000000000E+00 0.  1.
         13    1    5    5    0    0 -0.12210606823E+03 -0.10346636773E+02 -0.12930712158E+03  0.17814959018E+03  0.00000000000E+00 0. -1.
        -13    1    5    5    0    0 -0.42587254576E+03  0.31748092521E+02 -0.25184805465E+03  0.49578504338E+03  0.00000000000E+00 0.  1.
          1    1    6    6  503    0  0.13586166835E+03 -0.42258309598E+02 -0.30410413185E+03  0.33574317665E+03  0.00000000000E+00 0. -1.
         -1    1    6    6    0  503  0.11977070798E+03 -0.13352495618E+03 -0.47440372506E+03  0.50718126026E+03  0.00000000000E+00 0.  1.
<mgrwt>
<rscale>  0 0.13873911E+04</rscale>
<asrwt>0</asrwt>
<pdfrwt beam="1">  1        1 0.24020054E+00 0.13873911E+04</pdfrwt>
<pdfrwt beam="2">  1       -2 0.47417335E-01 0.13873911E+04</pdfrwt>
<totfact> 0.21419390E+01</totfact>
</mgrwt>
</event>
<event>
12    5  0.5221187E-008  0.2246964E+04  0.7818608E-02  0.8499131E-01
          1   -1    0    0  501    0  0.00000000000E+00  0.00000000000E+00  0.19814402700E+04  0.19814402700E+04  0.00000000000E+00 0. -1.
         -2   -1    0    0    0  501 -0.00000000000E+00 -0.00000000000E+00 -0.63701747402E+03  0.63701747402E+03  0.00000000000E+00 0.  1.
        -24    2    1    2    0    0  0.38523791763E+03  0.33521119046E+03 -0.35342581860E+03  0.62605976931E+03  0.79159523115E+02 0.  0.
        254    2    1    2    0    0 -0.38523791763E+03 -0.33521119046E+03  0.16978486146E+04  0.19923979747E+04  0.90894718012E+03 0.  0.
         23    2    4    4    0    0 -0.49752517910E+03 -0.43514581782E+03  0.16896479563E+04  0.18162895072E+04  0.84345544921E+02 0.  0.
         23    2    4    4    0    0  0.11228726147E+03  0.99934627362E+02  0.82006582497E+01  0.17610846754E+03  0.91386994206E+02 0.  0.
          3    1    3    3  502    0  0.26596369321E+03  0.21236791239E+03 -0.19214875019E+03  0.39084262628E+03  0.00000000000E+00 0. -1.
         -4    1    3    3    0  502  0.11927422442E+03  0.12284327807E+03 -0.16127706841E+03  0.23521714302E+03  0.00000000000E+00 0.  1.
         13    1    5    5    0    0 -0.46871339394E+03 -0.39431019280E+03  0.15017495964E+04  0.16218583859E+04  0.00000000000E+00 0. -1.
        -13    1    5    5    0    0 -0.28811785153E+02 -0.40835625022E+02  0.18789835995E+03  0.19443112124E+03  0.00000000000E+00 0.  1.
          1    1    6    6  503    0  0.54503389266E+02 -0.46841560567E+01  0.13947729043E+02  0.56454405540E+02  0.00000000000E+00 0. -1.
         -1    1    6    6    0  503  0.57783872203E+02  0.10461878342E+03 -0.57470707935E+01  0.11965406200E+03  0.00000000000E+00 0.  1.
<mgrwt>
<rscale>  0 0.22469642E+04</rscale>
<asrwt>0</asrwt>
<pdfrwt beam="1">  1        1 0.30483696E+00 0.22469642E+04</pdfrwt>
<pdfrwt beam="2">  1       -2 0.98002689E-01 0.22469642E+04</pdfrwt>
<totfact> 0.21198395E+00</totfact>
</mgrwt>
</event>
<event>
12    5  0.5221187E-008  0.1337766E+04  0.7818608E-02  0.9000141E-01
          1   -1    0    0  501    0  0.00000000000E+00  0.00000000000E+00  0.11902568924E+04  0.11902568924E+04  0.00000000000E+00 0. -1.
         -2   -1    0    0    0  501 -0.00000000000E+00 -0.00000000000E+00 -0.37588914588E+03  0.37588914588E+03  0.00000000000E+00 0.  1.
        -24    2    1    2    0    0  0.37113906322E+02  0.17452195644E+02  0.64511160147E+03  0.65127078647E+03  0.79389154006E+02 0.  0.
        254    2    1    2    0    0 -0.37113906322E+02 -0.17452195644E+02  0.16925614499E+03  0.91487525177E+03  0.89814645939E+03 0.  0.
         23    2    4    4    0    0  0.37202259755E+03  0.18461351045E+03  0.13820350794E+03  0.44844464397E+03  0.97567554927E+02 0.  0.
         23    2    4    4    0    0 -0.40913650387E+03 -0.20206570609E+03  0.31052637053E+02  0.46643060780E+03  0.91487798346E+02 0.  0.
          3    1    3    3  502    0  0.15194292451E+02  0.48658488119E+02  0.39267294647E+03  0.39596787480E+03  0.00000000000E+00 0. -1.
         -4    1    3    3    0  502  0.21919613871E+02 -0.31206292475E+02  0.25243865501E+03  0.25530291166E+03  0.00000000000E+00 0.  1.
         13    1    5    5    0    0  0.72917352795E+02  0.83270361328E+02  0.40666651388E+02  0.11791806456E+03  0.00000000000E+00 0. -1.
        -13    1    5    5    0    0  0.29910524475E+03  0.10134314912E+03  0.97536856553E+02  0.33052657941E+03  0.00000000000E+00 0.  1.
          4    1    6    6  503    0 -0.24281001440E+03 -0.12792455238E+03  0.62902138022E+02  0.28156362188E+03  0.00000000000E+00 0.  1.
         -4    1    6    6    0  503 -0.16632648947E+03 -0.74141153706E+02 -0.31849500969E+02  0.18486698592E+03  0.00000000000E+00 0. -1.
<mgrwt>
<rscale>  0 0.13377663E+04</rscale>
<asrwt>0</asrwt>
<pdfrwt beam="1">  1        1 0.18311644E+00 0.13377663E+04</pdfrwt>
<pdfrwt beam="2">  1       -2 0.57829100E-01 0.13377663E+04</pdfrwt>
<totfact> 0.26127956E+01</totfact>
</mgrwt>
</event>
<event>
12    5  0.5221187E-008  0.1233821E+04  0.7818608E-02  0.9083757E-01
          1   -1    0    0  501    0  0.00000000000E+00  0.00000000000E+00  0.16078098482E+04  0.16078098482E+04  0.00000000000E+00 0. -1.
         -2   -1    0    0    0  501 -0.00000000000E+00 -0.00000000000E+00 -0.23670626069E+03  0.23670626069E+03  0.00000000000E+00 0.  1.
        -24    2    1    2    0    0 -0.18023802752E+03  0.19915012153E+03  0.41722872381E+03  0.50265197887E+03  0.80204029945E+02 0.  0.
        254    2    1    2    0    0  0.18023802752E+03 -0.19915012153E+03  0.95387486368E+03  0.13418641300E+04  0.90475166226E+03 0.  0.
         23    2    4    4    0    0 -0.14037555870E+03 -0.45010263975E+03  0.71513768624E+03  0.86135247215E+03  0.90600702022E+02 0.  0.
         23    2    4    4    0    0  0.32061358622E+03  0.25095251822E+03  0.23873717744E+03  0.48051165786E+03  0.90143082818E+02 0.  0.
          1    1    3    3  502    0 -0.53107755275E+02  0.11741513979E+03  0.20392483271E+03  0.24123035903E+03  0.00000000000E+00 0. -1.
         -2    1    3    3    0  502 -0.12713027224E+03  0.81734981745E+02  0.21330389110E+03  0.26142161984E+03  0.00000000000E+00 0.  1.
         13    1    5    5    0    0 -0.76396929989E+02 -0.34804500178E+03  0.57610310607E+03  0.67739693165E+03  0.00000000000E+00 0.  1.
        -13    1    5    5    0    0 -0.63978628710E+02 -0.10205763797E+03  0.13903458016E+03  0.18395554050E+03  0.00000000000E+00 0. -1.
          4    1    6    6  503    0  0.29138745973E+02  0.21416462184E+02  0.56708769893E+02  0.67257831902E+02  0.00000000000E+00 0. -1.
         -4    1    6    6    0  503  0.29147484025E+03  0.22953605603E+03  0.18202840755E+03  0.41325382596E+03  0.00000000000E+00 0.  1.
<mgrwt>
<rscale>  0 0.12338211E+04</rscale>
<asrwt>0</asrwt>
<pdfrwt beam="1">  1        1 0.24735535E+00 0.12338211E+04</pdfrwt>
<pdfrwt beam="2">  1       -2 0.36416349E-01 0.12338211E+04</pdfrwt>
<totfact> 0.33901517E+01</totfact>
</mgrwt>
</event>
<event>
12    5  0.5221187E-008  0.2347564E+04  0.7818608E-02  0.8459400E-01
          1   -1    0    0  501    0  0.00000000000E+00  0.00000000000E+00  0.14522932810E+04  0.14522932810E+04  0.00000000000E+00 0. -1.
         -2   -1    0    0    0  501 -0.00000000000E+00 -0.00000000000E+00 -0.94868156555E+03  0.94868156555E+03  0.00000000000E+00 0.  1.
        -24    2    1    2    0    0 -0.84901965049E+03  0.32167225567E+03  0.63982287947E+03  0.11135745546E+04  0.79797020344E+02 0.  0.
        254    2    1    2    0    0  0.84901965049E+03 -0.32167225567E+03 -0.13621116401E+03  0.12874002920E+04  0.90251793538E+03 0.  0.
         23    2    4    4    0    0 -0.17559699743E+03 -0.54332746497E+02 -0.86403761269E+02  0.22352022398E+03  0.93323778966E+02 0.  0.
         23    2    4    4    0    0  0.10246166479E+04 -0.26733950917E+03 -0.49807402744E+02  0.10638800680E+04  0.89723650298E+02 0.  0.
          1    1    3    3  502    0 -0.53582264179E+03  0.20138115706E+03  0.35571460448E+03  0.67393853853E+03  0.00000000000E+00 0. -1.
         -2    1    3    3    0  502 -0.31319700871E+03  0.12029109861E+03  0.28410827499E+03  0.43963601602E+03  0.00000000000E+00 0.  1.
         13    1    5    5    0    0 -0.10836697093E+03 -0.21514976890E+01 -0.94783504007E+01  0.10880196900E+03  0.00000000000E+00 0.  1.
        -13    1    5    5    0    0 -0.67230026496E+02 -0.52181248808E+02 -0.76925410868E+02  0.11471825499E+03  0.00000000000E+00 0. -1.
          3    1    6    6  503    0  0.80176607307E+03 -0.20762044234E+03 -0.17466714973E+01  0.82821382195E+03  0.00000000000E+00 0. -1.
         -3    1    6    6    0  503  0.22285057485E+03 -0.59719066839E+02 -0.48060731247E+02  0.23566624608E+03  0.00000000000E+00 0.  1.
<mgrwt>
<rscale>  0 0.23475637E+04</rscale>
<asrwt>0</asrwt>
<pdfrwt beam="1">  1        1 0.22342974E+00 0.23475637E+04</pdfrwt>
<pdfrwt beam="2">  1       -2 0.14595101E+00 0.23475637E+04</pdfrwt>
<totfact> 0.17974746E+00</totfact>
</mgrwt>
</event>
<event>
12    5  0.5221187E-008  0.2337179E+04  0.7818608E-02  0.8463404E-01
          1   -1    0    0  501    0  0.00000000000E+00  0.00000000000E+00  0.18231000717E+04  0.18231000717E+04  0.00000000000E+00 0. -1.
         -4   -1    0    0    0  501 -0.00000000000E+00 -0.00000000000E+00 -0.74905487013E+03  0.74905487013E+03  0.00000000000E+00 0.  1.
        -24    2    1    2    0    0 -0.13969343217E+03 -0.38344688837E+03  0.14517506914E+04  0.15101908067E+04  0.80934736624E+02 0.  0.
        254    2    1    2    0    0  0.13969343217E+03  0.38344688837E+03 -0.37770548981E+03  0.10619641351E+04  0.90474339789E+03 0.  0.
         23    2    4    4    0    0 -0.19339173925E+03  0.45873600245E+03  0.47677923262E+02  0.50861728016E+03  0.92624341059E+02 0.  0.
         23    2    4    4    0    0  0.33308517142E+03 -0.75289114080E+02 -0.42538341307E+03  0.55334685494E+03  0.92884399352E+02 0.  0.
          3    1    3    3  502    0 -0.91896502545E+02 -0.24056503057E+03  0.76756452130E+03  0.80961212656E+03  0.00000000000E+00 0. -1.
         -4    1    3    3    0  502 -0.47796929627E+02 -0.14288185780E+03  0.68418617006E+03  0.70057868015E+03  0.00000000000E+00 0.  1.
         13    1    5    5    0    0 -0.40503814752E+02  0.18802569583E+03 -0.91939326147E+01  0.19255843191E+03  0.00000000000E+00 0.  1.
        -13    1    5    5    0    0 -0.15288792449E+03  0.27071030662E+03  0.56871855877E+02  0.31605884825E+03  0.00000000000E+00 0. -1.
          3    1    6    6  503    0  0.32305649384E+03 -0.89965657893E+02 -0.41118762172E+03  0.53059832083E+03  0.00000000000E+00 0. -1.
         -3    1    6    6    0  503  0.10028677581E+02  0.14676543813E+02 -0.14195791351E+02  0.22748534115E+02  0.00000000000E+00 0.  1.
<mgrwt>
<rscale>  0 0.23371795E+04</rscale>
<asrwt>0</asrwt>
<pdfrwt beam="1">  1        1 0.28047693E+00 0.23371795E+04</pdfrwt>
<pdfrwt beam="2">  1       -4 0.11523921E+00 0.23371795E+04</pdfrwt>
<totfact> 0.10160563E+00</totfact>
</mgrwt>
</event>
<event>
12    5  0.5221187E-008  0.1422595E+04  0.7818608E-02  0.8937624E-01
          1   -1    0    0  501    0  0.00000000000E+00  0.00000000000E+00  0.13983172988E+04  0.13983172988E+04  0.00000000000E+00 0. -1.
         -2   -1    0    0    0  501 -0.00000000000E+00 -0.00000000000E+00 -0.36182346483E+03  0.36182346483E+03  0.00000000000E+00 0.  1.
        -24    2    1    2    0    0  0.38446395906E+03  0.15869856476E+03  0.38399706110E+03  0.57142109817E+03  0.77913787179E+02 0.  0.
        254    2    1    2    0    0 -0.38446395906E+03 -0.15869856476E+03  0.65249677282E+03  0.11887196654E+04  0.90238829454E+03 0.  0.
         23    2    4    4    0    0 -0.26229425863E+03 -0.51038685980E+03  0.25056420411E+03  0.63306942590E+03  0.93281578420E+02 0.  0.
         23    2    4    4    0    0 -0.12216970043E+03  0.35168829504E+03  0.40193256872E+03  0.55565023951E+03  0.92667719835E+02 0.  0.
          1    1    3    3  502    0  0.29589923066E+02 -0.85205976339E+01  0.25222777438E+02  0.39803927354E+02  0.00000000000E+00 0. -1.
         -2    1    3    3    0  502  0.35487403599E+03  0.16721916239E+03  0.35877428366E+03  0.53161717082E+03  0.00000000000E+00 0.  1.
         13    1    5    5    0    0 -0.70358208271E+02 -0.21405681959E+03  0.66618159779E+02  0.23496505846E+03  0.00000000000E+00 0. -1.
        -13    1    5    5    0    0 -0.19193605036E+03 -0.29633004021E+03  0.18394604433E+03  0.39810436745E+03  0.00000000000E+00 0.  1.
          2    1    6    6  503    0 -0.27460629195E+02  0.18781479472E+02  0.14973016879E+02  0.36483165452E+02  0.00000000000E+00 0. -1.
         -2    1    6    6    0  503 -0.94709071233E+02  0.33290681556E+03  0.38695955184E+03  0.51916707406E+03  0.00000000000E+00 0.  1.
<mgrwt>
<rscale>  0 0.14225948E+04</rscale>
<asrwt>0</asrwt>
<pdfrwt beam="1">  1        1 0.21512574E+00 0.14225948E+04</pdfrwt>
<pdfrwt beam="2">  1       -2 0.55665149E-01 0.14225948E+04</pdfrwt>
<totfact> 0.19945859E+01</totfact>
</mgrwt>
</event>
<event>
12    5  0.5221187E-008  0.1246720E+04  0.7818608E-02  0.9072917E-01
         -2   -1    0    0    0  501 -0.00000000000E+00  0.00000000000E+00  0.88329517248E+03  0.88329517248E+03  0.00000000000E+00 0.  1.
          1   -1    0    0  501    0  0.00000000000E+00 -0.00000000000E+00 -0.43991857768E+03  0.43991857768E+03  0.00000000000E+00 0. -1.
        -24    2    1    2    0    0  0.24264506573E+03  0.11972480917E+03  0.65275672322E+02  0.28970889925E+03  0.80372103702E+02 0.  0.
        254    2    1    2    0    0 -0.24264506573E+03 -0.11972480917E+03  0.37810092248E+03  0.10335048509E+04  0.92301750331E+03 0.  0.
         23    2    4    4    0    0 -0.13380960692E+03 -0.49008882804E+03  0.52942665645E+02  0.52049226744E+03  0.10008598475E+03 0.  0.
         23    2    4    4    0    0 -0.10883545881E+03  0.37036401887E+03  0.32515825683E+03  0.51301258347E+03  0.91865963514E+02 0.  0.
          3    1    3    3  502    0  0.74051093045E+02  0.39484313747E+02  0.59558052020E+02  0.10290644768E+03  0.00000000000E+00 0. -1.
         -4    1    3    3    0  502  0.16859397268E+03  0.80240495425E+02  0.57176203022E+01  0.18680245157E+03  0.00000000000E+00 0.  1.
         13    1    5    5    0    0 -0.14816882205E+03 -0.43306418099E+03  0.35164846993E+02  0.45905898438E+03  0.00000000000E+00 0.  1.
        -13    1    5    5    0    0  0.14359215126E+02 -0.57024647051E+02  0.17777818652E+02  0.61433283050E+02  0.00000000000E+00 0. -1.
          1    1    6    6  503    0 -0.10042682407E+02  0.49697031915E+01  0.33029776229E+02  0.34878640133E+02  0.00000000000E+00 0. -1.
         -1    1    6    6    0  503 -0.98792776400E+02  0.36539431567E+03  0.29212848060E+03  0.47813394334E+03  0.00000000000E+00 0.  1.
<mgrwt>
<rscale>  0 0.12467204E+04</rscale>
<asrwt>0</asrwt>
<pdfrwt beam="1">  1        1 0.67679782E-01 0.12467204E+04</pdfrwt>
<pdfrwt beam="2">  1       -2 0.13589156E+00 0.12467204E+04</pdfrwt>
<totfact> 0.17645841E+01</totfact>
</mgrwt>
</event>
<event>
12    5  0.5221187E-008  0.1825086E+04  0.7818608E-02  0.8693072E-01
         -2   -1    0    0    0  501 -0.00000000000E+00  0.00000000000E+00  0.63364797552E+03  0.63364797552E+03  0.00000000000E+00 0.  1.
          1   -1    0    0  501    0  0.00000000000E+00 -0.00000000000E+00 -0.13141908842E+04  0.13141908842E+04  0.00000000000E+00 0. -1.
        -24    2    1    2    0    0 -0.13435044920E+02  0.26009947886E+02 -0.99129129149E+03  0.99491707028E+03  0.79652585128E+02 0.  0.
        254    2    1    2    0    0  0.13435044920E+02 -0.26009947886E+02  0.31074838280E+03  0.95292178944E+03  0.90035457546E+03 0.  0.
         23    2    4    4    0    0  0.38625829871E+03  0.12761441497E+03  0.34003844571E+03  0.53816793488E+03  0.92291220317E+02 0.  0.
         23    2    4    4    0    0 -0.37282325379E+03 -0.15362436286E+03 -0.29290062903E+02  0.41475385456E+03  0.92548520547E+02 0.  0.
          3    1    3    3  502    0 -0.14096289542E+01 -0.26518440287E+02 -0.49431380255E+03  0.49502661557E+03  0.00000000000E+00 0. -1.
         -4    1    3    3    0  502 -0.12025415966E+02  0.52528388173E+02 -0.49697748894E+03  0.49989045471E+03  0.00000000000E+00 0.  1.
         13    1    5    5    0    0  0.24865051854E+03  0.11418124595E+03  0.26476919605E+03  0.38074553769E+03  0.00000000000E+00 0.  1.
        -13    1    5    5    0    0  0.13760778017E+03  0.13433169022E+02  0.75269249661E+02  0.15742239719E+03  0.00000000000E+00 0. -1.
          4    1    6    6  503    0 -0.16958153391E+03 -0.46442951372E+02  0.27763627541E+02  0.17800467238E+03  0.00000000000E+00 0. -1.
         -4    1    6    6    0  503 -0.20324171988E+03 -0.10718141149E+03 -0.57053690444E+02  0.23674918218E+03  0.00000000000E+00 0.  1.
<mgrwt>
<rscale>  0 0.18250856E+04</rscale>
<asrwt>0</asrwt>
<pdfrwt beam="1">  1        1 0.20218321E+00 0.18250856E+04</pdfrwt>
<pdfrwt beam="2">  1       -2 0.97484306E-01 0.18250856E+04</pdfrwt>
<totfact> 0.64040083E+00</totfact>
</mgrwt>
</event>
<event>
12    5  0.5221187E-008  0.1482389E+04  0.7818608E-02  0.8896249E-01
         -2   -1    0    0    0  501 -0.00000000000E+00  0.00000000000E+00  0.11960448103E+04  0.11960448103E+04  0.00000000000E+00 0.  1.
          1   -1    0    0  501    0  0.00000000000E+00 -0.00000000000E+00 -0.45932143854E+03  0.45932143854E+03  0.00000000000E+00 0. -1.
        -24    2    1    2    0    0 -0.40304714740E+03 -0.98267434941E+02  0.46175369823E+03  0.62607612152E+03  0.81555749689E+02 0.  0.
        254    2    1    2    0    0  0.40304714740E+03  0.98267434941E+02  0.27496967358E+03  0.10292901274E+04  0.90095857458E+03 0.  0.
         23    2    4    4    0    0  0.13871671045E+03  0.25166590569E+03  0.53690236344E+03  0.61568993339E+03  0.90729776592E+02 0.  0.
         23    2    4    4    0    0  0.26433043694E+03 -0.15339847075E+03 -0.26193268986E+03  0.41360019398E+03  0.95156269977E+02 0.  0.
          1    1    3    3  502    0 -0.12824668052E+03 -0.19746377173E+02  0.93524071660E+02  0.15994962474E+03  0.00000000000E+00 0. -1.
         -2    1    3    3    0  502 -0.27480046688E+03 -0.78521057769E+02  0.36822962657E+03  0.46612649677E+03  0.00000000000E+00 0.  1.
         13    1    5    5    0    0 -0.12313631242E+02  0.20081717549E+02  0.28527260900E+02  0.36996020172E+02  0.00000000000E+00 0. -1.
        -13    1    5    5    0    0  0.15103034170E+03  0.23158418815E+03  0.50837510254E+03  0.57869391322E+03  0.00000000000E+00 0.  1.
          3    1    6    6  503    0  0.22355198564E+02  0.11582567119E+02 -0.93456656246E+01  0.26856139519E+02  0.00000000000E+00 0. -1.
         -3    1    6    6    0  503  0.24197523838E+03 -0.16498103787E+03 -0.25258702424E+03  0.38674405446E+03  0.00000000000E+00 0.  1.
<mgrwt>
<rscale>  0 0.14823886E+04</rscale>
<asrwt>0</asrwt>
<pdfrwt beam="1">  1        1 0.70664837E-01 0.14823886E+04</pdfrwt>
<pdfrwt beam="2">  1       -2 0.18400689E+00 0.14823886E+04</pdfrwt>
<totfact> 0.71706221E+00</totfact>
</mgrwt>
</event>
<event>
12    5  0.5221187E-008  0.1723565E+04  0.7818608E-02  0.8748038E-01
          1   -1    0    0  501    0  0.00000000000E+00  0.00000000000E+00  0.41263485322E+03  0.41263485322E+03  0.00000000000E+00 0. -1.
         -2   -1    0    0    0  501 -0.00000000000E+00 -0.00000000000E+00 -0.17998206797E+04  0.17998206797E+04  0.00000000000E+00 0.  1.
        -24    2    1    2    0    0  0.24311633047E+03 -0.11818673111E+03 -0.12779271042E+04  0.13085873299E+04  0.78926946468E+02 0.  0.
        254    2    1    2    0    0 -0.24311633047E+03  0.11818673111E+03 -0.10925872232E+03  0.90386820301E+03  0.85555046985E+03 0.  0.
         23    2    4    4    0    0  0.17768032256E+03 -0.25721167371E+03 -0.23325647981E+02  0.32624418993E+03  0.90349562768E+02 0.  0.
         23    2    4    4    0    0 -0.42079665304E+03  0.37539840482E+03 -0.85933074336E+02  0.57762401308E+03  0.90946257081E+02 0.  0.
          1    1    3    3  502    0  0.14656174098E+03 -0.43821996419E+02 -0.84949193850E+03  0.86315541177E+03  0.00000000000E+00 0. -1.
         -2    1    3    3    0  502  0.96554589491E+02 -0.74364734690E+02 -0.42843516569E+03  0.44543191817E+03  0.00000000000E+00 0.  1.
         13    1    5    5    0    0  0.10372405047E+03 -0.91432737473E+02 -0.40035057052E+02  0.14394940056E+03  0.00000000000E+00 0.  1.
        -13    1    5    5    0    0  0.73956272092E+02 -0.16577893624E+03  0.16709409071E+02  0.18229478937E+03  0.00000000000E+00 0. -1.
          2    1    6    6  503    0 -0.13767070362E+03  0.87018570484E+02 -0.56627910461E+02  0.17243020179E+03  0.00000000000E+00 0. -1.
         -2    1    6    6    0  503 -0.28312594942E+03  0.28837983433E+03 -0.29305163875E+02  0.40519381130E+03  0.00000000000E+00 0.  1.
<mgrwt>
<rscale>  0 0.17235646E+04</rscale>
<asrwt>0</asrwt>
<pdfrwt beam="1">  1        1 0.63482285E-01 0.17235646E+04</pdfrwt>
<pdfrwt beam="2">  1       -2 0.27689549E+00 0.17235646E+04</pdfrwt>
<totfact> 0.21049748E+00</totfact>
</mgrwt>
</event>
<event>
12    5  0.5221187E-008  0.1178007E+04  0.7818608E-02  0.9132328E-01
          1   -1    0    0  501    0  0.00000000000E+00  0.00000000000E+00  0.72739640291E+03  0.72739640291E+03  0.00000000000E+00 0. -1.
         -2   -1    0    0    0  501 -0.00000000000E+00 -0.00000000000E+00 -0.47694072805E+03  0.47694072805E+03  0.00000000000E+00 0.  1.
        -24    2    1    2    0    0  0.74405925714E+02 -0.93648992299E+02 -0.16454488284E+03  0.21339935163E+03  0.64481697139E+02 0.  0.
        254    2    1    2    0    0 -0.74405925714E+02  0.93648992299E+02  0.41500055770E+03  0.99093777933E+03  0.89186649454E+03 0.  0.
         23    2    4    4    0    0 -0.42814954212E+03  0.60834159056E+01  0.82525157556E+01  0.43732660589E+03  0.88529191995E+02 0.  0.
         23    2    4    4    0    0  0.35374361641E+03  0.87565576393E+02  0.40674804195E+03  0.55361117344E+03  0.90769407944E+02 0.  0.
          1    1    3    3  502    0  0.26585955519E+02 -0.12327399100E+02 -0.75859951383E+01  0.30270862586E+02  0.00000000000E+00 0. -1.
         -2    1    3    3    0  502  0.47819970195E+02 -0.81321593198E+02 -0.15695888770E+03  0.18312848904E+03  0.00000000000E+00 0.  1.
         13    1    5    5    0    0 -0.18609034619E+03 -0.25540419888E+02 -0.30051309501E+02  0.19022358212E+03  0.00000000000E+00 0. -1.
        -13    1    5    5    0    0 -0.24205919593E+03  0.31623835794E+02  0.38303825257E+02  0.24710302377E+03  0.00000000000E+00 0.  1.
          2    1    6    6  503    0  0.98287960983E+02  0.61275409082E+02  0.15958637397E+03  0.19718775263E+03  0.00000000000E+00 0. -1.
         -2    1    6    6    0  503  0.25545565542E+03  0.26290167311E+02  0.24716166798E+03  0.35642342081E+03  0.00000000000E+00 0.  1.
<mgrwt>
<rscale>  0 0.11780067E+04</rscale>
<asrwt>0</asrwt>
<pdfrwt beam="1">  1        1 0.11190714E+00 0.11780067E+04</pdfrwt>
<pdfrwt beam="2">  1       -2 0.73375496E-01 0.11780067E+04</pdfrwt>
<totfact> 0.37389058E+01</totfact>
</mgrwt>
</event>
<event>
12    5  0.5221187E-008  0.2866210E+04  0.7818608E-02  0.8283003E-01
         -2   -1    0    0    0  501 -0.00000000000E+00  0.00000000000E+00  0.14274340909E+04  0.14274340909E+04  0.00000000000E+00 0.  1.
          1   -1    0    0  501    0  0.00000000000E+00 -0.00000000000E+00 -0.14387979934E+04  0.14387979934E+04  0.00000000000E+00 0. -1.
        -24    2    1    2    0    0  0.10258313064E+04 -0.77821276285E+03  0.10113417881E+03  0.12939330413E+04  0.78036017211E+02 0.  0.
        254    2    1    2    0    0 -0.10258313064E+04  0.77821276285E+03 -0.11249808132E+03  0.15722990430E+04  0.89527844216E+03 0.  0.
         23    2    4    4    0    0 -0.33869456785E+03  0.43426853233E+03  0.36156788813E+03  0.66494570077E+03  0.90101491566E+02 0.  0.
         23    2    4    4    0    0 -0.68713673850E+03  0.34394423052E+03 -0.47406596944E+03  0.90735334224E+03  0.89983405076E+02 0.  0.
          1    1    3    3  502    0  0.88815316448E+03 -0.67000700021E+03  0.11396436789E+03  0.11183529412E+04  0.00000000000E+00 0. -1.
         -2    1    3    3    0  502  0.13767814187E+03 -0.10820576264E+03 -0.12830189073E+02  0.17558010015E+03  0.00000000000E+00 0.  1.
         13    1    5    5    0    0 -0.29789245789E+03  0.32594018972E+03  0.27237186733E+03  0.51880955837E+03  0.00000000000E+00 0. -1.
        -13    1    5    5    0    0 -0.40802109967E+02  0.10832834261E+03  0.89196020795E+02  0.14613614240E+03  0.00000000000E+00 0.  1.
          4    1    6    6  503    0 -0.60087152499E+03  0.26749048597E+03 -0.41655259996E+03  0.77853311950E+03  0.00000000000E+00 0. -1.
         -4    1    6    6    0  503 -0.86265213513E+02  0.76453744547E+02 -0.57513369483E+02  0.12882022274E+03  0.00000000000E+00 0.  1.
<mgrwt>
<rscale>  0 0.28662096E+04</rscale>
<asrwt>0</asrwt>
<pdfrwt beam="1">  1        1 0.22135354E+00 0.28662096E+04</pdfrwt>
<pdfrwt beam="2">  1       -2 0.21960524E+00 0.28662096E+04</pdfrwt>
<totfact> 0.54227356E-01</totfact>
</mgrwt>
</event>
<event>
12    5  0.5221187E-008  0.1622584E+04  0.7818608E-02  0.8806793E-01
         -2   -1    0    0    0  501 -0.00000000000E+00  0.00000000000E+00  0.64752361078E+03  0.64752361078E+03  0.00000000000E+00 0.  1.
          1   -1    0    0  501    0  0.00000000000E+00 -0.00000000000E+00 -0.10164802078E+04  0.10164802078E+04  0.00000000000E+00 0. -1.
        -24    2    1    2    0    0  0.16719740003E+03  0.11896399334E+03  0.39484749357E+03  0.45379400460E+03  0.88977823863E+02 0.  0.
        254    2    1    2    0    0 -0.16719740003E+03 -0.11896399334E+03 -0.76380409059E+03  0.12102098140E+04  0.91602603827E+03 0.  0.
         23    2    4    4    0    0 -0.15328110133E+03  0.74427279288E+02  0.16698438595E+03  0.25508856678E+03  0.90287739046E+02 0.  0.
         23    2    4    4    0    0 -0.13916298700E+02 -0.19339127263E+03 -0.93078847654E+03  0.95512124721E+03  0.91079970950E+02 0.  0.
          3    1    3    3  502    0  0.23227718019E+02  0.66115578360E+02  0.13334711983E+03  0.15063947342E+03  0.00000000000E+00 0. -1.
         -2    1    3    3    0  502  0.14396968201E+03  0.52848414983E+02  0.26150037374E+03  0.30315453117E+03  0.00000000000E+00 0.  1.
         13    1    5    5    0    0 -0.18800411216E+02  0.52538744806E+02  0.38346371972E+02  0.67706863841E+02  0.00000000000E+00 0. -1.
        -13    1    5    5    0    0 -0.13448069011E+03  0.21888534482E+02  0.12863801398E+03  0.18738170294E+03  0.00000000000E+00 0.  1.
          1    1    6    6  503    0 -0.41369719434E+01  0.33118902853E+01 -0.19723949574E+01  0.56545111186E+01  0.00000000000E+00 0. -1.
         -1    1    6    6    0  503 -0.97793267562E+01 -0.19670316292E+03 -0.92881608159E+03  0.94946673609E+03  0.00000000000E+00 0.  1.
<mgrwt>
<rscale>  0 0.16225843E+04</rscale>
<asrwt>0</asrwt>
<pdfrwt beam="1">  1        1 0.15638157E+00 0.16225843E+04</pdfrwt>
<pdfrwt beam="2">  1       -2 0.99619018E-01 0.16225843E+04</pdfrwt>
<totfact> 0.10280831E+01</totfact>
</mgrwt>
</event>
<event>
12    5  0.5221187E-008  0.1580915E+04  0.7818608E-02  0.8832359E-01
          1   -1    0    0  501    0  0.00000000000E+00  0.00000000000E+00  0.53531804623E+03  0.53531804623E+03  0.00000000000E+00 0. -1.
         -2   -1    0    0    0  501 -0.00000000000E+00 -0.00000000000E+00 -0.11672002628E+04  0.11672002628E+04  0.00000000000E+00 0.  1.
        -24    2    1    2    0    0 -0.46197065639E+03  0.26661094250E+03 -0.25540910796E+03  0.59685766198E+03  0.80665818048E+02 0.  0.
        254    2    1    2    0    0  0.46197065639E+03 -0.26661094250E+03 -0.37647310863E+03  0.11056606471E+04  0.89233131905E+03 0.  0.
         23    2    4    4    0    0  0.66715390229E+03 -0.92181767207E+00 -0.14661355245E+03  0.68913532189E+03  0.91196376203E+02 0.  0.
         23    2    4    4    0    0 -0.20518324589E+03 -0.26568912483E+03 -0.22985955618E+03  0.41652532519E+03  0.89258363819E+02 0.  0.
          1    1    3    3  502    0 -0.37005177713E+03  0.24854237487E+03 -0.21082588923E+03  0.49311173727E+03  0.00000000000E+00 0. -1.
         -2    1    3    3    0  502 -0.91918879263E+02  0.18068567634E+02 -0.44583218731E+02  0.10374592471E+03  0.00000000000E+00 0.  1.
         13    1    5    5    0    0  0.62121813253E+02  0.25351799443E+02 -0.23900277620E+02  0.71225393556E+02  0.00000000000E+00 0.  1.
        -13    1    5    5    0    0  0.60503208903E+03 -0.26273617115E+02 -0.12271327483E+03  0.61790992834E+03  0.00000000000E+00 0. -1.
          1    1    6    6  503    0 -0.14585180890E+03 -0.20273639976E+03 -0.12110802026E+03  0.27756431780E+03  0.00000000000E+00 0. -1.
         -1    1    6    6    0  503 -0.59331436998E+02 -0.62952725069E+02 -0.10875153592E+03  0.13896100739E+03  0.00000000000E+00 0.  1.
<mgrwt>
<rscale>  0 0.15809154E+04</rscale>
<asrwt>0</asrwt>
<pdfrwt beam="1">  1        1 0.82356623E-01 0.15809154E+04</pdfrwt>
<pdfrwt beam="2">  1       -2 0.17956927E+00 0.15809154E+04</pdfrwt>
<totfact> 0.61803258E+00</totfact>
</mgrwt>
</event>
<event>
12    5  0.5221187E-008  0.2176303E+04  0.7818608E-02  0.8528356E-01
          1   -1    0    0  501    0  0.00000000000E+00  0.00000000000E+00  0.86575694542E+03  0.86575694542E+03  0.00000000000E+00 0. -1.
         -2   -1    0    0    0  501 -0.00000000000E+00 -0.00000000000E+00 -0.13676750558E+04  0.13676750558E+04  0.00000000000E+00 0.  1.
        -24    2    1    2    0    0 -0.43353211640E+03  0.51672417622E+03  0.43273540656E+03  0.80523434368E+03  0.78666675998E+02 0.  0.
        254    2    1    2    0    0  0.43353211640E+03 -0.51672417622E+03 -0.93465351693E+03  0.14281976575E+04  0.84333705128E+03 0.  0.
         23    2    4    4    0    0  0.25426636528E+03 -0.42500150004E+03 -0.39896833127E+02  0.50541541227E+03  0.92603035155E+02 0.  0.
         23    2    4    4    0    0  0.17926575112E+03 -0.91722676178E+02 -0.89475668380E+03  0.92278224527E+03  0.10192296174E+03 0.  0.
          1    1    3    3  502    0 -0.42446453010E+03  0.48390095782E+03  0.42135173505E+03  0.76932929160E+03  0.00000000000E+00 0. -1.
         -2    1    3    3    0  502 -0.90675862966E+01  0.32823218401E+02  0.11383671510E+02  0.35905052074E+02  0.00000000000E+00 0.  1.
         13    1    5    5    0    0  0.14158387515E+03 -0.29692850911E+03  0.50891614234E+01  0.32899609844E+03  0.00000000000E+00 0.  1.
        -13    1    5    5    0    0  0.11268249012E+03 -0.12807299093E+03 -0.44985994550E+02  0.17641931383E+03  0.00000000000E+00 0. -1.
          3    1    6    6  503    0  0.24262800077E+02 -0.15431835599E+02 -0.35248506362E+03  0.35365596996E+03  0.00000000000E+00 0. -1.
         -3    1    6    6    0  503  0.15500295104E+03 -0.76290840579E+02 -0.54227162018E+03  0.56912627530E+03  0.00000000000E+00 0.  1.
<mgrwt>
<rscale>  0 0.21763035E+04</rscale>
<asrwt>0</asrwt>
<pdfrwt beam="1">  1        1 0.13319338E+00 0.21763035E+04</pdfrwt>
<pdfrwt beam="2">  1       -2 0.21041155E+00 0.21763035E+04</pdfrwt>
<totfact> 0.17698883E+00</totfact>
</mgrwt>
</event>
<event>
12    5  0.5221187E-008  0.1694835E+04  0.7818608E-02  0.8764316E-01
         -2   -1    0    0    0  501 -0.00000000000E+00  0.00000000000E+00  0.39146557741E+03  0.39146557741E+03  0.00000000000E+00 0.  1.
          1   -1    0    0  501    0  0.00000000000E+00 -0.00000000000E+00 -0.18344296630E+04  0.18344296630E+04  0.00000000000E+00 0. -1.
        -24    2    1    2    0    0  0.26014304136E+03 -0.38589408723E+03 -0.10359585822E+04  0.11384704855E+04  0.79474610790E+02 0.  0.
        254    2    1    2    0    0 -0.26014304136E+03  0.38589408723E+03 -0.40700550341E+03  0.10874247549E+04  0.89456719666E+03 0.  0.
         23    2    4    4    0    0 -0.31721782121E+03 -0.88157146404E+02 -0.48683544177E+03  0.59440619448E+03  0.88944635097E+02 0.  0.
         23    2    4    4    0    0  0.57074779850E+02  0.47405123363E+03  0.79829938360E+02  0.49301856047E+03  0.93340126996E+02 0.  0.
          3    1    3    3  502    0  0.82535616168E+02 -0.69277341642E+02 -0.27478669783E+03  0.29515963021E+03  0.00000000000E+00 0. -1.
         -4    1    3    3    0  502  0.17760742519E+03 -0.31661674559E+03 -0.76117188435E+03  0.84331085526E+03  0.00000000000E+00 0.  1.
         13    1    5    5    0    0  0.85547554432E+00  0.37267872431E+01 -0.29847000705E+02  0.30090932732E+02  0.00000000000E+00 0.  1.
        -13    1    5    5    0    0 -0.31807329675E+03 -0.91883933647E+02 -0.45698844106E+03  0.56431526174E+03  0.00000000000E+00 0. -1.
          3    1    6    6  503    0  0.80277036080E+02  0.35323854266E+03  0.44136200131E+02  0.36492447808E+03  0.00000000000E+00 0. -1.
         -3    1    6    6    0  503 -0.23202256231E+02  0.12081269098E+03  0.35693738228E+02  0.12809408239E+03  0.00000000000E+00 0.  1.
<mgrwt>
<rscale>  0 0.16948346E+04</rscale>
<asrwt>0</asrwt>
<pdfrwt beam="1">  1        1 0.28221995E+00 0.16948346E+04</pdfrwt>
<pdfrwt beam="2">  1       -2 0.60225473E-01 0.16948346E+04</pdfrwt>
<totfact> 0.82903772E+00</totfact>
</mgrwt>
</event>
<event>
12    5  0.5221187E-008  0.2588720E+04  0.7818608E-02  0.8372043E-01
          1   -1    0    0  501    0  0.00000000000E+00  0.00000000000E+00  0.23491280589E+04  0.23491280589E+04  0.00000000000E+00 0. -1.
         -2   -1    0    0    0  501 -0.00000000000E+00 -0.00000000000E+00 -0.71318726422E+03  0.71318726422E+03  0.00000000000E+00 0.  1.
        -24    2    1    2    0    0  0.10321279954E+04 -0.75075565554E+02  0.12868882372E+04  0.16533125224E+04  0.80227316466E+02 0.  0.
        254    2    1    2    0    0 -0.10321279954E+04  0.75075565554E+02  0.34905255746E+03  0.14090028007E+04  0.89023966728E+03 0.  0.
         23    2    4    4    0    0 -0.62963256819E+03 -0.83256647915E+02 -0.22929969043E+03  0.68086476796E+03  0.87347832658E+02 0.  0.
         23    2    4    4    0    0 -0.40249542717E+03  0.15833221347E+03  0.57835224789E+03  0.72813803275E+03  0.92854797347E+02 0.  0.
          1    1    3    3  502    0  0.83833616137E+03 -0.38328035047E+02  0.10757751149E+04  0.13643931455E+04  0.00000000000E+00 0. -1.
         -2    1    3    3    0  502  0.19379183398E+03 -0.36747530507E+02  0.21111312230E+03  0.28891937686E+03  0.00000000000E+00 0.  1.
         13    1    5    5    0    0 -0.34268407097E+03 -0.13596750770E+02 -0.15514149866E+03  0.37641217931E+03  0.00000000000E+00 0.  1.
        -13    1    5    5    0    0 -0.28694849722E+03 -0.69659897145E+02 -0.74158191764E+02  0.30445258864E+03  0.00000000000E+00 0. -1.
          4    1    6    6  503    0 -0.76946544513E+02 -0.69400622447E+01  0.10332104227E+03  0.12901229768E+03  0.00000000000E+00 0. -1.
         -4    1    6    6    0  503 -0.32554888266E+03  0.16527227571E+03  0.47503120562E+03  0.59912573507E+03  0.00000000000E+00 0.  1.
<mgrwt>
<rscale>  0 0.25887203E+04</rscale>
<asrwt>0</asrwt>
<pdfrwt beam="1">  1        1 0.36140431E+00 0.25887203E+04</pdfrwt>
<pdfrwt beam="2">  1       -2 0.10972112E+00 0.25887203E+04</pdfrwt>
<totfact> 0.88218211E-01</totfact>
</mgrwt>
</event>
<event>
12    5  0.5221187E-008  0.1936735E+04  0.7818608E-02  0.8636784E-01
         -2   -1    0    0    0  501 -0.00000000000E+00  0.00000000000E+00  0.12147091097E+04  0.12147091097E+04  0.00000000000E+00 0.  1.
          1   -1    0    0  501    0  0.00000000000E+00 -0.00000000000E+00 -0.77198404038E+03  0.77198404038E+03  0.00000000000E+00 0. -1.
        -24    2    1    2    0    0 -0.67333855846E+03  0.15863452056E+03  0.36265599406E+02  0.69762772871E+03  0.82580438062E+02 0.  0.
        254    2    1    2    0    0  0.67333855846E+03 -0.15863452056E+03  0.40645946986E+03  0.12890654213E+04  0.10089254850E+04 0.  0.
         23    2    4    4    0    0  0.35546657949E+03 -0.44575336187E+03  0.57992817959E+03  0.81838923639E+03  0.91606222489E+02 0.  0.
         23    2    4    4    0    0  0.31787197896E+03  0.28711884132E+03 -0.17346870972E+03  0.47067618493E+03  0.89246029370E+02 0.  0.
          1    1    3    3  502    0 -0.39813785121E+03  0.67323959162E+02 -0.10503839096E+02  0.40392647188E+03  0.00000000000E+00 0. -1.
         -2    1    3    3    0  502 -0.27520070724E+03  0.91310561393E+02  0.46769438502E+02  0.29370125684E+03  0.00000000000E+00 0.  1.
         13    1    5    5    0    0  0.35849505045E+03 -0.44619246559E+03  0.58055997347E+03  0.81526455850E+03  0.00000000000E+00 0.  1.
        -13    1    5    5    0    0 -0.30284709581E+01  0.43910371585E+00 -0.63179388151E+00  0.31246778916E+01  0.00000000000E+00 0. -1.
          1    1    6    6  503    0  0.27265344105E+03  0.19679376176E+03 -0.14039644942E+03  0.36438831841E+03  0.00000000000E+00 0. -1.
         -1    1    6    6    0  503  0.45218537917E+02  0.90325079559E+02 -0.33072260303E+02  0.10628786652E+03  0.00000000000E+00 0.  1.
<mgrwt>
<rscale>  0 0.19367354E+04</rscale>
<asrwt>0</asrwt>
<pdfrwt beam="1">  1        1 0.11876678E+00 0.19367354E+04</pdfrwt>
<pdfrwt beam="2">  1       -2 0.18687832E+00 0.19367354E+04</pdfrwt>
<totfact> 0.31097307E+00</totfact>
</mgrwt>
</event>
<event>
12    5  0.5221187E-008  0.1849983E+04  0.7818608E-02  0.8680162E-01
         -2   -1    0    0    0  501 -0.00000000000E+00  0.00000000000E+00  0.38597711687E+03  0.38597711687E+03  0.00000000000E+00 0.  1.
          1   -1    0    0  501    0  0.00000000000E+00 -0.00000000000E+00 -0.22167350626E+04  0.22167350626E+04  0.00000000000E+00 0. -1.
        -24    2    1    2    0    0 -0.31613373901E+03 -0.62269452656E+03 -0.87406877241E+03  0.11216242906E+04  0.79723372359E+02 0.  0.
        254    2    1    2    0    0  0.31613373901E+03  0.62269452656E+03 -0.95668917334E+03  0.14810878889E+04  0.88920084670E+03 0.  0.
         23    2    4    4    0    0  0.28780937602E+03  0.82172276613E+03 -0.59959611454E+03  0.10609739623E+04  0.89931678589E+02 0.  0.
         23    2    4    4    0    0  0.28324362988E+02 -0.19902823957E+03 -0.35709305881E+03  0.42011392655E+03  0.92551331453E+02 0.  0.
          3    1    3    3  502    0 -0.30964881128E+03 -0.57515049286E+03 -0.83221148135E+03  0.10579491601E+04  0.00000000000E+00 0. -1.
         -4    1    3    3    0  502 -0.64849277260E+01 -0.47544033703E+02 -0.41857291060E+02  0.63675130492E+02  0.00000000000E+00 0.  1.
         13    1    5    5    0    0 -0.33005161058E+01  0.53674203156E+02 -0.32100539505E+02  0.62627934083E+02  0.00000000000E+00 0.  1.
        -13    1    5    5    0    0  0.29110989212E+03  0.76804856297E+03 -0.56749557503E+03  0.99834602822E+03  0.00000000000E+00 0. -1.
          4    1    6    6  503    0 -0.27639429429E+02 -0.12717998854E+03 -0.20403028761E+03  0.24200629291E+03  0.00000000000E+00 0. -1.
         -4    1    6    6    0  503  0.55963792417E+02 -0.71848251023E+02 -0.15306277120E+03  0.17810763365E+03  0.00000000000E+00 0.  1.
<mgrwt>
<rscale>  0 0.18499827E+04</rscale>
<asrwt>0</asrwt>
<pdfrwt beam="1">  1        1 0.34103617E+00 0.18499827E+04</pdfrwt>
<pdfrwt beam="2">  1       -2 0.59381095E-01 0.18499827E+04</pdfrwt>
<totfact> 0.46370260E+00</totfact>
</mgrwt>
</event>
<event>
12    5  0.5221187E-008  0.1844537E+04  0.7818608E-02  0.8682967E-01
         -2   -1    0    0    0  501 -0.00000000000E+00  0.00000000000E+00  0.25267223963E+03  0.25267223963E+03  0.00000000000E+00 0.  1.
          1   -1    0    0  501    0  0.00000000000E+00 -0.00000000000E+00 -0.33663328747E+04  0.33663328747E+04  0.00000000000E+00 0. -1.
        -24    2    1    2    0    0  0.14420647131E+03 -0.61592471175E+03 -0.17486122388E+04  0.18609805981E+04  0.73792060203E+02 0.  0.
        254    2    1    2    0    0 -0.14420647131E+03  0.61592471175E+03 -0.13650483963E+04  0.17580245162E+04  0.90946925092E+03 0.  0.
         23    2    4    4    0    0 -0.43340471436E+03  0.38609589754E+03 -0.12153065585E+04  0.13498146666E+04  0.90110567906E+02 0.  0.
         23    2    4    4    0    0  0.28919824305E+03  0.22982881421E+03 -0.14974183771E+03  0.40820984953E+03  0.88066768263E+02 0.  0.
          3    1    3    3  502    0  0.63618056424E+02 -0.34923402718E+03 -0.10723750927E+04  0.11296017007E+04  0.00000000000E+00 0. -1.
         -4    1    3    3    0  502  0.80588414883E+02 -0.26669068457E+03 -0.67623714611E+03  0.73137889745E+03  0.00000000000E+00 0.  1.
         13    1    5    5    0    0 -0.69496628124E-01 -0.97049285978E+00  0.12754229608E+01  0.16041788869E+01  0.00000000000E+00 0.  1.
        -13    1    5    5    0    0 -0.43333521773E+03  0.38706639040E+03 -0.12165819815E+04  0.13482104877E+04  0.00000000000E+00 0. -1.
          3    1    6    6  503    0  0.27727895027E+03  0.21264559247E+03 -0.11538407887E+03  0.36798811111E+03  0.00000000000E+00 0. -1.
         -3    1    6    6    0  503  0.11919292783E+02  0.17183221736E+02 -0.34357758838E+02  0.40221738427E+02  0.00000000000E+00 0.  1.
<mgrwt>
<rscale>  0 0.18445367E+04</rscale>
<asrwt>0</asrwt>
<pdfrwt beam="1">  1        1 0.51789735E+00 0.18445367E+04</pdfrwt>
<pdfrwt beam="2">  1       -2 0.38872653E-01 0.18445367E+04</pdfrwt>
<totfact> 0.16488257E+00</totfact>
</mgrwt>
</event>
<event>
12    5  0.5221187E-008  0.1499654E+04  0.7818608E-02  0.8884683E-01
         -2   -1    0    0    0  501 -0.00000000000E+00  0.00000000000E+00  0.35157351286E+03  0.35157351286E+03  0.00000000000E+00 0.  1.
          1   -1    0    0  501    0  0.00000000000E+00 -0.00000000000E+00 -0.15992126661E+04  0.15992126661E+04  0.00000000000E+00 0. -1.
        -24    2    1    2    0    0  0.13814808469E+03  0.34216797709E+03 -0.75986997853E+03  0.84853823116E+03  0.80317666943E+02 0.  0.
        254    2    1    2    0    0 -0.13814808469E+03 -0.34216797709E+03 -0.48776917473E+03  0.11022479478E+04  0.91698852382E+03 0.  0.
         23    2    4    4    0    0  0.17428602953E+03  0.17022826025E+03 -0.41834560503E+03  0.49161755881E+03  0.85565753740E+02 0.  0.
         23    2    4    4    0    0 -0.31243411422E+03 -0.51239623734E+03 -0.69423569701E+02  0.61063038901E+03  0.88796735215E+02 0.  0.
          3    1    3    3  502    0  0.14611302811E+03  0.32757168448E+03 -0.70197497898E+03  0.78830266813E+03  0.00000000000E+00 0. -1.
         -4    1    3    3    0  502 -0.79649434194E+01  0.14596292605E+02 -0.57894999547E+02  0.60235563034E+02  0.00000000000E+00 0.  1.
         13    1    5    5    0    0  0.15292426501E+03  0.95707106762E+02 -0.28177722387E+03  0.33458046118E+03  0.00000000000E+00 0. -1.
        -13    1    5    5    0    0  0.21361764517E+02  0.74521153491E+02 -0.13656838116E+03  0.15703709763E+03  0.00000000000E+00 0.  1.
          1    1    6    6  503    0 -0.24885938226E+03 -0.32952987321E+03 -0.53083550239E+02  0.41633975643E+03  0.00000000000E+00 0. -1.
         -1    1    6    6    0  503 -0.63574731962E+02 -0.18286636412E+03 -0.16340019462E+02  0.19429063258E+03  0.00000000000E+00 0.  1.
<mgrwt>
<rscale>  0 0.14996544E+04</rscale>
<asrwt>0</asrwt>
<pdfrwt beam="1">  1        1 0.24603272E+00 0.14996544E+04</pdfrwt>
<pdfrwt beam="2">  1       -2 0.54088233E-01 0.14996544E+04</pdfrwt>
<totfact> 0.15267845E+01</totfact>
</mgrwt>
</event>
<event>
12    5  0.5221187E-008  0.1420648E+04  0.7818608E-02  0.8939007E-01
         -2   -1    0    0    0  501 -0.00000000000E+00  0.00000000000E+00  0.82690207537E+03  0.82690207537E+03  0.00000000000E+00 0.  1.
          1   -1    0    0  501    0  0.00000000000E+00 -0.00000000000E+00 -0.61018096755E+03  0.61018096755E+03  0.00000000000E+00 0. -1.
        -24    2    1    2    0    0 -0.32460528058E+03 -0.23215159358E+03  0.22767380377E+03  0.46613871199E+03  0.78657404696E+02 0.  0.
        254    2    1    2    0    0  0.32460528058E+03  0.23215159358E+03 -0.10952695958E+02  0.97094433093E+03  0.88507060827E+03 0.  0.
         23    2    4    4    0    0  0.55738318833E+03  0.60026304832E+02  0.19888457503E+03  0.60192206522E+03  0.92064773458E+02 0.  0.
         23    2    4    4    0    0 -0.23277790775E+03  0.17212528875E+03 -0.20983727099E+03  0.36902226571E+03  0.91285721391E+02 0.  0.
          1    1    3    3  502    0 -0.25773670867E+02 -0.53129351874E+00  0.20749751185E+01  0.25862519299E+02  0.00000000000E+00 0. -1.
         -2    1    3    3    0  502 -0.29883160971E+03 -0.23162030006E+03  0.22559882866E+03  0.44027619269E+03  0.00000000000E+00 0.  1.
         13    1    5    5    0    0  0.56678236323E+01  0.64308770199E+01 -0.65266793441E+01  0.10773947616E+02  0.00000000000E+00 0. -1.
        -13    1    5    5    0    0  0.55171536470E+03  0.53595427812E+02  0.20541125437E+03  0.59114811760E+03  0.00000000000E+00 0.  1.
          1    1    6    6  503    0 -0.72240971013E+02  0.74449556615E+01 -0.63171241963E+02  0.96253784699E+02  0.00000000000E+00 0. -1.
         -1    1    6    6    0  503 -0.16053693674E+03  0.16468033309E+03 -0.14666602902E+03  0.27276848101E+03  0.00000000000E+00 0.  1.
<mgrwt>
<rscale>  0 0.14206476E+04</rscale>
<asrwt>0</asrwt>
<pdfrwt beam="1">  1        1 0.93873995E-01 0.14206476E+04</pdfrwt>
<pdfrwt beam="2">  1       -2 0.12721570E+00 0.14206476E+04</pdfrwt>
<totfact> 0.13057084E+01</totfact>
</mgrwt>
</event>
<event>
12    5  0.5221187E-008  0.2743068E+04  0.7818608E-02  0.8321165E-01
          1   -1    0    0  501    0  0.00000000000E+00  0.00000000000E+00  0.11711242409E+04  0.11711242409E+04  0.00000000000E+00 0. -1.
         -2   -1    0    0    0  501 -0.00000000000E+00 -0.00000000000E+00 -0.16062396379E+04  0.16062396379E+04  0.00000000000E+00 0.  1.
        -24    2    1    2    0    0  0.35879860813E+03  0.72885782130E+02  0.98750826077E+03  0.10563524582E+04  0.81603752158E+02 0.  0.
        254    2    1    2    0    0 -0.35879860813E+03 -0.72885782130E+02 -0.14226236578E+04  0.17210114207E+04  0.89664567137E+03 0.  0.
         23    2    4    4    0    0  0.88872911917E+02  0.29430470527E+03 -0.23447678774E+03  0.39610576662E+03  0.86062537392E+02 0.  0.
         23    2    4    4    0    0 -0.44767152005E+03 -0.36719048740E+03 -0.11881468700E+04  0.13249056540E+04  0.91887776560E+02 0.  0.
          1    1    3    3  502    0  0.31582022391E+03  0.35274614137E+02  0.84953116702E+03  0.90702255538E+03  0.00000000000E+00 0. -1.
         -2    1    3    3    0  502  0.42978384223E+02  0.37611167993E+02  0.13797709375E+03  0.14932990279E+03  0.00000000000E+00 0.  1.
         13    1    5    5    0    0  0.25184427225E+02  0.21791381778E+03 -0.15171140265E+03  0.26671527337E+03  0.00000000000E+00 0. -1.
        -13    1    5    5    0    0  0.63688484692E+02  0.76390887484E+02 -0.82765385090E+02  0.12939049324E+03  0.00000000000E+00 0.  1.
          1    1    6    6  503    0 -0.13770686615E+03 -0.86082932053E+02 -0.41766013965E+03  0.44812213115E+03  0.00000000000E+00 0. -1.
         -1    1    6    6    0  503 -0.30996465389E+03 -0.28110755535E+03 -0.77048673036E+03  0.87678352288E+03  0.00000000000E+00 0.  1.
<mgrwt>
<rscale>  0 0.27430685E+04</rscale>
<asrwt>0</asrwt>
<pdfrwt beam="1">  1        1 0.18017296E+00 0.27430685E+04</pdfrwt>
<pdfrwt beam="2">  1       -2 0.24711379E+00 0.27430685E+04</pdfrwt>
<totfact> 0.57348827E-01</totfact>
</mgrwt>
</event>
<event>
12    5  0.5221187E-008  0.1246887E+04  0.7818608E-02  0.9072779E-01
         -2   -1    0    0    0  501 -0.00000000000E+00  0.00000000000E+00  0.69530636046E+03  0.69530636046E+03  0.00000000000E+00 0.  1.
          1   -1    0    0  501    0  0.00000000000E+00 -0.00000000000E+00 -0.55900758916E+03  0.55900758916E+03  0.00000000000E+00 0. -1.
        -24    2    1    2    0    0  0.36662196901E+02 -0.72886896341E+02  0.29806167229E+03  0.31876340818E+03  0.78183972540E+02 0.  0.
        254    2    1    2    0    0 -0.36662196901E+02  0.72886896341E+02 -0.16176290100E+03  0.93555054144E+03  0.91784037998E+03 0.  0.
         23    2    4    4    0    0 -0.18379049597E+03 -0.17492893470E+03 -0.44491786720E+03  0.51985467619E+03  0.88982566789E+02 0.  0.
         23    2    4    4    0    0  0.14712829907E+03  0.24781583104E+03  0.28315496621E+03  0.41569586526E+03  0.97810505586E+02 0.  0.
          1    1    3    3  502    0  0.17267964051E+02  0.14881245626E+02  0.51145973488E+02  0.55995934297E+02  0.00000000000E+00 0. -1.
         -2    1    3    3    0  502  0.19394232849E+02 -0.87768141967E+02  0.24691569881E+03  0.26276747388E+03  0.00000000000E+00 0.  1.
         13    1    5    5    0    0 -0.54368060065E+02 -0.83224317669E+02 -0.24675792190E+03  0.26602940632E+03  0.00000000000E+00 0.  1.
        -13    1    5    5    0    0 -0.12942243590E+03 -0.91704617032E+02 -0.19815994530E+03  0.25382526987E+03  0.00000000000E+00 0. -1.
          2    1    6    6  503    0  0.33523614175E+02  0.97342644411E+02  0.16078980457E+03  0.19092612284E+03  0.00000000000E+00 0. -1.
         -2    1    6    6    0  503  0.11360468489E+03  0.15047318663E+03  0.12236516163E+03  0.22476974242E+03  0.00000000000E+00 0.  1.
<mgrwt>
<rscale>  0 0.12468866E+04</rscale>
<asrwt>0</asrwt>
<pdfrwt beam="1">  1        1 0.86001168E-01 0.12468866E+04</pdfrwt>
<pdfrwt beam="2">  1       -2 0.10697021E+00 0.12468866E+04</pdfrwt>
<totfact> 0.22994233E+01</totfact>
</mgrwt>
</event>
<event>
12    5  0.5221187E-008  0.2465508E+04  0.7818608E-02  0.8415378E-01
          1   -1    0    0  501    0  0.00000000000E+00  0.00000000000E+00  0.74361549062E+03  0.74361549062E+03  0.00000000000E+00 0. -1.
         -2   -1    0    0    0  501 -0.00000000000E+00 -0.00000000000E+00 -0.20436393157E+04  0.20436393157E+04  0.00000000000E+00 0.  1.
        -24    2    1    2    0    0  0.48195227262E+03  0.11707905046E+03  0.50429085303E+03  0.71176558850E+03  0.79470065962E+02 0.  0.
        254    2    1    2    0    0 -0.48195227262E+03 -0.11707905046E+03 -0.18043146781E+04  0.20754892179E+04  0.89784104303E+03 0.  0.
         23    2    4    4    0    0 -0.27281683719E+03 -0.42672031143E+03 -0.14976238802E+04  0.15837343272E+04  0.93903576148E+02 0.  0.
         23    2    4    4    0    0 -0.20913543543E+03  0.30964126097E+03 -0.30669079794E+03  0.49175489070E+03  0.90267857747E+02 0.  0.
          1    1    3    3  502    0  0.30881080967E+03  0.10668211695E+03  0.29762631651E+03  0.44195770671E+03  0.00000000000E+00 0. -1.
         -2    1    3    3    0  502  0.17314146295E+03  0.10396933513E+02  0.20666453652E+03  0.26980788179E+03  0.00000000000E+00 0.  1.
         13    1    5    5    0    0 -0.25394363649E+03 -0.34261254338E+03 -0.11832288917E+04  0.12577365923E+04  0.00000000000E+00 0. -1.
        -13    1    5    5    0    0 -0.18873200706E+02 -0.84107768046E+02 -0.31439498851E+03  0.32599773489E+03  0.00000000000E+00 0.  1.
          1    1    6    6  503    0 -0.84371235366E+02  0.20433716553E+03 -0.17189606434E+03  0.28003649674E+03  0.00000000000E+00 0. -1.
         -1    1    6    6    0  503 -0.12476420006E+03  0.10530409544E+03 -0.13479473360E+03  0.21171839396E+03  0.00000000000E+00 0.  1.
<mgrwt>
<rscale>  0 0.24655075E+04</rscale>
<asrwt>0</asrwt>
<pdfrwt beam="1">  1        1 0.11440238E+00 0.24655075E+04</pdfrwt>
<pdfrwt beam="2">  1       -2 0.31440605E+00 0.24655075E+04</pdfrwt>
<totfact> 0.50281843E-01</totfact>
</mgrwt>
</event>
<event>
12    5  0.5221187E-008  0.2860332E+04  0.7818608E-02  0.8284779E-01
         -2   -1    0    0    0  501 -0.00000000000E+00  0.00000000000E+00  0.18599028373E+04  0.18599028373E+04  0.00000000000E+00 0.  1.
          1   -1    0    0  501    0  0.00000000000E+00 -0.00000000000E+00 -0.10997214958E+04  0.10997214958E+04  0.00000000000E+00 0. -1.
        -24    2    1    2    0    0 -0.46499787212E+03 -0.50684767216E+03  0.14663177954E+04  0.16215386748E+04  0.78627050042E+02 0.  0.
        254    2    1    2    0    0  0.46499787212E+03  0.50684767216E+03 -0.70613645391E+03  0.13380856583E+04  0.90483531851E+03 0.  0.
         23    2    4    4    0    0  0.26193259178E+03  0.16437619365E+03  0.17485363740E+03  0.36700230641E+03  0.92134047581E+02 0.  0.
         23    2    4    4    0    0  0.20306528035E+03  0.34247147851E+03 -0.88099009131E+03  0.97108335191E+03  0.91307796479E+02 0.  0.
          3    1    3    3  502    0 -0.13933746455E+02 -0.20079040279E+02  0.25967534617E+02  0.35659921521E+02  0.00000000000E+00 0. -1.
         -4    1    3    3    0  502 -0.45106412567E+03 -0.48676863188E+03  0.14403502608E+04  0.15858787533E+04  0.00000000000E+00 0.  1.
         13    1    5    5    0    0  0.23282374068E+03  0.11097983511E+03  0.16280096246E+03  0.30500421538E+03  0.00000000000E+00 0.  1.
        -13    1    5    5    0    0  0.29108851101E+02  0.53396358538E+02  0.12052674941E+02  0.61998091025E+02  0.00000000000E+00 0. -1.
          1    1    6    6  503    0  0.11546425985E+03  0.12577114186E+03 -0.30614829446E+03  0.35053837683E+03  0.00000000000E+00 0. -1.
         -1    1    6    6    0  503  0.87601020493E+02  0.21670033664E+03 -0.57484179685E+03  0.62054497509E+03  0.00000000000E+00 0.  1.
<mgrwt>
<rscale>  0 0.28603322E+04</rscale>
<asrwt>0</asrwt>
<pdfrwt beam="1">  1        1 0.16918792E+00 0.28603322E+04</pdfrwt>
<pdfrwt beam="2">  1       -2 0.28613890E+00 0.28603322E+04</pdfrwt>
<totfact> 0.37035536E-01</totfact>
</mgrwt>
</event>
<event>
12    5  0.5221187E-008  0.1688442E+04  0.7818608E-02  0.8767984E-01
         -2   -1    0    0    0  501 -0.00000000000E+00  0.00000000000E+00  0.30190092893E+03  0.30190092893E+03  0.00000000000E+00 0.  1.
          1   -1    0    0  501    0  0.00000000000E+00 -0.00000000000E+00 -0.23607383920E+04  0.23607383920E+04  0.00000000000E+00 0. -1.
        -24    2    1    2    0    0 -0.10050163913E+03 -0.17936873358E+03 -0.16292149520E+04  0.16441207504E+04  0.80733885539E+02 0.  0.
        254    2    1    2    0    0  0.10050163913E+03  0.17936873358E+03 -0.42962251115E+03  0.10185185705E+04  0.90029487080E+03 0.  0.
         23    2    4    4    0    0  0.25637318746E+03  0.25793337163E+03 -0.63203697987E+03  0.73480310137E+03  0.90598114801E+02 0.  0.
         23    2    4    4    0    0 -0.15587154834E+03 -0.78564638043E+02  0.20241446872E+03  0.28371546917E+03  0.95155180446E+02 0.  0.
          3    1    3    3  502    0 -0.93552582753E+02 -0.92620401756E+02 -0.86374168137E+03  0.87371638229E+03  0.00000000000E+00 0. -1.
         -4    1    3    3    0  502 -0.69490563725E+01 -0.86748331828E+02 -0.76547327059E+03  0.77040436814E+03  0.00000000000E+00 0.  1.
         13    1    5    5    0    0  0.19560271022E+03  0.20854441395E+03 -0.41406248779E+03  0.50318876839E+03  0.00000000000E+00 0. -1.
        -13    1    5    5    0    0  0.60770477243E+02  0.49388957680E+02 -0.21797449208E+03  0.23161433298E+03  0.00000000000E+00 0.  1.
          4    1    6    6  503    0 -0.16917186932E+03 -0.73665021363E+02  0.19035977838E+03  0.26510847207E+03  0.00000000000E+00 0. -1.
         -4    1    6    6    0  503  0.13300320977E+02 -0.48996166794E+01  0.12054690344E+02  0.18606997097E+02  0.00000000000E+00 0.  1.
<mgrwt>
<rscale>  0 0.16884420E+04</rscale>
<asrwt>0</asrwt>
<pdfrwt beam="1">  1        1 0.36319054E+00 0.16884420E+04</pdfrwt>
<pdfrwt beam="2">  1       -2 0.46446294E-01 0.16884420E+04</pdfrwt>
<totfact> 0.62222598E+00</totfact>
</mgrwt>
</event>
<event>
12    5  0.5221187E-008  0.1734627E+04  0.7818608E-02  0.8741858E-01
          1   -1    0    0  501    0  0.00000000000E+00  0.00000000000E+00  0.65491871528E+03  0.65491871528E+03  0.00000000000E+00 0. -1.
         -2   -1    0    0    0  501 -0.00000000000E+00 -0.00000000000E+00 -0.11485892961E+04  0.11485892961E+04  0.00000000000E+00 0.  1.
        -24    2    1    2    0    0 -0.44109433468E+03  0.45485859035E+03 -0.83275344697E+02  0.64373101096E+03  0.77422749438E+02 0.  0.
        254    2    1    2    0    0  0.44109433468E+03 -0.45485859035E+03 -0.41039523615E+03  0.11597770005E+04  0.88045323080E+03 0.  0.
         23    2    4    4    0    0  0.54224649451E+03 -0.62323151255E+03 -0.19596296672E+03  0.85372265612E+03  0.89398602930E+02 0.  0.
         23    2    4    4    0    0 -0.10115215983E+03  0.16837292220E+03 -0.21443226943E+03  0.30605434433E+03  0.95429886016E+02 0.  0.
          3    1    3    3  502    0 -0.11535328978E+03  0.13881271268E+03  0.84793313110E+01  0.18068549948E+03  0.00000000000E+00 0. -1.
         -4    1    3    3    0  502 -0.32574104491E+03  0.31604587768E+03 -0.91754676008E+02  0.46304551148E+03  0.00000000000E+00 0.  1.
         13    1    5    5    0    0  0.85975570107E+02 -0.85405317936E+02  0.18983102109E+01  0.12120012611E+03  0.00000000000E+00 0.  1.
        -13    1    5    5    0    0  0.45627092440E+03 -0.53782619461E+03 -0.19786127693E+03  0.73252253001E+03  0.00000000000E+00 0. -1.
          1    1    6    6  503    0 -0.10512833469E+03  0.17530907529E+03 -0.21654306410E+03  0.29778538790E+03  0.00000000000E+00 0. -1.
         -1    1    6    6    0  503  0.39761748660E+01 -0.69361530954E+01  0.21107946740E+01  0.82689564325E+01  0.00000000000E+00 0.  1.
<mgrwt>
<rscale>  0 0.17346269E+04</rscale>
<asrwt>0</asrwt>
<pdfrwt beam="1">  1        1 0.10075673E+00 0.17346269E+04</pdfrwt>
<pdfrwt beam="2">  1       -2 0.17670604E+00 0.17346269E+04</pdfrwt>
<totfact> 0.47786731E+00</totfact>
</mgrwt>
</event>
<event>
12    5  0.5221187E-008  0.1220242E+04  0.7818608E-02  0.9095321E-01
         -2   -1    0    0    0  501 -0.00000000000E+00  0.00000000000E+00  0.28658335735E+03  0.28658335735E+03  0.00000000000E+00 0.  1.
          1   -1    0    0  501    0  0.00000000000E+00 -0.00000000000E+00 -0.12989147063E+04  0.12989147063E+04  0.00000000000E+00 0. -1.
        -24    2    1    2    0    0  0.23630407040E+02 -0.27741252374E+03 -0.23310034076E+03  0.37182906062E+03  0.80031100154E+02 0.  0.
        254    2    1    2    0    0 -0.23630407040E+02  0.27741252374E+03 -0.77923100818E+03  0.12136690030E+04  0.88784873729E+03 0.  0.
         23    2    4    4    0    0 -0.33175299866E+03  0.44773446591E+03 -0.50841425542E+03  0.76001984189E+03  0.92838035689E+02 0.  0.
         23    2    4    4    0    0  0.30812259162E+03 -0.17032194217E+03 -0.27081675276E+03  0.45364916113E+03  0.92232057137E+02 0.  0.
          3    1    3    3  502    0 -0.86152324207E+01 -0.38839049919E+02 -0.71673923931E+02  0.81974663159E+02  0.00000000000E+00 0. -1.
         -4    1    3    3    0  502  0.32245639460E+02 -0.23857347383E+03 -0.16142641683E+03  0.28985439746E+03  0.00000000000E+00 0.  1.
         13    1    5    5    0    0 -0.26816233222E+03  0.29099008485E+03 -0.35078219618E+03  0.52880470408E+03  0.00000000000E+00 0. -1.
        -13    1    5    5    0    0 -0.63590666443E+02  0.15674438106E+03 -0.15763205924E+03  0.23121513781E+03  0.00000000000E+00 0.  1.
          3    1    6    6  503    0  0.37080887365E+00  0.68370032842E+01  0.34366383992E+00  0.68556704970E+01  0.00000000000E+00 0. -1.
         -3    1    6    6    0  503  0.30775178275E+03 -0.17715894545E+03 -0.27116041660E+03  0.44679349063E+03  0.00000000000E+00 0.  1.
<mgrwt>
<rscale>  0 0.12202415E+04</rscale>
<asrwt>0</asrwt>
<pdfrwt beam="1">  1        1 0.19983303E+00 0.12202415E+04</pdfrwt>
<pdfrwt beam="2">  1       -2 0.44089747E-01 0.12202415E+04</pdfrwt>
<totfact> 0.38316655E+01</totfact>
</mgrwt>
</event>
<event>
12    5  0.5221187E-008  0.2976103E+04  0.7818608E-02  0.8250588E-01
          1   -1    0    0  501    0  0.00000000000E+00  0.00000000000E+00  0.19041049720E+04  0.19041049720E+04  0.00000000000E+00 0. -1.
         -2   -1    0    0    0  501 -0.00000000000E+00 -0.00000000000E+00 -0.11629073395E+04  0.11629073395E+04  0.00000000000E+00 0.  1.
        -24    2    1    2    0    0 -0.72905022779E+03 -0.97922794031E+03 -0.25496822272E+03  0.12496392266E+04  0.78662622955E+02 0.  0.
        254    2    1    2    0    0  0.72905022779E+03  0.97922794031E+03  0.99616585529E+03  0.18173730849E+04  0.90559203003E+03 0.  0.
         23    2    4    4    0    0 -0.17882332098E+03  0.42056153686E+02  0.75941678019E+02  0.21869666459E+03  0.91184387125E+02 0.  0.
         23    2    4    4    0    0  0.90787354876E+03  0.93717178663E+03  0.92022417727E+03  0.15986764203E+04  0.80177442713E+02 0.  0.
          1    1    3    3  502    0 -0.34933652110E+02 -0.65741520334E+02 -0.37029129747E+00  0.74447596746E+02  0.00000000000E+00 0. -1.
         -2    1    3    3    0  502 -0.69411657568E+03 -0.91348641998E+03 -0.25459793143E+03  0.11751916298E+04  0.00000000000E+00 0.  1.
         13    1    5    5    0    0 -0.14628807470E+03  0.39098462840E+02  0.18412072790E+02  0.15253817562E+03  0.00000000000E+00 0.  1.
        -13    1    5    5    0    0 -0.32535246272E+02  0.29576908459E+01  0.57529605229E+02  0.66158488971E+02  0.00000000000E+00 0. -1.
          3    1    6    6  503    0  0.73619410789E+03  0.72190585076E+03  0.70247721100E+03  0.12476393925E+04  0.00000000000E+00 0. -1.
         -3    1    6    6    0  503  0.17167944088E+03  0.21526593586E+03  0.21774696627E+03  0.35103702779E+03  0.00000000000E+00 0.  1.
<mgrwt>
<rscale>  0 0.29761033E+04</rscale>
<asrwt>0</asrwt>
<pdfrwt beam="1">  1        1 0.29293923E+00 0.29761033E+04</pdfrwt>
<pdfrwt beam="2">  1       -2 0.17890882E+00 0.29761033E+04</pdfrwt>
<totfact> 0.47881685E-01</totfact>
</mgrwt>
</event>
<event>
12    5  0.5221187E-008  0.1861494E+04  0.7818608E-02  0.8674264E-01
         -2   -1    0    0    0  501 -0.00000000000E+00  0.00000000000E+00  0.18138379507E+04  0.18138379507E+04  0.00000000000E+00 0.  1.
          1   -1    0    0  501    0  0.00000000000E+00 -0.00000000000E+00 -0.47760064758E+03  0.47760064758E+03  0.00000000000E+00 0. -1.
        -24    2    1    2    0    0  0.34544454383E+03 -0.58542493749E+03  0.57967031011E+03  0.89642556833E+03  0.74208091388E+02 0.  0.
        254    2    1    2    0    0 -0.34544454383E+03  0.58542493749E+03  0.75656699302E+03  0.13950130300E+04  0.95478450371E+03 0.  0.
         23    2    4    4    0    0 -0.51365443584E+03  0.65692024815E+03  0.29149991692E+03  0.88755259982E+03  0.85978625199E+02 0.  0.
         23    2    4    4    0    0  0.16820989202E+03 -0.71495310661E+02  0.46506707609E+03  0.50746043014E+03  0.88445212807E+02 0.  0.
          3    1    3    3  502    0  0.13774499973E+03 -0.21360480618E+03  0.17224931588E+03  0.30703505499E+03  0.00000000000E+00 0. -1.
         -4    1    3    3    0  502  0.20769954410E+03 -0.37182013131E+03  0.40742099423E+03  0.58939051333E+03  0.00000000000E+00 0.  1.
         13    1    5    5    0    0 -0.47706123833E+01  0.27375318432E+02  0.20617380047E+01  0.27864270407E+02  0.00000000000E+00 0. -1.
        -13    1    5    5    0    0 -0.50888382346E+03  0.62954492972E+03  0.28943817892E+03  0.85968832941E+03  0.00000000000E+00 0.  1.
          4    1    6    6  503    0  0.94151424359E+02 -0.79118752027E+02  0.34412836841E+03  0.36544302097E+03  0.00000000000E+00 0. -1.
         -4    1    6    6    0  503  0.74058467658E+02  0.76234413658E+01  0.12093870769E+03  0.14201740917E+03  0.00000000000E+00 0.  1.
<mgrwt>
<rscale>  0 0.18614942E+04</rscale>
<asrwt>0</asrwt>
<pdfrwt beam="1">  1        1 0.73477023E-01 0.18614942E+04</pdfrwt>
<pdfrwt beam="2">  1       -2 0.27905199E+00 0.18614942E+04</pdfrwt>
<totfact> 0.16561714E+00</totfact>
</mgrwt>
</event>
<event>
12    5  0.5221187E-008  0.1967077E+04  0.7818608E-02  0.8622170E-01
          1   -1    0    0  501    0  0.00000000000E+00  0.00000000000E+00  0.82928390190E+03  0.82928390190E+03  0.00000000000E+00 0. -1.
         -2   -1    0    0    0  501 -0.00000000000E+00 -0.00000000000E+00 -0.11664861119E+04  0.11664861119E+04  0.00000000000E+00 0.  1.
        -24    2    1    2    0    0 -0.14291803277E+03  0.60835700404E+03 -0.59619099795E+03  0.86733870137E+03  0.79428637136E+02 0.  0.
        254    2    1    2    0    0  0.14291803277E+03 -0.60835700404E+03  0.25898878796E+03  0.11284313124E+04  0.90319334924E+03 0.  0.
         23    2    4    4    0    0 -0.12410368224E+03  0.38528204804E+02  0.38062729878E+03  0.41236851668E+03  0.91019264251E+02 0.  0.
         23    2    4    4    0    0  0.26702171500E+03 -0.64688520885E+03 -0.12163851082E+03  0.71606279574E+03  0.90492709207E+02 0.  0.
          1    1    3    3  502    0 -0.66844189274E+02  0.41508560108E+03 -0.36755894621E+03  0.55844765269E+03  0.00000000000E+00 0. -1.
         -2    1    3    3    0  502 -0.76073843491E+02  0.19327140297E+03 -0.22863205174E+03  0.30889104868E+03  0.00000000000E+00 0.  1.
         13    1    5    5    0    0 -0.12954100101E+03  0.11660959454E+02  0.33164448160E+03  0.35623715569E+03  0.00000000000E+00 0. -1.
        -13    1    5    5    0    0  0.54373187722E+01  0.26867245350E+02  0.48982817181E+02  0.56131360994E+02  0.00000000000E+00 0.  1.
          3    1    6    6  503    0  0.22588521201E+03 -0.43904326065E+03 -0.88517884459E+02  0.50161591840E+03  0.00000000000E+00 0. -1.
         -3    1    6    6    0  503  0.41136502998E+02 -0.20784194820E+03 -0.33120626360E+02  0.21444687734E+03  0.00000000000E+00 0.  1.
<mgrwt>
<rscale>  0 0.19670772E+04</rscale>
<asrwt>0</asrwt>
<pdfrwt beam="1">  1        1 0.12758214E+00 0.19670772E+04</pdfrwt>
<pdfrwt beam="2">  1       -2 0.17945940E+00 0.19670772E+04</pdfrwt>
<totfact> 0.31081523E+00</totfact>
</mgrwt>
</event>
<event>
12    5  0.5221187E-008  0.1293458E+04  0.7818608E-02  0.9034770E-01
          1   -1    0    0  501    0  0.00000000000E+00  0.00000000000E+00  0.19520726467E+04  0.19520726467E+04  0.00000000000E+00 0. -1.
         -2   -1    0    0    0  501 -0.00000000000E+00 -0.00000000000E+00 -0.21426358143E+03  0.21426358143E+03  0.00000000000E+00 0.  1.
        -24    2    1    2    0    0  0.58285400105E+02 -0.32074665387E+03  0.45721887572E+03  0.56725283521E+03  0.80318583801E+02 0.  0.
        254    2    1    2    0    0 -0.58285400105E+02  0.32074665387E+03  0.12805901895E+04  0.15990833929E+04  0.90048923374E+03 0.  0.
         23    2    4    4    0    0  0.41156041529E+03  0.17124996750E+03  0.67578977170E+03  0.81340667402E+03  0.78930824149E+02 0.  0.
         23    2    4    4    0    0 -0.46984581540E+03  0.14949668637E+03  0.60480041780E+03  0.78567671886E+03  0.91651577707E+02 0.  0.
          3    1    3    3  502    0  0.43913695097E+02 -0.21184962938E+03  0.23536160181E+03  0.31969323060E+03  0.00000000000E+00 0. -1.
         -4    1    3    3    0  502  0.14371705008E+02 -0.10889702449E+03  0.22185727390E+03  0.24755960460E+03  0.00000000000E+00 0.  1.
         13    1    5    5    0    0  0.22316433475E+03  0.13314329739E+03  0.36718377764E+03  0.44983706440E+03  0.00000000000E+00 0. -1.
        -13    1    5    5    0    0  0.18839608055E+03  0.38106670112E+02  0.30860599406E+03  0.36356960963E+03  0.00000000000E+00 0.  1.
          4    1    6    6  503    0 -0.12302179984E+03  0.93570697149E+01  0.10926460293E+03  0.16480494970E+03  0.00000000000E+00 0. -1.
         -4    1    6    6    0  503 -0.34682401555E+03  0.14013961665E+03  0.49553581487E+03  0.62087176916E+03  0.00000000000E+00 0.  1.
<mgrwt>
<rscale>  0 0.12934575E+04</rscale>
<asrwt>0</asrwt>
<pdfrwt beam="1">  1        1 0.30031886E+00 0.12934575E+04</pdfrwt>
<pdfrwt beam="2">  1       -2 0.32963629E-01 0.12934575E+04</pdfrwt>
<totfact> 0.23828205E+01</totfact>
</mgrwt>
</event>
<event>
12    5  0.5221187E-008  0.1694389E+04  0.7818608E-02  0.8764571E-01
          1   -1    0    0  501    0  0.00000000000E+00  0.00000000000E+00  0.78793065764E+03  0.78793065764E+03  0.00000000000E+00 0. -1.
         -2   -1    0    0    0  501 -0.00000000000E+00 -0.00000000000E+00 -0.91091587939E+03  0.91091587939E+03  0.00000000000E+00 0.  1.
        -24    2    1    2    0    0  0.53393468980E+03 -0.12367620174E+03  0.20245945742E+03  0.59007135095E+03  0.82536727997E+02 0.  0.
        254    2    1    2    0    0 -0.53393468980E+03  0.12367620174E+03 -0.32544467917E+03  0.11087751861E+04  0.90724093724E+03 0.  0.
         23    2    4    4    0    0 -0.95779506644E+02 -0.29649162620E+01 -0.56913143394E+03  0.58453714662E+03  0.92685392861E+02 0.  0.
         23    2    4    4    0    0 -0.43815518315E+03  0.12664111800E+03  0.24368675477E+03  0.52423803946E+03  0.86164669506E+02 0.  0.
          1    1    3    3  502    0  0.43127665340E+03 -0.72633211738E+02  0.13832065833E+03  0.45870223428E+03  0.00000000000E+00 0. -1.
         -2    1    3    3    0  502  0.10265803640E+03 -0.51042990001E+02  0.64138799095E+02  0.13136911667E+03  0.00000000000E+00 0.  1.
         13    1    5    5    0    0 -0.97856451774E+02 -0.18169971670E+02 -0.55440481144E+03  0.56326790071E+03  0.00000000000E+00 0. -1.
        -13    1    5    5    0    0  0.20769451293E+01  0.15205055408E+02 -0.14726622508E+02  0.21269245909E+02  0.00000000000E+00 0.  1.
          2    1    6    6  503    0 -0.22436811605E+03  0.51037589113E+02  0.16899811476E+03  0.28549299430E+03  0.00000000000E+00 0. -1.
         -2    1    6    6    0  503 -0.21378706710E+03  0.75603528888E+02  0.74688640014E+02  0.23874504516E+03  0.00000000000E+00 0.  1.
<mgrwt>
<rscale>  0 0.16943890E+04</rscale>
<asrwt>0</asrwt>
<pdfrwt beam="1">  1        1 0.12122010E+00 0.16943890E+04</pdfrwt>
<pdfrwt beam="2">  1       -2 0.14014090E+00 0.16943890E+04</pdfrwt>
<totfact> 0.67657913E+00</totfact>
</mgrwt>
</event>
<event>
12    5  0.5221187E-008  0.1102300E+04  0.7818608E-02  0.9202953E-01
         -2   -1    0    0    0  501 -0.00000000000E+00  0.00000000000E+00  0.30010081513E+03  0.30010081513E+03  0.00000000000E+00 0.  1.
          1   -1    0    0  501    0  0.00000000000E+00 -0.00000000000E+00 -0.10122140140E+04  0.10122140140E+04  0.00000000000E+00 0. -1.
        -24    2    1    2    0    0  0.12574784493E+01 -0.20992118918E+02  0.85195025536E+02  0.11864865039E+03  0.79856493500E+02 0.  0.
        254    2    1    2    0    0 -0.12574784493E+01  0.20992118918E+02 -0.79730822443E+03  0.11936661788E+04  0.88808574546E+03 0.  0.
         23    2    4    4    0    0 -0.21314078880E+02  0.95990185176E+02 -0.97225851826E+03  0.98141003159E+03  0.90612461526E+02 0.  0.
         23    2    4    4    0    0  0.20056600430E+02 -0.74998066258E+02  0.17495029382E+03  0.21225614718E+03  0.91750147387E+02 0.  0.
          3    1    3    3  502    0 -0.33575559093E+02  0.68372312940E+01  0.20025399903E+02  0.39687309577E+02  0.00000000000E+00 0. -1.
         -4    1    3    3    0  502  0.34833037542E+02 -0.27829350212E+02  0.65169625633E+02  0.78961340812E+02  0.00000000000E+00 0.  1.
         13    1    5    5    0    0 -0.70893631692E+01  0.99315626113E+02 -0.55267921973E+03  0.56157650643E+03  0.00000000000E+00 0. -1.
        -13    1    5    5    0    0 -0.14224715710E+02 -0.33254409377E+01 -0.41957929853E+03  0.41983352516E+03  0.00000000000E+00 0.  1.
          1    1    6    6  503    0  0.31657616858E+02  0.64246644334E+01  0.23608797996E+02  0.40010703081E+02  0.00000000000E+00 0. -1.
         -1    1    6    6    0  503 -0.11601016427E+02 -0.81422730691E+02  0.15134149582E+03  0.17224544410E+03  0.00000000000E+00 0.  1.
<mgrwt>
<rscale>  0 0.11022999E+04</rscale>
<asrwt>0</asrwt>
<pdfrwt beam="1">  1        1 0.15572523E+00 0.11022999E+04</pdfrwt>
<pdfrwt beam="2">  1       -2 0.46169357E-01 0.11022999E+04</pdfrwt>
<totfact> 0.57498810E+01</totfact>
</mgrwt>
</event>
<event>
12    5  0.6839541E-008  0.3003882E+04  0.7818608E-02  0.8242623E-01
          1   -1    0    0  501    0  0.00000000000E+00  0.00000000000E+00  0.18027124890E+04  0.18027124890E+04  0.00000000000E+00 0. -1.
         -2   -1    0    0    0  501 -0.00000000000E+00 -0.00000000000E+00 -0.12513511310E+04  0.12513511310E+04  0.00000000000E+00 0.  1.
        -24    2    1    2    0    0 -0.97973312397E+03 -0.64114974187E+03 -0.46694502287E+03  0.12630797994E+04  0.79893301620E+02 0.  0.
        254    2    1    2    0    0  0.97973312397E+03  0.64114974187E+03  0.10183063808E+04  0.17909838206E+04  0.89427354570E+03 0.  0.
         23    2    4    4    0    0  0.69397924419E+01 -0.15932408418E+03  0.25229358136E+02  0.18426623310E+03  0.88798646548E+02 0.  0.
         23    2    4    4    0    0  0.97279333153E+03  0.80047382605E+03  0.99307702269E+03  0.16067175875E+04  0.90852742233E+02 0.  0.
          1    1    3    3  502    0 -0.81680102345E+01  0.20381012706E+01 -0.37012154801E+01  0.91961537618E+01  0.00000000000E+00 0. -1.
         -2    1    3    3    0  502 -0.97156511374E+03 -0.64318784314E+03 -0.46324380739E+03  0.12538836457E+04  0.00000000000E+00 0.  1.
         13    1    5    5    0    0 -0.25249324848E+02 -0.13802993118E+03  0.34656052024E+02  0.14453661214E+03  0.00000000000E+00 0. -1.
        -13    1    5    5    0    0  0.32189117290E+02 -0.21294153005E+02 -0.94266938881E+01  0.39729620962E+02  0.00000000000E+00 0.  1.
          3    1    6    6  503    0  0.76183881397E+03  0.60047183201E+03  0.72189335315E+03  0.12091711264E+04  0.00000000000E+00 0. -1.
         -3    1    6    6    0  503  0.21095451757E+03  0.20000199404E+03  0.27118366954E+03  0.39754646109E+03  0.00000000000E+00 0.  1.
<mgrwt>
<rscale>  0 0.30038817E+04</rscale>
<asrwt>0</asrwt>
<pdfrwt beam="1">  1        1 0.27734038E+00 0.30038817E+04</pdfrwt>
<pdfrwt beam="2">  1       -2 0.19251556E+00 0.30038817E+04</pdfrwt>
<totfact> 0.45227409E-01</totfact>
</mgrwt>
</event>
<event>
12    5  0.5221187E-008  0.1303399E+04  0.7818608E-02  0.9026874E-01
          1   -1    0    0  501    0  0.00000000000E+00  0.00000000000E+00  0.15982481990E+04  0.15982481990E+04  0.00000000000E+00 0. -1.
         -2   -1    0    0    0  501 -0.00000000000E+00 -0.00000000000E+00 -0.26573628759E+03  0.26573628759E+03  0.00000000000E+00 0.  1.
        -24    2    1    2    0    0  0.18920568858E+02 -0.24580220834E+03  0.66697081937E+03  0.71553870938E+03  0.79805120063E+02 0.  0.
        254    2    1    2    0    0 -0.18920568858E+02  0.24580220834E+03  0.66554109208E+03  0.11484457772E+04  0.90288761453E+03 0.  0.
         23    2    4    4    0    0 -0.24741404014E+01  0.31119035629E+03 -0.12679747850E+03  0.34815874602E+03  0.91056864963E+02 0.  0.
         23    2    4    4    0    0 -0.16446428457E+02 -0.65388147950E+02  0.79233857058E+03  0.80028703122E+03  0.90071232996E+02 0.  0.
          1    1    3    3  502    0 -0.70343984477E+01 -0.14210102730E+03  0.47453271841E+03  0.49540234716E+03  0.00000000000E+00 0. -1.
         -2    1    3    3    0  502  0.25954967306E+02 -0.10370118104E+03  0.19243810095E+03  0.22013636223E+03  0.00000000000E+00 0.  1.
         13    1    5    5    0    0  0.18648536298E+02  0.28603888807E+02 -0.38245021568E+02  0.51270186616E+02  0.00000000000E+00 0. -1.
        -13    1    5    5    0    0 -0.21122676699E+02  0.28258646748E+03 -0.88552456931E+02  0.29688855940E+03  0.00000000000E+00 0.  1.
          2    1    6    6  503    0 -0.29589102135E+02  0.10040582204E+02  0.13850633191E+03  0.14198708475E+03  0.00000000000E+00 0. -1.
         -2    1    6    6    0  503  0.13142673678E+02 -0.75428730154E+02  0.65383223867E+03  0.65829994648E+03  0.00000000000E+00 0.  1.
<mgrwt>
<rscale>  0 0.13033995E+04</rscale>
<asrwt>0</asrwt>
<pdfrwt beam="1">  1        1 0.24588433E+00 0.13033995E+04</pdfrwt>
<pdfrwt beam="2">  1       -2 0.40882507E-01 0.13033995E+04</pdfrwt>
<totfact> 0.27331536E+01</totfact>
</mgrwt>
</event>
<event>
12    5  0.5221187E-008  0.1640433E+04  0.7818608E-02  0.8796087E-01
         -2   -1    0    0    0  501 -0.00000000000E+00  0.00000000000E+00  0.13793035581E+04  0.13793035581E+04  0.00000000000E+00 0.  1.
          1   -1    0    0  501    0  0.00000000000E+00 -0.00000000000E+00 -0.48774959630E+03  0.48774959630E+03  0.00000000000E+00 0. -1.
        -24    2    1    2    0    0  0.69822534978E+02 -0.18445561136E+03  0.92774456680E+03  0.95206455467E+03  0.82570431023E+02 0.  0.
        254    2    1    2    0    0 -0.69822534978E+02  0.18445561136E+03 -0.36190605050E+02  0.91498859968E+03  0.89274594298E+03 0.  0.
         23    2    4    4    0    0 -0.43229910132E+03 -0.78954255257E+02 -0.74565095349E+02  0.45555740520E+03  0.94107962281E+02 0.  0.
         23    2    4    4    0    0  0.36247656634E+03  0.26340986662E+03  0.38374490299E+02  0.45943119449E+03  0.93970218593E+02 0.  0.
          1    1    3    3  502    0  0.48986663618E+02 -0.31018035203E+02  0.29545072775E+03  0.30108627377E+03  0.00000000000E+00 0. -1.
         -2    1    3    3    0  502  0.20835871360E+02 -0.15343757616E+03  0.63229383905E+03  0.65097828090E+03  0.00000000000E+00 0.  1.
         13    1    5    5    0    0 -0.34130799527E+03 -0.63508677436E+02 -0.18690909562E+02  0.34766916724E+03  0.00000000000E+00 0.  1.
        -13    1    5    5    0    0 -0.90991106046E+02 -0.15445577820E+02 -0.55874185786E+02  0.10788823796E+03  0.00000000000E+00 0. -1.
          2    1    6    6  503    0 -0.28497992494E+01  0.10884483875E+02 -0.66113416741E+01  0.13050026196E+02  0.00000000000E+00 0. -1.
         -2    1    6    6    0  503  0.36532636559E+03  0.25252538275E+03  0.44985831973E+02  0.44638116829E+03  0.00000000000E+00 0.  1.
<mgrwt>
<rscale>  0 0.16404326E+04</rscale>
<asrwt>0</asrwt>
<pdfrwt beam="1">  1        1 0.75038400E-01 0.16404326E+04</pdfrwt>
<pdfrwt beam="2">  1       -2 0.21220055E+00 0.16404326E+04</pdfrwt>
<totfact> 0.42493703E+00</totfact>
</mgrwt>
</event>
<event>
12    5  0.5221187E-008  0.1641555E+04  0.7818608E-02  0.8795418E-01
          3   -1    0    0  501    0  0.00000000000E+00  0.00000000000E+00  0.49681024514E+03  0.49681024514E+03  0.00000000000E+00 0. -1.
         -4   -1    0    0    0  501 -0.00000000000E+00 -0.00000000000E+00 -0.13560018893E+04  0.13560018893E+04  0.00000000000E+00 0.  1.
        -24    2    1    2    0    0 -0.37628332151E+03  0.32380579086E+02 -0.77917794588E+03  0.86932020236E+03  0.77212064610E+02 0.  0.
        254    2    1    2    0    0  0.37628332151E+03 -0.32380579086E+02 -0.80013698223E+02  0.98349193204E+03  0.90455323145E+03 0.  0.
         23    2    4    4    0    0  0.52229165184E+03  0.19204809218E+03 -0.28749212237E+03  0.63292186764E+03  0.90924863593E+02 0.  0.
         23    2    4    4    0    0 -0.14600833032E+03 -0.22442867126E+03  0.20747842415E+03  0.35057006440E+03  0.90362672383E+02 0.  0.
          3    1    3    3  502    0 -0.13086097206E+01 -0.40625181614E-01 -0.38300536910E+02  0.38322907476E+02  0.00000000000E+00 0. -1.
         -4    1    3    3    0  502 -0.37497471179E+03  0.32421204268E+02 -0.74087740897E+03  0.83099729488E+03  0.00000000000E+00 0.  1.
         13    1    5    5    0    0  0.28271938653E+03  0.14967601639E+03 -0.14792438651E+03  0.35244118023E+03  0.00000000000E+00 0. -1.
        -13    1    5    5    0    0  0.23957226531E+03  0.42372075787E+02 -0.13956773586E+03  0.28048068740E+03  0.00000000000E+00 0.  1.
          3    1    6    6  503    0 -0.49941868562E+02 -0.15815776254E+03  0.12374053200E+03  0.20692942600E+03  0.00000000000E+00 0. -1.
         -3    1    6    6    0  503 -0.96066461763E+02 -0.66270908727E+02  0.83737892144E+02  0.14364063840E+03  0.00000000000E+00 0.  1.
<mgrwt>
<rscale>  0 0.16415549E+04</rscale>
<asrwt>0</asrwt>
<pdfrwt beam="1">  1        3 0.76432346E-01 0.16415549E+04</pdfrwt>
<pdfrwt beam="2">  1       -4 0.20861567E+00 0.16415549E+04</pdfrwt>
<totfact> 0.40663219E-01</totfact>
</mgrwt>
</event>
<event>
12    5  0.5221187E-008  0.2268568E+04  0.7818608E-02  0.8490419E-01
         -2   -1    0    0    0  501 -0.00000000000E+00  0.00000000000E+00  0.45657385044E+03  0.45657385044E+03  0.00000000000E+00 0.  1.
          1   -1    0    0  501    0  0.00000000000E+00 -0.00000000000E+00 -0.28179444357E+04  0.28179444357E+04  0.00000000000E+00 0. -1.
        -24    2    1    2    0    0  0.48600303838E+03 -0.34154451462E+03 -0.20869486077E+04  0.21712380064E+04  0.77899808005E+02 0.  0.
        254    2    1    2    0    0 -0.48600303838E+03  0.34154451462E+03 -0.27442197757E+03  0.11032802798E+04  0.88829519042E+03 0.  0.
         23    2    4    4    0    0 -0.73493102602E+03  0.22008858358E+03 -0.23567948229E+03  0.80781082491E+03  0.91928846663E+02 0.  0.
         23    2    4    4    0    0  0.24892798764E+03  0.12145593103E+03 -0.38742495283E+02  0.29546945492E+03  0.95312809402E+02 0.  0.
          1    1    3    3  502    0  0.47130064168E+03 -0.31352428398E+03 -0.20056140566E+04  0.20839648547E+04  0.00000000000E+00 0. -1.
         -2    1    3    3    0  502  0.14702396703E+02 -0.28020230639E+02 -0.81334551120E+02  0.87273151655E+02  0.00000000000E+00 0.  1.
         13    1    5    5    0    0 -0.10660616398E+03  0.66645940445E+02 -0.32457005555E+02  0.12984611194E+03  0.00000000000E+00 0. -1.
        -13    1    5    5    0    0 -0.62832486204E+03  0.15344264314E+03 -0.20322247673E+03  0.67796471297E+03  0.00000000000E+00 0.  1.
          1    1    6    6  503    0  0.41139801662E+02  0.16019889578E+02 -0.44098069597E+02  0.62399999079E+02  0.00000000000E+00 0. -1.
         -1    1    6    6    0  503  0.20778818598E+03  0.10543604146E+03  0.53555743137E+01  0.23306945584E+03  0.00000000000E+00 0.  1.
<mgrwt>
<rscale>  0 0.22685676E+04</rscale>
<asrwt>0</asrwt>
<pdfrwt beam="1">  1        1 0.43352992E+00 0.22685676E+04</pdfrwt>
<pdfrwt beam="2">  1       -2 0.70242130E-01 0.22685676E+04</pdfrwt>
<totfact> 0.11895612E+00</totfact>
</mgrwt>
</event>
<event>
12    5  0.5221187E-008  0.1519231E+04  0.7818608E-02  0.8871765E-01
          1   -1    0    0  501    0  0.00000000000E+00  0.00000000000E+00  0.50169849324E+03  0.50169849324E+03  0.00000000000E+00 0. -1.
         -2   -1    0    0    0  501 -0.00000000000E+00 -0.00000000000E+00 -0.11501239126E+04  0.11501239126E+04  0.00000000000E+00 0.  1.
        -24    2    1    2    0    0 -0.24247372482E+03  0.19876009905E+03  0.19363737019E+03  0.37698445802E+03  0.79515823881E+02 0.  0.
        254    2    1    2    0    0  0.24247372482E+03 -0.19876009905E+03 -0.84206278955E+03  0.12748379478E+04  0.90434670755E+03 0.  0.
         23    2    4    4    0    0  0.40267958942E+03 -0.45028577292E+03 -0.70958634334E+03  0.93635131349E+03  0.91284580205E+02 0.  0.
         23    2    4    4    0    0 -0.16020586459E+03  0.25152567387E+03 -0.13247644620E+03  0.33848663433E+03  0.89956151312E+02 0.  0.
          3    1    3    3  502    0 -0.19854042833E+03  0.16976126936E+03  0.19222173136E+03  0.32432450456E+03  0.00000000000E+00 0. -1.
         -4    1    3    3    0  502 -0.43933296495E+02  0.28998829688E+02  0.14156388361E+01  0.52659953452E+02  0.00000000000E+00 0.  1.
         13    1    5    5    0    0  0.29303136220E+03 -0.34431441954E+03 -0.46848017555E+03  0.65107102041E+03  0.00000000000E+00 0. -1.
        -13    1    5    5    0    0  0.10964822721E+03 -0.10597135338E+03 -0.24110616780E+03  0.28528029308E+03  0.00000000000E+00 0.  1.
          2    1    6    6  503    0 -0.17061229703E+03  0.23027589973E+03 -0.11386987820E+03  0.30838595146E+03  0.00000000000E+00 0. -1.
         -2    1    6    6    0  503  0.10406432433E+02  0.21249774131E+02 -0.18606568006E+02  0.30100682875E+02  0.00000000000E+00 0.  1.
<mgrwt>
<rscale>  0 0.15192306E+04</rscale>
<asrwt>0</asrwt>
<pdfrwt beam="1">  1        1 0.77184384E-01 0.15192306E+04</pdfrwt>
<pdfrwt beam="2">  1       -2 0.17694214E+00 0.15192306E+04</pdfrwt>
<totfact> 0.70891678E+00</totfact>
</mgrwt>
</event>
<event>
12    5  0.5221187E-008  0.1474834E+04  0.7818608E-02  0.8901363E-01
          1   -1    0    0  501    0  0.00000000000E+00  0.00000000000E+00  0.17545760082E+04  0.17545760082E+04  0.00000000000E+00 0. -1.
         -2   -1    0    0    0  501 -0.00000000000E+00 -0.00000000000E+00 -0.30992320142E+03  0.30992320142E+03  0.00000000000E+00 0.  1.
        -24    2    1    2    0    0 -0.10255845099E+03 -0.41178458932E+03  0.21946961874E+03  0.48433867945E+03  0.79575492418E+02 0.  0.
        254    2    1    2    0    0  0.10255845099E+03  0.41178458932E+03  0.12251831880E+04  0.15801605301E+04  0.90318806067E+03 0.  0.
         23    2    4    4    0    0  0.31679645646E+03  0.22931486282E+03  0.96598607302E+02  0.41346815788E+03  0.93162897687E+02 0.  0.
         23    2    4    4    0    0 -0.21423800548E+03  0.18246972649E+03  0.11285845807E+04  0.11666923722E+04  0.90965991428E+02 0.  0.
          1    1    3    3  502    0 -0.65402608999E+01 -0.88304473620E+02  0.15043876999E+02  0.89815217581E+02  0.00000000000E+00 0. -1.
         -2    1    3    3    0  502 -0.96018190087E+02 -0.32348011570E+03  0.20442574174E+03  0.39452346187E+03  0.00000000000E+00 0.  1.
         13    1    5    5    0    0  0.23193839229E+03  0.21401452100E+03  0.70375558961E+02  0.32334246909E+03  0.00000000000E+00 0.  1.
        -13    1    5    5    0    0  0.84858064173E+02  0.15300341823E+02  0.26223048342E+02  0.90125688787E+02  0.00000000000E+00 0. -1.
          1    1    6    6  503    0 -0.13762389975E+03  0.69904578912E+02  0.48942663630E+03  0.51319140703E+03  0.00000000000E+00 0. -1.
         -1    1    6    6    0  503 -0.76614105723E+02  0.11256514758E+03  0.63915794440E+03  0.65350096521E+03  0.00000000000E+00 0.  1.
<mgrwt>
<rscale>  0 0.14748340E+04</rscale>
<asrwt>0</asrwt>
<pdfrwt beam="1">  1        1 0.26993477E+00 0.14748340E+04</pdfrwt>
<pdfrwt beam="2">  1       -2 0.47680493E-01 0.14748340E+04</pdfrwt>
<totfact> 0.15515770E+01</totfact>
</mgrwt>
</event>
<event>
12    5  0.5221187E-008  0.1389676E+04  0.7818608E-02  0.8961326E-01
          1   -1    0    0  501    0  0.00000000000E+00  0.00000000000E+00  0.10126658079E+04  0.10126658079E+04  0.00000000000E+00 0. -1.
         -2   -1    0    0    0  501 -0.00000000000E+00 -0.00000000000E+00 -0.47676134162E+03  0.47676134162E+03  0.00000000000E+00 0.  1.
        -24    2    1    2    0    0 -0.32437821849E+03  0.12049168457E+03  0.36346613098E+03  0.50806752969E+03  0.79281218903E+02 0.  0.
        254    2    1    2    0    0  0.32437821849E+03 -0.12049168457E+03  0.17243833530E+03  0.98135961984E+03  0.90199348628E+03 0.  0.
         23    2    4    4    0    0  0.50435058732E+03 -0.34991513079E+03  0.24442172006E+03  0.66688261178E+03  0.90445160058E+02 0.  0.
         23    2    4    4    0    0 -0.17997236882E+03  0.22942344622E+03 -0.71983384759E+02  0.31447700806E+03  0.93214857749E+02 0.  0.
          3    1    3    3  502    0 -0.25525188718E+03  0.12624873274E+03  0.30583908788E+03  0.41788732465E+03  0.00000000000E+00 0. -1.
         -4    1    3    3    0  502 -0.69126331318E+02 -0.57570481678E+01  0.57627043103E+02  0.90180205044E+02  0.00000000000E+00 0.  1.
         13    1    5    5    0    0  0.19929129141E+03 -0.10071026808E+03  0.12167554127E+03  0.25429218288E+03  0.00000000000E+00 0. -1.
        -13    1    5    5    0    0  0.30505929591E+03 -0.24920486271E+03  0.12274617879E+03  0.41259042891E+03  0.00000000000E+00 0.  1.
          4    1    6    6  503    0 -0.69266482477E+02  0.38020233454E+02  0.78254137606E+01  0.79401642597E+02  0.00000000000E+00 0. -1.
         -4    1    6    6    0  503 -0.11070588634E+03  0.19140321276E+03 -0.79808798520E+02  0.23507536546E+03  0.00000000000E+00 0.  1.
<mgrwt>
<rscale>  0 0.13896761E+04</rscale>
<asrwt>0</asrwt>
<pdfrwt beam="1">  1        1 0.15579474E+00 0.13896761E+04</pdfrwt>
<pdfrwt beam="2">  1       -2 0.73347899E-01 0.13896761E+04</pdfrwt>
<totfact> 0.21227884E+01</totfact>
</mgrwt>
</event>
<event>
12    5  0.5221187E-008  0.2330147E+04  0.7818608E-02  0.8466128E-01
         -2   -1    0    0    0  501 -0.00000000000E+00  0.00000000000E+00  0.69733835119E+03  0.69733835119E+03  0.00000000000E+00 0.  1.
          1   -1    0    0  501    0  0.00000000000E+00 -0.00000000000E+00 -0.19465392326E+04  0.19465392326E+04  0.00000000000E+00 0. -1.
        -24    2    1    2    0    0  0.24634690842E+03  0.71241017153E+02  0.55189560777E+03  0.61347314618E+03  0.77449708799E+02 0.  0.
        254    2    1    2    0    0 -0.24634690842E+03 -0.71241017153E+02 -0.18010964891E+04  0.20304044376E+04  0.90157170269E+03 0.  0.
         23    2    4    4    0    0  0.18222948758E+03  0.19053992714E+03 -0.18286097603E+03  0.33366190847E+03  0.91537329163E+02 0.  0.
         23    2    4    4    0    0 -0.42857639599E+03 -0.26178094429E+03 -0.16182355131E+04  0.16967425291E+04  0.89677445220E+02 0.  0.
          1    1    3    3  502    0  0.14576648534E+02  0.17308841479E+02  0.17889803360E+02  0.28846485749E+02  0.00000000000E+00 0. -1.
         -2    1    3    3    0  502  0.23177025988E+03  0.53932175674E+02  0.53400580441E+03  0.58462666043E+03  0.00000000000E+00 0.  1.
         13    1    5    5    0    0  0.69040552402E+02  0.51993109299E+02 -0.13816647993E+02  0.87525887898E+02  0.00000000000E+00 0. -1.
        -13    1    5    5    0    0  0.11318893517E+03  0.13854681784E+03 -0.16904432804E+03  0.24613602057E+03  0.00000000000E+00 0.  1.
          4    1    6    6  503    0 -0.27241125680E+03 -0.13658026354E+03 -0.10921647840E+04  0.11338809358E+04  0.00000000000E+00 0. -1.
         -4    1    6    6    0  503 -0.15616513920E+03 -0.12520068075E+03 -0.52607072909E+03  0.56286159326E+03  0.00000000000E+00 0.  1.
<mgrwt>
<rscale>  0 0.23301472E+04</rscale>
<asrwt>0</asrwt>
<pdfrwt beam="1">  1        1 0.29946757E+00 0.23301472E+04</pdfrwt>
<pdfrwt beam="2">  1       -2 0.10728282E+00 0.23301472E+04</pdfrwt>
<totfact> 0.17908973E+00</totfact>
</mgrwt>
</event>
<event>
12    5  0.5221187E-008  0.2065973E+04  0.7818608E-02  0.8576383E-01
         -2   -1    0    0    0  501 -0.00000000000E+00  0.00000000000E+00  0.68657046329E+03  0.68657046329E+03  0.00000000000E+00 0.  1.
          1   -1    0    0  501    0  0.00000000000E+00 -0.00000000000E+00 -0.15541900211E+04  0.15541900211E+04  0.00000000000E+00 0. -1.
        -24    2    1    2    0    0 -0.27701418539E+03 -0.71161933215E+03  0.55510329782E+01  0.76794293194E+03  0.81034560200E+02 0.  0.
        254    2    1    2    0    0  0.27701418539E+03  0.71161933215E+03 -0.87317059077E+03  0.14728175524E+04  0.90753827982E+03 0.  0.
         23    2    4    4    0    0  0.43841329185E+03  0.75534044883E+03 -0.40401194710E+03  0.96660503005E+03  0.91401436567E+02 0.  0.
         23    2    4    4    0    0 -0.16139910645E+03 -0.43721116680E+02 -0.46915864367E+03  0.50621252237E+03  0.90443779602E+02 0.  0.
          3    1    3    3  502    0  0.45687952780E+01 -0.21748944009E+02 -0.48473283998E+01  0.22746143594E+02  0.00000000000E+00 0. -1.
         -4    1    3    3    0  502 -0.28158298067E+03 -0.68987038815E+03  0.10398361378E+02  0.74519678835E+03  0.00000000000E+00 0.  1.
         13    1    5    5    0    0  0.25261975648E+02  0.97516775710E+02 -0.35356199298E+02  0.10676024441E+03  0.00000000000E+00 0. -1.
        -13    1    5    5    0    0  0.41315131620E+03  0.65782367312E+03 -0.36865574780E+03  0.85984478563E+03  0.00000000000E+00 0.  1.
          3    1    6    6  503    0 -0.80930427171E+01 -0.30969469960E+01  0.21558265412E+01  0.89295021806E+01  0.00000000000E+00 0. -1.
         -3    1    6    6    0  503 -0.15330606374E+03 -0.40624169684E+02 -0.47131447021E+03  0.49728302019E+03  0.00000000000E+00 0.  1.
<mgrwt>
<rscale>  0 0.20659729E+04</rscale>
<asrwt>0</asrwt>
<pdfrwt beam="1">  1        1 0.23910616E+00 0.20659729E+04</pdfrwt>
<pdfrwt beam="2">  1       -2 0.10562623E+00 0.20659729E+04</pdfrwt>
<totfact> 0.35209400E+00</totfact>
</mgrwt>
</event>
<event>
12    5  0.5221187E-008  0.1537927E+04  0.7818608E-02  0.8859616E-01
         -2   -1    0    0    0  501 -0.00000000000E+00  0.00000000000E+00  0.31091167211E+03  0.31091167211E+03  0.00000000000E+00 0.  1.
          1   -1    0    0  501    0  0.00000000000E+00 -0.00000000000E+00 -0.19018427660E+04  0.19018427660E+04  0.00000000000E+00 0. -1.
        -24    2    1    2    0    0  0.21791939647E+03 -0.35898645852E+03 -0.95151826452E+03  0.10430942866E+04  0.79363355355E+02 0.  0.
        254    2    1    2    0    0 -0.21791939647E+03  0.35898645852E+03 -0.63941282933E+03  0.11696601515E+04  0.88481408384E+03 0.  0.
         23    2    4    4    0    0  0.24002753121E+03  0.37828683287E+02 -0.53219796902E+03  0.59200556811E+03  0.90507952334E+02 0.  0.
         23    2    4    4    0    0 -0.45794692768E+03  0.32115777523E+03 -0.10721486031E+03  0.57765458339E+03  0.96602723991E+02 0.  0.
          3    1    3    3  502    0  0.85736879911E+02 -0.14816446604E+03 -0.48564126140E+03  0.51492810794E+03  0.00000000000E+00 0. -1.
         -4    1    3    3    0  502  0.13218251656E+03 -0.21082199248E+03 -0.46587700312E+03  0.52816617861E+03  0.00000000000E+00 0.  1.
         13    1    5    5    0    0  0.16596985983E+02  0.31470237999E+02 -0.65381942068E+02  0.74435436266E+02  0.00000000000E+00 0. -1.
        -13    1    5    5    0    0  0.22343054522E+03  0.63584452878E+01 -0.46681602695E+03  0.51757013185E+03  0.00000000000E+00 0.  1.
          1    1    6    6  503    0 -0.20673271542E+03  0.17229144681E+03 -0.79438495947E+01  0.26923198735E+03  0.00000000000E+00 0. -1.
         -1    1    6    6    0  503 -0.25121421226E+03  0.14886632842E+03 -0.99271010717E+02  0.30842259604E+03  0.00000000000E+00 0.  1.
<mgrwt>
<rscale>  0 0.15379273E+04</rscale>
<asrwt>0</asrwt>
<pdfrwt beam="1">  1        1 0.29259120E+00 0.15379273E+04</pdfrwt>
<pdfrwt beam="2">  1       -2 0.47832564E-01 0.15379273E+04</pdfrwt>
<totfact> 0.12184131E+01</totfact>
</mgrwt>
</event>
<event>
12    5  0.5221187E-008  0.1238608E+04  0.7818608E-02  0.9079719E-01
         -4   -1    0    0    0  501 -0.00000000000E+00  0.00000000000E+00  0.25491204977E+04  0.25491204977E+04  0.00000000000E+00 0.  1.
          3   -1    0    0  501    0  0.00000000000E+00 -0.00000000000E+00 -0.15045862611E+03  0.15045862611E+03  0.00000000000E+00 0. -1.
        -24    2    1    2    0    0 -0.60252723395E+02  0.18277292601E+03  0.11824208162E+03  0.24339123770E+03  0.90673985041E+02 0.  0.
        254    2    1    2    0    0  0.60252723395E+02 -0.18277292601E+03  0.22804197900E+04  0.24561878861E+04  0.89191265278E+03 0.  0.
         23    2    4    4    0    0  0.43195512485E+03  0.37563318669E+02  0.14404546218E+04  0.15068457532E+04  0.87626329974E+02 0.  0.
         23    2    4    4    0    0 -0.37170240145E+03 -0.22033624468E+03  0.83996516818E+03  0.94934213290E+03  0.94859188186E+02 0.  0.
          1    1    3    3  502    0 -0.61975695074E+02  0.12850089302E+03  0.40024699123E+02  0.14817369141E+03  0.00000000000E+00 0. -1.
         -2    1    3    3    0  502  0.17229716790E+01  0.54272032993E+02  0.78217382492E+02  0.95217546285E+02  0.00000000000E+00 0.  1.
         13    1    5    5    0    0  0.35598639636E+03 -0.22314137612E+01  0.11286333839E+04  0.11834460735E+04  0.00000000000E+00 0.  1.
        -13    1    5    5    0    0  0.75968728489E+02  0.39794732430E+02  0.31182123796E+03  0.32339967978E+03  0.00000000000E+00 0. -1.
          2    1    6    6  503    0 -0.73081999731E+02 -0.83908916912E+02  0.26178078651E+03  0.28444835244E+03  0.00000000000E+00 0. -1.
         -2    1    6    6    0  503 -0.29862040172E+03 -0.13642732777E+03  0.57818438167E+03  0.66489378046E+03  0.00000000000E+00 0.  1.
<mgrwt>
<rscale>  0 0.12386076E+04</rscale>
<asrwt>0</asrwt>
<pdfrwt beam="1">  1        3 0.23147483E-01 0.12386076E+04</pdfrwt>
<pdfrwt beam="2">  1       -4 0.39217235E+00 0.12386076E+04</pdfrwt>
<totfact> 0.31340243E-01</totfact>
</mgrwt>
</event>
<event>
12    5  0.5221187E-008  0.2096309E+04  0.7818608E-02  0.8562871E-01
         -2   -1    0    0    0  501 -0.00000000000E+00  0.00000000000E+00  0.15438496913E+04  0.15438496913E+04  0.00000000000E+00 0.  1.
          1   -1    0    0  501    0  0.00000000000E+00 -0.00000000000E+00 -0.71161551501E+03  0.71161551501E+03  0.00000000000E+00 0. -1.
        -24    2    1    2    0    0 -0.54727982640E+03  0.38738115292E+02 -0.36068984026E+03  0.66131066192E+03  0.78859246361E+02 0.  0.
        254    2    1    2    0    0  0.54727982640E+03 -0.38738115292E+02  0.11929240165E+04  0.15941545444E+04  0.90401612383E+03 0.  0.
         23    2    4    4    0    0  0.77960564862E+03  0.17124756551E+02  0.76862070567E+03  0.10987092979E+04  0.91137849252E+02 0.  0.
         23    2    4    4    0    0 -0.23232582221E+03 -0.55862871843E+02  0.42430331087E+03  0.49544524643E+03  0.91305774587E+02 0.  0.
          1    1    3    3  502    0 -0.44214378726E+03  0.60011371907E+02 -0.30470938032E+03  0.54031500056E+03  0.00000000000E+00 0. -1.
         -2    1    3    3    0  502 -0.10513603914E+03 -0.21273256614E+02 -0.55980459943E+02  0.12099566136E+03  0.00000000000E+00 0.  1.
         13    1    5    5    0    0  0.45866444164E+03 -0.25515581129E+02  0.48880015443E+03  0.67078290517E+03  0.00000000000E+00 0. -1.
        -13    1    5    5    0    0  0.32094120698E+03  0.42640337680E+02  0.27982055124E+03  0.42792639277E+03  0.00000000000E+00 0.  1.
          3    1    6    6  503    0 -0.15093503543E+03  0.63224449530E+01  0.28468904422E+03  0.32228746505E+03  0.00000000000E+00 0. -1.
         -3    1    6    6    0  503 -0.81390786783E+02 -0.62185316796E+02  0.13961426665E+03  0.17315778138E+03  0.00000000000E+00 0.  1.
<mgrwt>
<rscale>  0 0.20963086E+04</rscale>
<asrwt>0</asrwt>
<pdfrwt beam="1">  1        1 0.10947931E+00 0.20963086E+04</pdfrwt>
<pdfrwt beam="2">  1       -2 0.23751534E+00 0.20963086E+04</pdfrwt>
<totfact> 0.16429596E+00</totfact>
</mgrwt>
</event>
<event>
12    5  0.5221187E-008  0.1933053E+04  0.7818608E-02  0.8638577E-01
         -2   -1    0    0    0  501 -0.00000000000E+00  0.00000000000E+00  0.45693986750E+03  0.45693986750E+03  0.00000000000E+00 0.  1.
          1   -1    0    0  501    0  0.00000000000E+00 -0.00000000000E+00 -0.20444113965E+04  0.20444113965E+04  0.00000000000E+00 0. -1.
        -24    2    1    2    0    0 -0.45610675251E+03 -0.15696433083E+03  0.12615495202E+03  0.50490994088E+03  0.79673117410E+02 0.  0.
        254    2    1    2    0    0  0.45610675251E+03  0.15696433083E+03 -0.17136264810E+04  0.19964413231E+04  0.90365428640E+03 0.  0.
         23    2    4    4    0    0  0.63502713718E+02 -0.12949377072E+02 -0.15100074385E+04  0.15140979888E+04  0.90387909372E+02 0.  0.
         23    2    4    4    0    0  0.39260403879E+03  0.16991370791E+03 -0.20361904244E+03  0.48234333430E+03  0.90475291039E+02 0.  0.
          3    1    3    3  502    0 -0.24427244261E+03 -0.43489720243E+02  0.75139060039E+02  0.25924170252E+03  0.00000000000E+00 0. -1.
         -4    1    3    3    0  502 -0.21183430990E+03 -0.11347461059E+03  0.51015891984E+02  0.24566823835E+03  0.00000000000E+00 0.  1.
         13    1    5    5    0    0  0.75053089981E+01 -0.39934690202E+02 -0.90355258467E+03  0.90446579947E+03  0.00000000000E+00 0.  1.
        -13    1    5    5    0    0  0.55997404720E+02  0.26985313130E+02 -0.60645485387E+03  0.60963218931E+03  0.00000000000E+00 0. -1.
          2    1    6    6  503    0  0.43879077091E+02  0.27047938148E+02 -0.59871187317E+02  0.79003312811E+02  0.00000000000E+00 0.  1.
         -2    1    6    6    0  503  0.34872496170E+03  0.14286576976E+03 -0.14374785513E+03  0.40334002149E+03  0.00000000000E+00 0. -1.
<mgrwt>
<rscale>  0 0.19330526E+04</rscale>
<asrwt>0</asrwt>
<pdfrwt beam="1">  1        1 0.31452483E+00 0.19330526E+04</pdfrwt>
<pdfrwt beam="2">  1       -2 0.70298441E-01 0.19330526E+04</pdfrwt>
<totfact> 0.41952731E+00</totfact>
</mgrwt>
</event>
<event>
12    5  0.5221187E-008  0.1567695E+04  0.7818608E-02  0.8840644E-01
         -2   -1    0    0    0  501 -0.00000000000E+00  0.00000000000E+00  0.82553914282E+03  0.82553914282E+03  0.00000000000E+00 0.  1.
          1   -1    0    0  501    0  0.00000000000E+00 -0.00000000000E+00 -0.74426141592E+03  0.74426141592E+03  0.00000000000E+00 0. -1.
        -24    2    1    2    0    0  0.70735226462E+02 -0.17996260434E+03  0.51561751330E+03  0.55662370773E+03  0.81108080718E+02 0.  0.
        254    2    1    2    0    0 -0.70735226462E+02  0.17996260434E+03 -0.43433978641E+03  0.10131768510E+04  0.89469898299E+03 0.  0.
         23    2    4    4    0    0  0.27465054553E+03  0.11118642568E+03  0.13453721648E+03  0.33800130160E+03  0.91374361005E+02 0.  0.
         23    2    4    4    0    0 -0.34538577200E+03  0.68776178656E+02 -0.56887700288E+03  0.67517554941E+03  0.90661369224E+02 0.  0.
          1    1    3    3  502    0  0.13428047669E+02 -0.54850291771E+02  0.68323236240E+02  0.88639334282E+02  0.00000000000E+00 0. -1.
         -2    1    3    3    0  502  0.57307178793E+02 -0.12511231257E+03  0.44729427706E+03  0.46798437344E+03  0.00000000000E+00 0.  1.
         13    1    5    5    0    0  0.21571722367E+03  0.45838560853E+02  0.80664334111E+02  0.23482297385E+03  0.00000000000E+00 0.  1.
        -13    1    5    5    0    0  0.58933321862E+02  0.65347864829E+02  0.53872882367E+02  0.10317832775E+03  0.00000000000E+00 0. -1.
          1    1    6    6  503    0 -0.11473497808E+03  0.11859285442E+02 -0.26833884049E+03  0.29207959730E+03  0.00000000000E+00 0. -1.
         -1    1    6    6    0  503 -0.23065079392E+03  0.56916893213E+02 -0.30053816239E+03  0.38309595211E+03  0.00000000000E+00 0.  1.
<mgrwt>
<rscale>  0 0.15676950E+04</rscale>
<asrwt>0</asrwt>
<pdfrwt beam="1">  1        1 0.11450176E+00 0.15676950E+04</pdfrwt>
<pdfrwt beam="2">  1       -2 0.12700602E+00 0.15676950E+04</pdfrwt>
<totfact> 0.96183857E+00</totfact>
</mgrwt>
</event>
<event>
12    5  0.5221187E-008  0.1228440E+04  0.7818608E-02  0.9088321E-01
          1   -1    0    0  501    0  0.00000000000E+00  0.00000000000E+00  0.99778328939E+03  0.99778328939E+03  0.00000000000E+00 0. -1.
         -2   -1    0    0    0  501 -0.00000000000E+00 -0.00000000000E+00 -0.37810425702E+03  0.37810425702E+03  0.00000000000E+00 0.  1.
        -24    2    1    2    0    0 -0.11006736037E+03  0.29137834624E+02  0.42178790143E+03  0.44484957870E+03  0.83799025363E+02 0.  0.
        254    2    1    2    0    0  0.11006736037E+03 -0.29137834624E+02  0.19789113094E+03  0.93103796771E+03  0.90261119005E+03 0.  0.
         23    2    4    4    0    0  0.44572907280E+03  0.19332991510E+03  0.14353435670E+03  0.51476815569E+03  0.91286801603E+02 0.  0.
         23    2    4    4    0    0 -0.33566171243E+03 -0.22246774973E+03  0.54356774239E+02  0.41626981202E+03  0.90361566150E+02 0.  0.
          1    1    3    3  502    0 -0.10008319202E+03  0.23692839807E+02  0.42107621381E+03  0.43345492709E+03  0.00000000000E+00 0. -1.
         -2    1    3    3    0  502 -0.99841683442E+01  0.54449948168E+01  0.71168762412E+00  0.11394651612E+02  0.00000000000E+00 0.  1.
         13    1    5    5    0    0  0.40604293111E+03  0.14559908506E+03  0.13571048536E+03  0.45220271042E+03  0.00000000000E+00 0.  1.
        -13    1    5    5    0    0  0.39686141683E+02  0.47730830045E+02  0.78238713423E+01  0.62565445266E+02  0.00000000000E+00 0. -1.
          3    1    6    6  503    0 -0.13643619362E+03 -0.14049790447E+03  0.43203319219E+02  0.20055179600E+03  0.00000000000E+00 0. -1.
         -3    1    6    6    0  503 -0.19922551881E+03 -0.81969845262E+02  0.11153455020E+02  0.21571801602E+03  0.00000000000E+00 0.  1.
<mgrwt>
<rscale>  0 0.12284398E+04</rscale>
<asrwt>0</asrwt>
<pdfrwt beam="1">  1        1 0.15350512E+00 0.12284398E+04</pdfrwt>
<pdfrwt beam="2">  1       -2 0.58169886E-01 0.12284398E+04</pdfrwt>
<totfact> 0.36371652E+01</totfact>
</mgrwt>
</event>
<event>
12    5  0.5221187E-008  0.2108579E+04  0.7818608E-02  0.8557474E-01
          1   -1    0    0  501    0  0.00000000000E+00  0.00000000000E+00  0.24304823902E+04  0.24304823902E+04  0.00000000000E+00 0. -1.
         -2   -1    0    0    0  501 -0.00000000000E+00 -0.00000000000E+00 -0.45732747945E+03  0.45732747945E+03  0.00000000000E+00 0.  1.
        -24    2    1    2    0    0 -0.57220377443E+03  0.64268592713E+03  0.78210177052E+03  0.11655195381E+04  0.79311121038E+02 0.  0.
        254    2    1    2    0    0  0.57220377443E+03 -0.64268592713E+03  0.11910531403E+04  0.17222903315E+04  0.89845091283E+03 0.  0.
         23    2    4    4    0    0  0.68254392671E+03 -0.15837459981E+03  0.88361844665E+03  0.11314689624E+04  0.92150571724E+02 0.  0.
         23    2    4    4    0    0 -0.11034015227E+03 -0.48431132732E+03  0.30743469362E+03  0.59082136914E+03  0.88438613809E+02 0.  0.
          3    1    3    3  502    0 -0.23827658686E+03  0.21509266736E+03  0.26962529749E+03  0.41921162728E+03  0.00000000000E+00 0. -1.
         -4    1    3    3    0  502 -0.33392718757E+03  0.42759325977E+03  0.51247647303E+03  0.74630791086E+03  0.00000000000E+00 0.  1.
         13    1    5    5    0    0  0.42093361281E+02 -0.28636529938E+02  0.42323608850E+02  0.66205662725E+02  0.00000000000E+00 0.  1.
        -13    1    5    5    0    0  0.64045056543E+03 -0.12973806987E+03  0.84129483780E+03  0.10652632997E+04  0.00000000000E+00 0. -1.
          2    1    6    6  503    0 -0.93951292984E+02 -0.41595402774E+03  0.29721068462E+03  0.51978725427E+03  0.00000000000E+00 0. -1.
         -2    1    6    6    0  503 -0.16388859291E+02 -0.68357299584E+02  0.10224008993E+02  0.71034114869E+02  0.00000000000E+00 0.  1.
<mgrwt>
<rscale>  0 0.21085790E+04</rscale>
<asrwt>0</asrwt>
<pdfrwt beam="1">  1        1 0.37392036E+00 0.21085790E+04</pdfrwt>
<pdfrwt beam="2">  1       -2 0.70358075E-01 0.21085790E+04</pdfrwt>
<totfact> 0.22468801E+00</totfact>
</mgrwt>
</event>
<event>
12    5  0.5221187E-008  0.1822855E+04  0.7818608E-02  0.8694239E-01
          1   -1    0    0  501    0  0.00000000000E+00  0.00000000000E+00  0.15840850245E+04  0.15840850245E+04  0.00000000000E+00 0. -1.
         -2   -1    0    0    0  501 -0.00000000000E+00 -0.00000000000E+00 -0.52440394014E+03  0.52440394014E+03  0.00000000000E+00 0.  1.
        -24    2    1    2    0    0  0.28365589734E+03 -0.60592009716E+03  0.38649218069E+03  0.77652843826E+03  0.77591091345E+02 0.  0.
        254    2    1    2    0    0 -0.28365589734E+03  0.60592009716E+03  0.67318890371E+03  0.13319605264E+04  0.93452432370E+03 0.  0.
         23    2    4    4    0    0  0.75885040803E+02  0.40770323068E+03 -0.11281882418E+03  0.43918779903E+03  0.90428822838E+02 0.  0.
         23    2    4    4    0    0 -0.35954093815E+03  0.19821686648E+03  0.78600772789E+03  0.89277272738E+03  0.10332174063E+03 0.  0.
          3    1    3    3  502    0  0.12202878877E+03 -0.27216704876E+03  0.21667627332E+03  0.36866588551E+03  0.00000000000E+00 0. -1.
         -4    1    3    3    0  502  0.16162710857E+03 -0.33375304840E+03  0.16981590737E+03  0.40786255275E+03  0.00000000000E+00 0.  1.
         13    1    5    5    0    0 -0.66372773227E+01  0.16839774716E+02  0.10726215154E+02  0.21040036937E+02  0.00000000000E+00 0. -1.
        -13    1    5    5    0    0  0.82522318125E+02  0.39086345596E+03 -0.12354503934E+03  0.41814776209E+03  0.00000000000E+00 0.  1.
          2    1    6    6  503    0 -0.22438230255E+02  0.34972360657E+02  0.38353243992E+02  0.56546542879E+02  0.00000000000E+00 0. -1.
         -2    1    6    6    0  503 -0.33710270789E+03  0.16324450583E+03  0.74765448390E+03  0.83622618450E+03  0.00000000000E+00 0.  1.
<mgrwt>
<rscale>  0 0.18228554E+04</rscale>
<asrwt>0</asrwt>
<pdfrwt beam="1">  1        1 0.24370539E+00 0.18228554E+04</pdfrwt>
<pdfrwt beam="2">  1       -2 0.80677530E-01 0.18228554E+04</pdfrwt>
<totfact> 0.64153049E+00</totfact>
</mgrwt>
</event>
<event>
12    5  0.5221187E-008  0.1800460E+04  0.7818608E-02  0.8706055E-01
          1   -1    0    0  501    0  0.00000000000E+00  0.00000000000E+00  0.49500572635E+03  0.49500572635E+03  0.00000000000E+00 0. -1.
         -2   -1    0    0    0  501 -0.00000000000E+00 -0.00000000000E+00 -0.16371818931E+04  0.16371818931E+04  0.00000000000E+00 0.  1.
        -24    2    1    2    0    0 -0.79287732095E+02 -0.36901760666E+03  0.22315821870E+03  0.44565846514E+03  0.79695285255E+02 0.  0.
        254    2    1    2    0    0  0.79287732095E+02  0.36901760666E+03 -0.13653343855E+04  0.16865291543E+04  0.91530435690E+03 0.  0.
         23    2    4    4    0    0 -0.16934470533E+03  0.32429803001E+02 -0.12183312384E+04  0.12338420733E+04  0.91136897678E+02 0.  0.
         23    2    4    4    0    0  0.24863243742E+03  0.33658780366E+03 -0.14700314708E+03  0.45268708100E+03  0.90588241740E+02 0.  0.
          3    1    3    3  502    0 -0.73692273132E+02 -0.31935116071E+03  0.22164641219E+03  0.39565495953E+03  0.00000000000E+00 0. -1.
         -4    1    3    3    0  502 -0.55954589623E+01 -0.49666445947E+02  0.15118065136E+01  0.50003505607E+02  0.00000000000E+00 0.  1.
         13    1    5    5    0    0 -0.17217956193E+03  0.11172860642E+02 -0.11188194350E+04  0.11320457422E+04  0.00000000000E+00 0.  1.
        -13    1    5    5    0    0  0.28348566056E+01  0.21256942358E+02 -0.99511803402E+02  0.10179633111E+03  0.00000000000E+00 0. -1.
          2    1    6    6  503    0  0.14853817255E+03  0.13910809756E+03 -0.42642811585E+02  0.20792561384E+03  0.00000000000E+00 0.  1.
         -2    1    6    6    0  503  0.10009426487E+03  0.19747970610E+03 -0.10436033549E+03  0.24476146716E+03  0.00000000000E+00 0. -1.
<mgrwt>
<rscale>  0 0.18004604E+04</rscale>
<asrwt>0</asrwt>
<pdfrwt beam="1">  1        1 0.76154727E-01 0.18004604E+04</pdfrwt>
<pdfrwt beam="2">  1       -2 0.25187414E+00 0.18004604E+04</pdfrwt>
<totfact> 0.23220440E+00</totfact>
</mgrwt>
</event>
<event>
12    5  0.5221187E-008  0.1430678E+04  0.7818608E-02  0.8931907E-01
          1   -1    0    0  501    0  0.00000000000E+00  0.00000000000E+00  0.85691663283E+03  0.85691663283E+03  0.00000000000E+00 0. -1.
         -2   -1    0    0    0  501 -0.00000000000E+00 -0.00000000000E+00 -0.59715229218E+03  0.59715229218E+03  0.00000000000E+00 0.  1.
        -24    2    1    2    0    0  0.27757216156E+03  0.26872652905E+03  0.26492587539E+03  0.47505573312E+03  0.78942877023E+02 0.  0.
        254    2    1    2    0    0 -0.27757216156E+03 -0.26872652905E+03 -0.51615347394E+01  0.97901319188E+03  0.89954429360E+03 0.  0.
         23    2    4    4    0    0 -0.26838672249E+03 -0.57731001775E+03  0.74719191224E+02  0.64730494485E+03  0.90013580576E+02 0.  0.
         23    2    4    4    0    0 -0.91854390728E+01  0.30858348870E+03 -0.79880725963E+02  0.33170824703E+03  0.91330657388E+02 0.  0.
          3    1    3    3  502    0  0.27989275976E+03  0.25101256660E+03  0.25760026433E+03  0.45574681759E+03  0.00000000000E+00 0. -1.
         -4    1    3    3    0  502 -0.23205982010E+01  0.17713962451E+02  0.73256110563E+01  0.19308915534E+02  0.00000000000E+00 0.  1.
         13    1    5    5    0    0 -0.77793173357E+02 -0.22430935590E+03  0.64438786624E+02  0.24600573608E+03  0.00000000000E+00 0.  1.
        -13    1    5    5    0    0 -0.19059354913E+03 -0.35300066185E+03  0.10280404600E+02  0.40129920876E+03  0.00000000000E+00 0. -1.
          1    1    6    6  503    0  0.27689323928E+02  0.25307938277E+03 -0.72205927306E+02  0.26463100457E+03  0.00000000000E+00 0. -1.
         -1    1    6    6    0  503 -0.36874763001E+02  0.55504105929E+02 -0.76747986576E+01  0.67077242458E+02  0.00000000000E+00 0.  1.
<mgrwt>
<rscale>  0 0.14306778E+04</rscale>
<asrwt>0</asrwt>
<pdfrwt beam="1">  1        1 0.13183333E+00 0.14306778E+04</pdfrwt>
<pdfrwt beam="2">  1       -2 0.91869584E-01 0.14306778E+04</pdfrwt>
<totfact> 0.16973545E+01</totfact>
</mgrwt>
</event>
<event>
12    5  0.5221187E-008  0.1554759E+04  0.7818608E-02  0.8848834E-01
         -2   -1    0    0    0  501 -0.00000000000E+00  0.00000000000E+00  0.77994136552E+03  0.77994136552E+03  0.00000000000E+00 0.  1.
          1   -1    0    0  501    0  0.00000000000E+00 -0.00000000000E+00 -0.77482600165E+03  0.77482600165E+03  0.00000000000E+00 0. -1.
        -24    2    1    2    0    0  0.26052752984E+03  0.16212503828E+03  0.41832986693E+03  0.52492343531E+03  0.79910033937E+02 0.  0.
        254    2    1    2    0    0 -0.26052752984E+03 -0.16212503828E+03 -0.41321450306E+03  0.10298439319E+04  0.89200514382E+03 0.  0.
         23    2    4    4    0    0 -0.22489427497E+03  0.16652616818E+03  0.17952658665E+03  0.34461909369E+03  0.90686960583E+02 0.  0.
         23    2    4    4    0    0 -0.35633254872E+02 -0.32865120647E+03 -0.59274108971E+03  0.68522483817E+03  0.94391392894E+02 0.  0.
          3    1    3    3  502    0 -0.69152791663E+00  0.78936261196E+01 -0.31026341646E+00  0.79299311197E+01  0.00000000000E+00 0. -1.
         -4    1    3    3    0  502  0.26121905776E+03  0.15423141217E+03  0.41864013035E+03  0.51699350419E+03  0.00000000000E+00 0.  1.
         13    1    5    5    0    0 -0.11751450321E+03  0.13110764098E+03  0.77668369727E+02  0.19243504786E+03  0.00000000000E+00 0. -1.
        -13    1    5    5    0    0 -0.10737977176E+03  0.35418527204E+02  0.10185821692E+03  0.15218404583E+03  0.00000000000E+00 0.  1.
          3    1    6    6  503    0 -0.67868285763E+02 -0.24106117641E+03 -0.42825574130E+03  0.49610439923E+03  0.00000000000E+00 0. -1.
         -3    1    6    6    0  503  0.32235030891E+02 -0.87590030055E+02 -0.16448534841E+03  0.18912043894E+03  0.00000000000E+00 0.  1.
<mgrwt>
<rscale>  0 0.15547590E+04</rscale>
<asrwt>0</asrwt>
<pdfrwt beam="1">  1        1 0.11920400E+00 0.15547590E+04</pdfrwt>
<pdfrwt beam="2">  1       -2 0.11999098E+00 0.15547590E+04</pdfrwt>
<totfact> 0.10422884E+01</totfact>
</mgrwt>
</event>
<event>
12    5  0.5221187E-008  0.1156125E+04  0.7818608E-02  0.9152151E-01
          1   -1    0    0  501    0  0.00000000000E+00  0.00000000000E+00  0.18864938485E+04  0.18864938485E+04  0.00000000000E+00 0. -1.
         -2   -1    0    0    0  501 -0.00000000000E+00 -0.00000000000E+00 -0.17713095239E+03  0.17713095239E+03  0.00000000000E+00 0.  1.
        -24    2    1    2    0    0  0.16278912536E+03 -0.40337197954E+02  0.44457938986E+03  0.48190447207E+03  0.80334907964E+02 0.  0.
        254    2    1    2    0    0 -0.16278912536E+03  0.40337197954E+02  0.12647835062E+04  0.15817203288E+04  0.93489811853E+03 0.  0.
         23    2    4    4    0    0 -0.43720719276E+02  0.74744684165E+02  0.13803166428E+04  0.13859800514E+04  0.90379196456E+02 0.  0.
         23    2    4    4    0    0 -0.11906840608E+03 -0.34407486212E+02 -0.11553313662E+03  0.19574027744E+03  0.98006071855E+02 0.  0.
          3    1    3    3  502    0  0.53014126939E+01 -0.25931037202E+02  0.86470354743E+02  0.90430337367E+02  0.00000000000E+00 0. -1.
         -4    1    3    3    0  502  0.15748771266E+03 -0.14406160752E+02  0.35810903511E+03  0.39147413470E+03  0.00000000000E+00 0.  1.
         13    1    5    5    0    0 -0.62568679726E+02  0.17642576350E+02  0.73109195801E+03  0.73397653318E+03  0.00000000000E+00 0.  1.
        -13    1    5    5    0    0  0.18847960449E+02  0.57102107815E+02  0.64922468483E+03  0.65200351819E+03  0.00000000000E+00 0. -1.
          1    1    6    6  503    0 -0.40417301985E+01 -0.19000821618E+02  0.12372503791E+02  0.23031405845E+02  0.00000000000E+00 0. -1.
         -1    1    6    6    0  503 -0.11502667588E+03 -0.15406664593E+02 -0.12790564041E+03  0.17270887159E+03  0.00000000000E+00 0.  1.
<mgrwt>
<rscale>  0 0.11561253E+04</rscale>
<asrwt>0</asrwt>
<pdfrwt beam="1">  1        1 0.29022981E+00 0.11561253E+04</pdfrwt>
<pdfrwt beam="2">  1       -2 0.27250917E-01 0.11561253E+04</pdfrwt>
<totfact> 0.38058695E+01</totfact>
</mgrwt>
</event>
<event>
12    5  0.5221187E-008  0.2086659E+04  0.7818608E-02  0.8567143E-01
         -2   -1    0    0    0  501 -0.00000000000E+00  0.00000000000E+00  0.10912875313E+04  0.10912875313E+04  0.00000000000E+00 0.  1.
          1   -1    0    0  501    0  0.00000000000E+00 -0.00000000000E+00 -0.99747913524E+03  0.99747913524E+03  0.00000000000E+00 0. -1.
        -24    2    1    2    0    0  0.16804172440E+03 -0.68808867712E+02  0.89489723979E+03  0.91651358348E+03  0.78634582156E+02 0.  0.
        254    2    1    2    0    0 -0.16804172440E+03  0.68808867712E+02 -0.80108884368E+03  0.11722530831E+04  0.83633801416E+03 0.  0.
         23    2    4    4    0    0 -0.45485842243E+03 -0.60904871753E+01 -0.70916195532E+03  0.84831816242E+03  0.98993673165E+02 0.  0.
         23    2    4    4    0    0  0.28681669803E+03  0.74899354888E+02 -0.91926888365E+02  0.32393492068E+03  0.92787652182E+02 0.  0.
          1    1    3    3  502    0  0.17418507913E+02  0.10568176563E+02  0.20116077983E+03  0.20218988628E+03  0.00000000000E+00 0. -1.
         -2    1    3    3    0  502  0.15062321649E+03 -0.79377044276E+02  0.69373645997E+03  0.71432369720E+03  0.00000000000E+00 0.  1.
         13    1    5    5    0    0 -0.42825716047E+03  0.10818284826E+02 -0.61881710748E+03  0.75263260844E+03  0.00000000000E+00 0. -1.
        -13    1    5    5    0    0 -0.26601261958E+02 -0.16908772001E+02 -0.90344847840E+02  0.95685553975E+02  0.00000000000E+00 0.  1.
          4    1    6    6  503    0  0.26036449945E+03  0.71856091444E+02 -0.11012281886E+03  0.29168477109E+03  0.00000000000E+00 0. -1.
         -4    1    6    6    0  503  0.26452198581E+02  0.30432634432E+01  0.18195930490E+02  0.32250149590E+02  0.00000000000E+00 0.  1.
<mgrwt>
<rscale>  0 0.20866591E+04</rscale>
<asrwt>0</asrwt>
<pdfrwt beam="1">  1        1 0.15345833E+00 0.20866591E+04</pdfrwt>
<pdfrwt beam="2">  1       -2 0.16789039E+00 0.20866591E+04</pdfrwt>
<totfact> 0.27070847E+00</totfact>
</mgrwt>
</event>
<event>
12    5  0.5221187E-008  0.2119039E+04  0.7818608E-02  0.8552903E-01
          1   -1    0    0  501    0  0.00000000000E+00  0.00000000000E+00  0.22182510225E+04  0.22182510225E+04  0.00000000000E+00 0. -1.
         -2   -1    0    0    0  501 -0.00000000000E+00 -0.00000000000E+00 -0.50606584260E+03  0.50606584260E+03  0.00000000000E+00 0.  1.
        -24    2    1    2    0    0 -0.64614618761E+03  0.57744092127E+03  0.72288289722E+03  0.11313658834E+04  0.80536734856E+02 0.  0.
        254    2    1    2    0    0  0.64614618761E+03 -0.57744092127E+03  0.98930228272E+03  0.15929509818E+04  0.89879414239E+03 0.  0.
         23    2    4    4    0    0 -0.18102666229E+03 -0.24411387210E+03  0.10421282475E+03  0.33327741645E+03  0.88607496660E+02 0.  0.
         23    2    4    4    0    0  0.82717284990E+03 -0.33332704918E+03  0.88508945797E+03  0.12596735653E+04  0.89845963843E+02 0.  0.
          3    1    3    3  502    0 -0.59104849754E+03  0.50087238913E+03  0.62479850385E+03  0.99528118994E+03  0.00000000000E+00 0. -1.
         -4    1    3    3    0  502 -0.55097690069E+02  0.76568532147E+02  0.98084393377E+02  0.13608469345E+03  0.00000000000E+00 0.  1.
         13    1    5    5    0    0 -0.30327476889E+01  0.40853760317E+01  0.13865294375E+02  0.14769368435E+02  0.00000000000E+00 0.  1.
        -13    1    5    5    0    0 -0.17799391460E+03 -0.24819924813E+03  0.90347530379E+02  0.31850804802E+03  0.00000000000E+00 0. -1.
          3    1    6    6  503    0  0.74692877313E+03 -0.32837335627E+03  0.80495178695E+03  0.11461583802E+04  0.00000000000E+00 0. -1.
         -3    1    6    6    0  503  0.80244076767E+02 -0.49536929017E+01  0.80137671017E+02  0.11351518509E+03  0.00000000000E+00 0.  1.
<mgrwt>
<rscale>  0 0.21190385E+04</rscale>
<asrwt>0</asrwt>
<pdfrwt beam="1">  1        1 0.34126938E+00 0.21190385E+04</pdfrwt>
<pdfrwt beam="2">  1       -2 0.77856285E-01 0.21190385E+04</pdfrwt>
<totfact> 0.25086400E+00</totfact>
</mgrwt>
</event>
<event>
12    5  0.5221187E-008  0.1827597E+04  0.7818608E-02  0.8691760E-01
          1   -1    0    0  501    0  0.00000000000E+00  0.00000000000E+00  0.14172498743E+04  0.14172498743E+04  0.00000000000E+00 0. -1.
         -2   -1    0    0    0  501 -0.00000000000E+00 -0.00000000000E+00 -0.58918861074E+03  0.58918861074E+03  0.00000000000E+00 0.  1.
        -24    2    1    2    0    0  0.19280457174E+03 -0.15829145545E+03  0.10213499857E+04  0.10543199850E+04  0.78772139131E+02 0.  0.
        254    2    1    2    0    0 -0.19280457174E+03  0.15829145545E+03 -0.19328872209E+03  0.95211850001E+03  0.89829801303E+03 0.  0.
         23    2    4    4    0    0  0.45083859961E+02  0.25875100946E+03  0.28558749485E+03  0.40040051891E+03  0.98872235736E+02 0.  0.
         23    2    4    4    0    0 -0.23788843170E+03 -0.10045955401E+03 -0.47887621694E+03  0.55171798110E+03  0.91582048410E+02 0.  0.
          3    1    3    3  502    0  0.12488271029E+03 -0.51895853180E+02  0.54527503979E+03  0.56179510493E+03  0.00000000000E+00 0. -1.
         -4    1    3    3    0  502  0.67921861455E+02 -0.10639560227E+03  0.47607494587E+03  0.49252488011E+03  0.00000000000E+00 0.  1.
         13    1    5    5    0    0 -0.13316635953E+02  0.14386050284E+03  0.19577335286E+03  0.24331128779E+03  0.00000000000E+00 0. -1.
        -13    1    5    5    0    0  0.58400495914E+02  0.11489050662E+03  0.89814141985E+02  0.15708923112E+03  0.00000000000E+00 0.  1.
          4    1    6    6  503    0 -0.23794359898E+03 -0.11087277031E+03 -0.46841894972E+03  0.53696018470E+03  0.00000000000E+00 0. -1.
         -4    1    6    6    0  503  0.55167276387E-01  0.10413216297E+02 -0.10457267214E+02  0.14757796402E+02  0.00000000000E+00 0.  1.
<mgrwt>
<rscale>  0 0.18275968E+04</rscale>
<asrwt>0</asrwt>
<pdfrwt beam="1">  1        1 0.21803844E+00 0.18275968E+04</pdfrwt>
<pdfrwt beam="2">  1       -2 0.90644402E-01 0.18275968E+04</pdfrwt>
<totfact> 0.64159260E+00</totfact>
</mgrwt>
</event>
<event>
12    5  0.5221187E-008  0.1725724E+04  0.7818608E-02  0.8746827E-01
         -2   -1    0    0    0  501 -0.00000000000E+00  0.00000000000E+00  0.27524930242E+03  0.27524930242E+03  0.00000000000E+00 0.  1.
          1   -1    0    0  501    0  0.00000000000E+00 -0.00000000000E+00 -0.27049341717E+04  0.27049341717E+04  0.00000000000E+00 0. -1.
        -24    2    1    2    0    0  0.61773450956E+03 -0.10686874655E+03 -0.10058268186E+04  0.11878698346E+04  0.79563192354E+02 0.  0.
        254    2    1    2    0    0 -0.61773450956E+03  0.10686874655E+03 -0.14238580507E+04  0.17923136395E+04  0.88994358287E+03 0.  0.
         23    2    4    4    0    0 -0.81030695963E+03 -0.24101516599E+02 -0.90735015343E+03  0.12202798045E+04  0.92845293433E+02 0.  0.
         23    2    4    4    0    0  0.19257245007E+03  0.13097026315E+03 -0.51650789725E+03  0.57203383499E+03  0.78771454884E+02 0.  0.
          3    1    3    3  502    0  0.34056665019E+03 -0.76161750934E+02 -0.49124897893E+03  0.60258759930E+03  0.00000000000E+00 0. -1.
         -4    1    3    3    0  502  0.27716785937E+03 -0.30706995614E+02 -0.51457783966E+03  0.58528223527E+03  0.00000000000E+00 0.  1.
         13    1    5    5    0    0 -0.20673866651E+03  0.15094371440E+02 -0.18207077402E+03  0.27589578291E+03  0.00000000000E+00 0. -1.
        -13    1    5    5    0    0 -0.60356829312E+03 -0.39195888039E+02 -0.72527937941E+03  0.94438402162E+03  0.00000000000E+00 0.  1.
          1    1    6    6  503    0  0.39956684449E+02  0.13385031761E+02 -0.17428616241E+03  0.17930800907E+03  0.00000000000E+00 0. -1.
         -1    1    6    6    0  503  0.15261576562E+03  0.11758523139E+03 -0.34222173483E+03  0.39272582592E+03  0.00000000000E+00 0.  1.
<mgrwt>
<rscale>  0 0.17257245E+04</rscale>
<asrwt>0</asrwt>
<pdfrwt beam="1">  1        1 0.41614372E+00 0.17257245E+04</pdfrwt>
<pdfrwt beam="2">  1       -2 0.42346047E-01 0.17257245E+04</pdfrwt>
<totfact> 0.43011420E+00</totfact>
</mgrwt>
</event>
<event>
12    5  0.5221187E-008  0.1934611E+04  0.7818608E-02  0.8637817E-01
          1   -1    0    0  501    0  0.00000000000E+00  0.00000000000E+00  0.12101634988E+04  0.12101634988E+04  0.00000000000E+00 0. -1.
         -4   -1    0    0    0  501 -0.00000000000E+00 -0.00000000000E+00 -0.77318507843E+03  0.77318507843E+03  0.00000000000E+00 0.  1.
        -24    2    1    2    0    0 -0.23371837640E+03  0.59740175359E+03  0.63281999168E+03  0.90476132950E+03  0.81355926853E+02 0.  0.
        254    2    1    2    0    0  0.23371837640E+03 -0.59740175359E+03 -0.19584157135E+03  0.10785872477E+04  0.84467946297E+03 0.  0.
         23    2    4    4    0    0  0.44687785007E+03 -0.43828026334E+02 -0.48337595021E+02  0.46056697286E+03  0.90358755084E+02 0.  0.
         23    2    4    4    0    0 -0.21315947367E+03 -0.55357372726E+03 -0.14750397633E+03  0.61802027483E+03  0.91163613070E+02 0.  0.
          3    1    3    3  502    0 -0.12495752168E+03  0.29767948306E+03  0.37417873157E+03  0.49420358155E+03  0.00000000000E+00 0. -1.
         -4    1    3    3    0  502 -0.10876085472E+03  0.29972227053E+03  0.25864126011E+03  0.41055774795E+03  0.00000000000E+00 0.  1.
         13    1    5    5    0    0  0.15501845659E+03 -0.87949225466E+01 -0.59809245962E+02  0.16638875698E+03  0.00000000000E+00 0.  1.
        -13    1    5    5    0    0  0.29185939348E+03 -0.35033103787E+02  0.11471650941E+02  0.29417821588E+03  0.00000000000E+00 0. -1.
          3    1    6    6  503    0 -0.97650807859E+02 -0.31467868608E+03 -0.12239228945E+03  0.35148005386E+03  0.00000000000E+00 0. -1.
         -3    1    6    6    0  503 -0.11550866581E+03 -0.23889504118E+03 -0.25111686886E+02  0.26654022097E+03  0.00000000000E+00 0.  1.
<mgrwt>
<rscale>  0 0.19346114E+04</rscale>
<asrwt>0</asrwt>
<pdfrwt beam="1">  1        1 0.18617900E+00 0.19346114E+04</pdfrwt>
<pdfrwt beam="2">  1       -4 0.11895155E+00 0.19346114E+04</pdfrwt>
<totfact> 0.25830451E+00</totfact>
</mgrwt>
</event>
<event>
12    5  0.5221187E-008  0.3504691E+04  0.7818608E-02  0.8112679E-01
         -2   -1    0    0    0  501 -0.00000000000E+00  0.00000000000E+00  0.16076678201E+04  0.16076678201E+04  0.00000000000E+00 0.  1.
          1   -1    0    0  501    0  0.00000000000E+00 -0.00000000000E+00 -0.19100434994E+04  0.19100434994E+04  0.00000000000E+00 0. -1.
        -24    2    1    2    0    0  0.75535320938E+03 -0.12597456405E+04  0.58874516264E+03  0.15844670641E+04  0.79984128971E+02 0.  0.
        254    2    1    2    0    0 -0.75535320938E+03  0.12597456405E+04 -0.89112084193E+03  0.19332442554E+04  0.88646457714E+03 0.  0.
         23    2    4    4    0    0 -0.39564544580E+03  0.48135331724E+02 -0.40548201192E+03  0.57620542101E+03  0.93513080733E+02 0.  0.
         23    2    4    4    0    0 -0.35970776358E+03  0.12116103088E+04 -0.48563883001E+03  0.13570388344E+04  0.91214633573E+02 0.  0.
          1    1    3    3  502    0  0.17093992773E+03 -0.22911831421E+03  0.12866683937E+03  0.31348176399E+03  0.00000000000E+00 0. -1.
         -2    1    3    3    0  502  0.58441328164E+03 -0.10306273263E+04  0.46007832326E+03  0.12709853001E+04  0.00000000000E+00 0.  1.
         13    1    5    5    0    0 -0.12976313420E+03  0.58299513733E+02 -0.16125136270E+03  0.21503326783E+03  0.00000000000E+00 0.  1.
        -13    1    5    5    0    0 -0.26588231160E+03 -0.10164182009E+02 -0.24423064922E+03  0.36117215318E+03  0.00000000000E+00 0. -1.
          1    1    6    6  503    0 -0.49753884641E+02  0.83520322205E+02 -0.33992616380E+02  0.10298830626E+03  0.00000000000E+00 0. -1.
         -1    1    6    6    0  503 -0.30995387894E+03  0.11280899866E+04 -0.45164621363E+03  0.12540505282E+04  0.00000000000E+00 0.  1.
<mgrwt>
<rscale>  0 0.35046914E+04</rscale>
<asrwt>0</asrwt>
<pdfrwt beam="1">  1        1 0.29385285E+00 0.35046914E+04</pdfrwt>
<pdfrwt beam="2">  1       -2 0.24733351E+00 0.35046914E+04</pdfrwt>
<totfact> 0.16410437E-01</totfact>
</mgrwt>
</event>
<event>
12    5  0.5221187E-008  0.1733102E+04  0.7818608E-02  0.8742707E-01
         -2   -1    0    0    0  501 -0.00000000000E+00  0.00000000000E+00  0.37703565083E+03  0.37703565083E+03  0.00000000000E+00 0.  1.
          1   -1    0    0  501    0  0.00000000000E+00 -0.00000000000E+00 -0.19916176674E+04  0.19916176674E+04  0.00000000000E+00 0. -1.
        -24    2    1    2    0    0 -0.58669581073E+03  0.21725183082E+02 -0.28939255507E+03  0.66022796030E+03  0.86423091357E+02 0.  0.
        254    2    1    2    0    0  0.58669581073E+03 -0.21725183082E+02 -0.13251894615E+04  0.17084253579E+04  0.90438163228E+03 0.  0.
         23    2    4    4    0    0 -0.51216990067E+02 -0.28610539633E+03 -0.73349158378E+03  0.79431394686E+03  0.91898121955E+02 0.  0.
         23    2    4    4    0    0  0.63791280080E+03  0.26438021325E+03 -0.59169787768E+03  0.91411141103E+03  0.93078755572E+02 0.  0.
          1    1    3    3  502    0 -0.51043992032E+03 -0.10643503011E+02 -0.24658580388E+03  0.56698038334E+03  0.00000000000E+00 0. -1.
         -2    1    3    3    0  502 -0.76255890410E+02  0.32368686093E+02 -0.42806751187E+02  0.93247576960E+02  0.00000000000E+00 0.  1.
         13    1    5    5    0    0  0.74826838391E+01 -0.38279971367E+01 -0.29014894626E+01  0.88917242769E+01  0.00000000000E+00 0.  1.
        -13    1    5    5    0    0 -0.58699673907E+02 -0.28227739920E+03 -0.73059009431E+03  0.78542222258E+03  0.00000000000E+00 0. -1.
          1    1    6    6  503    0  0.51449363486E+03  0.18363177254E+03 -0.42968418170E+03  0.69502001712E+03  0.00000000000E+00 0. -1.
         -1    1    6    6    0  503  0.12341916594E+03  0.80748440715E+02 -0.16201369598E+03  0.21909139391E+03  0.00000000000E+00 0.  1.
<mgrwt>
<rscale>  0 0.17331023E+04</rscale>
<asrwt>0</asrwt>
<pdfrwt beam="1">  1        1 0.30640272E+00 0.17331023E+04</pdfrwt>
<pdfrwt beam="2">  1       -2 0.58005485E-01 0.17331023E+04</pdfrwt>
<totfact> 0.69986882E+00</totfact>
</mgrwt>
</event>
<event>
12    5  0.5221187E-008  0.2016900E+04  0.7818608E-02  0.8598760E-01
         -2   -1    0    0    0  501 -0.00000000000E+00  0.00000000000E+00  0.44340439587E+03  0.44340439587E+03  0.00000000000E+00 0.  1.
          1   -1    0    0  501    0  0.00000000000E+00 -0.00000000000E+00 -0.22935535318E+04  0.22935535318E+04  0.00000000000E+00 0. -1.
        -24    2    1    2    0    0  0.70794999816E+03  0.27386320785E+03 -0.36241654902E+03  0.84483943249E+03  0.78826741527E+02 0.  0.
        254    2    1    2    0    0 -0.70794999816E+03 -0.27386320785E+03 -0.14877325869E+04  0.18921184952E+04  0.88913997390E+03 0.  0.
         23    2    4    4    0    0 -0.26753332629E+03 -0.12259894734E+03 -0.13690393299E+04  0.14032448325E+04  0.90679604076E+02 0.  0.
         23    2    4    4    0    0 -0.44041667187E+03 -0.15126426051E+03 -0.11869325709E+03  0.48887366275E+03  0.89786677669E+02 0.  0.
          1    1    3    3  502    0  0.26264068868E+03  0.68733437606E+02 -0.15373532059E+03  0.31199193194E+03  0.00000000000E+00 0. -1.
         -2    1    3    3    0  502  0.44530930947E+03  0.20512977024E+03 -0.20868122843E+03  0.53284750055E+03  0.00000000000E+00 0.  1.
         13    1    5    5    0    0 -0.14143501922E+03 -0.51719776603E+02 -0.89650219889E+03  0.90906270002E+03  0.00000000000E+00 0.  1.
        -13    1    5    5    0    0 -0.12609830707E+03 -0.70879170739E+02 -0.47253713096E+03  0.49418213244E+03  0.00000000000E+00 0. -1.
          1    1    6    6  503    0 -0.23964288874E+03 -0.39700319417E+02 -0.40637533007E+02  0.24628487281E+03  0.00000000000E+00 0. -1.
         -1    1    6    6    0  503 -0.20077378312E+03 -0.11156394109E+03 -0.78055724087E+02  0.24258878994E+03  0.00000000000E+00 0.  1.
<mgrwt>
<rscale>  0 0.20169003E+04</rscale>
<asrwt>0</asrwt>
<pdfrwt beam="1">  1        1 0.35285439E+00 0.20169003E+04</pdfrwt>
<pdfrwt beam="2">  1       -2 0.68216061E-01 0.20169003E+04</pdfrwt>
<totfact> 0.30090682E+00</totfact>
</mgrwt>
</event>
<event>
12    5  0.5221187E-008  0.1152320E+04  0.7818608E-02  0.9155646E-01
          1   -1    0    0  501    0  0.00000000000E+00  0.00000000000E+00  0.60617122959E+03  0.60617122959E+03  0.00000000000E+00 0. -1.
         -2   -1    0    0    0  501 -0.00000000000E+00 -0.00000000000E+00 -0.54763438780E+03  0.54763438780E+03  0.00000000000E+00 0.  1.
        -24    2    1    2    0    0 -0.10112799445E+02  0.24244283659E+03  0.11212473610E+03  0.27968508072E+03  0.82286026797E+02 0.  0.
        254    2    1    2    0    0  0.10112799445E+02 -0.24244283659E+03 -0.53587894302E+02  0.87412053667E+03  0.83805384821E+03 0.  0.
         23    2    4    4    0    0  0.22382537359E+02 -0.35736177733E+03  0.30962638765E+03  0.48238649513E+03  0.92842947356E+02 0.  0.
         23    2    4    4    0    0 -0.12269737915E+02  0.11491894075E+03 -0.36321428195E+03  0.39173404154E+03  0.90410371523E+02 0.  0.
          3    1    3    3  502    0  0.25010451536E+02  0.23380482475E+02  0.12010878840E+02  0.36282652292E+02  0.00000000000E+00 0. -1.
         -4    1    3    3    0  502 -0.35123250981E+02  0.21906235411E+03  0.10011385726E+03  0.24340242843E+03  0.00000000000E+00 0.  1.
         13    1    5    5    0    0  0.27739267458E+02 -0.34180338930E+03  0.31441606863E+03  0.46524884536E+03  0.00000000000E+00 0.  1.
        -13    1    5    5    0    0 -0.53567300987E+01 -0.15558388033E+02 -0.47896809825E+01  0.17137649764E+02  0.00000000000E+00 0. -1.
          2    1    6    6  503    0 -0.63309305415E+01  0.23488981143E+02 -0.91240489172E+01  0.25981939599E+02  0.00000000000E+00 0. -1.
         -2    1    6    6    0  503 -0.59388073734E+01  0.91429959603E+02 -0.35409023304E+03  0.36575210195E+03  0.00000000000E+00 0.  1.
<mgrwt>
<rscale>  0 0.11523198E+04</rscale>
<asrwt>0</asrwt>
<pdfrwt beam="1">  1        1 0.93257112E-01 0.11523198E+04</pdfrwt>
<pdfrwt beam="2">  1       -2 0.84251445E-01 0.11523198E+04</pdfrwt>
<totfact> 0.36067853E+01</totfact>
</mgrwt>
</event>
<event>
12    5  0.5221187E-008  0.1656684E+04  0.7818608E-02  0.8786462E-01
         -2   -1    0    0    0  501 -0.00000000000E+00  0.00000000000E+00  0.12959568312E+04  0.12959568312E+04  0.00000000000E+00 0.  1.
          1   -1    0    0  501    0  0.00000000000E+00 -0.00000000000E+00 -0.52945442075E+03  0.52945442075E+03  0.00000000000E+00 0. -1.
        -24    2    1    2    0    0  0.12607620421E+03 -0.65090601965E+02 -0.36358786845E+03  0.39829762657E+03  0.79453543112E+02 0.  0.
        254    2    1    2    0    0 -0.12607620421E+03  0.65090601965E+02  0.11300902789E+04  0.14271136254E+04  0.85989375248E+03 0.  0.
         23    2    4    4    0    0 -0.39129232548E+02  0.44107158223E+03  0.43878456689E+03  0.63021572345E+03  0.92545796483E+02 0.  0.
         23    2    4    4    0    0 -0.86946971665E+02 -0.37598098026E+03  0.69130571205E+03  0.79689790197E+03  0.90670862143E+02 0.  0.
          3    1    3    3  502    0  0.98370524131E+02 -0.56908059391E+02 -0.34666390549E+03  0.36481659860E+03  0.00000000000E+00 0. -1.
         -4    1    3    3    0  502  0.27705680083E+02 -0.81825425742E+01 -0.16923962959E+02  0.33481027972E+02  0.00000000000E+00 0.  1.
         13    1    5    5    0    0 -0.83693068814E+01  0.17592199322E+03  0.11391295192E+03  0.20974926367E+03  0.00000000000E+00 0.  1.
        -13    1    5    5    0    0 -0.30759925667E+02  0.26514958901E+03  0.32487161498E+03  0.42046645977E+03  0.00000000000E+00 0. -1.
          4    1    6    6  503    0 -0.31675380384E+02 -0.28046780612E+03  0.44444881895E+03  0.52649812218E+03  0.00000000000E+00 0. -1.
         -4    1    6    6    0  503 -0.55271591281E+02 -0.95513174148E+02  0.24685689310E+03  0.27039977979E+03  0.00000000000E+00 0.  1.
<mgrwt>
<rscale>  0 0.16566835E+04</rscale>
<asrwt>0</asrwt>
<pdfrwt beam="1">  1        1 0.81454526E-01 0.16566835E+04</pdfrwt>
<pdfrwt beam="2">  1       -2 0.19937797E+00 0.16566835E+04</pdfrwt>
<totfact> 0.45874992E+00</totfact>
</mgrwt>
</event>
<event>
12    5  0.5221187E-008  0.1386696E+04  0.7818608E-02  0.8963505E-01
         -2   -1    0    0    0  501 -0.00000000000E+00  0.00000000000E+00  0.37456880358E+03  0.37456880358E+03  0.00000000000E+00 0.  1.
          1   -1    0    0  501    0  0.00000000000E+00 -0.00000000000E+00 -0.12834265047E+04  0.12834265047E+04  0.00000000000E+00 0. -1.
        -24    2    1    2    0    0 -0.23058579065E+03 -0.20085810298E+03  0.45158964069E+02  0.31711425967E+03  0.70769606988E+02 0.  0.
        254    2    1    2    0    0  0.23058579065E+03  0.20085810298E+03 -0.95401666517E+03  0.13408810486E+04  0.89123532506E+03 0.  0.
         23    2    4    4    0    0  0.46706467005E+03  0.13914303929E+02 -0.90460698951E+03  0.10222079862E+04  0.90842433465E+02 0.  0.
         23    2    4    4    0    0 -0.23647887941E+03  0.18694379905E+03 -0.49409675662E+02  0.31867306238E+03  0.90779734673E+02 0.  0.
          1    1    3    3  502    0 -0.12114945897E+02 -0.40949941661E+02  0.44493749039E+00  0.42706762995E+02  0.00000000000E+00 0. -1.
         -2    1    3    3    0  502 -0.21847084475E+03 -0.15990816132E+03  0.44714026578E+02  0.27440749668E+03  0.00000000000E+00 0.  1.
         13    1    5    5    0    0  0.70860949328E+02 -0.59161014923E+01 -0.79309622046E+02  0.10651896801E+03  0.00000000000E+00 0.  1.
        -13    1    5    5    0    0  0.39620372073E+03  0.19830405421E+02 -0.82529736746E+03  0.91568901819E+03  0.00000000000E+00 0. -1.
          1    1    6    6  503    0 -0.12066776904E+03  0.57611338794E+02  0.12639808599E+02  0.13431136067E+03  0.00000000000E+00 0. -1.
         -1    1    6    6    0  503 -0.11581111036E+03  0.12933246026E+03 -0.62049484261E+02  0.18436170171E+03  0.00000000000E+00 0.  1.
<mgrwt>
<rscale>  0 0.13866961E+04</rscale>
<asrwt>0</asrwt>
<pdfrwt beam="1">  1        1 0.19745024E+00 0.13866961E+04</pdfrwt>
<pdfrwt beam="2">  1       -2 0.57625969E-01 0.13866961E+04</pdfrwt>
<totfact> 0.22445461E+01</totfact>
</mgrwt>
</event>
<event>
12    5  0.5221187E-008  0.1324856E+04  0.7818608E-02  0.9010083E-01
         -2   -1    0    0    0  501 -0.00000000000E+00  0.00000000000E+00  0.25265492613E+03  0.25265492613E+03  0.00000000000E+00 0.  1.
          1   -1    0    0  501    0  0.00000000000E+00 -0.00000000000E+00 -0.17367995565E+04  0.17367995565E+04  0.00000000000E+00 0. -1.
        -24    2    1    2    0    0  0.26666025311E+02  0.29774554040E+03 -0.10678210016E+03  0.32826759527E+03  0.83628424926E+02 0.  0.
        254    2    1    2    0    0 -0.26666025311E+02 -0.29774554040E+03 -0.13773625302E+04  0.16611868873E+04  0.87923310408E+03 0.  0.
         23    2    4    4    0    0 -0.20026415976E+03 -0.22574430860E+03 -0.53008105078E+02  0.32044100142E+03  0.93842152751E+02 0.  0.
         23    2    4    4    0    0  0.17359813445E+03 -0.72001231800E+02 -0.13243544251E+04  0.13407458859E+04  0.91457080612E+02 0.  0.
          3    1    3    3  502    0 -0.23192978712E+02  0.89764295790E+02 -0.56468137342E+02  0.10855502566E+03  0.00000000000E+00 0. -1.
         -4    1    3    3    0  502  0.49859004023E+02  0.20798124461E+03 -0.50313962815E+02  0.21971256962E+03  0.00000000000E+00 0.  1.
         13    1    5    5    0    0 -0.18725115554E+03 -0.22817855858E+03 -0.65370996575E+02  0.30232733426E+03  0.00000000000E+00 0. -1.
        -13    1    5    5    0    0 -0.13013004225E+02  0.24342499730E+01  0.12362891497E+02  0.18113667162E+02  0.00000000000E+00 0.  1.
          2    1    6    6  503    0  0.14782153745E+03 -0.34204558275E+02 -0.11686852393E+04  0.11784932530E+04  0.00000000000E+00 0. -1.
         -2    1    6    6    0  503  0.25776597004E+02 -0.37796673525E+02 -0.15566918578E+03  0.16225263291E+03  0.00000000000E+00 0.  1.
<mgrwt>
<rscale>  0 0.13248562E+04</rscale>
<asrwt>0</asrwt>
<pdfrwt beam="1">  1        1 0.26719993E+00 0.13248562E+04</pdfrwt>
<pdfrwt beam="2">  1       -2 0.38869989E-01 0.13248562E+04</pdfrwt>
<totfact> 0.24226726E+01</totfact>
</mgrwt>
</event>
<event>
12    5  0.5221187E-008  0.1417391E+04  0.7818608E-02  0.8941325E-01
          1   -1    0    0  501    0  0.00000000000E+00  0.00000000000E+00  0.10698246566E+04  0.10698246566E+04  0.00000000000E+00 0. -1.
         -2   -1    0    0    0  501 -0.00000000000E+00 -0.00000000000E+00 -0.46946887208E+03  0.46946887208E+03  0.00000000000E+00 0.  1.
        -24    2    1    2    0    0 -0.23700957545E+02  0.74988247945E+02  0.62732529100E+03  0.63730197813E+03  0.80198615237E+02 0.  0.
        254    2    1    2    0    0  0.23700957545E+02 -0.74988247945E+02 -0.26969506481E+02  0.90199155054E+03  0.89815167441E+03 0.  0.
         23    2    4    4    0    0 -0.27701945455E+03  0.29094723172E+03 -0.68620902847E+02  0.41795394779E+03  0.92663932135E+02 0.  0.
         23    2    4    4    0    0  0.30072041209E+03 -0.36593547967E+03  0.41651396366E+02  0.48403760275E+03  0.90642266792E+02 0.  0.
          1    1    3    3  502    0  0.12919066913E+02  0.14073222251E+02  0.36556592817E+03  0.36606475618E+03  0.00000000000E+00 0. -1.
         -2    1    3    3    0  502 -0.36620024457E+02  0.60915025694E+02  0.26175936282E+03  0.27123722195E+03  0.00000000000E+00 0.  1.
         13    1    5    5    0    0  0.50311339515E+00  0.66457726675E+01 -0.15814432509E+02  0.17161459525E+02  0.00000000000E+00 0. -1.
        -13    1    5    5    0    0 -0.27752256794E+03  0.28430145905E+03 -0.52806470338E+02  0.40079248826E+03  0.00000000000E+00 0.  1.
          4    1    6    6  503    0  0.26990252382E+03 -0.32750701128E+03  0.81579363134E+01  0.42446998331E+03  0.00000000000E+00 0.  1.
         -4    1    6    6    0  503  0.30817888276E+02 -0.38428468384E+02  0.33493460053E+02  0.59567619445E+02  0.00000000000E+00 0. -1.
<mgrwt>
<rscale>  0 0.14173911E+04</rscale>
<asrwt>0</asrwt>
<pdfrwt beam="1">  1        1 0.16458841E+00 0.14173911E+04</pdfrwt>
<pdfrwt beam="2">  1       -2 0.72225981E-01 0.14173911E+04</pdfrwt>
<totfact> 0.19803926E+01</totfact>
</mgrwt>
</event>
<event>
12    5  0.5221187E-008  0.2262476E+04  0.7818608E-02  0.8492865E-01
         -2   -1    0    0    0  501 -0.00000000000E+00  0.00000000000E+00  0.89848983963E+03  0.89848983963E+03  0.00000000000E+00 0.  1.
          1   -1    0    0  501    0  0.00000000000E+00 -0.00000000000E+00 -0.14242780837E+04  0.14242780837E+04  0.00000000000E+00 0. -1.
        -24    2    1    2    0    0 -0.20206868147E+03 -0.57646360748E+03 -0.96796721389E+03  0.11473541986E+04  0.79492686159E+02 0.  0.
        254    2    1    2    0    0  0.20206868147E+03  0.57646360748E+03  0.44217896981E+03  0.11754137247E+04  0.90162804976E+03 0.  0.
         23    2    4    4    0    0  0.77963187601E+02  0.30236457783E+03  0.69750594847E+03  0.77047992962E+03  0.98092697251E+02 0.  0.
         23    2    4    4    0    0  0.12410549387E+03  0.27409902965E+03 -0.25532697866E+03  0.40493379509E+03  0.90813328922E+02 0.  0.
          3    1    3    3  502    0 -0.16021822663E+03 -0.41935887169E+03 -0.64604389742E+03  0.78670481173E+03  0.00000000000E+00 0. -1.
         -4    1    3    3    0  502 -0.41850454846E+02 -0.15710473579E+03 -0.32192331647E+03  0.36064938689E+03  0.00000000000E+00 0.  1.
         13    1    5    5    0    0  0.38204950644E+02  0.72201181554E+02  0.10115637028E+03  0.13002015274E+03  0.00000000000E+00 0.  1.
        -13    1    5    5    0    0  0.39758236957E+02  0.23016339627E+03  0.59634957819E+03  0.64045977688E+03  0.00000000000E+00 0. -1.
          3    1    6    6  503    0  0.85901653715E+02  0.25950266147E+03 -0.21979447209E+03  0.35075680375E+03  0.00000000000E+00 0. -1.
         -3    1    6    6    0  503  0.38203840157E+02  0.14596368182E+02 -0.35532506568E+02  0.54176991333E+02  0.00000000000E+00 0.  1.
<mgrwt>
<rscale>  0 0.22624760E+04</rscale>
<asrwt>0</asrwt>
<pdfrwt beam="1">  1        1 0.21911970E+00 0.22624760E+04</pdfrwt>
<pdfrwt beam="2">  1       -2 0.13822921E+00 0.22624760E+04</pdfrwt>
<totfact> 0.21829918E+00</totfact>
</mgrwt>
</event>
<event>
12    5  0.5221187E-008  0.1875390E+04  0.7818608E-02  0.8667204E-01
         -2   -1    0    0    0  501 -0.00000000000E+00  0.00000000000E+00  0.37612322042E+03  0.37612322042E+03  0.00000000000E+00 0.  1.
          1   -1    0    0  501    0  0.00000000000E+00 -0.00000000000E+00 -0.23377240843E+04  0.23377240843E+04  0.00000000000E+00 0. -1.
        -24    2    1    2    0    0  0.31118166530E+03 -0.17221322957E+03  0.15474265719E+03  0.39641725871E+03  0.81914148916E+02 0.  0.
        254    2    1    2    0    0 -0.31118166530E+03  0.17221322957E+03 -0.21163435211E+04  0.23174300460E+04  0.87468891253E+03 0.  0.
         23    2    4    4    0    0 -0.18440513260E+03 -0.34179359739E+03 -0.75410499598E+03  0.85309941705E+03  0.90973371221E+02 0.  0.
         23    2    4    4    0    0 -0.12677653269E+03  0.51400682697E+03 -0.13622385251E+04  0.14643306290E+04  0.91077353038E+02 0.  0.
          1    1    3    3  502    0  0.10591875773E+03 -0.38708611409E+02  0.13067953900E+02  0.11352493671E+03  0.00000000000E+00 0. -1.
         -2    1    3    3    0  502  0.20526290757E+03 -0.13350461817E+03  0.14167470329E+03  0.28289232200E+03  0.00000000000E+00 0.  1.
         13    1    5    5    0    0 -0.72391598232E+02 -0.10087723993E+03 -0.16192454036E+03  0.20404979246E+03  0.00000000000E+00 0.  1.
        -13    1    5    5    0    0 -0.11201353437E+03 -0.24091635746E+03 -0.59218045562E+03  0.64904962460E+03  0.00000000000E+00 0. -1.
          2    1    6    6  503    0 -0.24130532134E+02  0.14983669351E+03 -0.50486630779E+03  0.52718431885E+03  0.00000000000E+00 0.  1.
         -2    1    6    6    0  503 -0.10264600056E+03  0.36417013346E+03 -0.85737221730E+03  0.93714631010E+03  0.00000000000E+00 0. -1.
<mgrwt>
<rscale>  0 0.18753904E+04</rscale>
<asrwt>0</asrwt>
<pdfrwt beam="1">  1        1 0.35964985E+00 0.18753904E+04</pdfrwt>
<pdfrwt beam="2">  1       -2 0.57865112E-01 0.18753904E+04</pdfrwt>
<totfact> 0.40386004E+00</totfact>
</mgrwt>
</event>
<event>
12    5  0.5221187E-008  0.1664428E+04  0.7818608E-02  0.8781917E-01
          1   -1    0    0  501    0  0.00000000000E+00  0.00000000000E+00  0.84575235995E+03  0.84575235995E+03  0.00000000000E+00 0. -1.
         -2   -1    0    0    0  501 -0.00000000000E+00 -0.00000000000E+00 -0.81889205321E+03  0.81889205321E+03  0.00000000000E+00 0.  1.
        -24    2    1    2    0    0  0.43099152235E+03  0.25955688974E+03  0.31552352105E+03  0.59821901657E+03  0.72023802312E+02 0.  0.
        254    2    1    2    0    0 -0.43099152235E+03 -0.25955688974E+03 -0.28866321431E+03  0.10664253966E+04  0.89488167030E+03 0.  0.
         23    2    4    4    0    0 -0.40752441854E+03 -0.55525232834E+03 -0.95851052050E+02  0.70149312225E+03  0.92324842523E+02 0.  0.
         23    2    4    4    0    0 -0.23467103813E+02  0.29569543860E+03 -0.19281216226E+03  0.36493227434E+03  0.89512778823E+02 0.  0.
          1    1    3    3  502    0  0.24876164645E+03  0.17096134063E+03  0.15265108728E+03  0.33824915548E+03  0.00000000000E+00 0. -1.
         -2    1    3    3    0  502  0.18222987591E+03  0.88595549109E+02  0.16287243377E+03  0.25996986109E+03  0.00000000000E+00 0.  1.
         13    1    5    5    0    0 -0.87339107786E+02 -0.18079876432E+03 -0.48346260458E+02  0.20652765875E+03  0.00000000000E+00 0. -1.
        -13    1    5    5    0    0 -0.32018531076E+03 -0.37445356402E+03 -0.47504791591E+02  0.49496546349E+03  0.00000000000E+00 0.  1.
          4    1    6    6  503    0 -0.24143457480E+02  0.15516310008E+03 -0.50561277183E+02  0.16496950298E+03  0.00000000000E+00 0. -1.
         -4    1    6    6    0  503  0.67635366687E+00  0.14053233852E+03 -0.14225088507E+03  0.19996277136E+03  0.00000000000E+00 0.  1.
<mgrwt>
<rscale>  0 0.16644277E+04</rscale>
<asrwt>0</asrwt>
<pdfrwt beam="1">  1        1 0.13011575E+00 0.16644277E+04</pdfrwt>
<pdfrwt beam="2">  1       -2 0.12598339E+00 0.16644277E+04</pdfrwt>
<totfact> 0.79378015E+00</totfact>
</mgrwt>
</event>
<event>
12    5  0.5221187E-008  0.1315952E+04  0.7818608E-02  0.9017010E-01
         -4   -1    0    0    0  501 -0.00000000000E+00  0.00000000000E+00  0.46576990252E+03  0.46576990252E+03  0.00000000000E+00 0.  1.
          3   -1    0    0  501    0  0.00000000000E+00 -0.00000000000E+00 -0.92949797969E+03  0.92949797969E+03  0.00000000000E+00 0. -1.
        -24    2    1    2    0    0 -0.11476845444E+03 -0.22319628153E+03 -0.37481945655E+03  0.45807628997E+03  0.79723799460E+02 0.  0.
        254    2    1    2    0    0  0.11476845444E+03  0.22319628153E+03 -0.88908620629E+02  0.93719159224E+03  0.89857384757E+03 0.  0.
         23    2    4    4    0    0 -0.36651796644E+03  0.21617839306E+03 -0.10250680167E+03  0.44685546342E+03  0.90020239133E+02 0.  0.
         23    2    4    4    0    0  0.48128642088E+03  0.70178884672E+01  0.13598181041E+02  0.49033612882E+03  0.92513453199E+02 0.  0.
          3    1    3    3  502    0 -0.64702389039E+02 -0.18250066577E+03 -0.31689731131E+03  0.37137150950E+03  0.00000000000E+00 0. -1.
         -4    1    3    3    0  502 -0.50066065401E+02 -0.40695615754E+02 -0.57922145241E+02  0.86704780466E+02  0.00000000000E+00 0.  1.
         13    1    5    5    0    0 -0.28241776394E+03  0.20620745201E+03 -0.73432092628E+02  0.35731439781E+03  0.00000000000E+00 0.  1.
        -13    1    5    5    0    0 -0.84100202493E+02  0.99709410511E+01 -0.29074709042E+02  0.89541065611E+02  0.00000000000E+00 0. -1.
          3    1    6    6  503    0  0.36874371283E+02  0.21689276869E+02 -0.13492567143E+02  0.44857478270E+02  0.00000000000E+00 0. -1.
         -3    1    6    6    0  503  0.44441204959E+03 -0.14671388402E+02  0.27090748183E+02  0.44547865055E+03  0.00000000000E+00 0.  1.
<mgrwt>
<rscale>  0 0.13159516E+04</rscale>
<asrwt>0</asrwt>
<pdfrwt beam="1">  1        3 0.14299969E+00 0.13159516E+04</pdfrwt>
<pdfrwt beam="2">  1       -4 0.71656909E-01 0.13159516E+04</pdfrwt>
<totfact> 0.14581166E+00</totfact>
</mgrwt>
</event>
<event>
12    5  0.5221187E-008  0.1750841E+04  0.7818608E-02  0.8732888E-01
         -2   -1    0    0    0  501 -0.00000000000E+00  0.00000000000E+00  0.11653077382E+04  0.11653077382E+04  0.00000000000E+00 0.  1.
          1   -1    0    0  501    0  0.00000000000E+00 -0.00000000000E+00 -0.65764660399E+03  0.65764660399E+03  0.00000000000E+00 0. -1.
        -24    2    1    2    0    0  0.35737001395E+03 -0.18435565605E+03 -0.32791144443E+03  0.52657898187E+03  0.89772902187E+02 0.  0.
        254    2    1    2    0    0 -0.35737001395E+03  0.18435565605E+03  0.83557257868E+03  0.12963753604E+04  0.90592891881E+03 0.  0.
         23    2    4    4    0    0 -0.26731896349E+03  0.37997198063E+03  0.93071316237E+03  0.10442706473E+04  0.91848026444E+02 0.  0.
         23    2    4    4    0    0 -0.90051050459E+02 -0.19561632458E+03 -0.95140583690E+02  0.25210471304E+03  0.90167164411E+02 0.  0.
          3    1    3    3  502    0  0.21439951380E+03 -0.92082160065E+02 -0.24121195485E+03  0.33560316280E+03  0.00000000000E+00 0. -1.
         -4    1    3    3    0  502  0.14297050015E+03 -0.92273495987E+02 -0.86699489585E+02  0.19097581907E+03  0.00000000000E+00 0.  1.
         13    1    5    5    0    0  0.56254623706E+01  0.11408554844E+01  0.20452732277E+02  0.21242919661E+02  0.00000000000E+00 0.  1.
        -13    1    5    5    0    0 -0.27294442586E+03  0.37883112515E+03  0.91026043010E+03  0.10230277277E+04  0.00000000000E+00 0. -1.
          1    1    6    6  503    0 -0.90077401592E+02 -0.20465267411E+03 -0.86955114731E+02  0.23991216575E+03  0.00000000000E+00 0. -1.
         -1    1    6    6    0  503  0.26351132803E-01  0.90363495280E+01 -0.81854689587E+01  0.12192547283E+02  0.00000000000E+00 0.  1.
<mgrwt>
<rscale>  0 0.17508406E+04</rscale>
<asrwt>0</asrwt>
<pdfrwt beam="1">  1        1 0.10117640E+00 0.17508406E+04</pdfrwt>
<pdfrwt beam="2">  1       -2 0.17927811E+00 0.17508406E+04</pdfrwt>
<totfact> 0.45513222E+00</totfact>
</mgrwt>
</event>
<event>
12    5  0.5221187E-008  0.1491145E+04  0.7818608E-02  0.8890363E-01
          1   -1    0    0  501    0  0.00000000000E+00  0.00000000000E+00  0.20329006058E+03  0.20329006058E+03  0.00000000000E+00 0. -1.
         -2   -1    0    0    0  501 -0.00000000000E+00 -0.00000000000E+00 -0.27344109696E+04  0.27344109696E+04  0.00000000000E+00 0.  1.
        -24    2    1    2    0    0  0.21305119636E+03 -0.20539344419E+03 -0.94654025185E+02  0.32028811391E+03  0.77767681230E+02 0.  0.
        254    2    1    2    0    0 -0.21305119636E+03  0.20539344419E+03 -0.24364668838E+04  0.26174129163E+04  0.90934164042E+03 0.  0.
         23    2    4    4    0    0  0.57685130629E+02 -0.21708799732E+02  0.38415848101E+02  0.11577981905E+03  0.90168413725E+02 0.  0.
         23    2    4    4    0    0 -0.27073632699E+03  0.22710224392E+03 -0.24748827319E+04  0.25016330972E+04  0.90829666193E+02 0.  0.
          3    1    3    3  502    0  0.19752332888E+03 -0.17704296808E+03 -0.58194330811E+02  0.27156262286E+03  0.00000000000E+00 0. -1.
         -4    1    3    3    0  502  0.15527867481E+02 -0.28350476109E+02 -0.36459694374E+02  0.48725491049E+02  0.00000000000E+00 0.  1.
         13    1    5    5    0    0  0.50515032772E+02 -0.21793300588E+01  0.64792377210E+02  0.82186192028E+02  0.00000000000E+00 0.  1.
        -13    1    5    5    0    0  0.71700978575E+01 -0.19529469673E+02 -0.26376529110E+02  0.33593627027E+02  0.00000000000E+00 0. -1.
          3    1    6    6  503    0 -0.58208073696E+02  0.24089607207E+02 -0.67251052776E+03  0.67545458690E+03  0.00000000000E+00 0. -1.
         -3    1    6    6    0  503 -0.21252825329E+03  0.20301263671E+03 -0.18023722042E+04  0.18261785103E+04  0.00000000000E+00 0.  1.
<mgrwt>
<rscale>  0 0.14911453E+04</rscale>
<asrwt>0</asrwt>
<pdfrwt beam="1">  1        1 0.31275394E-01 0.14911453E+04</pdfrwt>
<pdfrwt beam="2">  1       -2 0.42067861E+00 0.14911453E+04</pdfrwt>
<totfact> 0.67407556E-01</totfact>
</mgrwt>
</event>
<event>
12    5  0.5221187E-008  0.1890540E+04  0.7818608E-02  0.8659580E-01
         -2   -1    0    0    0  501 -0.00000000000E+00  0.00000000000E+00  0.38071246011E+03  0.38071246011E+03  0.00000000000E+00 0.  1.
          1   -1    0    0  501    0  0.00000000000E+00 -0.00000000000E+00 -0.23470077804E+04  0.23470077804E+04  0.00000000000E+00 0. -1.
        -24    2    1    2    0    0 -0.10882634209E+03  0.14169084054E+03  0.21534035636E+03  0.29146614417E+03  0.81618485010E+02 0.  0.
        254    2    1    2    0    0  0.10882634209E+03 -0.14169084054E+03 -0.21816356767E+04  0.24362540964E+04  0.10695234122E+04 0.  0.
         23    2    4    4    0    0  0.16813999842E+03  0.30490682878E+03 -0.18088677812E+04  0.18443599664E+04  0.91770379989E+02 0.  0.
         23    2    4    4    0    0 -0.59313656331E+02 -0.44659766932E+03 -0.37276789552E+03  0.59189412997E+03  0.91734230778E+02 0.  0.
          1    1    3    3  502    0  0.96315555816E+01  0.37185105006E+02  0.39789182967E+02  0.55305316005E+02  0.00000000000E+00 0. -1.
         -2    1    3    3    0  502 -0.11845789768E+03  0.10450573553E+03  0.17555117339E+03  0.23616082816E+03  0.00000000000E+00 0.  1.
         13    1    5    5    0    0  0.17231713394E+03  0.27008587618E+03 -0.15217736026E+04  0.15551316577E+04  0.00000000000E+00 0. -1.
        -13    1    5    5    0    0 -0.41771355183E+01  0.34820952599E+02 -0.28709417854E+03  0.28922830870E+03  0.00000000000E+00 0.  1.
          2    1    6    6  503    0 -0.43341557514E+02 -0.86795275802E+02 -0.54576926836E+02  0.11131285394E+03  0.00000000000E+00 0. -1.
         -2    1    6    6    0  503 -0.15972098817E+02 -0.35980239352E+03 -0.31819096868E+03  0.48058127603E+03  0.00000000000E+00 0.  1.
<mgrwt>
<rscale>  0 0.18905397E+04</rscale>
<asrwt>0</asrwt>
<pdfrwt beam="1">  1        1 0.36107811E+00 0.18905397E+04</pdfrwt>
<pdfrwt beam="2">  1       -2 0.58571149E-01 0.18905397E+04</pdfrwt>
<totfact> 0.38744735E+00</totfact>
</mgrwt>
</event>
<event>
12    5  0.5221187E-008  0.1487333E+04  0.7818608E-02  0.8892920E-01
         -2   -1    0    0    0  501 -0.00000000000E+00  0.00000000000E+00  0.27567733359E+03  0.27567733359E+03  0.00000000000E+00 0.  1.
          1   -1    0    0  501    0  0.00000000000E+00 -0.00000000000E+00 -0.20061138432E+04  0.20061138432E+04  0.00000000000E+00 0. -1.
        -24    2    1    2    0    0  0.33513340283E+02 -0.42696439205E+03 -0.82073587708E+03  0.92911161113E+03  0.78862348096E+02 0.  0.
        254    2    1    2    0    0 -0.33513340283E+02  0.42696439205E+03 -0.90970063251E+03  0.13526795656E+04  0.90485635903E+03 0.  0.
         23    2    4    4    0    0 -0.34809335493E+03 -0.10302448209E+03 -0.28498265930E+03  0.46968926187E+03  0.87234505539E+02 0.  0.
         23    2    4    4    0    0  0.31458001465E+03  0.52998887415E+03 -0.62471797321E+03  0.88299030377E+03  0.97726854934E+02 0.  0.
          3    1    3    3  502    0 -0.16008039992E+02 -0.76302730510E+02 -0.10751349232E+03  0.13280630655E+03  0.00000000000E+00 0. -1.
         -4    1    3    3    0  502  0.49521380275E+02 -0.35066166154E+03 -0.71322238477E+03  0.79630530458E+03  0.00000000000E+00 0.  1.
         13    1    5    5    0    0 -0.23885566516E+03 -0.31977309665E+02 -0.20801234806E+03  0.31834527491E+03  0.00000000000E+00 0.  1.
        -13    1    5    5    0    0 -0.10923768977E+03 -0.71047172430E+02 -0.76970311246E+02  0.15134398696E+03  0.00000000000E+00 0. -1.
          1    1    6    6  503    0  0.15825106278E+02  0.93620331815E+02 -0.10386503942E+03  0.14072365449E+03  0.00000000000E+00 0. -1.
         -1    1    6    6    0  503  0.29875490837E+03  0.43636854233E+03 -0.52085293378E+03  0.74226664928E+03  0.00000000000E+00 0.  1.
<mgrwt>
<rscale>  0 0.14873333E+04</rscale>
<asrwt>0</asrwt>
<pdfrwt beam="1">  1        1 0.30863289E+00 0.14873333E+04</pdfrwt>
<pdfrwt beam="2">  1       -2 0.42411898E-01 0.14873333E+04</pdfrwt>
<totfact> 0.13231716E+01</totfact>
</mgrwt>
</event>
<event>
12    5  0.5221187E-008  0.1211174E+04  0.7818608E-02  0.9103132E-01
          1   -1    0    0  501    0  0.00000000000E+00  0.00000000000E+00  0.51865499020E+03  0.51865499020E+03  0.00000000000E+00 0. -1.
         -2   -1    0    0    0  501 -0.00000000000E+00 -0.00000000000E+00 -0.70709012580E+03  0.70709012580E+03  0.00000000000E+00 0.  1.
        -24    2    1    2    0    0  0.42518671293E+02  0.95977524316E+01 -0.30370789807E+03  0.31709705800E+03  0.80075605417E+02 0.  0.
        254    2    1    2    0    0 -0.42518671293E+02 -0.95977524316E+01  0.11527276247E+03  0.90864805799E+03  0.90025192545E+03 0.  0.
         23    2    4    4    0    0 -0.29618163482E+03  0.25933086310E+03  0.28247573577E+03  0.49272699560E+03  0.89505829580E+02 0.  0.
         23    2    4    4    0    0  0.25366296352E+03 -0.26892861554E+03 -0.16720297331E+03  0.41592106240E+03  0.91465821730E+02 0.  0.
          3    1    3    3  502    0  0.28541293103E+02 -0.28008309281E+02 -0.75963733663E+02  0.85846139301E+02  0.00000000000E+00 0. -1.
         -4    1    3    3    0  502  0.13977378189E+02  0.37606061712E+02 -0.22774416441E+03  0.23125091870E+03  0.00000000000E+00 0.  1.
         13    1    5    5    0    0 -0.18587962597E+02  0.31407686209E+02  0.11896739205E+01  0.36515345138E+02  0.00000000000E+00 0. -1.
        -13    1    5    5    0    0 -0.27759367222E+03  0.22792317690E+03  0.28128606185E+03  0.45621165046E+03  0.00000000000E+00 0.  1.
          1    1    6    6  503    0  0.11802295659E+03 -0.14942291826E+03 -0.13215545134E+03  0.23177939965E+03  0.00000000000E+00 0. -1.
         -1    1    6    6    0  503  0.13564000694E+03 -0.11950569728E+03 -0.35047521965E+02  0.18414166275E+03  0.00000000000E+00 0.  1.
<mgrwt>
<rscale>  0 0.12111743E+04</rscale>
<asrwt>0</asrwt>
<pdfrwt beam="1">  1        1 0.79793075E-01 0.12111743E+04</pdfrwt>
<pdfrwt beam="2">  1       -2 0.10878310E+00 0.12111743E+04</pdfrwt>
<totfact> 0.24590154E+01</totfact>
</mgrwt>
</event>
<event>
12    5  0.5221187E-008  0.2738579E+04  0.7818608E-02  0.8322595E-01
          1   -1    0    0  501    0  0.00000000000E+00  0.00000000000E+00  0.19549329499E+04  0.19549329499E+04  0.00000000000E+00 0. -1.
         -2   -1    0    0    0  501 -0.00000000000E+00 -0.00000000000E+00 -0.95908817740E+03  0.95908817740E+03  0.00000000000E+00 0.  1.
        -24    2    1    2    0    0  0.26616686594E+03 -0.52125694009E+03  0.15825641198E+04  0.16889227595E+04  0.73466291911E+02 0.  0.
        254    2    1    2    0    0 -0.26616686594E+03  0.52125694009E+03 -0.58671934735E+03  0.12250983678E+04  0.90225984067E+03 0.  0.
         23    2    4    4    0    0 -0.12087736806E+03  0.49879126990E+02 -0.69398695209E+03  0.71209649187E+03  0.91456320918E+02 0.  0.
         23    2    4    4    0    0 -0.14528949788E+03  0.47137781310E+03  0.10726760474E+03  0.51300187592E+03  0.91424858736E+02 0.  0.
          3    1    3    3  502    0  0.16711397758E+03 -0.24680110047E+03  0.79069376494E+03  0.84500561809E+03  0.00000000000E+00 0. -1.
         -4    1    3    3    0  502  0.99052888355E+02 -0.27445583962E+03  0.79187035491E+03  0.84391714142E+03  0.00000000000E+00 0.  1.
         13    1    5    5    0    0 -0.67355593962E+01 -0.69065109291E+01 -0.24954111870E+03  0.24972752667E+03  0.00000000000E+00 0.  1.
        -13    1    5    5    0    0 -0.11414180866E+03  0.56785637919E+02 -0.44444583339E+03  0.46236896519E+03  0.00000000000E+00 0. -1.
          1    1    6    6  503    0 -0.62434299802E+02  0.27046705213E+03  0.10164336991E+03  0.29560419944E+03  0.00000000000E+00 0. -1.
         -1    1    6    6    0  503 -0.82855198076E+02  0.20091076097E+03  0.56242348302E+01  0.21739767648E+03  0.00000000000E+00 0.  1.
<mgrwt>
<rscale>  0 0.27385785E+04</rscale>
<asrwt>0</asrwt>
<pdfrwt beam="1">  1        1 0.30075891E+00 0.27385785E+04</pdfrwt>
<pdfrwt beam="2">  1       -2 0.14755203E+00 0.27385785E+04</pdfrwt>
<totfact> 0.76542112E-01</totfact>
</mgrwt>
</event>
<event>
12    5  0.5221187E-008  0.1248174E+04  0.7818608E-02  0.9071704E-01
          1   -1    0    0  501    0  0.00000000000E+00  0.00000000000E+00  0.17200863942E+04  0.17200863942E+04  0.00000000000E+00 0. -1.
         -2   -1    0    0    0  501 -0.00000000000E+00 -0.00000000000E+00 -0.22643327518E+03  0.22643327518E+03  0.00000000000E+00 0.  1.
        -24    2    1    2    0    0  0.22408000302E+03 -0.10376276195E+02  0.61514101393E+03  0.65946922558E+03  0.78623645360E+02 0.  0.
        254    2    1    2    0    0 -0.22408000302E+03  0.10376276195E+02  0.87851210506E+03  0.12870504438E+04  0.91345268691E+03 0.  0.
         23    2    4    4    0    0  0.24870759818E+03 -0.20157084833E+02  0.73849833756E+03  0.78450692087E+03  0.88371583953E+02 0.  0.
         23    2    4    4    0    0 -0.47278760120E+03  0.30533361028E+02  0.14001376750E+03  0.50254352291E+03  0.92118051142E+02 0.  0.
          3    1    3    3  502    0  0.41884261217E+02 -0.98200907884E+00  0.22385961275E+03  0.22774631039E+03  0.00000000000E+00 0. -1.
         -4    1    3    3    0  502  0.18219574180E+03 -0.93942671162E+01  0.39128140119E+03  0.43172291519E+03  0.00000000000E+00 0.  1.
         13    1    5    5    0    0  0.15014746281E+02  0.89459127408E+00  0.75668022548E+01  0.16837440298E+02  0.00000000000E+00 0.  1.
        -13    1    5    5    0    0  0.23369285190E+03 -0.21051676107E+02  0.73093153531E+03  0.76766948057E+03  0.00000000000E+00 0. -1.
          2    1    6    6  503    0 -0.22832880784E+03  0.42354967431E+02  0.10662330977E+03  0.25553183352E+03  0.00000000000E+00 0. -1.
         -2    1    6    6    0  503 -0.24445879336E+03 -0.11821606403E+02  0.33390457735E+02  0.24701168939E+03  0.00000000000E+00 0.  1.
<mgrwt>
<rscale>  0 0.12481743E+04</rscale>
<asrwt>0</asrwt>
<pdfrwt beam="1">  1        1 0.26462867E+00 0.12481743E+04</pdfrwt>
<pdfrwt beam="2">  1       -2 0.34835890E-01 0.12481743E+04</pdfrwt>
<totfact> 0.30911825E+01</totfact>
</mgrwt>
</event>
<event>
12    5  0.5221187E-008  0.2145346E+04  0.7818608E-02  0.8541527E-01
          1   -1    0    0  501    0  0.00000000000E+00  0.00000000000E+00  0.24855360224E+04  0.24855360224E+04  0.00000000000E+00 0. -1.
         -2   -1    0    0    0  501 -0.00000000000E+00 -0.00000000000E+00 -0.46292939732E+03  0.46292939732E+03  0.00000000000E+00 0.  1.
        -24    2    1    2    0    0 -0.38603217881E+03 -0.76747472039E+03  0.10382521859E+04  0.13499294942E+04  0.79396147664E+02 0.  0.
        254    2    1    2    0    0  0.38603217881E+03  0.76747472039E+03  0.98435443918E+03  0.15985359255E+04  0.92104568493E+03 0.  0.
         23    2    4    4    0    0  0.25699661992E+03 -0.15485398565E+03  0.16684598851E+03  0.35587891807E+03  0.93729402674E+02 0.  0.
         23    2    4    4    0    0  0.12903555889E+03  0.92232870604E+03  0.81750845066E+03  0.12426570074E+04  0.92390225652E+02 0.  0.
          3    1    3    3  502    0 -0.13034553657E+03 -0.23541229675E+03  0.38177418595E+03  0.46707647920E+03  0.00000000000E+00 0. -1.
         -4    1    3    3    0  502 -0.25568664224E+03 -0.53206242364E+03  0.65647799993E+03  0.88285301498E+03  0.00000000000E+00 0.  1.
         13    1    5    5    0    0  0.26235167313E+03 -0.14355426284E+03  0.14908992258E+03  0.33416168510E+03  0.00000000000E+00 0. -1.
        -13    1    5    5    0    0 -0.53550532158E+01 -0.11299722806E+02  0.17756065933E+02  0.21717232970E+02  0.00000000000E+00 0.  1.
          3    1    6    6  503    0  0.13238106079E+03  0.67716207171E+03  0.62420169359E+03  0.93043052986E+03  0.00000000000E+00 0. -1.
         -3    1    6    6    0  503 -0.33455019040E+01  0.24516663433E+03  0.19330675707E+03  0.31222647758E+03  0.00000000000E+00 0.  1.
<mgrwt>
<rscale>  0 0.21453463E+04</rscale>
<asrwt>0</asrwt>
<pdfrwt beam="1">  1        1 0.38239015E+00 0.21453463E+04</pdfrwt>
<pdfrwt beam="2">  1       -2 0.71219909E-01 0.21453463E+04</pdfrwt>
<totfact> 0.19976792E+00</totfact>
</mgrwt>
</event>
<event>
12    5  0.5221187E-008  0.1665706E+04  0.7818608E-02  0.8781169E-01
         -2   -1    0    0    0  501 -0.00000000000E+00  0.00000000000E+00  0.29232883396E+04  0.29232883396E+04  0.00000000000E+00 0.  1.
          1   -1    0    0  501    0  0.00000000000E+00 -0.00000000000E+00 -0.23728207471E+03  0.23728207471E+03  0.00000000000E+00 0. -1.
        -24    2    1    2    0    0 -0.24595094441E+03  0.49499342096E+03  0.57418502366E+03  0.80098486410E+03  0.79862114061E+02 0.  0.
        254    2    1    2    0    0  0.24595094441E+03 -0.49499342096E+03  0.21118212412E+04  0.23595855502E+04  0.89573693682E+03 0.  0.
         23    2    4    4    0    0  0.99495443560E+01 -0.34635146534E+03  0.20207928930E+04  0.20523418361E+04  0.91895402028E+02 0.  0.
         23    2    4    4    0    0  0.23600140006E+03 -0.14864195562E+03  0.91028348252E+02  0.30724371411E+03  0.91221970354E+02 0.  0.
          3    1    3    3  502    0 -0.21122686475E+03  0.34845135853E+03  0.40566767797E+03  0.57497948016E+03  0.00000000000E+00 0. -1.
         -4    1    3    3    0  502 -0.34724079662E+02  0.14654206244E+03  0.16851734569E+03  0.22600538394E+03  0.00000000000E+00 0.  1.
         13    1    5    5    0    0 -0.12025226264E+02 -0.14310310806E+03  0.60173781259E+03  0.61863680839E+03  0.00000000000E+00 0. -1.
        -13    1    5    5    0    0  0.21974770620E+02 -0.20324835728E+03  0.14190550804E+04  0.14337050277E+04  0.00000000000E+00 0.  1.
          1    1    6    6  503    0  0.55545904316E+02  0.27227270202E+01  0.33007188304E+02  0.64670203405E+02  0.00000000000E+00 0. -1.
         -1    1    6    6    0  503  0.18045549574E+03 -0.15136468264E+03  0.58021159948E+02  0.24257351071E+03  0.00000000000E+00 0.  1.
<mgrwt>
<rscale>  0 0.16657058E+04</rscale>
<asrwt>0</asrwt>
<pdfrwt beam="1">  1        1 0.36504937E-01 0.16657058E+04</pdfrwt>
<pdfrwt beam="2">  1       -2 0.44973664E+00 0.16657058E+04</pdfrwt>
<totfact> 0.34757606E-01</totfact>
</mgrwt>
</event>
<event>
12    5  0.5221187E-008  0.1835661E+04  0.7818608E-02  0.8687562E-01
         -2   -1    0    0    0  501 -0.00000000000E+00  0.00000000000E+00  0.54029603422E+03  0.54029603422E+03  0.00000000000E+00 0.  1.
          1   -1    0    0  501    0  0.00000000000E+00 -0.00000000000E+00 -0.15591688315E+04  0.15591688315E+04  0.00000000000E+00 0. -1.
        -24    2    1    2    0    0  0.30361783659E+02 -0.68477032315E+03 -0.49136480696E+03  0.84717028912E+03  0.80161660902E+02 0.  0.
        254    2    1    2    0    0 -0.30361783659E+02  0.68477032315E+03 -0.52750799034E+03  0.12522945766E+04  0.90561845906E+03 0.  0.
         23    2    4    4    0    0 -0.40058956508E+03  0.37396399822E+03 -0.35009268654E+02  0.55649958334E+03  0.90250017965E+02 0.  0.
         23    2    4    4    0    0  0.37022778142E+03  0.31080632492E+03 -0.49249872168E+03  0.69579499328E+03  0.88918502394E+02 0.  0.
          1    1    3    3  502    0  0.57248372171E+01 -0.34162220906E+03 -0.29267316219E+03  0.44988452668E+03  0.00000000000E+00 0. -1.
         -2    1    3    3    0  502  0.24636946442E+02 -0.34314811409E+03 -0.19869164477E+03  0.39728576243E+03  0.00000000000E+00 0.  1.
         13    1    5    5    0    0 -0.10402178249E+03  0.47555834102E+02 -0.62798663532E+01  0.11454922659E+03  0.00000000000E+00 0.  1.
        -13    1    5    5    0    0 -0.29656778259E+03  0.32640816412E+03 -0.28729402301E+02  0.44195035675E+03  0.00000000000E+00 0. -1.
          3    1    6    6  503    0  0.32361769372E+03  0.22611863129E+03 -0.39945878384E+03  0.56162742730E+03  0.00000000000E+00 0. -1.
         -3    1    6    6    0  503  0.46610087700E+02  0.84687693632E+02 -0.93039937843E+02  0.13416756598E+03  0.00000000000E+00 0.  1.
<mgrwt>
<rscale>  0 0.18356609E+04</rscale>
<asrwt>0</asrwt>
<pdfrwt beam="1">  1        1 0.23987213E+00 0.18356609E+04</pdfrwt>
<pdfrwt beam="2">  1       -2 0.83122468E-01 0.18356609E+04</pdfrwt>
<totfact> 0.62310771E+00</totfact>
</mgrwt>
</event>
<event>
12    5  0.5221187E-008  0.2510438E+04  0.7818608E-02  0.8399276E-01
          1   -1    0    0  501    0  0.00000000000E+00  0.00000000000E+00  0.11760281307E+04  0.11760281307E+04  0.00000000000E+00 0. -1.
         -2   -1    0    0    0  501 -0.00000000000E+00 -0.00000000000E+00 -0.13397429203E+04  0.13397429203E+04  0.00000000000E+00 0.  1.
        -24    2    1    2    0    0  0.57008094229E+03 -0.80576891610E+02 -0.99090896700E+03  0.11485931152E+04  0.76685378009E+02 0.  0.
        254    2    1    2    0    0 -0.57008094229E+03  0.80576891610E+02  0.82719417739E+03  0.13671779358E+04  0.92381837217E+03 0.  0.
         23    2    4    4    0    0 -0.19419551977E+03  0.23150300756E+03  0.89378835559E+03  0.94770418879E+03  0.89331195335E+02 0.  0.
         23    2    4    4    0    0 -0.37588542252E+03 -0.15092611595E+03 -0.66594178196E+02  0.41947374699E+03  0.86341742530E+02 0.  0.
          1    1    3    3  502    0  0.33569647971E+03 -0.23397249670E+02 -0.51817716201E+03  0.61785688392E+03  0.00000000000E+00 0. -1.
         -2    1    3    3    0  502  0.23438446259E+03 -0.57179641940E+02 -0.47273180499E+03  0.53073623129E+03  0.00000000000E+00 0.  1.
         13    1    5    5    0    0  0.53268560664E+01 -0.36459507558E+01  0.24420619333E+02  0.25259354724E+02  0.00000000000E+00 0.  1.
        -13    1    5    5    0    0 -0.19952237584E+03  0.23514895832E+03  0.86936773626E+03  0.92244483407E+03  0.00000000000E+00 0. -1.
          4    1    6    6  503    0 -0.63718617043E+02 -0.55701920751E+02 -0.34985277628E+02  0.91579123079E+02  0.00000000000E+00 0.  1.
         -4    1    6    6    0  503 -0.31216680548E+03 -0.95224195203E+02 -0.31608900568E+02  0.32789462391E+03  0.00000000000E+00 0. -1.
<mgrwt>
<rscale>  0 0.25104385E+04</rscale>
<asrwt>0</asrwt>
<pdfrwt beam="1">  1        1 0.18092741E+00 0.25104385E+04</pdfrwt>
<pdfrwt beam="2">  1       -2 0.20611429E+00 0.25104385E+04</pdfrwt>
<totfact> 0.10513635E+00</totfact>
</mgrwt>
</event>
<event>
12    5  0.5221187E-008  0.1452363E+04  0.7818608E-02  0.8916764E-01
          1   -1    0    0  501    0  0.00000000000E+00  0.00000000000E+00  0.16393853790E+04  0.16393853790E+04  0.00000000000E+00 0. -1.
         -2   -1    0    0    0  501 -0.00000000000E+00 -0.00000000000E+00 -0.32166910160E+03  0.32166910160E+03  0.00000000000E+00 0.  1.
        -24    2    1    2    0    0 -0.27742058707E+03 -0.34560889943E+03  0.33246165113E+03  0.55981613021E+03  0.80347101251E+02 0.  0.
        254    2    1    2    0    0  0.27742058707E+03  0.34560889943E+03  0.98525462622E+03  0.14012383504E+04  0.89237578548E+03 0.  0.
         23    2    4    4    0    0 -0.27819566291E+03  0.29755675653E+03  0.30501718580E+03  0.51699936630E+03  0.91214093808E+02 0.  0.
         23    2    4    4    0    0  0.55561624998E+03  0.48052142900E+02  0.68023744043E+03  0.88423898405E+03  0.90206318396E+02 0.  0.
          1    1    3    3  502    0 -0.33137008500E+02 -0.56691530364E+02  0.18652269147E+02  0.68263446233E+02  0.00000000000E+00 0. -1.
         -2    1    3    3    0  502 -0.24428357857E+03 -0.28891736906E+03  0.31380938198E+03  0.49155268398E+03  0.00000000000E+00 0.  1.
         13    1    5    5    0    0 -0.84062388216E+02  0.12845306887E+03  0.15901404354E+03  0.22102520684E+03  0.00000000000E+00 0.  1.
        -13    1    5    5    0    0 -0.19413327469E+03  0.16910368765E+03  0.14600314226E+03  0.29597415946E+03  0.00000000000E+00 0. -1.
          1    1    6    6  503    0  0.37109409854E+03  0.51357486577E+01  0.39673490215E+03  0.54326401360E+03  0.00000000000E+00 0. -1.
         -1    1    6    6    0  503  0.18452215144E+03  0.42916394242E+02  0.28350253827E+03  0.34097497045E+03  0.00000000000E+00 0.  1.
<mgrwt>
<rscale>  0 0.14523631E+04</rscale>
<asrwt>0</asrwt>
<pdfrwt beam="1">  1        1 0.25221313E+00 0.14523631E+04</pdfrwt>
<pdfrwt beam="2">  1       -2 0.49487555E-01 0.14523631E+04</pdfrwt>
<totfact> 0.17270187E+01</totfact>
</mgrwt>
</event>
<event>
12    5  0.5221187E-008  0.1678297E+04  0.7818608E-02  0.8773840E-01
          1   -1    0    0  501    0  0.00000000000E+00  0.00000000000E+00  0.11283865128E+04  0.11283865128E+04  0.00000000000E+00 0. -1.
         -4   -1    0    0    0  501 -0.00000000000E+00 -0.00000000000E+00 -0.62405057946E+03  0.62405057946E+03  0.00000000000E+00 0.  1.
        -24    2    1    2    0    0  0.15483427525E+03 -0.53212618824E+03  0.38944414707E+03  0.68195248656E+03  0.79123430393E+02 0.  0.
        254    2    1    2    0    0 -0.15483427525E+03  0.53212618824E+03  0.11489178624E+03  0.10704846057E+04  0.90862821628E+03 0.  0.
         23    2    4    4    0    0  0.18502149579E+03  0.14569272081E+03 -0.30801875786E+03  0.39800435526E+03  0.89847586581E+02 0.  0.
         23    2    4    4    0    0 -0.33985577105E+03  0.38643346742E+03  0.42291054410E+03  0.67248025040E+03  0.92431536870E+02 0.  0.
          1    1    3    3  502    0  0.89860009489E+02 -0.32940144855E+03  0.19262030054E+03  0.39202387145E+03  0.00000000000E+00 0. -1.
         -2    1    3    3    0  502  0.64974265765E+02 -0.20272473969E+03  0.19682384653E+03  0.28992861511E+03  0.00000000000E+00 0.  1.
         13    1    5    5    0    0  0.10546446764E+03  0.11480465880E+03 -0.13989502241E+03  0.20945997449E+03  0.00000000000E+00 0.  1.
        -13    1    5    5    0    0  0.79557028157E+02  0.30888062017E+02 -0.16812373544E+03  0.18854438078E+03  0.00000000000E+00 0. -1.
          3    1    6    6  503    0 -0.28125669256E+03  0.34023946623E+03  0.39638977493E+03  0.59329004303E+03  0.00000000000E+00 0. -1.
         -3    1    6    6    0  503 -0.58599078487E+02  0.46194001196E+02  0.26520769169E+02  0.79190207371E+02  0.00000000000E+00 0.  1.
<mgrwt>
<rscale>  0 0.16782971E+04</rscale>
<asrwt>0</asrwt>
<pdfrwt beam="1">  1        1 0.17359793E+00 0.16782971E+04</pdfrwt>
<pdfrwt beam="2">  1       -4 0.96007781E-01 0.16782971E+04</pdfrwt>
<totfact> 0.50999310E+00</totfact>
</mgrwt>
</event>
<event>
12    5  0.5221187E-008  0.2278044E+04  0.7818608E-02  0.8486629E-01
         -2   -1    0    0    0  501 -0.00000000000E+00  0.00000000000E+00  0.68896583693E+03  0.68896583693E+03  0.00000000000E+00 0.  1.
          1   -1    0    0  501    0  0.00000000000E+00 -0.00000000000E+00 -0.18830696635E+04  0.18830696635E+04  0.00000000000E+00 0. -1.
        -24    2    1    2    0    0 -0.78295073541E+03  0.51423479193E+03 -0.74917512474E+03  0.12021872904E+04  0.80880395939E+02 0.  0.
        254    2    1    2    0    0  0.78295073541E+03 -0.51423479193E+03 -0.44492870180E+03  0.13698482100E+04  0.89502697911E+03 0.  0.
         23    2    4    4    0    0  0.48711808303E+03 -0.70697194610E+03 -0.50514918501E+03  0.10002538623E+04  0.90767453327E+02 0.  0.
         23    2    4    4    0    0  0.29583265238E+03  0.19273715416E+03  0.60220483208E+02  0.36959434764E+03  0.91153202924E+02 0.  0.
          3    1    3    3  502    0 -0.50931847657E+03  0.36913171166E+03 -0.47004857831E+03  0.78524467340E+03  0.00000000000E+00 0. -1.
         -4    1    3    3    0  502 -0.27363225885E+03  0.14510308028E+03 -0.27912654643E+03  0.41694261705E+03  0.00000000000E+00 0.  1.
         13    1    5    5    0    0  0.40834685075E+03 -0.57172297196E+03 -0.44986232325E+03  0.83426040123E+03  0.00000000000E+00 0. -1.
        -13    1    5    5    0    0  0.78771232288E+02 -0.13524897413E+03 -0.55286861757E+02  0.16599346109E+03  0.00000000000E+00 0.  1.
          4    1    6    6  503    0  0.11880158472E+03  0.66251011888E+02 -0.20432903600E+02  0.13755186897E+03  0.00000000000E+00 0.  1.
         -4    1    6    6    0  503  0.17703106766E+03  0.12648614227E+03  0.80653386808E+02  0.23204247867E+03  0.00000000000E+00 0. -1.
<mgrwt>
<rscale>  0 0.22780436E+04</rscale>
<asrwt>0</asrwt>
<pdfrwt beam="1">  1        1 0.28970302E+00 0.22780436E+04</pdfrwt>
<pdfrwt beam="2">  1       -2 0.10599474E+00 0.22780436E+04</pdfrwt>
<totfact> 0.20450020E+00</totfact>
</mgrwt>
</event>
<event>
12    5  0.5221187E-008  0.2290253E+04  0.7818608E-02  0.8481774E-01
          3   -1    0    0  501    0  0.00000000000E+00  0.00000000000E+00  0.70711513269E+03  0.70711513269E+03  0.00000000000E+00 0. -1.
         -2   -1    0    0    0  501 -0.00000000000E+00 -0.00000000000E+00 -0.18544566828E+04  0.18544566828E+04  0.00000000000E+00 0.  1.
        -24    2    1    2    0    0 -0.14751649098E+03 -0.79774552059E+03 -0.10743012776E+04  0.13484865082E+04  0.78317283534E+02 0.  0.
        254    2    1    2    0    0  0.14751649098E+03  0.79774552059E+03 -0.73040272493E+02  0.12130853073E+04  0.89893384110E+03 0.  0.
         23    2    4    4    0    0 -0.21807955125E+03  0.74321334568E+03 -0.21128738516E+03  0.80758513916E+03  0.87330578794E+02 0.  0.
         23    2    4    4    0    0  0.36559604223E+03  0.54532174910E+02  0.13824711266E+03  0.40550016816E+03  0.93187434902E+02 0.  0.
          1    1    3    3  502    0 -0.42103842437E+02 -0.15880032047E+03 -0.26772868165E+03  0.31411609686E+03  0.00000000000E+00 0. -1.
         -2    1    3    3    0  502 -0.10541264854E+03 -0.63894520012E+03 -0.80657259596E+03  0.10343704113E+04  0.00000000000E+00 0.  1.
         13    1    5    5    0    0 -0.94584131188E+00 -0.25457782877E+01 -0.10228462412E+01  0.29020367521E+01  0.00000000000E+00 0.  1.
        -13    1    5    5    0    0 -0.21713370993E+03  0.74575912397E+03 -0.21026453892E+03  0.80468310240E+03  0.00000000000E+00 0. -1.
          1    1    6    6  503    0  0.32661578692E+03  0.71421361084E+02  0.14117470158E+03  0.36291759320E+03  0.00000000000E+00 0. -1.
         -1    1    6    6    0  503  0.38980255307E+02 -0.16889186174E+02 -0.29275889201E+01  0.42582574961E+02  0.00000000000E+00 0.  1.
<mgrwt>
<rscale>  0 0.22902527E+04</rscale>
<asrwt>0</asrwt>
<pdfrwt beam="1">  1        3 0.10878694E+00 0.22902527E+04</pdfrwt>
<pdfrwt beam="2">  1       -2 0.28530103E+00 0.22902527E+04</pdfrwt>
<totfact> 0.10615765E-01</totfact>
</mgrwt>
</event>
<event>
12    5  0.5221187E-008  0.1278281E+04  0.7818608E-02  0.9046968E-01
          1   -1    0    0  501    0  0.00000000000E+00  0.00000000000E+00  0.13224731977E+04  0.13224731977E+04  0.00000000000E+00 0. -1.
         -4   -1    0    0    0  501 -0.00000000000E+00 -0.00000000000E+00 -0.30889140857E+03  0.30889140857E+03  0.00000000000E+00 0.  1.
        -24    2    1    2    0    0 -0.12692304031E+03  0.12683737205E+03 -0.73804431474E+02  0.21008159992E+03  0.80560582219E+02 0.  0.
        254    2    1    2    0    0  0.12692304031E+03 -0.12683737205E+03  0.10873862206E+04  0.14212830064E+04  0.89746276487E+03 0.  0.
         23    2    4    4    0    0 -0.28877433387E+03  0.15022004950E+03  0.71708108730E+03  0.79269071151E+03  0.90535071490E+02 0.  0.
         23    2    4    4    0    0  0.41569737418E+03 -0.27705742154E+03  0.37030513333E+03  0.62859229489E+03  0.91854557236E+02 0.  0.
          1    1    3    3  502    0  0.10713681619E+02  0.10586280003E+02 -0.13118971878E+02  0.19973976101E+02  0.00000000000E+00 0. -1.
         -2    1    3    3    0  502 -0.13763672193E+03  0.11625109204E+03 -0.60685459596E+02  0.19010762381E+03  0.00000000000E+00 0.  1.
         13    1    5    5    0    0 -0.11724280548E+03  0.27435989331E+02  0.18972850399E+03  0.22471206949E+03  0.00000000000E+00 0.  1.
        -13    1    5    5    0    0 -0.17153152839E+03  0.12278406016E+03  0.52735258331E+03  0.56797864202E+03  0.00000000000E+00 0. -1.
          1    1    6    6  503    0  0.15708317899E+03 -0.15294153966E+03  0.13407823499E+03  0.25698874055E+03  0.00000000000E+00 0. -1.
         -1    1    6    6    0  503  0.25861419519E+03 -0.12411588189E+03  0.23622689834E+03  0.37160355433E+03  0.00000000000E+00 0.  1.
<mgrwt>
<rscale>  0 0.12782810E+04</rscale>
<asrwt>0</asrwt>
<pdfrwt beam="1">  1        1 0.20345741E+00 0.12782810E+04</pdfrwt>
<pdfrwt beam="2">  1       -4 0.47521756E-01 0.12782810E+04</pdfrwt>
<totfact> 0.18050480E+01</totfact>
</mgrwt>
</event>
<event>
12    5  0.5221187E-008  0.2360204E+04  0.7818608E-02  0.8454555E-01
         -2   -1    0    0    0  501 -0.00000000000E+00  0.00000000000E+00  0.61524266623E+03  0.61524266623E+03  0.00000000000E+00 0.  1.
          1   -1    0    0  501    0  0.00000000000E+00 -0.00000000000E+00 -0.22635630371E+04  0.22635630371E+04  0.00000000000E+00 0. -1.
        -24    2    1    2    0    0 -0.43156101077E+03  0.71442232337E+03 -0.59310855433E+01  0.83804350475E+03  0.75083792744E+02 0.  0.
        254    2    1    2    0    0  0.43156101077E+03 -0.71442232337E+03 -0.16423892853E+04  0.20407621986E+04  0.87785170982E+03 0.  0.
         23    2    4    4    0    0  0.51504882734E+03 -0.84946938634E+03 -0.11971300134E+04  0.15583256894E+04  0.91570476979E+02 0.  0.
         23    2    4    4    0    0 -0.83487816571E+02  0.13504706297E+03 -0.44525927192E+03  0.48243650921E+03  0.96339199989E+02 0.  0.
          1    1    3    3  502    0 -0.86484515917E+02  0.18380806665E+03  0.22962549102E+02  0.20443154238E+03  0.00000000000E+00 0. -1.
         -2    1    3    3    0  502 -0.34507649486E+03  0.53061425672E+03 -0.28893634645E+02  0.63361196237E+03  0.00000000000E+00 0.  1.
         13    1    5    5    0    0  0.34609566162E+03 -0.59138813719E+03 -0.75962908073E+03  0.10230144066E+04  0.00000000000E+00 0. -1.
        -13    1    5    5    0    0  0.16895316572E+03 -0.25808124916E+03 -0.43750093269E+03  0.53531128278E+03  0.00000000000E+00 0.  1.
          2    1    6    6  503    0 -0.24252777803E+02  0.79923293972E+02 -0.33748974315E+03  0.34767119075E+03  0.00000000000E+00 0. -1.
         -2    1    6    6    0  503 -0.59235038769E+02  0.55123769002E+02 -0.10776952877E+03  0.13476531846E+03  0.00000000000E+00 0.  1.
<mgrwt>
<rscale>  0 0.23602039E+04</rscale>
<asrwt>0</asrwt>
<pdfrwt beam="1">  1        1 0.34824047E+00 0.23602039E+04</pdfrwt>
<pdfrwt beam="2">  1       -2 0.94652717E-01 0.23602039E+04</pdfrwt>
<totfact> 0.14641168E+00</totfact>
</mgrwt>
</event>
<event>
12    5  0.5221187E-008  0.2073115E+04  0.7818608E-02  0.8573180E-01
         -2   -1    0    0    0  501 -0.00000000000E+00  0.00000000000E+00  0.11514283622E+04  0.11514283622E+04  0.00000000000E+00 0.  1.
          1   -1    0    0  501    0  0.00000000000E+00 -0.00000000000E+00 -0.93314693479E+03  0.93314693479E+03  0.00000000000E+00 0. -1.
        -24    2    1    2    0    0  0.79968199099E+03 -0.42637234761E+01  0.35008681499E+03  0.87661625716E+03  0.79911314814E+02 0.  0.
        254    2    1    2    0    0 -0.79968199099E+03  0.42637234761E+01 -0.13180538753E+03  0.12079590399E+04  0.89570247056E+03 0.  0.
         23    2    4    4    0    0  0.85155209451E+02  0.23903514871E+03  0.26817865286E+02  0.27435319741E+03  0.10080311013E+03 0.  0.
         23    2    4    4    0    0 -0.88483720044E+03 -0.23477142524E+03 -0.15862325282E+03  0.93360584246E+03  0.91673547747E+02 0.  0.
          3    1    3    3  502    0  0.17976524091E+03 -0.26452017884E+02  0.56105770906E+02  0.19016600279E+03  0.00000000000E+00 0. -1.
         -4    1    3    3    0  502  0.61991675008E+03  0.22188294408E+02  0.29398104409E+03  0.68645025437E+03  0.00000000000E+00 0.  1.
         13    1    5    5    0    0  0.76849613474E+02  0.70498589910E+02  0.11418166691E+02  0.10491086122E+03  0.00000000000E+00 0.  1.
        -13    1    5    5    0    0  0.83055959774E+01  0.16853655880E+03  0.15399698595E+02  0.16944233619E+03  0.00000000000E+00 0. -1.
          3    1    6    6  503    0 -0.40130895180E+03 -0.12722836393E+03 -0.31273530149E+02  0.42215395897E+03  0.00000000000E+00 0. -1.
         -3    1    6    6    0  503 -0.48352824864E+03 -0.10754306130E+03 -0.12734972267E+03  0.51145188350E+03  0.00000000000E+00 0.  1.
<mgrwt>
<rscale>  0 0.20731154E+04</rscale>
<asrwt>0</asrwt>
<pdfrwt beam="1">  1        1 0.14356107E+00 0.20731154E+04</pdfrwt>
<pdfrwt beam="2">  1       -2 0.17714283E+00 0.20731154E+04</pdfrwt>
<totfact> 0.26219490E+00</totfact>
</mgrwt>
</event>
<event>
12    5  0.5221187E-008  0.2193887E+04  0.7818608E-02  0.8520977E-01
          1   -1    0    0  501    0  0.00000000000E+00  0.00000000000E+00  0.13046614864E+04  0.13046614864E+04  0.00000000000E+00 0. -1.
         -2   -1    0    0    0  501 -0.00000000000E+00 -0.00000000000E+00 -0.92229635242E+03  0.92229635242E+03  0.00000000000E+00 0.  1.
        -24    2    1    2    0    0  0.39807157785E+03 -0.79995728529E+03  0.32197968946E+03  0.95296043113E+03  0.77910355585E+02 0.  0.
        254    2    1    2    0    0 -0.39807157785E+03  0.79995728529E+03  0.60385444529E+02  0.12739974077E+04  0.90610725277E+03 0.  0.
         23    2    4    4    0    0 -0.13296063753E+03  0.71203589762E+03 -0.31753034618E+03  0.79628001224E+03  0.92534785452E+02 0.  0.
         23    2    4    4    0    0 -0.26511094032E+03  0.87921387670E+02  0.37791579071E+03  0.47771739545E+03  0.85904504915E+02 0.  0.
          1    1    3    3  502    0  0.34118538085E+03 -0.69197527162E+03  0.30551452147E+03  0.82980501533E+03  0.00000000000E+00 0. -1.
         -2    1    3    3    0  502  0.56886197003E+02 -0.10798201367E+03  0.16465167990E+02  0.12315541581E+03  0.00000000000E+00 0.  1.
         13    1    5    5    0    0 -0.67467519909E+02  0.55058932834E+03 -0.26159302763E+03  0.61329551346E+03  0.00000000000E+00 0. -1.
        -13    1    5    5    0    0 -0.65493117620E+02  0.16144656928E+03 -0.55937318545E+02  0.18298449878E+03  0.00000000000E+00 0.  1.
          1    1    6    6  503    0 -0.24723362114E+03  0.68535844142E+02  0.29625270639E+03  0.39190214518E+03  0.00000000000E+00 0. -1.
         -1    1    6    6    0  503 -0.17877319181E+02  0.19385543528E+02  0.81663084317E+02  0.85815250271E+02  0.00000000000E+00 0.  1.
<mgrwt>
<rscale>  0 0.21938865E+04</rscale>
<asrwt>0</asrwt>
<pdfrwt beam="1">  1        1 0.20071715E+00 0.21938865E+04</pdfrwt>
<pdfrwt beam="2">  1       -2 0.14189175E+00 0.21938865E+04</pdfrwt>
<totfact> 0.24921020E+00</totfact>
</mgrwt>
</event>
<event>
12    5  0.5221187E-008  0.1458180E+04  0.7818608E-02  0.8912749E-01
          1   -1    0    0  501    0  0.00000000000E+00  0.00000000000E+00  0.12622105805E+04  0.12622105805E+04  0.00000000000E+00 0. -1.
         -2   -1    0    0    0  501 -0.00000000000E+00 -0.00000000000E+00 -0.42114400987E+03  0.42114400987E+03  0.00000000000E+00 0.  1.
        -24    2    1    2    0    0  0.13260671134E+03  0.40431242798E+03  0.42256519383E+03  0.60490153586E+03  0.79318634232E+02 0.  0.
        254    2    1    2    0    0 -0.13260671134E+03 -0.40431242798E+03  0.41850137681E+03  0.10784530545E+04  0.89825637160E+03 0.  0.
         23    2    4    4    0    0 -0.23659326952E+03 -0.48746774741E+03  0.61558624066E+03  0.82532242123E+03  0.92787387817E+02 0.  0.
         23    2    4    4    0    0  0.10398655819E+03  0.83155319428E+02 -0.19708486385E+03  0.25313063331E+03  0.86629455313E+02 0.  0.
          3    1    3    3  502    0  0.12554898294E+03  0.39335577349E+03  0.38278748899E+03  0.56304313634E+03  0.00000000000E+00 0. -1.
         -2    1    3    3    0  502  0.70577283964E+01  0.10956654493E+02  0.39777704842E+02  0.41858399519E+02  0.00000000000E+00 0.  1.
         13    1    5    5    0    0 -0.24082391933E+03 -0.44450062117E+03  0.55262927781E+03  0.74898336499E+03  0.00000000000E+00 0. -1.
        -13    1    5    5    0    0  0.42306498086E+01 -0.42967126246E+02  0.62956962852E+02  0.76339056237E+02  0.00000000000E+00 0.  1.
          4    1    6    6  503    0  0.48856863995E+02  0.60473558144E+02 -0.17142355876E+03  0.18822879931E+03  0.00000000000E+00 0. -1.
         -4    1    6    6    0  503  0.55129694192E+02  0.22681761283E+02 -0.25661305089E+02  0.64901833992E+02  0.00000000000E+00 0.  1.
<mgrwt>
<rscale>  0 0.14581803E+04</rscale>
<asrwt>0</asrwt>
<pdfrwt beam="1">  1        1 0.19418624E+00 0.14581803E+04</pdfrwt>
<pdfrwt beam="2">  1       -2 0.64791387E-01 0.14581803E+04</pdfrwt>
<totfact> 0.18021369E+01</totfact>
</mgrwt>
</event>
<event>
12    5  0.5221187E-008  0.1152302E+04  0.7818608E-02  0.9155662E-01
          3   -1    0    0  501    0  0.00000000000E+00  0.00000000000E+00  0.87673241249E+03  0.87673241249E+03  0.00000000000E+00 0. -1.
         -4   -1    0    0    0  501 -0.00000000000E+00 -0.00000000000E+00 -0.37862191665E+03  0.37862191665E+03  0.00000000000E+00 0.  1.
        -24    2    1    2    0    0 -0.80776984651E+02  0.81515370248E+02 -0.10169671807E+03  0.17277725222E+03  0.79624616693E+02 0.  0.
        254    2    1    2    0    0  0.80776984651E+02 -0.81515370248E+02  0.59980721391E+03  0.10825770769E+04  0.89388744077E+03 0.  0.
         23    2    4    4    0    0 -0.26161461427E+03  0.12455661349E+03  0.59817265949E+03  0.67103715197E+03  0.92324278504E+02 0.  0.
         23    2    4    4    0    0  0.34239159892E+03 -0.20607198374E+03  0.16345544208E+01  0.41153992495E+03  0.98309554791E+02 0.  0.
          3    1    3    3  502    0 -0.63772605466E+01  0.31990450940E+02  0.56378589780E+01  0.33103532399E+02  0.00000000000E+00 0. -1.
         -4    1    3    3    0  502 -0.74399724104E+02  0.49524919308E+02 -0.10733457705E+03  0.13967371983E+03  0.00000000000E+00 0.  1.
         13    1    5    5    0    0 -0.87558376753E+02  0.87128436732E+00  0.21933578794E+03  0.23616819504E+03  0.00000000000E+00 0. -1.
        -13    1    5    5    0    0 -0.17405623752E+03  0.12368532913E+03  0.37883687155E+03  0.43486895693E+03  0.00000000000E+00 0.  1.
          3    1    6    6  503    0  0.14575551201E+03 -0.14447178069E+03 -0.64117168311E+01  0.20532382914E+03  0.00000000000E+00 0. -1.
         -3    1    6    6    0  503  0.19663608691E+03 -0.61600203047E+02  0.80462712519E+01  0.20621609581E+03  0.00000000000E+00 0.  1.
<mgrwt>
<rscale>  0 0.11523022E+04</rscale>
<asrwt>0</asrwt>
<pdfrwt beam="1">  1        3 0.13488191E+00 0.11523022E+04</pdfrwt>
<pdfrwt beam="2">  1       -4 0.58249526E-01 0.11523022E+04</pdfrwt>
<totfact> 0.26842101E+00</totfact>
</mgrwt>
</event>
<event>
12    5  0.5221187E-008  0.1410985E+04  0.7818608E-02  0.8945905E-01
         -2   -1    0    0    0  501 -0.00000000000E+00  0.00000000000E+00  0.22280248864E+03  0.22280248864E+03  0.00000000000E+00 0.  1.
          1   -1    0    0  501    0  0.00000000000E+00 -0.00000000000E+00 -0.22339052156E+04  0.22339052156E+04  0.00000000000E+00 0. -1.
        -24    2    1    2    0    0  0.24223583315E+03 -0.31296764426E+03 -0.53218838815E+03  0.66786395281E+03  0.78681851516E+02 0.  0.
        254    2    1    2    0    0 -0.24223583315E+03  0.31296764426E+03 -0.14789143389E+04  0.17888437515E+04  0.92528233545E+03 0.  0.
         23    2    4    4    0    0 -0.43912626294E+03  0.46596074778E+03 -0.13415320203E+04  0.14892982997E+04  0.91378174707E+02 0.  0.
         23    2    4    4    0    0  0.19689042979E+03 -0.15299310352E+03 -0.13738231859E+03  0.29954545177E+03  0.93171053174E+02 0.  0.
          1    1    3    3  502    0  0.12763444865E+03 -0.14387195065E+03 -0.31985257451E+03  0.37322293618E+03  0.00000000000E+00 0. -1.
         -2    1    3    3    0  502  0.11460138450E+03 -0.16909569361E+03 -0.21233581364E+03  0.29464101663E+03  0.00000000000E+00 0.  1.
         13    1    5    5    0    0 -0.36367874853E+03  0.42850161700E+03 -0.11462006709E+04  0.12765781785E+04  0.00000000000E+00 0. -1.
        -13    1    5    5    0    0 -0.75447514409E+02  0.37459130783E+02 -0.19533134935E+03  0.21272012116E+03  0.00000000000E+00 0.  1.
          2    1    6    6  503    0  0.64666464009E+02 -0.50577245137E+02  0.15618080653E+01  0.82111196176E+02  0.00000000000E+00 0. -1.
         -2    1    6    6    0  503  0.13222396578E+03 -0.10241585838E+03 -0.13894412666E+03  0.21743425560E+03  0.00000000000E+00 0.  1.
<mgrwt>
<rscale>  0 0.14109850E+04</rscale>
<asrwt>0</asrwt>
<pdfrwt beam="1">  1        1 0.34367774E+00 0.14109850E+04</pdfrwt>
<pdfrwt beam="2">  1       -2 0.34277305E-01 0.14109850E+04</pdfrwt>
<totfact> 0.14111201E+01</totfact>
</mgrwt>
</event>
<event>
12    5  0.5221187E-008  0.1203954E+04  0.7818608E-02  0.9109403E-01
          1   -1    0    0  501    0  0.00000000000E+00  0.00000000000E+00  0.28849678361E+03  0.28849678361E+03  0.00000000000E+00 0. -1.
         -2   -1    0    0    0  501 -0.00000000000E+00 -0.00000000000E+00 -0.12560837726E+04  0.12560837726E+04  0.00000000000E+00 0.  1.
        -24    2    1    2    0    0 -0.11614763219E+03 -0.94566400813E+02  0.51908942580E+02  0.17567106925E+03  0.75714659259E+02 0.  0.
        254    2    1    2    0    0  0.11614763219E+03  0.94566400813E+02 -0.10194959316E+04  0.13689094869E+04  0.90117043469E+03 0.  0.
         23    2    4    4    0    0  0.45483515687E+02 -0.41427016378E+02  0.14781993495E+03  0.18782083623E+03  0.98188520054E+02 0.  0.
         23    2    4    4    0    0  0.70664116498E+02  0.13599341719E+03 -0.11673158665E+04  0.11810886507E+04  0.94108669997E+02 0.  0.
          1    1    3    3  502    0 -0.99242296903E+02 -0.88384799129E+02  0.69955570309E+02  0.15018218279E+03  0.00000000000E+00 0. -1.
         -2    1    3    3    0  502 -0.16905335282E+02 -0.61816016839E+01 -0.18046627729E+02  0.25488886456E+02  0.00000000000E+00 0.  1.
         13    1    5    5    0    0  0.38556916561E+02 -0.64225566962E+02  0.14578702763E+03  0.16390673169E+03  0.00000000000E+00 0.  1.
        -13    1    5    5    0    0  0.69265991258E+01  0.22798550584E+02  0.20329073167E+01  0.23914104548E+02  0.00000000000E+00 0. -1.
          2    1    6    6  503    0  0.69404392699E+02  0.51429218864E+02 -0.40588971963E+03  0.41497999805E+03  0.00000000000E+00 0. -1.
         -2    1    6    6    0  503  0.12597237995E+01  0.84564198327E+02 -0.76142614687E+03  0.76610865266E+03  0.00000000000E+00 0.  1.
<mgrwt>
<rscale>  0 0.12039537E+04</rscale>
<asrwt>0</asrwt>
<pdfrwt beam="1">  1        1 0.44384121E-01 0.12039537E+04</pdfrwt>
<pdfrwt beam="2">  1       -2 0.19324365E+00 0.12039537E+04</pdfrwt>
<totfact> 0.11736473E+01</totfact>
</mgrwt>
</event>
<event>
12    5  0.5221187E-008  0.1761384E+04  0.7818608E-02  0.8727109E-01
         -2   -1    0    0    0  501 -0.00000000000E+00  0.00000000000E+00  0.35282755743E+03  0.35282755743E+03  0.00000000000E+00 0.  1.
          1   -1    0    0  501    0  0.00000000000E+00 -0.00000000000E+00 -0.21982930382E+04  0.21982930382E+04  0.00000000000E+00 0. -1.
        -24    2    1    2    0    0  0.26487838226E+03  0.27173502026E+03  0.74808317748E+02  0.39551299254E+03  0.82666584798E+02 0.  0.
        254    2    1    2    0    0 -0.26487838226E+03 -0.27173502026E+03 -0.19202737985E+04  0.21556076031E+04  0.90287994696E+03 0.  0.
         23    2    4    4    0    0 -0.21496148854E+03 -0.58243573016E+03 -0.10204201304E+04  0.11980777846E+04  0.93237943194E+02 0.  0.
         23    2    4    4    0    0 -0.49916893725E+02  0.31070070990E+03 -0.89985366810E+03  0.95752981850E+03  0.90000566199E+02 0.  0.
          1    1    3    3  502    0  0.24555636626E+02 -0.36353654775E+00  0.11025968802E+02  0.26919944965E+02  0.00000000000E+00 0. -1.
         -2    1    3    3    0  502  0.24032274564E+03  0.27209855681E+03  0.63782348946E+02  0.36859304758E+03  0.00000000000E+00 0.  1.
         13    1    5    5    0    0 -0.50908392682E-01 -0.18074545674E+02 -0.67820145216E+02  0.70187348505E+02  0.00000000000E+00 0.  1.
        -13    1    5    5    0    0 -0.21491058015E+03 -0.56436118449E+03 -0.95259998523E+03  0.11278904361E+04  0.00000000000E+00 0. -1.
          1    1    6    6  503    0 -0.72680625983E+02  0.18712809601E+03 -0.51827532478E+03  0.55579556492E+03  0.00000000000E+00 0. -1.
         -1    1    6    6    0  503  0.22763732258E+02  0.12357261389E+03 -0.38157834332E+03  0.40173425358E+03  0.00000000000E+00 0.  1.
<mgrwt>
<rscale>  0 0.17613840E+04</rscale>
<asrwt>0</asrwt>
<pdfrwt beam="1">  1        1 0.33819892E+00 0.17613840E+04</pdfrwt>
<pdfrwt beam="2">  1       -2 0.54281164E-01 0.17613840E+04</pdfrwt>
<totfact> 0.58051755E+00</totfact>
</mgrwt>
</event>
<event>
12    5  0.5221187E-008  0.1101595E+04  0.7818608E-02  0.9203639E-01
          1   -1    0    0  501    0  0.00000000000E+00  0.00000000000E+00  0.10157702561E+04  0.10157702561E+04  0.00000000000E+00 0. -1.
         -4   -1    0    0    0  501 -0.00000000000E+00 -0.00000000000E+00 -0.29866778664E+03  0.29866778664E+03  0.00000000000E+00 0.  1.
        -24    2    1    2    0    0  0.12116634763E+03 -0.15341319509E+03  0.22147143737E+03  0.30601537576E+03  0.79868143892E+02 0.  0.
        254    2    1    2    0    0 -0.12116634763E+03  0.15341319509E+03  0.49563103214E+03  0.10084226670E+04  0.85618296123E+03 0.  0.
         23    2    4    4    0    0  0.33238001962E+03 -0.19035497774E+02  0.35643853495E+03  0.49564169222E+03  0.88167058783E+02 0.  0.
         23    2    4    4    0    0 -0.45354636724E+03  0.17244869286E+03  0.13919249719E+03  0.51278097480E+03  0.90149420039E+02 0.  0.
          3    1    3    3  502    0 -0.25656577507E+00 -0.20950296669E+02  0.63115492237E+02  0.66502226405E+02  0.00000000000E+00 0. -1.
         -4    1    3    3    0  502  0.12142291340E+03 -0.13246289842E+03  0.15835594513E+03  0.23951314936E+03  0.00000000000E+00 0.  1.
         13    1    5    5    0    0  0.30339379540E+03  0.64921502037E+01  0.33267786620E+03  0.45029379938E+03  0.00000000000E+00 0. -1.
        -13    1    5    5    0    0  0.28986224218E+02 -0.25527647978E+02  0.23760668751E+02  0.45347892842E+02  0.00000000000E+00 0.  1.
          4    1    6    6  503    0 -0.30643257141E+03  0.14229895772E+03  0.13105762382E+03  0.36238931407E+03  0.00000000000E+00 0. -1.
         -4    1    6    6    0  503 -0.14711379583E+03  0.30149735146E+02  0.81348733747E+01  0.15039166073E+03  0.00000000000E+00 0.  1.
<mgrwt>
<rscale>  0 0.11015949E+04</rscale>
<asrwt>0</asrwt>
<pdfrwt beam="1">  1        1 0.15627234E+00 0.11015949E+04</pdfrwt>
<pdfrwt beam="2">  1       -4 0.45948891E-01 0.11015949E+04</pdfrwt>
<totfact> 0.32888054E+01</totfact>
</mgrwt>
</event>
<event>
12    5  0.5221187E-008  0.1304301E+04  0.7818608E-02  0.9026162E-01
         -2   -1    0    0    0  501 -0.00000000000E+00  0.00000000000E+00  0.22096006385E+03  0.22096006385E+03  0.00000000000E+00 0.  1.
          1   -1    0    0  501    0  0.00000000000E+00 -0.00000000000E+00 -0.19247823349E+04  0.19247823349E+04  0.00000000000E+00 0. -1.
        -24    2    1    2    0    0  0.25307299001E+03 -0.16744775694E+03 -0.69500405773E+03  0.76260673183E+03  0.80334908906E+02 0.  0.
        254    2    1    2    0    0 -0.25307299001E+03  0.16744775694E+03 -0.10088182133E+04  0.13831356669E+04  0.89625074394E+03 0.  0.
         23    2    4    4    0    0 -0.39146882161E+03  0.10278173660E+03 -0.62071529077E+02  0.41976824199E+03  0.92415250856E+02 0.  0.
         23    2    4    4    0    0  0.13839583160E+03  0.64666020344E+02 -0.94674668426E+03  0.96336742495E+03  0.91719195882E+02 0.  0.
          1    1    3    3  502    0  0.11024042102E+03 -0.86469640242E+02 -0.41500990685E+03  0.43802188517E+03  0.00000000000E+00 0. -1.
         -2    1    3    3    0  502  0.14283256899E+03 -0.80978116698E+02 -0.27999415089E+03  0.32458484665E+03  0.00000000000E+00 0.  1.
         13    1    5    5    0    0 -0.12122220555E+03  0.40983580882E+02  0.22514919506E+02  0.12992843653E+03  0.00000000000E+00 0.  1.
        -13    1    5    5    0    0 -0.27024661606E+03  0.61798155715E+02 -0.84586448583E+02  0.28983980546E+03  0.00000000000E+00 0. -1.
          1    1    6    6  503    0  0.14522897120E+03  0.52073542359E+02 -0.92160863786E+03  0.93443329846E+03  0.00000000000E+00 0. -1.
         -1    1    6    6    0  503 -0.68331396030E+01  0.12592477985E+02 -0.25138046404E+02  0.28934126488E+02  0.00000000000E+00 0.  1.
<mgrwt>
<rscale>  0 0.13043006E+04</rscale>
<asrwt>0</asrwt>
<pdfrwt beam="1">  1        1 0.29612036E+00 0.13043006E+04</pdfrwt>
<pdfrwt beam="2">  1       -2 0.33993856E-01 0.13043006E+04</pdfrwt>
<totfact> 0.23430082E+01</totfact>
</mgrwt>
</event>
<event>
12    5  0.5221187E-008  0.1879218E+04  0.7818608E-02  0.8665270E-01
          1   -1    0    0  501    0  0.00000000000E+00  0.00000000000E+00  0.95340465012E+03  0.95340465012E+03  0.00000000000E+00 0. -1.
         -2   -1    0    0    0  501 -0.00000000000E+00 -0.00000000000E+00 -0.92601337746E+03  0.92601337746E+03  0.00000000000E+00 0.  1.
        -24    2    1    2    0    0  0.41267079641E+03 -0.57229906219E+03 -0.15823682084E+03  0.72720782110E+03  0.77258791063E+02 0.  0.
        254    2    1    2    0    0 -0.41267079641E+03  0.57229906219E+03  0.18562809350E+03  0.11522102065E+04  0.89179995964E+03 0.  0.
         23    2    4    4    0    0 -0.53476709351E+03 -0.62249839679E+00  0.11593610039E+03  0.55516754338E+03  0.93774143792E+02 0.  0.
         23    2    4    4    0    0  0.12209629710E+03  0.57292156059E+03  0.69691993110E+02  0.59704266310E+03  0.91958399868E+02 0.  0.
          1    1    3    3  502    0  0.95656690887E+02 -0.10403104424E+03 -0.58696167305E+02  0.15302908460E+03  0.00000000000E+00 0. -1.
         -2    1    3    3    0  502  0.31701410552E+03 -0.46826801795E+03 -0.99540653539E+02  0.57417873650E+03  0.00000000000E+00 0.  1.
         13    1    5    5    0    0 -0.34072355081E+03  0.37801268112E+02  0.97990387342E+02  0.35654395235E+03  0.00000000000E+00 0. -1.
        -13    1    5    5    0    0 -0.19404354270E+03 -0.38423766508E+02  0.17945713051E+02  0.19862359103E+03  0.00000000000E+00 0.  1.
          4    1    6    6  503    0  0.91298743451E+02  0.32647750081E+03 -0.31685460361E+00  0.33900312607E+03  0.00000000000E+00 0. -1.
         -4    1    6    6    0  503  0.30797553645E+02  0.24644405978E+03  0.70008847713E+02  0.25803953703E+03  0.00000000000E+00 0.  1.
<mgrwt>
<rscale>  0 0.18792184E+04</rscale>
<asrwt>0</asrwt>
<pdfrwt beam="1">  1        1 0.14667764E+00 0.18792184E+04</pdfrwt>
<pdfrwt beam="2">  1       -2 0.14246360E+00 0.18792184E+04</pdfrwt>
<totfact> 0.46432122E+00</totfact>
</mgrwt>
</event>
<event>
12    5  0.5221187E-008  0.1044568E+04  0.7818608E-02  0.9260970E-01
          1   -1    0    0  501    0  0.00000000000E+00  0.00000000000E+00  0.18781265331E+04  0.18781265331E+04  0.00000000000E+00 0. -1.
         -2   -1    0    0    0  501 -0.00000000000E+00 -0.00000000000E+00 -0.14524079648E+03  0.14524079648E+03  0.00000000000E+00 0.  1.
        -24    2    1    2    0    0 -0.13042105137E+02  0.23632973726E+02  0.23637536437E+02  0.90015375008E+02  0.82555561020E+02 0.  0.
        254    2    1    2    0    0  0.13042105137E+02 -0.23632973726E+02  0.17092482001E+04  0.19333519545E+04  0.90310118836E+03 0.  0.
         23    2    4    4    0    0 -0.10970861009E+03 -0.42062338420E+03  0.11353052776E+04  0.12190205115E+04  0.90182723971E+02 0.  0.
         23    2    4    4    0    0  0.12275071523E+03  0.39699041047E+03  0.57394292252E+03  0.71433144298E+03  0.90497558116E+02 0.  0.
          3    1    3    3  502    0 -0.36177060287E+02 -0.17086742129E+02  0.10076583533E+02  0.41258623139E+02  0.00000000000E+00 0. -1.
         -4    1    3    3    0  502  0.23134955150E+02  0.40719715855E+02  0.13560952904E+02  0.48756751869E+02  0.00000000000E+00 0.  1.
         13    1    5    5    0    0 -0.38889171642E+02 -0.16535833383E+03  0.56906265467E+03  0.59387545090E+03  0.00000000000E+00 0. -1.
        -13    1    5    5    0    0 -0.70819438448E+02 -0.25526505037E+03  0.56624262295E+03  0.62514506064E+03  0.00000000000E+00 0.  1.
          3    1    6    6  503    0  0.19200335815E+02  0.96673273565E+02  0.20506459695E+03  0.22752112790E+03  0.00000000000E+00 0. -1.
         -3    1    6    6    0  503  0.10355037941E+03  0.30031713691E+03  0.36887832556E+03  0.48681031508E+03  0.00000000000E+00 0.  1.
<mgrwt>
<rscale>  0 0.10445680E+04</rscale>
<asrwt>0</asrwt>
<pdfrwt beam="1">  1        1 0.28894253E+00 0.10445680E+04</pdfrwt>
<pdfrwt beam="2">  1       -2 0.22344739E-01 0.10445680E+04</pdfrwt>
<totfact> 0.55715931E+01</totfact>
</mgrwt>
</event>
<event>
12    5  0.5221187E-008  0.2817440E+04  0.7818608E-02  0.8297874E-01
          1   -1    0    0  501    0  0.00000000000E+00  0.00000000000E+00  0.19666593299E+04  0.19666593299E+04  0.00000000000E+00 0. -1.
         -2   -1    0    0    0  501 -0.00000000000E+00 -0.00000000000E+00 -0.10090674146E+04  0.10090674146E+04  0.00000000000E+00 0.  1.
        -24    2    1    2    0    0  0.32866402397E+00  0.12612958947E+04  0.38299463728E+03  0.13207333180E+04  0.82366032124E+02 0.  0.
        254    2    1    2    0    0 -0.32866402397E+00 -0.12612958947E+04  0.57459727802E+03  0.16549934265E+04  0.90441902236E+03 0.  0.
         23    2    4    4    0    0  0.15770229677E+03 -0.49251408889E+03  0.67896254596E+03  0.85825376615E+03  0.90383882037E+02 0.  0.
         23    2    4    4    0    0 -0.15803096079E+03 -0.76878180579E+03 -0.10436526794E+03  0.79673966038E+03  0.88897287886E+02 0.  0.
          1    1    3    3  502    0 -0.26064534760E+02  0.88224017844E+03  0.23922234150E+03  0.91446947522E+03  0.00000000000E+00 0. -1.
         -2    1    3    3    0  502  0.26393198784E+02  0.37905571623E+03  0.14377229578E+03  0.40626384282E+03  0.00000000000E+00 0.  1.
         13    1    5    5    0    0  0.14057197512E+03 -0.48716159427E+03  0.65600410261E+03  0.82911294874E+03  0.00000000000E+00 0. -1.
        -13    1    5    5    0    0  0.17130321648E+02 -0.53524946182E+01  0.22958443350E+02  0.29140817412E+02  0.00000000000E+00 0.  1.
          2    1    6    6  503    0 -0.55650752933E+02 -0.46675978239E+03 -0.80882081422E+02  0.47697338694E+03  0.00000000000E+00 0. -1.
         -2    1    6    6    0  503 -0.10238020786E+03 -0.30202202340E+03 -0.23483186519E+02  0.31976627344E+03  0.00000000000E+00 0.  1.
<mgrwt>
<rscale>  0 0.28174399E+04</rscale>
<asrwt>0</asrwt>
<pdfrwt beam="1">  1        1 0.30256297E+00 0.28174399E+04</pdfrwt>
<pdfrwt beam="2">  1       -2 0.15524114E+00 0.28174399E+04</pdfrwt>
<totfact> 0.65212385E-01</totfact>
</mgrwt>
</event>
<event>
12    5  0.5221187E-008  0.2335112E+04  0.7818608E-02  0.8464204E-01
         -2   -1    0    0    0  501 -0.00000000000E+00  0.00000000000E+00  0.10738816491E+04  0.10738816491E+04  0.00000000000E+00 0.  1.
          1   -1    0    0  501    0  0.00000000000E+00 -0.00000000000E+00 -0.12694017973E+04  0.12694017973E+04  0.00000000000E+00 0. -1.
        -24    2    1    2    0    0 -0.38762091667E+03  0.91606652410E+03 -0.52267726089E+02  0.99924144399E+03  0.79521673652E+02 0.  0.
        254    2    1    2    0    0  0.38762091667E+03 -0.91606652410E+03 -0.14325242217E+03  0.13440420024E+04  0.89246837266E+03 0.  0.
         23    2    4    4    0    0  0.14409135697E+03 -0.20802961113E+02 -0.34941188379E+03  0.38921578068E+03  0.90582432370E+02 0.  0.
         23    2    4    4    0    0  0.24352955971E+03 -0.89526356299E+03  0.20615946162E+03  0.95482622174E+03  0.91585459775E+02 0.  0.
          1    1    3    3  502    0 -0.27478215308E+03  0.67584006335E+03 -0.45561221630E+01  0.72957918085E+03  0.00000000000E+00 0. -1.
         -4    1    3    3    0  502 -0.11283876359E+03  0.24022646076E+03 -0.47711603927E+02  0.26966226314E+03  0.00000000000E+00 0.  1.
         13    1    5    5    0    0  0.12028348931E+03 -0.51382033228E+02 -0.29189752902E+03  0.31986309351E+03  0.00000000000E+00 0. -1.
        -13    1    5    5    0    0  0.23807867653E+02  0.30579072115E+02 -0.57514354771E+02  0.69352687174E+02  0.00000000000E+00 0.  1.
          4    1    6    6  503    0  0.15851759664E+03 -0.70501332586E+03  0.18095897705E+03  0.74492802971E+03  0.00000000000E+00 0. -1.
         -4    1    6    6    0  503  0.85011963067E+02 -0.19025023713E+03  0.25200484572E+02  0.20989819203E+03  0.00000000000E+00 0.  1.
<mgrwt>
<rscale>  0 0.23351122E+04</rscale>
<asrwt>0</asrwt>
<pdfrwt beam="1">  1        1 0.19529258E+00 0.23351122E+04</pdfrwt>
<pdfrwt beam="2">  1       -2 0.16521256E+00 0.23351122E+04</pdfrwt>
<totfact> 0.17358356E+00</totfact>
</mgrwt>
</event>
<event>
12    5  0.5221187E-008  0.2043372E+04  0.7818608E-02  0.8586607E-01
          1   -1    0    0  501    0  0.00000000000E+00  0.00000000000E+00  0.27108510101E+04  0.27108510101E+04  0.00000000000E+00 0. -1.
         -4   -1    0    0    0  501 -0.00000000000E+00 -0.00000000000E+00 -0.38506068302E+03  0.38506068302E+03  0.00000000000E+00 0.  1.
        -24    2    1    2    0    0  0.48378919319E+03  0.54682619919E+03  0.15132779879E+04  0.16821971070E+04  0.81889942975E+02 0.  0.
        254    2    1    2    0    0 -0.48378919319E+03 -0.54682619919E+03  0.81251233921E+03  0.14137145861E+04  0.89740835410E+03 0.  0.
         23    2    4    4    0    0  0.82020144629E+02 -0.31855406957E+03  0.71025957530E+03  0.78813905525E+03  0.92143945808E+02 0.  0.
         23    2    4    4    0    0 -0.56580933782E+03 -0.22827212962E+03  0.10225276391E+03  0.62557553084E+03  0.92955608426E+02 0.  0.
          3    1    3    3  502    0  0.43496007086E+03  0.51801073625E+03  0.13637557905E+04  0.15222861893E+04  0.00000000000E+00 0. -1.
         -4    1    3    3    0  502  0.48829122329E+02  0.28815462937E+02  0.14952219738E+03  0.15991091771E+03  0.00000000000E+00 0.  1.
         13    1    5    5    0    0  0.53186862963E+02 -0.29884854708E+03  0.59890070871E+03  0.67143231630E+03  0.00000000000E+00 0.  1.
        -13    1    5    5    0    0  0.28833281665E+02 -0.19705522485E+02  0.11135886659E+03  0.11670673895E+03  0.00000000000E+00 0. -1.
          1    1    6    6  503    0 -0.14904602536E+03 -0.41260332540E+02 -0.10692531665E+02  0.15502084682E+03  0.00000000000E+00 0. -1.
         -1    1    6    6    0  503 -0.41676331246E+03 -0.18701179708E+03  0.11294529557E+03  0.47055468402E+03  0.00000000000E+00 0.  1.
<mgrwt>
<rscale>  0 0.20433719E+04</rscale>
<asrwt>0</asrwt>
<pdfrwt beam="1">  1        1 0.41705399E+00 0.20433719E+04</pdfrwt>
<pdfrwt beam="2">  1       -4 0.59240107E-01 0.20433719E+04</pdfrwt>
<totfact> 0.11923021E+00</totfact>
</mgrwt>
</event>
<event>
12    5  0.5221187E-008  0.2491327E+04  0.7818608E-02  0.8406082E-01
         -2   -1    0    0    0  501 -0.00000000000E+00  0.00000000000E+00  0.16383929656E+04  0.16383929656E+04  0.00000000000E+00 0.  1.
          1   -1    0    0  501    0  0.00000000000E+00 -0.00000000000E+00 -0.94707317382E+03  0.94707317382E+03  0.00000000000E+00 0. -1.
        -24    2    1    2    0    0  0.23916672169E+03 -0.82634942752E+03 -0.37819251009E+03  0.94312723314E+03  0.80033156044E+02 0.  0.
        254    2    1    2    0    0 -0.23916672169E+03  0.82634942752E+03  0.10695123019E+04  0.16423389063E+04  0.90186829532E+03 0.  0.
         23    2    4    4    0    0 -0.41741297612E+03  0.32602629151E+03  0.12045601693E+03  0.55083165334E+03  0.91537549258E+02 0.  0.
         23    2    4    4    0    0  0.17824625443E+03  0.50032313601E+03  0.94905628496E+03  0.10915072530E+04  0.92656805356E+02 0.  0.
          3    1    3    3  502    0  0.12560613743E+03 -0.35764075234E+03 -0.12991436379E+03  0.40070132445E+03  0.00000000000E+00 0. -1.
         -4    1    3    3    0  502  0.11356058426E+03 -0.46870867518E+03 -0.24827814630E+03  0.54242590869E+03  0.00000000000E+00 0.  1.
         13    1    5    5    0    0 -0.54633362186E+02  0.30805884612E+02  0.44688708639E+02  0.77012255325E+02  0.00000000000E+00 0. -1.
        -13    1    5    5    0    0 -0.36277961393E+03  0.29522040689E+03  0.75767308293E+02  0.47381939802E+03  0.00000000000E+00 0.  1.
          2    1    6    6  503    0  0.29414391799E+02  0.26006056249E+02  0.44460874288E+02  0.59315181438E+02  0.00000000000E+00 0. -1.
         -2    1    6    6    0  503  0.14883186263E+03  0.47431707976E+03  0.90459541067E+03  0.10321920715E+04  0.00000000000E+00 0.  1.
<mgrwt>
<rscale>  0 0.24913274E+04</rscale>
<asrwt>0</asrwt>
<pdfrwt beam="1">  1        1 0.14570357E+00 0.24913274E+04</pdfrwt>
<pdfrwt beam="2">  1       -2 0.25206046E+00 0.24913274E+04</pdfrwt>
<totfact> 0.81088495E-01</totfact>
</mgrwt>
</event>
<event>
12    5  0.5221187E-008  0.2309078E+04  0.7818608E-02  0.8474350E-01
         -2   -1    0    0    0  501 -0.00000000000E+00  0.00000000000E+00  0.75983958014E+03  0.75983958014E+03  0.00000000000E+00 0.  1.
          1   -1    0    0  501    0  0.00000000000E+00 -0.00000000000E+00 -0.17542651631E+04  0.17542651631E+04  0.00000000000E+00 0. -1.
        -24    2    1    2    0    0  0.58609174528E+03  0.77527461223E+03 -0.51165500201E+03  0.11012506324E+04  0.80049085828E+02 0.  0.
        254    2    1    2    0    0 -0.58609174528E+03 -0.77527461223E+03 -0.48277058091E+03  0.14128541108E+04  0.90472926682E+03 0.  0.
         23    2    4    4    0    0 -0.62175731873E+03 -0.57894650993E+03  0.29072787205E+02  0.85514903156E+03  0.93131168089E+02 0.  0.
         23    2    4    4    0    0  0.35665573447E+02 -0.19632810229E+03 -0.51184336812E+03  0.55770507920E+03  0.96096644049E+02 0.  0.
          1    1    3    3  502    0  0.10753188579E+03  0.96218808644E+02 -0.82227926978E+02  0.16608009385E+03  0.00000000000E+00 0. -1.
         -2    1    3    3    0  502  0.47855985949E+03  0.67905580358E+03 -0.42942707503E+03  0.93517053860E+03  0.00000000000E+00 0.  1.
         13    1    5    5    0    0 -0.54995772764E+02 -0.92855599733E+02  0.74008193425E+01  0.10817333105E+03  0.00000000000E+00 0. -1.
        -13    1    5    5    0    0 -0.56676154596E+03 -0.48609091020E+03  0.21671967863E+02  0.74697570051E+03  0.00000000000E+00 0.  1.
          2    1    6    6  503    0 -0.19162789375E+02 -0.36339404527E+02 -0.18715252421E+03  0.19160853879E+03  0.00000000000E+00 0. -1.
         -2    1    6    6    0  503  0.54828362823E+02 -0.15998869777E+03 -0.32469084391E+03  0.36609654041E+03  0.00000000000E+00 0.  1.
<mgrwt>
<rscale>  0 0.23090778E+04</rscale>
<asrwt>0</asrwt>
<pdfrwt beam="1">  1        1 0.26988695E+00 0.23090778E+04</pdfrwt>
<pdfrwt beam="2">  1       -2 0.11689840E+00 0.23090778E+04</pdfrwt>
<totfact> 0.19668086E+00</totfact>
</mgrwt>
</event>
<event>
12    5  0.5221187E-008  0.1584723E+04  0.7818608E-02  0.8829989E-01
          1   -1    0    0  501    0  0.00000000000E+00  0.00000000000E+00  0.38914695112E+03  0.38914695112E+03  0.00000000000E+00 0. -1.
         -2   -1    0    0    0  501 -0.00000000000E+00 -0.00000000000E+00 -0.16133667747E+04  0.16133667747E+04  0.00000000000E+00 0.  1.
        -24    2    1    2    0    0 -0.21146670504E+03 -0.30103059478E+03 -0.90471473113E+03  0.97992908490E+03  0.80091699821E+02 0.  0.
        254    2    1    2    0    0  0.21146670504E+03  0.30103059478E+03 -0.31950509239E+03  0.10225846409E+04  0.89903184446E+03 0.  0.
         23    2    4    4    0    0  0.79867416798E+02 -0.30391316595E+03 -0.18063204930E+02  0.32800299650E+03  0.92291221859E+02 0.  0.
         23    2    4    4    0    0  0.13159928824E+03  0.60494376073E+03 -0.30144188746E+03  0.69458164438E+03  0.91110498140E+02 0.  0.
          3    1    3    3  502    0 -0.19634171925E+03 -0.26698765173E+03 -0.73634648529E+03  0.80748908556E+03  0.00000000000E+00 0. -1.
         -4    1    3    3    0  502 -0.15124985784E+02 -0.34042943046E+02 -0.16836824584E+03  0.17243999934E+03  0.00000000000E+00 0.  1.
         13    1    5    5    0    0  0.24826916198E+02 -0.56344486836E+02 -0.40029745148E+02  0.73440162454E+02  0.00000000000E+00 0.  1.
        -13    1    5    5    0    0  0.55040500600E+02 -0.24756867912E+03  0.21966540218E+02  0.25456283404E+03  0.00000000000E+00 0. -1.
          1    1    6    6  503    0 -0.10371560257E+02  0.41043727545E+02 -0.35090832048E+02  0.54986574059E+02  0.00000000000E+00 0.  1.
         -1    1    6    6    0  503  0.14197084850E+03  0.56390003319E+03 -0.26635105542E+03  0.63959507032E+03  0.00000000000E+00 0. -1.
<mgrwt>
<rscale>  0 0.15847230E+04</rscale>
<asrwt>0</asrwt>
<pdfrwt beam="1">  1        1 0.59868763E-01 0.15847230E+04</pdfrwt>
<pdfrwt beam="2">  1       -2 0.24821027E+00 0.15847230E+04</pdfrwt>
<totfact> 0.34460974E+00</totfact>
</mgrwt>
</event>
<event>
12    5  0.5221187E-008  0.1503261E+04  0.7818608E-02  0.8882287E-01
         -2   -1    0    0    0  501 -0.00000000000E+00  0.00000000000E+00  0.33458770657E+03  0.33458770657E+03  0.00000000000E+00 0.  1.
          1   -1    0    0  501    0  0.00000000000E+00 -0.00000000000E+00 -0.16884914756E+04  0.16884914756E+04  0.00000000000E+00 0. -1.
        -24    2    1    2    0    0  0.48641957788E+03  0.14862549022E+02 -0.42861709068E+03  0.65309321287E+03  0.77415974837E+02 0.  0.
        254    2    1    2    0    0 -0.48641957788E+03 -0.14862549022E+02 -0.92528667839E+03  0.13699859693E+04  0.88537066695E+03 0.  0.
         23    2    4    4    0    0 -0.49571932952E+03  0.19787667547E+03 -0.15131113710E+03  0.56221845145E+03  0.91113635562E+02 0.  0.
         23    2    4    4    0    0  0.92997516459E+01 -0.21273922449E+03 -0.77397554129E+03  0.80776751790E+03  0.90032002264E+02 0.  0.
          1    1    3    3  502    0  0.27173328014E+02 -0.99464708093E+01 -0.84471215331E+01  0.30144251510E+02  0.00000000000E+00 0. -1.
         -2    1    3    3    0  502  0.45924624986E+03  0.24809019831E+02 -0.42016996915E+03  0.62294896135E+03  0.00000000000E+00 0.  1.
         13    1    5    5    0    0 -0.27331360032E+03  0.83107208656E+02 -0.12054616266E+03  0.31006210601E+03  0.00000000000E+00 0. -1.
        -13    1    5    5    0    0 -0.22240572920E+03  0.11476946681E+03 -0.30764974436E+02  0.25215634544E+03  0.00000000000E+00 0.  1.
          3    1    6    6  503    0  0.42875975463E+02 -0.15493759963E+03 -0.60650302862E+03  0.62744715537E+03  0.00000000000E+00 0. -1.
         -3    1    6    6    0  503 -0.33576223817E+02 -0.57801624860E+02 -0.16747251267E+03  0.18032036253E+03  0.00000000000E+00 0.  1.
<mgrwt>
<rscale>  0 0.15032611E+04</rscale>
<asrwt>0</asrwt>
<pdfrwt beam="1">  1        1 0.25976792E+00 0.15032611E+04</pdfrwt>
<pdfrwt beam="2">  1       -2 0.51475031E-01 0.15032611E+04</pdfrwt>
<totfact> 0.14687804E+01</totfact>
</mgrwt>
</event>
<event>
12    5  0.5221187E-008  0.3332019E+04  0.7818608E-02  0.8154796E-01
         -2   -1    0    0    0  501 -0.00000000000E+00  0.00000000000E+00  0.14171281775E+04  0.14171281775E+04  0.00000000000E+00 0.  1.
          1   -1    0    0  501    0  0.00000000000E+00 -0.00000000000E+00 -0.19586004850E+04  0.19586004850E+04  0.00000000000E+00 0. -1.
        -24    2    1    2    0    0  0.52162569554E+02 -0.11836429236E+04 -0.12568224214E+04  0.17291081540E+04  0.80504067514E+02 0.  0.
        254    2    1    2    0    0 -0.52162569554E+02  0.11836429236E+04  0.71535011389E+03  0.16466205085E+04  0.89213329110E+03 0.  0.
         23    2    4    4    0    0  0.37879841835E+03  0.36542700702E+03  0.12962063640E+03  0.54832995353E+03  0.82698786891E+02 0.  0.
         23    2    4    4    0    0 -0.43096098790E+03  0.81821591662E+03  0.58572947749E+03  0.10982905549E+04  0.89210217709E+02 0.  0.
          1    1    3    3  502    0  0.32288467716E+02 -0.99037537188E+03 -0.10089419263E+04  0.14141604340E+04  0.00000000000E+00 0. -1.
         -2    1    3    3    0  502  0.19874101837E+02 -0.19326755177E+03 -0.24788049510E+03  0.31494772001E+03  0.00000000000E+00 0.  1.
         13    1    5    5    0    0  0.18355383643E+03  0.14372393193E+03  0.91583234159E+02  0.25047169153E+03  0.00000000000E+00 0.  1.
        -13    1    5    5    0    0  0.19524458192E+03  0.22170307509E+03  0.38037402241E+02  0.29785826200E+03  0.00000000000E+00 0. -1.
          1    1    6    6  503    0 -0.83420035413E+02  0.23159991806E+03  0.17887430416E+03  0.30429170387E+03  0.00000000000E+00 0. -1.
         -1    1    6    6    0  503 -0.34754095249E+03  0.58661599856E+03  0.40685517333E+03  0.79399885106E+03  0.00000000000E+00 0.  1.
<mgrwt>
<rscale>  0 0.33320192E+04</rscale>
<asrwt>0</asrwt>
<pdfrwt beam="1">  1        1 0.30132315E+00 0.33320192E+04</pdfrwt>
<pdfrwt beam="2">  1       -2 0.21801972E+00 0.33320192E+04</pdfrwt>
<totfact> 0.23528800E-01</totfact>
</mgrwt>
</event>
<event>
12    5  0.5221187E-008  0.1939177E+04  0.7818608E-02  0.8635598E-01
         -2   -1    0    0    0  501 -0.00000000000E+00  0.00000000000E+00  0.30971880904E+03  0.30971880904E+03  0.00000000000E+00 0.  1.
          1   -1    0    0  501    0  0.00000000000E+00 -0.00000000000E+00 -0.30353390914E+04  0.30353390914E+04  0.00000000000E+00 0. -1.
        -24    2    1    2    0    0  0.19996707720E+03  0.41864922527E+03 -0.20821081432E+04  0.21346059246E+04  0.78192886876E+02 0.  0.
        254    2    1    2    0    0 -0.19996707720E+03 -0.41864922527E+03 -0.64351213917E+03  0.12104519759E+04  0.91423853934E+03 0.  0.
         23    2    4    4    0    0 -0.31152982309E+02 -0.34372178633E+03  0.15240136793E+03  0.38835301922E+03  0.92069082176E+02 0.  0.
         23    2    4    4    0    0 -0.16881409489E+03 -0.74927438943E+02 -0.79591350710E+03  0.82209895663E+03  0.90862885581E+02 0.  0.
          3    1    3    3  502    0  0.15581726401E+03  0.36933360037E+03 -0.18668084545E+04  0.19093611847E+04  0.00000000000E+00 0. -1.
         -4    1    3    3    0  502  0.44149813188E+02  0.49315624897E+02 -0.21529968873E+03  0.22524473985E+03  0.00000000000E+00 0.  1.
         13    1    5    5    0    0 -0.26422576300E+02 -0.29446764612E+03  0.16320604176E+03  0.33770632096E+03  0.00000000000E+00 0. -1.
        -13    1    5    5    0    0 -0.47304060087E+01 -0.49254140201E+02 -0.10804673832E+02  0.50646698259E+02  0.00000000000E+00 0.  1.
          2    1    6    6  503    0 -0.15905144138E+03 -0.79145325257E+02 -0.59628532371E+03  0.62218769740E+03  0.00000000000E+00 0. -1.
         -2    1    6    6    0  503 -0.97626535124E+01  0.42178863136E+01 -0.19962818338E+03  0.19991125924E+03  0.00000000000E+00 0.  1.
<mgrwt>
<rscale>  0 0.19391767E+04</rscale>
<asrwt>0</asrwt>
<pdfrwt beam="1">  1        1 0.46697522E+00 0.19391767E+04</pdfrwt>
<pdfrwt beam="2">  1       -2 0.47649050E-01 0.19391767E+04</pdfrwt>
<totfact> 0.19301561E+00</totfact>
</mgrwt>
</event>
<event>
12    5  0.5221187E-008  0.1029774E+04  0.7818608E-02  0.9276478E-01
         -2   -1    0    0    0  501 -0.00000000000E+00  0.00000000000E+00  0.18828203712E+03  0.18828203712E+03  0.00000000000E+00 0.  1.
          1   -1    0    0  501    0  0.00000000000E+00 -0.00000000000E+00 -0.14080407514E+04  0.14080407514E+04  0.00000000000E+00 0. -1.
        -24    2    1    2    0    0  0.72520847855E+02  0.30976954057E+02 -0.24227239305E+03  0.26596365045E+03  0.76301414595E+02 0.  0.
        254    2    1    2    0    0 -0.72520847855E+02 -0.30976954057E+02 -0.97748632121E+03  0.13303591380E+04  0.89897557418E+03 0.  0.
         23    2    4    4    0    0 -0.78411283068E+02 -0.90878866970E+02 -0.11319687954E+04  0.11419771735E+04  0.91384972757E+02 0.  0.
         23    2    4    4    0    0  0.58904352134E+01  0.59901912912E+02  0.15448247424E+03  0.18838196451E+03  0.89442681695E+02 0.  0.
          3    1    3    3  502    0 -0.11116241430E+02  0.74774969931E+01 -0.87123608952E+02  0.88147643313E+02  0.00000000000E+00 0. -1.
         -4    1    3    3    0  502  0.83637089285E+02  0.23499457064E+02 -0.15514878410E+03  0.17781600714E+03  0.00000000000E+00 0.  1.
         13    1    5    5    0    0  0.99550836695E+01  0.62458831096E+01 -0.30114060170E+02  0.32326016869E+02  0.00000000000E+00 0.  1.
        -13    1    5    5    0    0 -0.88366366738E+02 -0.97124750079E+02 -0.11018547353E+04  0.11096511567E+04  0.00000000000E+00 0. -1.
          4    1    6    6  503    0 -0.19050457330E+02  0.55886061023E+02  0.15191981073E+03  0.16299018569E+03  0.00000000000E+00 0. -1.
         -4    1    6    6    0  503  0.24940892543E+02  0.40158518893E+01  0.25626635104E+01  0.25391778817E+02  0.00000000000E+00 0.  1.
<mgrwt>
<rscale>  0 0.10297743E+04</rscale>
<asrwt>0</asrwt>
<pdfrwt beam="1">  1        1 0.21662165E+00 0.10297743E+04</pdfrwt>
<pdfrwt beam="2">  1       -2 0.28966468E-01 0.10297743E+04</pdfrwt>
<totfact> 0.72876029E+01</totfact>
</mgrwt>
</event>
<event>
12    5  0.5221187E-008  0.4019073E+04  0.7818608E-02  0.8000710E-01
         -2   -1    0    0    0  501 -0.00000000000E+00  0.00000000000E+00  0.16377466504E+04  0.16377466504E+04  0.00000000000E+00 0.  1.
          1   -1    0    0  501    0  0.00000000000E+00 -0.00000000000E+00 -0.24657269321E+04  0.24657269321E+04  0.00000000000E+00 0. -1.
        -24    2    1    2    0    0 -0.16427387460E+04  0.96871526390E+03 -0.31745722859E+03  0.19348772095E+04  0.77271429096E+02 0.  0.
        254    2    1    2    0    0  0.16427387460E+04 -0.96871526390E+03 -0.51052305319E+03  0.21685963730E+04  0.89731632708E+03 0.  0.
         23    2    4    4    0    0  0.22311498092E+03  0.15670207354E+03 -0.13288248623E+02  0.28767950865E+03  0.90813476875E+02 0.  0.
         23    2    4    4    0    0  0.14196237651E+04 -0.11254173374E+04 -0.49723480456E+03  0.18809168643E+04  0.93327283174E+02 0.  0.
          1    1    3    3  502    0 -0.55219227450E+03  0.34206342528E+03 -0.14242024056E+03  0.66498663133E+03  0.00000000000E+00 0. -1.
         -2    1    3    3    0  502 -0.10905464715E+04  0.62665183863E+03 -0.17503698803E+03  0.12698905782E+04  0.00000000000E+00 0.  1.
         13    1    5    5    0    0  0.88820356135E+02  0.10253800729E+03 -0.37771514603E+02  0.14081827267E+03  0.00000000000E+00 0. -1.
        -13    1    5    5    0    0  0.13429462479E+03  0.54164066243E+02  0.24483265980E+02  0.14686123597E+03  0.00000000000E+00 0.  1.
          1    1    6    6  503    0  0.13615622694E+04 -0.10539712767E+04 -0.46749202179E+03  0.17841681692E+04  0.00000000000E+00 0. -1.
         -1    1    6    6    0  503  0.58061495667E+02 -0.71446060786E+02 -0.29742782771E+02  0.96748695122E+02  0.00000000000E+00 0.  1.
<mgrwt>
<rscale>  0 0.40190725E+04</rscale>
<asrwt>0</asrwt>
<pdfrwt beam="1">  1        1 0.37934260E+00 0.40190725E+04</pdfrwt>
<pdfrwt beam="2">  1       -2 0.25196103E+00 0.40190725E+04</pdfrwt>
<totfact> 0.61485190E-02</totfact>
</mgrwt>
</event>
<event>
12    5  0.5221187E-008  0.1873729E+04  0.7818608E-02  0.8668045E-01
          1   -1    0    0  501    0  0.00000000000E+00  0.00000000000E+00  0.51951281634E+03  0.51951281634E+03  0.00000000000E+00 0. -1.
         -2   -1    0    0    0  501 -0.00000000000E+00 -0.00000000000E+00 -0.16894971315E+04  0.16894971315E+04  0.00000000000E+00 0.  1.
        -24    2    1    2    0    0  0.77818847673E+02  0.68528185095E+03 -0.19674352374E+03  0.72141168070E+03  0.77844785434E+02 0.  0.
        254    2    1    2    0    0 -0.77818847673E+02 -0.68528185095E+03 -0.97324079143E+03  0.14875982672E+04  0.88886668181E+03 0.  0.
         23    2    4    4    0    0 -0.24348133298E+01  0.42481953597E+02  0.12740975875E+03  0.16283662204E+03  0.92042784376E+02 0.  0.
         23    2    4    4    0    0 -0.75384034343E+02 -0.72776380455E+03 -0.11006505502E+04  0.13247616451E+04  0.90768248254E+02 0.  0.
          3    1    3    3  502    0  0.52271273930E+02  0.62956956160E+03 -0.16786261340E+03  0.65365738422E+03  0.00000000000E+00 0. -1.
         -4    1    3    3    0  502  0.25547573742E+02  0.55712289351E+02 -0.28880910343E+02  0.67754296477E+02  0.00000000000E+00 0.  1.
         13    1    5    5    0    0  0.22132539549E+02  0.16391628434E+02  0.12379103936E+03  0.12681780717E+03  0.00000000000E+00 0.  1.
        -13    1    5    5    0    0 -0.24567352879E+02  0.26090325163E+02  0.36187193890E+01  0.36018814870E+02  0.00000000000E+00 0. -1.
          1    1    6    6  503    0 -0.51634292059E+02 -0.24465976653E+03 -0.31535950769E+03  0.40246257039E+03  0.00000000000E+00 0. -1.
         -1    1    6    6    0  503 -0.23749742284E+02 -0.48310403802E+03 -0.78529104249E+03  0.92229907472E+03  0.00000000000E+00 0.  1.
<mgrwt>
<rscale>  0 0.18737293E+04</rscale>
<asrwt>0</asrwt>
<pdfrwt beam="1">  1        1 0.79925050E-01 0.18737293E+04</pdfrwt>
<pdfrwt beam="2">  1       -2 0.25992263E+00 0.18737293E+04</pdfrwt>
<totfact> 0.19267567E+00</totfact>
</mgrwt>
</event>
<event>
12    5  0.5221187E-008  0.1901412E+04  0.7818608E-02  0.8654154E-01
         -2   -1    0    0    0  501 -0.00000000000E+00  0.00000000000E+00  0.31444988490E+03  0.31444988490E+03  0.00000000000E+00 0.  1.
          1   -1    0    0  501    0  0.00000000000E+00 -0.00000000000E+00 -0.28743591023E+04  0.28743591023E+04  0.00000000000E+00 0. -1.
        -24    2    1    2    0    0 -0.39407424160E+02 -0.10698489030E+03  0.22008510736E+03  0.26175523917E+03  0.84140590220E+02 0.  0.
        254    2    1    2    0    0  0.39407424160E+02  0.10698489030E+03 -0.27799943247E+04  0.29270537480E+04  0.90899751723E+03 0.  0.
         23    2    4    4    0    0  0.28590319330E+03 -0.27205964296E+03 -0.83385437693E+03  0.92702602859E+03  0.91143022266E+02 0.  0.
         23    2    4    4    0    0 -0.24649576914E+03  0.37904453326E+03 -0.19461399478E+04  0.20000277194E+04  0.90638069072E+02 0.  0.
          3    1    3    3  502    0 -0.30890823670E+02  0.91555375317E+00  0.30327995545E+02  0.43299752187E+02  0.00000000000E+00 0. -1.
         -4    1    3    3    0  502 -0.85166004899E+01 -0.10790044406E+03  0.18975711181E+03  0.21845548699E+03  0.00000000000E+00 0.  1.
         13    1    5    5    0    0  0.69665760210E+02 -0.84609861938E+02 -0.15058319476E+03  0.18624565881E+03  0.00000000000E+00 0.  1.
        -13    1    5    5    0    0  0.21623743309E+03 -0.18744978102E+03 -0.68327118217E+03  0.74078036978E+03  0.00000000000E+00 0. -1.
          1    1    6    6  503    0 -0.23018180286E+03  0.35692040965E+03 -0.16954344532E+04  0.17478197351E+04  0.00000000000E+00 0. -1.
         -1    1    6    6    0  503 -0.16313966283E+02  0.22124123616E+02 -0.25070549460E+03  0.25220798434E+03  0.00000000000E+00 0.  1.
<mgrwt>
<rscale>  0 0.19014120E+04</rscale>
<asrwt>0</asrwt>
<pdfrwt beam="1">  1        1 0.44220908E+00 0.19014120E+04</pdfrwt>
<pdfrwt beam="2">  1       -2 0.48376906E-01 0.19014120E+04</pdfrwt>
<totfact> 0.24566379E+00</totfact>
</mgrwt>
</event>
<event>
12    5  0.5221187E-008  0.1193944E+04  0.7818608E-02  0.9118174E-01
          1   -1    0    0  501    0  0.00000000000E+00  0.00000000000E+00  0.22973322081E+04  0.22973322081E+04  0.00000000000E+00 0. -1.
         -2   -1    0    0    0  501 -0.00000000000E+00 -0.00000000000E+00 -0.15512585977E+03  0.15512585977E+03  0.00000000000E+00 0.  1.
        -24    2    1    2    0    0 -0.60175212067E+02 -0.58726697637E+02  0.91867625928E+03  0.92600795876E+03  0.80341702560E+02 0.  0.
        254    2    1    2    0    0  0.60175212067E+02  0.58726697637E+02  0.12235300890E+04  0.15264501091E+04  0.90882021081E+03 0.  0.
         23    2    4    4    0    0  0.42019531094E+02 -0.28661162193E+03  0.11087746241E+04  0.11503184799E+04  0.99697419528E+02 0.  0.
         23    2    4    4    0    0  0.18155680973E+02  0.34533831957E+03  0.11475546494E+03  0.37613162913E+03  0.93370241443E+02 0.  0.
          3    1    3    3  502    0 -0.53407086799E+01 -0.29764415691E+02  0.63097399444E+03  0.63169820743E+03  0.00000000000E+00 0. -1.
         -4    1    3    3    0  502 -0.54834503387E+02 -0.28962281946E+02  0.28770226484E+03  0.29430975133E+03  0.00000000000E+00 0.  1.
         13    1    5    5    0    0  0.65691885759E+02 -0.26676594064E+03  0.10185669865E+04  0.10549683393E+04  0.00000000000E+00 0. -1.
        -13    1    5    5    0    0 -0.23672354665E+02 -0.19845681292E+02  0.90207637543E+02  0.95350140600E+02  0.00000000000E+00 0.  1.
          4    1    6    6  503    0 -0.35483324174E+02  0.18477040707E+03  0.48151626222E+02  0.19421057832E+03  0.00000000000E+00 0. -1.
         -4    1    6    6    0  503  0.53639005147E+02  0.16056791249E+03  0.66603838716E+02  0.18192105081E+03  0.00000000000E+00 0.  1.
<mgrwt>
<rscale>  0 0.11939441E+04</rscale>
<asrwt>0</asrwt>
<pdfrwt beam="1">  1        1 0.35343570E+00 0.11939441E+04</pdfrwt>
<pdfrwt beam="2">  1       -2 0.23865519E-01 0.11939441E+04</pdfrwt>
<totfact> 0.25462014E+01</totfact>
</mgrwt>
</event>
<event>
12    5  0.5221187E-008  0.2173892E+04  0.7818608E-02  0.8529374E-01
         -2   -1    0    0    0  501 -0.00000000000E+00  0.00000000000E+00  0.54892757478E+03  0.54892757478E+03  0.00000000000E+00 0.  1.
          1   -1    0    0  501    0  0.00000000000E+00 -0.00000000000E+00 -0.21522904152E+04  0.21522904152E+04  0.00000000000E+00 0. -1.
        -24    2    1    2    0    0 -0.78127378103E+03 -0.42729605233E+03 -0.52040826215E+03  0.10352427867E+04  0.89063072092E+02 0.  0.
        254    2    1    2    0    0  0.78127378103E+03  0.42729605233E+03 -0.10829545783E+04  0.16659752033E+04  0.89984005366E+03 0.  0.
         23    2    4    4    0    0  0.14721113723E+03  0.25896618324E+03  0.85022804824E+02  0.32316095089E+03  0.92029994329E+02 0.  0.
         23    2    4    4    0    0  0.63406264380E+03  0.16832986909E+03 -0.11679773831E+04  0.13428142524E+04  0.92782368732E+02 0.  0.
          1    1    3    3  502    0 -0.73987284034E+03 -0.42292723172E+03 -0.48482311348E+03  0.98047575929E+03  0.00000000000E+00 0. -1.
         -2    1    3    3    0  502 -0.41400940698E+02 -0.43688206165E+01 -0.35585148669E+02  0.54767027399E+02  0.00000000000E+00 0.  1.
         13    1    5    5    0    0  0.13127278490E+03  0.19813069980E+03  0.29923118392E+02  0.23954897469E+03  0.00000000000E+00 0.  1.
        -13    1    5    5    0    0  0.15938352327E+02  0.60835483437E+02  0.55099686432E+02  0.83611976205E+02  0.00000000000E+00 0. -1.
          1    1    6    6  503    0  0.88044756421E+02  0.51583422394E+02 -0.22229723472E+03  0.24459924195E+03  0.00000000000E+00 0. -1.
         -1    1    6    6    0  503  0.54601788738E+03  0.11674644670E+03 -0.94568014843E+03  0.10982150105E+04  0.00000000000E+00 0.  1.
<mgrwt>
<rscale>  0 0.21738920E+04</rscale>
<asrwt>0</asrwt>
<pdfrwt beam="1">  1        1 0.33112160E+00 0.21738920E+04</pdfrwt>
<pdfrwt beam="2">  1       -2 0.84450397E-01 0.21738920E+04</pdfrwt>
<totfact> 0.23047986E+00</totfact>
</mgrwt>
</event>
<event>
12    5  0.5221187E-008  0.1884564E+04  0.7818608E-02  0.8662578E-01
         -2   -1    0    0    0  501 -0.00000000000E+00  0.00000000000E+00  0.53663272838E+03  0.53663272838E+03  0.00000000000E+00 0.  1.
          1   -1    0    0  501    0  0.00000000000E+00 -0.00000000000E+00 -0.16545682152E+04  0.16545682152E+04  0.00000000000E+00 0. -1.
        -24    2    1    2    0    0 -0.57151918345E+03 -0.31784990233E+03 -0.79903320085E+03  0.10356034594E+04  0.79735384900E+02 0.  0.
        254    2    1    2    0    0  0.57151918345E+03  0.31784990233E+03 -0.31890228594E+03  0.11555974841E+04  0.89779961011E+03 0.  0.
         23    2    4    4    0    0  0.75059970668E+03  0.43142487836E+03 -0.19328377812E+03  0.89146758983E+03  0.88478808166E+02 0.  0.
         23    2    4    4    0    0 -0.17908052323E+03 -0.11357497603E+03 -0.12561850781E+03  0.26412989431E+03  0.94949895117E+02 0.  0.
          1    1    3    3  502    0 -0.52257043886E+03 -0.27766215550E+03 -0.75094528731E+03  0.95608313483E+03  0.00000000000E+00 0. -1.
         -2    1    3    3    0  502 -0.48948744590E+02 -0.40187746826E+02 -0.48087913538E+02  0.79520324574E+02  0.00000000000E+00 0.  1.
         13    1    5    5    0    0  0.71868703065E+03  0.43076013634E+03 -0.18069851252E+03  0.85715651751E+03  0.00000000000E+00 0.  1.
        -13    1    5    5    0    0  0.31912676032E+02  0.66474201980E+00 -0.12585265601E+02  0.34311072320E+02  0.00000000000E+00 0. -1.
          3    1    6    6  503    0 -0.12718332458E+02 -0.11708245069E+02  0.15617028449E+02  0.23296578304E+02  0.00000000000E+00 0. -1.
         -3    1    6    6    0  503 -0.16636219077E+03 -0.10186673096E+03 -0.14123553626E+03  0.24083331601E+03  0.00000000000E+00 0.  1.
<mgrwt>
<rscale>  0 0.18845641E+04</rscale>
<asrwt>0</asrwt>
<pdfrwt beam="1">  1        1 0.25454896E+00 0.18845641E+04</pdfrwt>
<pdfrwt beam="2">  1       -2 0.82558882E-01 0.18845641E+04</pdfrwt>
<totfact> 0.54198404E+00</totfact>
</mgrwt>
</event>
<event>
12    5  0.5221187E-008  0.1670275E+04  0.7818608E-02  0.8778502E-01
         -4   -1    0    0    0  501 -0.00000000000E+00  0.00000000000E+00  0.68009840202E+03  0.68009840202E+03  0.00000000000E+00 0.  1.
          3   -1    0    0  501    0  0.00000000000E+00 -0.00000000000E+00 -0.10255198880E+04  0.10255198880E+04  0.00000000000E+00 0. -1.
        -24    2    1    2    0    0 -0.33339367042E+03 -0.40350063012E+03  0.15472796676E+03  0.55183929565E+03  0.81374237562E+02 0.  0.
        254    2    1    2    0    0  0.33339367042E+03  0.40350063012E+03 -0.50014945278E+03  0.11537789944E+04  0.89838321158E+03 0.  0.
         23    2    4    4    0    0  0.59142401051E+03  0.42591841785E+03 -0.23163378451E+03  0.77017056640E+03  0.91212018636E+02 0.  0.
         23    2    4    4    0    0 -0.25803034009E+03 -0.22417787729E+02 -0.26851566827E+03  0.38360842802E+03  0.89289127719E+02 0.  0.
          1    1    3    3  502    0 -0.13851676267E+03 -0.10788283763E+03  0.55189930617E+02  0.18404219255E+03  0.00000000000E+00 0. -1.
         -2    1    3    3    0  502 -0.19487690775E+03 -0.29561779249E+03  0.99538036144E+02  0.36779710311E+03  0.00000000000E+00 0.  1.
         13    1    5    5    0    0  0.20112972928E+03  0.17295735430E+03 -0.12378696813E+03  0.29272961566E+03  0.00000000000E+00 0. -1.
        -13    1    5    5    0    0  0.39029428123E+03  0.25296106356E+03 -0.10784681638E+03  0.47744095074E+03  0.00000000000E+00 0.  1.
          4    1    6    6  503    0 -0.95511813173E+02 -0.23163068852E+02 -0.16138487035E+03  0.18895531374E+03  0.00000000000E+00 0. -1.
         -4    1    6    6    0  503 -0.16251852691E+03  0.74528112234E+00 -0.10713079792E+03  0.19465311427E+03  0.00000000000E+00 0.  1.
<mgrwt>
<rscale>  0 0.16702748E+04</rscale>
<asrwt>0</asrwt>
<pdfrwt beam="1">  1        3 0.15777229E+00 0.16702748E+04</pdfrwt>
<pdfrwt beam="2">  1       -4 0.10463052E+00 0.16702748E+04</pdfrwt>
<totfact> 0.45867490E-01</totfact>
</mgrwt>
</event>
<event>
12    5  0.5221187E-008  0.2289853E+04  0.7818608E-02  0.8481933E-01
         -2   -1    0    0    0  501 -0.00000000000E+00  0.00000000000E+00  0.16113163055E+04  0.16113163055E+04  0.00000000000E+00 0.  1.
          1   -1    0    0  501    0  0.00000000000E+00 -0.00000000000E+00 -0.81353184770E+03  0.81353184770E+03  0.00000000000E+00 0. -1.
        -24    2    1    2    0    0 -0.22080098653E+03  0.90385487887E+03  0.76529459619E+02  0.93767512233E+03  0.87585153622E+02 0.  0.
        254    2    1    2    0    0  0.22080098653E+03 -0.90385487887E+03  0.72125499821E+03  0.14871730309E+04  0.90871785153E+03 0.  0.
         23    2    4    4    0    0 -0.33198139537E+03 -0.39766596971E+03  0.42470991882E+03  0.67601366971E+03  0.90918073823E+02 0.  0.
         23    2    4    4    0    0  0.55278238190E+03 -0.50618890915E+03  0.29654507938E+03  0.81115936119E+03  0.90801716162E+02 0.  0.
          1    1    3    3  502    0 -0.87797313973E+02  0.23383798282E+03  0.45446294084E+02  0.25387779776E+03  0.00000000000E+00 0. -1.
         -2    1    3    3    0  502 -0.13300367256E+03  0.67001689605E+03  0.31083165535E+02  0.68379732456E+03  0.00000000000E+00 0.  1.
         13    1    5    5    0    0 -0.12389585222E+02 -0.58758192929E+02  0.51863025876E+02  0.79346080630E+02  0.00000000000E+00 0.  1.
        -13    1    5    5    0    0 -0.31959181014E+03 -0.33890777678E+03  0.37284689295E+03  0.59666758908E+03  0.00000000000E+00 0. -1.
          3    1    6    6  503    0  0.36961196817E+03 -0.39092812663E+03  0.19676431392E+03  0.57284727671E+03  0.00000000000E+00 0. -1.
         -3    1    6    6    0  503  0.18317041372E+03 -0.11526078253E+03  0.99780765469E+02  0.23831208448E+03  0.00000000000E+00 0.  1.
<mgrwt>
<rscale>  0 0.22898534E+04</rscale>
<asrwt>0</asrwt>
<pdfrwt beam="1">  1        1 0.12515875E+00 0.22898534E+04</pdfrwt>
<pdfrwt beam="2">  1       -2 0.24789482E+00 0.22898534E+04</pdfrwt>
<totfact> 0.11296128E+00</totfact>
</mgrwt>
</event>
<event>
12    5  0.5221187E-008  0.1678849E+04  0.7818608E-02  0.8773520E-01
          1   -1    0    0  501    0  0.00000000000E+00  0.00000000000E+00  0.24361228784E+04  0.24361228784E+04  0.00000000000E+00 0. -1.
         -2   -1    0    0    0  501 -0.00000000000E+00 -0.00000000000E+00 -0.28924394168E+03  0.28924394168E+03  0.00000000000E+00 0.  1.
        -24    2    1    2    0    0  0.34669331454E+03 -0.21126310152E+02  0.15497161985E+04  0.15900640234E+04  0.77722116092E+02 0.  0.
        254    2    1    2    0    0 -0.34669331454E+03  0.21126310152E+02  0.59716273817E+03  0.11353027966E+04  0.90092537362E+03 0.  0.
         23    2    4    4    0    0 -0.35829471022E+03  0.41698649030E+03  0.31010088813E+03  0.63779297762E+03  0.91457580407E+02 0.  0.
         23    2    4    4    0    0  0.11601395679E+02 -0.39586018015E+03  0.28706185005E+03  0.49750981900E+03  0.90948554945E+02 0.  0.
          1    1    3    3  502    0  0.32326679804E+03 -0.38617555175E+02  0.14529170819E+04  0.14889461996E+04  0.00000000000E+00 0. -1.
         -2    1    3    3    0  502  0.23426516499E+02  0.17491245023E+02  0.96799116600E+02  0.10111782386E+03  0.00000000000E+00 0.  1.
         13    1    5    5    0    0 -0.23605880022E+03  0.21102331464E+03  0.15578228725E+03  0.35287776567E+03  0.00000000000E+00 0.  1.
        -13    1    5    5    0    0 -0.12223591000E+03  0.20596317566E+03  0.15431860088E+03  0.28491521194E+03  0.00000000000E+00 0. -1.
          2    1    6    6  503    0 -0.28423705948E+01 -0.26758628250E+02  0.55134021465E+02  0.61350334794E+02  0.00000000000E+00 0. -1.
         -2    1    6    6    0  503  0.14443766274E+02 -0.36910155190E+03  0.23192782858E+03  0.43615948421E+03  0.00000000000E+00 0.  1.
<mgrwt>
<rscale>  0 0.16788493E+04</rscale>
<asrwt>0</asrwt>
<pdfrwt beam="1">  1        1 0.37478812E+00 0.16788493E+04</pdfrwt>
<pdfrwt beam="2">  1       -2 0.44499070E-01 0.16788493E+04</pdfrwt>
<totfact> 0.60225355E+00</totfact>
</mgrwt>
</event>
<event>
12    5  0.5221187E-008  0.1391796E+04  0.7818608E-02  0.8959779E-01
         -4   -1    0    0    0  501 -0.00000000000E+00  0.00000000000E+00  0.35118291027E+03  0.35118291027E+03  0.00000000000E+00 0.  1.
          3   -1    0    0  501    0  0.00000000000E+00 -0.00000000000E+00 -0.13789794813E+04  0.13789794813E+04  0.00000000000E+00 0. -1.
        -24    2    1    2    0    0  0.78511626950E+02 -0.28904553357E+03 -0.60905252502E+03  0.68346305246E+03  0.80407523305E+02 0.  0.
        254    2    1    2    0    0 -0.78511626950E+02  0.28904553357E+03 -0.41874404600E+03  0.10466993391E+04  0.91132954214E+03 0.  0.
         23    2    4    4    0    0  0.53070492288E+02  0.31997370548E+03 -0.66974340665E+03  0.74970752875E+03  0.91134508032E+02 0.  0.
         23    2    4    4    0    0 -0.13158211924E+03 -0.30928171917E+02  0.25099936065E+03  0.29699181035E+03  0.83264941289E+02 0.  0.
          3    1    3    3  502    0  0.72423792497E+02 -0.19188203539E+03 -0.47855323888E+03  0.52065067336E+03  0.00000000000E+00 0. -1.
         -4    1    3    3    0  502  0.60878344531E+01 -0.97163498174E+02 -0.13049928614E+03  0.16281237910E+03  0.00000000000E+00 0.  1.
         13    1    5    5    0    0  0.19972094981E+02  0.23812223532E+02 -0.12471074757E+03  0.12852500584E+03  0.00000000000E+00 0. -1.
        -13    1    5    5    0    0  0.33098397307E+02  0.29616148195E+03 -0.54503265908E+03  0.62118252290E+03  0.00000000000E+00 0.  1.
          2    1    6    6  503    0  0.55331738320E+01 -0.46735339778E+01 -0.24421153377E+01  0.76434193801E+01  0.00000000000E+00 0. -1.
         -2    1    6    6    0  503 -0.13711529307E+03 -0.26254637939E+02  0.25344147599E+03  0.28934839097E+03  0.00000000000E+00 0.  1.
<mgrwt>
<rscale>  0 0.13917960E+04</rscale>
<asrwt>0</asrwt>
<pdfrwt beam="1">  1        3 0.21215069E+00 0.13917960E+04</pdfrwt>
<pdfrwt beam="2">  1       -4 0.54028141E-01 0.13917960E+04</pdfrwt>
<totfact> 0.90694700E-01</totfact>
</mgrwt>
</event>
<event>
12    5  0.5221187E-008  0.1770605E+04  0.7818608E-02  0.8722089E-01
          1   -1    0    0  501    0  0.00000000000E+00  0.00000000000E+00  0.17992426511E+04  0.17992426511E+04  0.00000000000E+00 0. -1.
         -2   -1    0    0    0  501 -0.00000000000E+00 -0.00000000000E+00 -0.43560603315E+03  0.43560603315E+03  0.00000000000E+00 0.  1.
        -24    2    1    2    0    0 -0.48232299369E+02  0.58114106613E+03  0.86549837300E+03  0.10466981746E+04  0.80239276910E+02 0.  0.
        254    2    1    2    0    0  0.48232299369E+02 -0.58114106613E+03  0.49813824497E+03  0.11881505097E+04  0.90747376222E+03 0.  0.
         23    2    4    4    0    0 -0.41996276907E+03 -0.28601225511E+03  0.20725758157E+03  0.55634818946E+03  0.91628954616E+02 0.  0.
         23    2    4    4    0    0  0.46819506844E+03 -0.29512881102E+03  0.29088066340E+03  0.63180232022E+03  0.90856889041E+02 0.  0.
          3    1    3    3  502    0 -0.14132231106E+01  0.41872299075E+03  0.59018657739E+03  0.72363743429E+03  0.00000000000E+00 0. -1.
         -4    1    3    3    0  502 -0.46819076258E+02  0.16241807539E+03  0.27531179561E+03  0.32306074029E+03  0.00000000000E+00 0.  1.
         13    1    5    5    0    0 -0.78380934407E+02 -0.61116147372E+02  0.81340165360E+02  0.12843277171E+03  0.00000000000E+00 0. -1.
        -13    1    5    5    0    0 -0.34158183466E+03 -0.22489610774E+03  0.12591741621E+03  0.42791541775E+03  0.00000000000E+00 0.  1.
          2    1    6    6  503    0  0.43821397088E+03 -0.26323288831E+03  0.29060721071E+03  0.58802686051E+03  0.00000000000E+00 0.  1.
         -2    1    6    6    0  503  0.29981097558E+02 -0.31895922712E+02  0.27345269282E+00  0.43775459710E+02  0.00000000000E+00 0. -1.
<mgrwt>
<rscale>  0 0.17706055E+04</rscale>
<asrwt>0</asrwt>
<pdfrwt beam="1">  1        1 0.27680656E+00 0.17706055E+04</pdfrwt>
<pdfrwt beam="2">  1       -2 0.67016314E-01 0.17706055E+04</pdfrwt>
<totfact> 0.69229366E+00</totfact>
</mgrwt>
</event>
<event>
12    5  0.5221187E-008  0.3221389E+04  0.7818608E-02  0.8183191E-01
         -2   -1    0    0    0  501 -0.00000000000E+00  0.00000000000E+00  0.10639769954E+04  0.10639769954E+04  0.00000000000E+00 0.  1.
          1   -1    0    0  501    0  0.00000000000E+00 -0.00000000000E+00 -0.24383386703E+04  0.24383386703E+04  0.00000000000E+00 0. -1.
        -24    2    1    2    0    0  0.69811297041E+03  0.12449379316E+03 -0.20487512482E+04  0.21694993611E+04  0.80531837227E+02 0.  0.
        254    2    1    2    0    0 -0.69811297041E+03 -0.12449379316E+03  0.67438957333E+03  0.13328163045E+04  0.90484119107E+03 0.  0.
         23    2    4    4    0    0 -0.40161659642E+03  0.25462760076E+02 -0.15014147088E+03  0.43906230199E+03  0.91043951341E+02 0.  0.
         23    2    4    4    0    0 -0.29649637399E+03 -0.14995655324E+03  0.82453104420E+03  0.89375400256E+03  0.92453807822E+02 0.  0.
          1    1    3    3  502    0  0.60870625462E+03  0.13503633783E+03 -0.17749709770E+04  0.18812974476E+04  0.00000000000E+00 0. -1.
         -2    1    3    3    0  502  0.89406715786E+02 -0.10542544666E+02 -0.27378027119E+03  0.28820191354E+03  0.00000000000E+00 0.  1.
         13    1    5    5    0    0 -0.37119873918E+03  0.17098230337E+02 -0.16198684149E+03  0.40536476199E+03  0.00000000000E+00 0.  1.
        -13    1    5    5    0    0 -0.30417857240E+02  0.83645297381E+01  0.11845370607E+02  0.33697539994E+02  0.00000000000E+00 0. -1.
          2    1    6    6  503    0 -0.23686261896E+03 -0.83178509266E+02  0.66515936103E+03  0.71095677804E+03  0.00000000000E+00 0.  1.
         -2    1    6    6    0  503 -0.59633755031E+02 -0.66778043974E+02  0.15937168317E+03  0.18279722452E+03  0.00000000000E+00 0. -1.
<mgrwt>
<rscale>  0 0.32213887E+04</rscale>
<asrwt>0</asrwt>
<pdfrwt beam="1">  1        1 0.37512902E+00 0.32213887E+04</pdfrwt>
<pdfrwt beam="2">  1       -2 0.16368877E+00 0.32213887E+04</pdfrwt>
<totfact> 0.25986742E-01</totfact>
</mgrwt>
</event>
<event>
12    5  0.5221187E-008  0.1426182E+04  0.7818608E-02  0.8935082E-01
         -2   -1    0    0    0  501 -0.00000000000E+00  0.00000000000E+00  0.47606659690E+03  0.47606659690E+03  0.00000000000E+00 0.  1.
          1   -1    0    0  501    0  0.00000000000E+00 -0.00000000000E+00 -0.10681249603E+04  0.10681249603E+04  0.00000000000E+00 0. -1.
        -24    2    1    2    0    0  0.91300610429E+02  0.16566998113E+03  0.22288954597E+03  0.30500436644E+03  0.86980283561E+02 0.  0.
        254    2    1    2    0    0 -0.91300610429E+02 -0.16566998113E+03 -0.81494790942E+03  0.12391871908E+04  0.91414575133E+03 0.  0.
         23    2    4    4    0    0 -0.45708615525E+03  0.34836132104E+02 -0.24820105494E+03  0.52956156483E+03  0.93222196120E+02 0.  0.
         23    2    4    4    0    0  0.36578554482E+03 -0.20050611324E+03 -0.56674685448E+03  0.70962562598E+03  0.91459093240E+02 0.  0.
          1    1    3    3  502    0  0.25955459988E+02  0.11788552245E+03  0.94832372286E+02  0.15350524792E+03  0.00000000000E+00 0. -1.
         -4    1    3    3    0  502  0.65345150441E+02  0.47784458682E+02  0.12805717369E+03  0.15149911851E+03  0.00000000000E+00 0.  1.
         13    1    5    5    0    0  0.35421049909E+01  0.50913481347E+01 -0.30253562949E+01  0.69008053375E+01  0.00000000000E+00 0. -1.
        -13    1    5    5    0    0 -0.46062826024E+03  0.29744783970E+02 -0.24517569865E+03  0.52266075949E+03  0.00000000000E+00 0.  1.
          2    1    6    6  503    0  0.22704618541E+02 -0.13351808333E+02 -0.86703432189E+02  0.90615978956E+02  0.00000000000E+00 0. -1.
         -2    1    6    6    0  503  0.34308092628E+03 -0.18715430490E+03 -0.48004342229E+03  0.61900964702E+03  0.00000000000E+00 0.  1.
<mgrwt>
<rscale>  0 0.14261818E+04</rscale>
<asrwt>0</asrwt>
<pdfrwt beam="1">  1        1 0.16432692E+00 0.14261818E+04</pdfrwt>
<pdfrwt beam="2">  1       -2 0.73241015E-01 0.14261818E+04</pdfrwt>
<totfact> 0.19247872E+01</totfact>
</mgrwt>
</event>
<event>
12    5  0.5221187E-008  0.2141602E+04  0.7818608E-02  0.8543136E-01
          1   -1    0    0  501    0  0.00000000000E+00  0.00000000000E+00  0.68039381830E+03  0.68039381830E+03  0.00000000000E+00 0. -1.
         -2   -1    0    0    0  501 -0.00000000000E+00 -0.00000000000E+00 -0.16852224089E+04  0.16852224089E+04  0.00000000000E+00 0.  1.
        -24    2    1    2    0    0  0.72918836022E+03  0.41962950222E+03 -0.16352040194E+03  0.86033449041E+03  0.75046183982E+02 0.  0.
        254    2    1    2    0    0 -0.72918836022E+03 -0.41962950222E+03 -0.84130818866E+03  0.15052817368E+04  0.92210034975E+03 0.  0.
         23    2    4    4    0    0  0.20041965573E+03 -0.79237266360E+02 -0.72657078710E+02  0.24878566309E+03  0.10083983483E+03 0.  0.
         23    2    4    4    0    0 -0.92960801595E+03 -0.34039223586E+03 -0.76865110995E+03  0.12564960737E+04  0.88993914644E+02 0.  0.
          3    1    3    3  502    0  0.59761247635E+03  0.34323679725E+03 -0.10404288632E+03  0.69697711086E+03  0.00000000000E+00 0. -1.
         -4    1    3    3    0  502  0.13157588387E+03  0.76392704963E+02 -0.59477515617E+02  0.16335737955E+03  0.00000000000E+00 0.  1.
         13    1    5    5    0    0  0.12359882015E+03 -0.71860392386E+02 -0.90983166524E+02  0.16946539743E+03  0.00000000000E+00 0. -1.
        -13    1    5    5    0    0  0.76820835585E+02 -0.73768739742E+01  0.18326087814E+02  0.79320265659E+02  0.00000000000E+00 0.  1.
          2    1    6    6  503    0 -0.52802236576E+03 -0.15257978878E+03 -0.39734635020E+03  0.67821260140E+03  0.00000000000E+00 0. -1.
         -2    1    6    6    0  503 -0.40158565019E+03 -0.18781244708E+03 -0.37130475975E+03  0.57828347230E+03  0.00000000000E+00 0.  1.
<mgrwt>
<rscale>  0 0.21416021E+04</rscale>
<asrwt>0</asrwt>
<pdfrwt beam="1">  1        1 0.10467597E+00 0.21416021E+04</pdfrwt>
<pdfrwt beam="2">  1       -2 0.25926498E+00 0.21416021E+04</pdfrwt>
<totfact> 0.12871858E+00</totfact>
</mgrwt>
</event>
<event>
12    5  0.5221187E-008  0.1390586E+04  0.7818608E-02  0.8960661E-01
          1   -1    0    0  501    0  0.00000000000E+00  0.00000000000E+00  0.16473121084E+04  0.16473121084E+04  0.00000000000E+00 0. -1.
         -2   -1    0    0    0  501 -0.00000000000E+00 -0.00000000000E+00 -0.29346748707E+03  0.29346748707E+03  0.00000000000E+00 0.  1.
        -24    2    1    2    0    0  0.86152085161E+02  0.24258200206E+03 -0.26363022558E+02  0.27047586154E+03  0.78701799320E+02 0.  0.
        254    2    1    2    0    0 -0.86152085161E+02 -0.24258200206E+03  0.13802076439E+04  0.16703037339E+04  0.90480562212E+03 0.  0.
         23    2    4    4    0    0  0.21892685039E+03  0.25381090221E+03  0.58329464072E+03  0.67884711339E+03  0.90839559521E+02 0.  0.
         23    2    4    4    0    0 -0.30507893555E+03 -0.49639290426E+03  0.79691300316E+03  0.99145662052E+03  0.91852182613E+02 0.  0.
          3    1    3    3  502    0  0.91511234666E+02  0.19285039682E+03  0.99536348253E+00  0.21346328109E+03  0.00000000000E+00 0. -1.
         -4    1    3    3    0  502 -0.53591495052E+01  0.49731605236E+02 -0.27358386040E+02  0.57012580450E+02  0.00000000000E+00 0.  1.
         13    1    5    5    0    0  0.12050406083E+03  0.72033283080E+02  0.22552058059E+03  0.26564930795E+03  0.00000000000E+00 0.  1.
        -13    1    5    5    0    0  0.98422789564E+02  0.18177761913E+03  0.35777406013E+03  0.41319780544E+03  0.00000000000E+00 0. -1.
          3    1    6    6  503    0 -0.84916164611E+02 -0.19384787075E+03  0.34508680355E+03  0.40481187482E+03  0.00000000000E+00 0. -1.
         -3    1    6    6    0  503 -0.22016277094E+03 -0.30254503351E+03  0.45182619961E+03  0.58664474571E+03  0.00000000000E+00 0.  1.
<mgrwt>
<rscale>  0 0.13905863E+04</rscale>
<asrwt>0</asrwt>
<pdfrwt beam="1">  1        1 0.25343263E+00 0.13905863E+04</pdfrwt>
<pdfrwt beam="2">  1       -2 0.45148845E-01 0.13905863E+04</pdfrwt>
<totfact> 0.20632196E+01</totfact>
</mgrwt>
</event>
<event>
12    5  0.5221187E-008  0.1809937E+04  0.7818608E-02  0.8701033E-01
         -2   -1    0    0    0  501 -0.00000000000E+00  0.00000000000E+00  0.11348517178E+04  0.11348517178E+04  0.00000000000E+00 0.  1.
          1   -1    0    0  501    0  0.00000000000E+00 -0.00000000000E+00 -0.72165181529E+03  0.72165181529E+03  0.00000000000E+00 0. -1.
        -24    2    1    2    0    0 -0.45963795767E+03  0.50023322330E+03  0.18904144815E+03  0.70965101050E+03  0.79796978382E+02 0.  0.
        254    2    1    2    0    0  0.45963795767E+03 -0.50023322330E+03  0.22415845436E+03  0.11468525226E+04  0.89639464861E+03 0.  0.
         23    2    4    4    0    0  0.51619819188E+03 -0.56564148122E+03  0.44740103468E+03  0.89077042478E+03  0.83026533477E+02 0.  0.
         23    2    4    4    0    0 -0.56560234207E+02  0.65408257914E+02 -0.22324258032E+03  0.25608209779E+03  0.90903744943E+02 0.  0.
          1    1    3    3  502    0 -0.31865977887E+03  0.33161705662E+03  0.90230695370E+02  0.46867419952E+03  0.00000000000E+00 0. -1.
         -2    1    3    3    0  502 -0.14097817881E+03  0.16861616668E+03  0.98810752780E+02  0.24097681098E+03  0.00000000000E+00 0.  1.
         13    1    5    5    0    0  0.46221487425E+03 -0.53608143159E+03  0.39957437212E+03  0.81282567019E+03  0.00000000000E+00 0.  1.
        -13    1    5    5    0    0  0.53983317627E+02 -0.29560049630E+02  0.47826662555E+02  0.77944754585E+02  0.00000000000E+00 0. -1.
          3    1    6    6  503    0 -0.69590858709E+02  0.12690515560E+02 -0.11582189959E+03  0.13571532421E+03  0.00000000000E+00 0. -1.
         -3    1    6    6    0  503  0.13030624502E+02  0.52717742354E+02 -0.10742068073E+03  0.12036677358E+03  0.00000000000E+00 0.  1.
<mgrwt>
<rscale>  0 0.18099368E+04</rscale>
<asrwt>0</asrwt>
<pdfrwt beam="1">  1        1 0.11102336E+00 0.18099368E+04</pdfrwt>
<pdfrwt beam="2">  1       -2 0.17459257E+00 0.18099368E+04</pdfrwt>
<totfact> 0.42437310E+00</totfact>
</mgrwt>
</event>
<event>
12    5  0.5221187E-008  0.1294687E+04  0.7818608E-02  0.9033789E-01
         -2   -1    0    0    0  501 -0.00000000000E+00  0.00000000000E+00  0.21914418805E+03  0.21914418805E+03  0.00000000000E+00 0.  1.
          1   -1    0    0  501    0  0.00000000000E+00 -0.00000000000E+00 -0.19122276250E+04  0.19122276250E+04  0.00000000000E+00 0. -1.
        -24    2    1    2    0    0  0.96205318994E+02 -0.16709607009E+03 -0.82766649295E+03  0.85354316954E+03  0.79545953205E+02 0.  0.
        254    2    1    2    0    0 -0.96205318994E+02  0.16709607009E+03 -0.86541694401E+03  0.12778286435E+04  0.92017552411E+03 0.  0.
         23    2    4    4    0    0 -0.46478310430E+03  0.18671392902E+03 -0.28242456910E+03  0.58193976557E+03  0.89469705413E+02 0.  0.
         23    2    4    4    0    0  0.36857778530E+03 -0.19617858934E+02 -0.58299237491E+03  0.69588887795E+03  0.90259498360E+02 0.  0.
          1    1    3    3  502    0  0.91004039512E+02 -0.14412866824E+03 -0.79619460440E+03  0.81423624108E+03  0.00000000000E+00 0. -1.
         -2    1    3    3    0  502  0.52012794814E+01 -0.22967401844E+02 -0.31471888553E+02  0.39306928458E+02  0.00000000000E+00 0.  1.
         13    1    5    5    0    0 -0.23453412402E+03  0.55937390477E+02 -0.16568461213E+03  0.29255194014E+03  0.00000000000E+00 0. -1.
        -13    1    5    5    0    0 -0.23024898027E+03  0.13077653854E+03 -0.11673995697E+03  0.28938782543E+03  0.00000000000E+00 0.  1.
          3    1    6    6  503    0  0.23469563532E+03  0.12383673384E+02 -0.29915000472E+03  0.38042886580E+03  0.00000000000E+00 0. -1.
         -3    1    6    6    0  503  0.13388214998E+03 -0.32001532318E+02 -0.28384237019E+03  0.31546001216E+03  0.00000000000E+00 0.  1.
<mgrwt>
<rscale>  0 0.12946869E+04</rscale>
<asrwt>0</asrwt>
<pdfrwt beam="1">  1        1 0.29418886E+00 0.12946869E+04</pdfrwt>
<pdfrwt beam="2">  1       -2 0.33714491E-01 0.12946869E+04</pdfrwt>
<totfact> 0.24289662E+01</totfact>
</mgrwt>
</event>
<event>
12    5  0.5221187E-008  0.3060839E+04  0.7818608E-02  0.8226568E-01
         -2   -1    0    0    0  501 -0.00000000000E+00  0.00000000000E+00  0.23094052579E+04  0.23094052579E+04  0.00000000000E+00 0.  1.
          1   -1    0    0  501    0  0.00000000000E+00 -0.00000000000E+00 -0.10141934551E+04  0.10141934551E+04  0.00000000000E+00 0. -1.
        -24    2    1    2    0    0 -0.58439282010E+02  0.60391518918E+03  0.19610999320E+04  0.20546132014E+04  0.85986968399E+02 0.  0.
        254    2    1    2    0    0  0.58439282010E+02 -0.60391518918E+03 -0.66588812920E+03  0.12689855115E+04  0.89374969787E+03 0.  0.
         23    2    4    4    0    0  0.29339296957E+03 -0.42071265500E+03  0.14011814141E+02  0.52102891534E+03  0.90533016181E+02 0.  0.
         23    2    4    4    0    0 -0.23495368756E+03 -0.18320253418E+03 -0.67989994334E+03  0.74795659618E+03  0.91699143908E+02 0.  0.
          3    1    3    3  502    0 -0.45744465954E+02  0.22956438318E+03  0.64102710621E+03  0.68242810104E+03  0.00000000000E+00 0. -1.
         -4    1    3    3    0  502 -0.12694816056E+02  0.37435080600E+03  0.13200728258E+04  0.13721851004E+04  0.00000000000E+00 0.  1.
         13    1    5    5    0    0  0.48177112311E+02 -0.71485778185E+02  0.36731780351E+02  0.93704185185E+02  0.00000000000E+00 0. -1.
        -13    1    5    5    0    0  0.24521585726E+03 -0.34922687682E+03 -0.22719966210E+02  0.42732473016E+03  0.00000000000E+00 0.  1.
          1    1    6    6  503    0 -0.25340128808E+02 -0.67936427842E+02 -0.15633739120E+03  0.17233357259E+03  0.00000000000E+00 0. -1.
         -1    1    6    6    0  503 -0.20961355875E+03 -0.11526610634E+03 -0.52356255214E+03  0.57562302359E+03  0.00000000000E+00 0.  1.
<mgrwt>
<rscale>  0 0.30608389E+04</rscale>
<asrwt>0</asrwt>
<pdfrwt beam="1">  1        1 0.15602976E+00 0.30608389E+04</pdfrwt>
<pdfrwt beam="2">  1       -2 0.35529312E+00 0.30608389E+04</pdfrwt>
<totfact> 0.15779822E-01</totfact>
</mgrwt>
</event>
<event>
12    5  0.5221187E-008  0.1335461E+04  0.7818608E-02  0.9001907E-01
         -2   -1    0    0    0  501 -0.00000000000E+00  0.00000000000E+00  0.31770062861E+04  0.31770062861E+04  0.00000000000E+00 0.  1.
          1   -1    0    0  501    0  0.00000000000E+00 -0.00000000000E+00 -0.14034100970E+03  0.14034100970E+03  0.00000000000E+00 0. -1.
        -24    2    1    2    0    0 -0.57803243823E+02 -0.27177933847E+03  0.23144401324E+03  0.37041050477E+03  0.80202163064E+02 0.  0.
        254    2    1    2    0    0  0.57803243823E+02  0.27177933847E+03  0.28052212632E+04  0.29469367910E+04  0.85904882938E+03 0.  0.
         23    2    4    4    0    0  0.21005340953E+03 -0.20548320309E+03  0.50785545329E+03  0.59377205082E+03  0.91116986848E+02 0.  0.
         23    2    4    4    0    0 -0.15225016571E+03  0.47726254156E+03  0.22973658099E+04  0.23531647402E+04  0.92384975491E+02 0.  0.
          3    1    3    3  502    0 -0.62905498130E+02 -0.11931570409E+03  0.88275174302E+02  0.16120125724E+03  0.00000000000E+00 0. -1.
         -4    1    3    3    0  502  0.51022543071E+01 -0.15246363437E+03  0.14316883894E+03  0.20920924752E+03  0.00000000000E+00 0.  1.
         13    1    5    5    0    0  0.18237391777E+03 -0.20575946477E+03  0.42291187427E+03  0.50443201388E+03  0.00000000000E+00 0.  1.
        -13    1    5    5    0    0  0.27679491765E+02  0.27626167782E+00  0.84943579019E+02  0.89340036946E+02  0.00000000000E+00 0. -1.
          1    1    6    6  503    0 -0.10161819385E+03  0.17080879586E+03  0.91207197752E+03  0.93347586699E+03  0.00000000000E+00 0. -1.
         -1    1    6    6    0  503 -0.50631971855E+02  0.30645374570E+03  0.13852938324E+04  0.14196888732E+04  0.00000000000E+00 0.  1.
<mgrwt>
<rscale>  0 0.13354614E+04</rscale>
<asrwt>0</asrwt>
<pdfrwt beam="1">  1        1 0.21590927E-01 0.13354614E+04</pdfrwt>
<pdfrwt beam="2">  1       -2 0.48877015E+00 0.13354614E+04</pdfrwt>
<totfact> 0.39647596E-01</totfact>
</mgrwt>
</event>
<event>
12    5  0.5221187E-008  0.3633187E+04  0.7818608E-02  0.8082932E-01
         -2   -1    0    0    0  501 -0.00000000000E+00  0.00000000000E+00  0.13153037344E+04  0.13153037344E+04  0.00000000000E+00 0.  1.
          1   -1    0    0  501    0  0.00000000000E+00 -0.00000000000E+00 -0.25089356517E+04  0.25089356517E+04  0.00000000000E+00 0. -1.
        -24    2    1    2    0    0 -0.91787093805E+03 -0.19413916196E+03  0.93872921455E+03  0.13294908265E+04  0.78461750454E+02 0.  0.
        254    2    1    2    0    0  0.91787093805E+03  0.19413916196E+03 -0.21323611318E+04  0.24947485597E+04  0.89254092698E+03 0.  0.
         23    2    4    4    0    0  0.56281493581E+03  0.52173809354E+03 -0.15584350301E+04  0.17394052198E+04  0.88540867796E+02 0.  0.
         23    2    4    4    0    0  0.35505600225E+03 -0.32759893158E+03 -0.57392610173E+03  0.75534333992E+03  0.88128123784E+02 0.  0.
          1    1    3    3  502    0 -0.22090077162E+03 -0.12908134711E+02  0.22499941479E+03  0.31557646855E+03  0.00000000000E+00 0. -1.
         -2    1    3    3    0  502 -0.69697016643E+03 -0.18123102725E+03  0.71372979975E+03  0.10139143579E+04  0.00000000000E+00 0.  1.
         13    1    5    5    0    0  0.17269854352E+03  0.19624357706E+03 -0.60458011131E+03  0.65867551910E+03  0.00000000000E+00 0.  1.
        -13    1    5    5    0    0  0.39011639228E+03  0.32549451648E+03 -0.95385491879E+03  0.10807297007E+04  0.00000000000E+00 0. -1.
          2    1    6    6  503    0  0.46621074685E+02 -0.43561244763E+02 -0.12935527070E+03  0.14423554593E+03  0.00000000000E+00 0.  1.
         -2    1    6    6    0  503  0.30843492756E+03 -0.28403768682E+03 -0.44457083103E+03  0.61110779399E+03  0.00000000000E+00 0. -1.
<mgrwt>
<rscale>  0 0.36331873E+04</rscale>
<asrwt>0</asrwt>
<pdfrwt beam="1">  1        1 0.38599010E+00 0.36331873E+04</pdfrwt>
<pdfrwt beam="2">  1       -2 0.20235442E+00 0.36331873E+04</pdfrwt>
<totfact> 0.12169129E-01</totfact>
</mgrwt>
</event>
<event>
12    5  0.5221187E-008  0.1564163E+04  0.7818608E-02  0.8842872E-01
         -2   -1    0    0    0  501 -0.00000000000E+00  0.00000000000E+00  0.12976284726E+04  0.12976284726E+04  0.00000000000E+00 0.  1.
          1   -1    0    0  501    0  0.00000000000E+00 -0.00000000000E+00 -0.47136078978E+03  0.47136078978E+03  0.00000000000E+00 0. -1.
        -24    2    1    2    0    0 -0.50174577981E+03  0.28247278312E+02  0.42301816148E+03  0.66187860438E+03  0.81192276115E+02 0.  0.
        254    2    1    2    0    0  0.50174577981E+03 -0.28247278312E+02  0.40324952136E+03  0.11071106580E+04  0.90029833740E+03 0.  0.
         23    2    4    4    0    0  0.20913451475E+03  0.34539570201E+03  0.46357100487E+03  0.62129254157E+03  0.89838240372E+02 0.  0.
         23    2    4    4    0    0  0.29261126506E+03 -0.37364298032E+03 -0.60321483516E+02  0.48581811644E+03  0.84558451404E+02 0.  0.
          1    1    3    3  502    0 -0.32720663744E+03  0.16560011200E+02  0.22384788786E+03  0.39679502826E+03  0.00000000000E+00 0. -1.
         -2    1    3    3    0  502 -0.17453914238E+03  0.11687267113E+02  0.19917027361E+03  0.26508357611E+03  0.00000000000E+00 0.  1.
         13    1    5    5    0    0  0.13189473551E+03  0.28469124645E+03  0.37573127794E+03  0.48950926476E+03  0.00000000000E+00 0. -1.
        -13    1    5    5    0    0  0.77239779235E+02  0.60704455554E+02  0.87839726932E+02  0.13178327681E+03  0.00000000000E+00 0.  1.
          1    1    6    6  503    0  0.21423618758E+03 -0.25867340915E+03 -0.80065107209E+02  0.34528176619E+03  0.00000000000E+00 0. -1.
         -1    1    6    6    0  503  0.78375077485E+02 -0.11496957117E+03  0.19743623693E+02  0.14053635025E+03  0.00000000000E+00 0.  1.
<mgrwt>
<rscale>  0 0.15641626E+04</rscale>
<asrwt>0</asrwt>
<pdfrwt beam="1">  1        1 0.72517045E-01 0.15641626E+04</pdfrwt>
<pdfrwt beam="2">  1       -2 0.19963515E+00 0.15641626E+04</pdfrwt>
<totfact> 0.54052411E+00</totfact>
</mgrwt>
</event>
<event>
12    5  0.5221187E-008  0.2156676E+04  0.7818608E-02  0.8536680E-01
         -2   -1    0    0    0  501 -0.00000000000E+00  0.00000000000E+00  0.57379227074E+03  0.57379227074E+03  0.00000000000E+00 0.  1.
          1   -1    0    0  501    0  0.00000000000E+00 -0.00000000000E+00 -0.20265403630E+04  0.20265403630E+04  0.00000000000E+00 0. -1.
        -24    2    1    2    0    0 -0.43476557005E+03 -0.49230660032E+03 -0.12875096440E+04  0.14475513647E+04  0.79605152344E+02 0.  0.
        254    2    1    2    0    0  0.43476557005E+03  0.49230660032E+03 -0.16523844820E+03  0.11527812690E+04  0.93285262494E+03 0.  0.
         23    2    4    4    0    0  0.54530958617E+03  0.63515796234E+03 -0.31668445373E+03  0.89979591734E+03  0.92495771491E+02 0.  0.
         23    2    4    4    0    0 -0.11054401612E+03 -0.14285136203E+03  0.15144600553E+03  0.25298535169E+03  0.91865142738E+02 0.  0.
          1    1    3    3  502    0 -0.26009152739E+03 -0.29727878292E+03 -0.85761237134E+03  0.94420403349E+03  0.00000000000E+00 0. -1.
         -2    1    3    3    0  502 -0.17467404266E+03 -0.19502781739E+03 -0.42989727271E+03  0.50334733119E+03  0.00000000000E+00 0.  1.
         13    1    5    5    0    0  0.46794583813E+03  0.54228708642E+03 -0.23471305994E+03  0.75374983385E+03  0.00000000000E+00 0.  1.
        -13    1    5    5    0    0  0.77363748040E+02  0.92870875922E+02 -0.81971393786E+02  0.14604608350E+03  0.00000000000E+00 0. -1.
          2    1    6    6  503    0 -0.93486111708E+02 -0.96226378975E+02  0.55960755927E+02  0.14536428480E+03  0.00000000000E+00 0. -1.
         -2    1    6    6    0  503 -0.17057904408E+02 -0.46624983051E+02  0.95485249600E+02  0.10762106689E+03  0.00000000000E+00 0.  1.
<mgrwt>
<rscale>  0 0.21566763E+04</rscale>
<asrwt>0</asrwt>
<pdfrwt beam="1">  1        1 0.31177544E+00 0.21566763E+04</pdfrwt>
<pdfrwt beam="2">  1       -2 0.88275735E-01 0.21566763E+04</pdfrwt>
<totfact> 0.25393521E+00</totfact>
</mgrwt>
</event>
<event>
12    5  0.5221187E-008  0.1625951E+04  0.7818608E-02  0.8804762E-01
         -2   -1    0    0    0  501 -0.00000000000E+00  0.00000000000E+00  0.64217545978E+03  0.64217545978E+03  0.00000000000E+00 0.  1.
          1   -1    0    0  501    0  0.00000000000E+00 -0.00000000000E+00 -0.10292031737E+04  0.10292031737E+04  0.00000000000E+00 0. -1.
        -24    2    1    2    0    0 -0.32658416747E+03  0.21037884872E+03 -0.54886134878E+03  0.67712022530E+03  0.79539555500E+02 0.  0.
        254    2    1    2    0    0  0.32658416747E+03 -0.21037884872E+03  0.16183363489E+03  0.99425840814E+03  0.90080140894E+03 0.  0.
         23    2    4    4    0    0  0.41537539581E+03 -0.47999228804E+03  0.24505099991E+03  0.68626675957E+03  0.89346274229E+02 0.  0.
         23    2    4    4    0    0 -0.88791228336E+02  0.26961343931E+03 -0.83217365021E+02  0.30799164857E+03  0.85781331637E+02 0.  0.
          3    1    3    3  502    0 -0.18413570486E+03  0.10890752700E+03 -0.36704838097E+03  0.42484270173E+03  0.00000000000E+00 0. -1.
         -4    1    3    3    0  502 -0.14244846261E+03  0.10147132172E+03 -0.18181296781E+03  0.25227752357E+03  0.00000000000E+00 0.  1.
         13    1    5    5    0    0  0.23448118524E+03 -0.33112757648E+03  0.17379904967E+03  0.44139892139E+03  0.00000000000E+00 0. -1.
        -13    1    5    5    0    0  0.18089421056E+03 -0.14886471156E+03  0.71251950238E+02  0.24486783818E+03  0.00000000000E+00 0.  1.
          2    1    6    6  503    0 -0.62007282437E+02  0.76497336152E+02 -0.49209435974E+02  0.11008321444E+03  0.00000000000E+00 0.  1.
         -2    1    6    6    0  503 -0.26783945899E+02  0.19311610316E+03 -0.34007929047E+02  0.19790843412E+03  0.00000000000E+00 0. -1.
<mgrwt>
<rscale>  0 0.16259508E+04</rscale>
<asrwt>0</asrwt>
<pdfrwt beam="1">  1        1 0.15833895E+00 0.16259508E+04</pdfrwt>
<pdfrwt beam="2">  1       -2 0.98796226E-01 0.16259508E+04</pdfrwt>
<totfact> 0.10246333E+01</totfact>
</mgrwt>
</event>
<event>
12    5  0.7060909E-008  0.2398640E+04  0.7818608E-02  0.8440013E-01
         -4   -1    0    0    0  501 -0.00000000000E+00  0.00000000000E+00  0.83607053761E+03  0.83607053761E+03  0.00000000000E+00 0.  1.
          3   -1    0    0  501    0  0.00000000000E+00 -0.00000000000E+00 -0.17203917634E+04  0.17203917634E+04  0.00000000000E+00 0. -1.
        -24    2    1    2    0    0  0.64199746484E+02  0.85066951356E+03  0.22743645833E+03  0.88664193805E+03  0.81525180054E+02 0.  0.
        254    2    1    2    0    0 -0.64199746484E+02 -0.85066951356E+03 -0.11117576841E+04  0.16698203630E+04  0.90803891307E+03 0.  0.
         23    2    4    4    0    0  0.51843934121E+02 -0.10119366327E+04 -0.82892470062E+03  0.13123483123E+04  0.91860718396E+02 0.  0.
         23    2    4    4    0    0 -0.11604368060E+03  0.16126711909E+03 -0.28283298352E+03  0.35747205065E+03  0.91206090378E+02 0.  0.
          1    1    3    3  502    0  0.53141212391E+00  0.12952675724E+01  0.65658811234E+01  0.67134873096E+01  0.00000000000E+00 0. -1.
         -2    1    3    3    0  502  0.63668334360E+02  0.84937424599E+03  0.22087057720E+03  0.87992845074E+03  0.00000000000E+00 0.  1.
         13    1    5    5    0    0 -0.15696290666E+02 -0.15915808119E+03 -0.10138702460E+03  0.18935943892E+03  0.00000000000E+00 0. -1.
        -13    1    5    5    0    0  0.67540224786E+02 -0.85277855146E+03 -0.72753767603E+03  0.11229888734E+04  0.00000000000E+00 0.  1.
          2    1    6    6  503    0 -0.30988662684E+02  0.13730276965E+02 -0.91104470406E+01  0.35097264362E+02  0.00000000000E+00 0. -1.
         -2    1    6    6    0  503 -0.85055017921E+02  0.14753684212E+03 -0.27372253648E+03  0.32237478629E+03  0.00000000000E+00 0.  1.
<mgrwt>
<rscale>  0 0.23986403E+04</rscale>
<asrwt>0</asrwt>
<pdfrwt beam="1">  1        3 0.26467565E+00 0.23986403E+04</pdfrwt>
<pdfrwt beam="2">  1       -4 0.12862624E+00 0.23986403E+04</pdfrwt>
<totfact> 0.55668814E-02</totfact>
</mgrwt>
</event>
<event>
12    5  0.5221187E-008  0.1692592E+04  0.7818608E-02  0.8765601E-01
         -2   -1    0    0    0  501 -0.00000000000E+00  0.00000000000E+00  0.99017167886E+03  0.99017167886E+03  0.00000000000E+00 0.  1.
          1   -1    0    0  501    0  0.00000000000E+00 -0.00000000000E+00 -0.72332600699E+03  0.72332600699E+03  0.00000000000E+00 0. -1.
        -24    2    1    2    0    0  0.36170546174E+03 -0.23271195069E+03  0.53034905129E+03  0.68732022789E+03  0.78442886314E+02 0.  0.
        254    2    1    2    0    0 -0.36170546174E+03  0.23271195069E+03 -0.26350337942E+03  0.10261774580E+04  0.89365566703E+03 0.  0.
         23    2    4    4    0    0 -0.45927368748E+03 -0.31438297448E+02  0.17191902994E+03  0.49922455442E+03  0.88024521103E+02 0.  0.
         23    2    4    4    0    0  0.97568225748E+02  0.26415024814E+03 -0.43542240936E+03  0.52695290355E+03  0.93764469366E+02 0.  0.
          1    1    3    3  502    0  0.25782726382E+02 -0.16247760507E+02  0.11871124344E+02  0.32705692079E+02  0.00000000000E+00 0. -1.
         -2    1    3    3    0  502  0.33592273535E+03 -0.21646419019E+03  0.51847792694E+03  0.65461453581E+03  0.00000000000E+00 0.  1.
         13    1    5    5    0    0 -0.42999082306E+03 -0.50059474281E+02  0.16779987291E+03  0.46427885611E+03  0.00000000000E+00 0.  1.
        -13    1    5    5    0    0 -0.29282864420E+02  0.18621176833E+02  0.41191570280E+01  0.34945698303E+02  0.00000000000E+00 0. -1.
          3    1    6    6  503    0  0.44232431048E+02  0.23188894227E+02 -0.77242717670E+02  0.91981901507E+02  0.00000000000E+00 0. -1.
         -3    1    6    6    0  503  0.53335794700E+02  0.24096135391E+03 -0.35817969169E+03  0.43497100204E+03  0.00000000000E+00 0.  1.
<mgrwt>
<rscale>  0 0.16925920E+04</rscale>
<asrwt>0</asrwt>
<pdfrwt beam="1">  1        1 0.11128092E+00 0.16925920E+04</pdfrwt>
<pdfrwt beam="2">  1       -2 0.15233411E+00 0.16925920E+04</pdfrwt>
<totfact> 0.62094900E+00</totfact>
</mgrwt>
</event>
<event>
12    5  0.5221187E-008  0.1174489E+04  0.7818608E-02  0.9135484E-01
         -4   -1    0    0    0  501 -0.00000000000E+00  0.00000000000E+00  0.14086400868E+03  0.14086400868E+03  0.00000000000E+00 0.  1.
          3   -1    0    0  501    0  0.00000000000E+00 -0.00000000000E+00 -0.24481473001E+04  0.24481473001E+04  0.00000000000E+00 0. -1.
        -24    2    1    2    0    0 -0.16789873951E+03  0.30593143194E+02 -0.13435937710E+03  0.23128160197E+03  0.79453194112E+02 0.  0.
        254    2    1    2    0    0  0.16789873951E+03 -0.30593143194E+02 -0.21729239143E+04  0.23577297068E+04  0.89898003637E+03 0.  0.
         23    2    4    4    0    0 -0.26985349425E+03  0.11394243233E+03 -0.15315907872E+04  0.15624886698E+04  0.98978368084E+02 0.  0.
         23    2    4    4    0    0  0.43775223376E+03 -0.14453557552E+03 -0.64133312705E+03  0.79524103702E+03  0.92642195264E+02 0.  0.
          3    1    3    3  502    0 -0.39644041548E+02  0.35450392678E+02 -0.69394841502E+02  0.87430111508E+02  0.00000000000E+00 0. -1.
         -4    1    3    3    0  502 -0.12825469796E+03 -0.48572494843E+01 -0.64964535598E+02  0.14385149046E+03  0.00000000000E+00 0.  1.
         13    1    5    5    0    0 -0.26315149662E+03  0.81854440364E+02 -0.14008697204E+04  0.14277201523E+04  0.00000000000E+00 0.  1.
        -13    1    5    5    0    0 -0.67019976322E+01  0.32087991963E+02 -0.13072106680E+03  0.13476851749E+03  0.00000000000E+00 0. -1.
          1    1    6    6  503    0  0.50008738555E+02 -0.82840452735E+01 -0.12788277341E+03  0.13756272414E+03  0.00000000000E+00 0. -1.
         -1    1    6    6    0  503  0.38774349521E+03 -0.13625153025E+03 -0.51345035364E+03  0.65767831288E+03  0.00000000000E+00 0.  1.
<mgrwt>
<rscale>  0 0.11744886E+04</rscale>
<asrwt>0</asrwt>
<pdfrwt beam="1">  1        3 0.37663802E+00 0.11744886E+04</pdfrwt>
<pdfrwt beam="2">  1       -4 0.21671387E-01 0.11744886E+04</pdfrwt>
<totfact> 0.68113949E-01</totfact>
</mgrwt>
</event>
<event>
12    5  0.5221187E-008  0.2049346E+04  0.7818608E-02  0.8583891E-01
         -2   -1    0    0    0  501 -0.00000000000E+00  0.00000000000E+00  0.14954615358E+04  0.14954615358E+04  0.00000000000E+00 0.  1.
          1   -1    0    0  501    0  0.00000000000E+00 -0.00000000000E+00 -0.70209398994E+03  0.70209398994E+03  0.00000000000E+00 0. -1.
        -24    2    1    2    0    0  0.46109353833E+03 -0.17400157698E+03  0.97521795308E+03  0.10959175234E+04  0.84269581003E+02 0.  0.
        254    2    1    2    0    0 -0.46109353833E+03  0.17400157698E+03 -0.18185040723E+03  0.11016380023E+04  0.96832479965E+03 0.  0.
         23    2    4    4    0    0  0.14681654314E+03  0.25483596361E+03  0.20572777849E+03  0.37032688774E+03  0.91222909687E+02 0.  0.
         23    2    4    4    0    0 -0.60791008147E+03 -0.80834386624E+02 -0.38757818572E+03  0.73131111456E+03  0.92250913348E+02 0.  0.
          3    1    3    3  502    0 -0.11753397830E+00 -0.98230044065E+01  0.27868833444E+02  0.29549570341E+02  0.00000000000E+00 0. -1.
         -4    1    3    3    0  502  0.46121107231E+03 -0.16417857258E+03  0.94734911963E+03  0.10663679531E+04  0.00000000000E+00 0.  1.
         13    1    5    5    0    0  0.70399617308E+02  0.62248012092E+02  0.10174819160E+03  0.13850492995E+03  0.00000000000E+00 0.  1.
        -13    1    5    5    0    0  0.76416925833E+02  0.19258795152E+03  0.10397958689E+03  0.23182195779E+03  0.00000000000E+00 0. -1.
          1    1    6    6  503    0 -0.58679043681E+03 -0.63995768466E+02 -0.38370845423E+03  0.70402461104E+03  0.00000000000E+00 0. -1.
         -1    1    6    6    0  503 -0.21119644665E+02 -0.16838618157E+02 -0.38697314940E+01  0.27286503514E+02  0.00000000000E+00 0.  1.
<mgrwt>
<rscale>  0 0.20493458E+04</rscale>
<asrwt>0</asrwt>
<pdfrwt beam="1">  1        1 0.10801446E+00 0.20493458E+04</pdfrwt>
<pdfrwt beam="2">  1       -2 0.23007100E+00 0.20493458E+04</pdfrwt>
<totfact> 0.18736238E+00</totfact>
</mgrwt>
</event>
<event>
12    5  0.5221187E-008  0.1814541E+04  0.7818608E-02  0.8698605E-01
          1   -1    0    0  501    0  0.00000000000E+00  0.00000000000E+00  0.76067372431E+03  0.76067372431E+03  0.00000000000E+00 0. -1.
         -2   -1    0    0    0  501 -0.00000000000E+00 -0.00000000000E+00 -0.10821188497E+04  0.10821188497E+04  0.00000000000E+00 0.  1.
        -24    2    1    2    0    0 -0.15918259138E+03 -0.45417339147E+03  0.37220281079E+03  0.61353064037E+03  0.79198152736E+02 0.  0.
        254    2    1    2    0    0  0.15918259138E+03  0.45417339147E+03 -0.69364793615E+03  0.12292619336E+04  0.89349027703E+03 0.  0.
         23    2    4    4    0    0 -0.13131822575E+03  0.27178694346E+03  0.12374816226E+03  0.33833579069E+03  0.89693258087E+02 0.  0.
         23    2    4    4    0    0  0.29050081713E+03  0.18238644801E+03 -0.81739609841E+03  0.89092614292E+03  0.89204648221E+02 0.  0.
          1    1    3    3  502    0 -0.14694956652E+03 -0.41598675780E+03  0.36542160280E+03  0.57286307750E+03  0.00000000000E+00 0. -1.
         -2    1    3    3    0  502 -0.12233024865E+02 -0.38186633670E+02  0.67812079864E+01  0.40667562874E+02  0.00000000000E+00 0.  1.
         13    1    5    5    0    0 -0.91977155641E+02  0.12264092240E+03  0.98019930625E+02  0.18195741207E+03  0.00000000000E+00 0. -1.
        -13    1    5    5    0    0 -0.39341070108E+02  0.14914602106E+03  0.25728231632E+02  0.15637837862E+03  0.00000000000E+00 0.  1.
          4    1    6    6  503    0  0.21604652152E+03  0.17121181594E+03 -0.58621412617E+03  0.64779363003E+03  0.00000000000E+00 0. -1.
         -4    1    6    6    0  503  0.74454295606E+02  0.11174632073E+02 -0.23118197224E+03  0.24313251289E+03  0.00000000000E+00 0.  1.
<mgrwt>
<rscale>  0 0.18145406E+04</rscale>
<asrwt>0</asrwt>
<pdfrwt beam="1">  1        1 0.11702673E+00 0.18145406E+04</pdfrwt>
<pdfrwt beam="2">  1       -2 0.16647982E+00 0.18145406E+04</pdfrwt>
<totfact> 0.44646254E+00</totfact>
</mgrwt>
</event>
<event>
12    5  0.5221187E-008  0.1950469E+04  0.7818608E-02  0.8630135E-01
          1   -1    0    0  501    0  0.00000000000E+00  0.00000000000E+00  0.14322598067E+04  0.14322598067E+04  0.00000000000E+00 0. -1.
         -2   -1    0    0    0  501 -0.00000000000E+00 -0.00000000000E+00 -0.66404314794E+03  0.66404314794E+03  0.00000000000E+00 0.  1.
        -24    2    1    2    0    0  0.35692947307E+03 -0.31251642282E+03  0.95231845721E+03  0.10666199707E+04  0.75515260646E+02 0.  0.
        254    2    1    2    0    0 -0.35692947307E+03  0.31251642282E+03 -0.18410179847E+03  0.10296829840E+04  0.89514714543E+03 0.  0.
         23    2    4    4    0    0 -0.52689332083E+03  0.18004464698E+03  0.18439349791E+03  0.59296015668E+03  0.86995050946E+02 0.  0.
         23    2    4    4    0    0  0.16996384776E+03  0.13247177584E+03 -0.36849529639E+03  0.43672282728E+03  0.92203923271E+02 0.  0.
          3    1    3    3  502    0  0.34495898548E+03 -0.30938400422E+03  0.89342773250E+03  0.10064433799E+04  0.00000000000E+00 0. -1.
         -4    1    3    3    0  502  0.11970487587E+02 -0.31324185984E+01  0.58890724708E+02  0.60176590764E+02  0.00000000000E+00 0.  1.
         13    1    5    5    0    0 -0.12185546608E+03  0.40245973919E+01  0.41112050670E+02  0.12866682831E+03  0.00000000000E+00 0. -1.
        -13    1    5    5    0    0 -0.40503785476E+03  0.17602004959E+03  0.14328144725E+03  0.46429332837E+03  0.00000000000E+00 0.  1.
          4    1    6    6  503    0  0.75595204897E+02  0.11391039630E+03 -0.24019869544E+03  0.27637949757E+03  0.00000000000E+00 0. -1.
         -4    1    6    6    0  503  0.94368642865E+02  0.18561379548E+02 -0.12829660095E+03  0.16034332971E+03  0.00000000000E+00 0.  1.
<mgrwt>
<rscale>  0 0.19504690E+04</rscale>
<asrwt>0</asrwt>
<pdfrwt beam="1">  1        1 0.22034766E+00 0.19504690E+04</pdfrwt>
<pdfrwt beam="2">  1       -2 0.10216048E+00 0.19504690E+04</pdfrwt>
<totfact> 0.46804230E+00</totfact>
</mgrwt>
</event>
<event>
12    5  0.5221187E-008  0.2002875E+04  0.7818608E-02  0.8605278E-01
          1   -1    0    0  501    0  0.00000000000E+00  0.00000000000E+00  0.57452021508E+03  0.57452021508E+03  0.00000000000E+00 0. -1.
         -2   -1    0    0    0  501 -0.00000000000E+00 -0.00000000000E+00 -0.17455903133E+04  0.17455903133E+04  0.00000000000E+00 0.  1.
        -24    2    1    2    0    0 -0.72332659461E+03 -0.27935838805E+03 -0.68910480321E+03  0.10404381637E+04  0.80022941487E+02 0.  0.
        254    2    1    2    0    0  0.72332659461E+03  0.27935838805E+03 -0.48196529498E+03  0.12796723647E+04  0.89667627599E+03 0.  0.
         23    2    4    4    0    0  0.15102992835E+03  0.22525987785E+03 -0.61848419446E+03  0.68153174363E+03  0.91710233658E+02 0.  0.
         23    2    4    4    0    0  0.57229666627E+03  0.54098510204E+02  0.13651889949E+03  0.59814062105E+03  0.93191574773E+02 0.  0.
          1    1    3    3  502    0 -0.21403347480E+03 -0.99444117083E+02 -0.16620352152E+03  0.28865735972E+03  0.00000000000E+00 0. -1.
         -2    1    3    3    0  502 -0.50929311981E+03 -0.17991427097E+03 -0.52290128170E+03  0.75178080395E+03  0.00000000000E+00 0.  1.
         13    1    5    5    0    0  0.11961175024E+03  0.16031636068E+03 -0.53514324087E+03  0.57130254205E+03  0.00000000000E+00 0. -1.
        -13    1    5    5    0    0  0.31418178105E+02  0.64943517166E+02 -0.83340953590E+02  0.11022920159E+03  0.00000000000E+00 0.  1.
          3    1    6    6  503    0  0.56258314345E+03  0.64798626014E+02  0.13983913355E+03  0.58331264215E+03  0.00000000000E+00 0. -1.
         -3    1    6    6    0  503  0.97135228181E+01 -0.10700115810E+02 -0.33202340665E+01  0.14827978896E+02  0.00000000000E+00 0.  1.
<mgrwt>
<rscale>  0 0.20028749E+04</rscale>
<asrwt>0</asrwt>
<pdfrwt beam="1">  1        1 0.88387727E-01 0.20028749E+04</pdfrwt>
<pdfrwt beam="2">  1       -2 0.26855235E+00 0.20028749E+04</pdfrwt>
<totfact> 0.14646655E+00</totfact>
</mgrwt>
</event>
<event>
12    5  0.5221187E-008  0.1958383E+04  0.7818608E-02  0.8626329E-01
         -2   -1    0    0    0  501 -0.00000000000E+00  0.00000000000E+00  0.80447767763E+03  0.80447767763E+03  0.00000000000E+00 0.  1.
          1   -1    0    0  501    0  0.00000000000E+00 -0.00000000000E+00 -0.11918496725E+04  0.11918496725E+04  0.00000000000E+00 0. -1.
        -24    2    1    2    0    0 -0.38690950583E+03 -0.65283973426E+03  0.32701036878E+02  0.76365280362E+03  0.78724598036E+02 0.  0.
        254    2    1    2    0    0  0.38690950583E+03  0.65283973426E+03 -0.42007303180E+03  0.12326745466E+04  0.87585758051E+03 0.  0.
         23    2    4    4    0    0  0.60028345614E+03  0.45771978093E+03 -0.62062651990E+02  0.76306075955E+03  0.92532828929E+02 0.  0.
         23    2    4    4    0    0 -0.21337395031E+03  0.19511995333E+03 -0.35801037981E+03  0.46961378700E+03  0.93623918037E+02 0.  0.
          3    1    3    3  502    0 -0.31123833914E+03 -0.50207285069E+03  0.55977041614E+02  0.59336319429E+03  0.00000000000E+00 0. -1.
         -2    1    3    3    0  502 -0.75671166684E+02 -0.15076688357E+03 -0.23276004736E+02  0.17028960933E+03  0.00000000000E+00 0.  1.
         13    1    5    5    0    0  0.56569101537E+03  0.43275566113E+03 -0.36166338757E+02  0.71315621793E+03  0.00000000000E+00 0.  1.
        -13    1    5    5    0    0  0.34592440766E+02  0.24964119802E+02 -0.25896313233E+02  0.49904541624E+02  0.00000000000E+00 0. -1.
          4    1    6    6  503    0 -0.75133917863E+02  0.25696445489E+02 -0.57825103287E+02  0.98230115007E+02  0.00000000000E+00 0. -1.
         -4    1    6    6    0  503 -0.13824003245E+03  0.16942350784E+03 -0.30018527652E+03  0.37138367199E+03  0.00000000000E+00 0.  1.
<mgrwt>
<rscale>  0 0.19583835E+04</rscale>
<asrwt>0</asrwt>
<pdfrwt beam="1">  1        1 0.18336149E+00 0.19583835E+04</pdfrwt>
<pdfrwt beam="2">  1       -2 0.12376580E+00 0.19583835E+04</pdfrwt>
<totfact> 0.43488985E+00</totfact>
</mgrwt>
</event>
<event>
12    5  0.7865514E-008  0.1918427E+04  0.7818608E-02  0.8645738E-01
         -2   -1    0    0    0  501 -0.00000000000E+00  0.00000000000E+00  0.10803501894E+04  0.10803501894E+04  0.00000000000E+00 0.  1.
          1   -1    0    0  501    0  0.00000000000E+00 -0.00000000000E+00 -0.85165988455E+03  0.85165988455E+03  0.00000000000E+00 0. -1.
        -24    2    1    2    0    0  0.25836291171E+03  0.41630737027E+03  0.64623552035E+03  0.81802907928E+03  0.10718211648E+03 0.  0.
        254    2    1    2    0    0 -0.25836291171E+03 -0.41630737027E+03 -0.41754521550E+03  0.11139809947E+04  0.90914598871E+03 0.  0.
         23    2    4    4    0    0  0.22949413162E+03  0.87840991616E+02 -0.29715727590E+03  0.39661538779E+03  0.92831691547E+02 0.  0.
         23    2    4    4    0    0 -0.48785704333E+03 -0.50414836188E+03 -0.12038793960E+03  0.71736560687E+03  0.89163290682E+02 0.  0.
          1    1    3    3  502    0  0.69313248559E+02  0.98259375767E+02  0.24075092751E+03  0.26911008983E+03  0.00000000000E+00 0. -1.
         -2    1    3    3    0  502  0.18904966316E+03  0.31804799450E+03  0.40548459284E+03  0.54891898944E+03  0.00000000000E+00 0.  1.
         13    1    5    5    0    0  0.37075293663E+02 -0.18856750947E+02 -0.61154635441E+02  0.73959745081E+02  0.00000000000E+00 0. -1.
        -13    1    5    5    0    0  0.19241883795E+03  0.10669774256E+03 -0.23600264046E+03  0.32265564271E+03  0.00000000000E+00 0.  1.
          3    1    6    6  503    0 -0.99671896148E+01 -0.38747510339E+02 -0.98475927459E+01  0.41203027912E+02  0.00000000000E+00 0. -1.
         -3    1    6    6    0  503 -0.47788985372E+03 -0.46540085154E+03 -0.11054034685E+03  0.67616257896E+03  0.00000000000E+00 0.  1.
<mgrwt>
<rscale>  0 0.19184274E+04</rscale>
<asrwt>0</asrwt>
<pdfrwt beam="1">  1        1 0.13102460E+00 0.19184274E+04</pdfrwt>
<pdfrwt beam="2">  1       -2 0.16620772E+00 0.19184274E+04</pdfrwt>
<totfact> 0.37064796E+00</totfact>
</mgrwt>
</event>
<event>
12    5  0.5221187E-008  0.1514654E+04  0.7818608E-02  0.8874766E-01
          1   -1    0    0  501    0  0.00000000000E+00  0.00000000000E+00  0.81419222537E+03  0.81419222537E+03  0.00000000000E+00 0. -1.
         -2   -1    0    0    0  501 -0.00000000000E+00 -0.00000000000E+00 -0.70443304158E+03  0.70443304158E+03  0.00000000000E+00 0.  1.
        -24    2    1    2    0    0 -0.36765434750E+03  0.46853985361E+02  0.33816610153E+03  0.50787027163E+03  0.78809170781E+02 0.  0.
        254    2    1    2    0    0  0.36765434750E+03 -0.46853985361E+02 -0.22840691774E+03  0.10107549953E+04  0.91219018045E+03 0.  0.
         23    2    4    4    0    0  0.59714021023E+03 -0.16513852594E+03  0.40410130322E+02  0.62725894259E+03  0.89295235030E+02 0.  0.
         23    2    4    4    0    0 -0.22948586273E+03  0.11828454058E+03 -0.26881704806E+03  0.38349605274E+03  0.90286341191E+02 0.  0.
          1    1    3    3  502    0 -0.25312662297E+03  0.68563236651E+02  0.22871470680E+03  0.34797186924E+03  0.00000000000E+00 0. -1.
         -2    1    3    3    0  502 -0.11452772453E+03 -0.21709251290E+02  0.10945139473E+03  0.15989840239E+03  0.00000000000E+00 0.  1.
         13    1    5    5    0    0 -0.31299516882E+01 -0.18607115987E+00  0.16209552737E+01  0.35296906445E+01  0.00000000000E+00 0.  1.
        -13    1    5    5    0    0  0.60027016192E+03 -0.16495245478E+03  0.38789175048E+02  0.62372925194E+03  0.00000000000E+00 0. -1.
          4    1    6    6  503    0 -0.23210642374E+03  0.11854175865E+03 -0.23917569524E+03  0.35373797319E+03  0.00000000000E+00 0. -1.
         -4    1    6    6    0  503  0.26205610113E+01 -0.25721807436E+00 -0.29641352819E+02  0.29758079543E+02  0.00000000000E+00 0.  1.
<mgrwt>
<rscale>  0 0.15146536E+04</rscale>
<asrwt>0</asrwt>
<pdfrwt beam="1">  1        1 0.12526034E+00 0.15146536E+04</pdfrwt>
<pdfrwt beam="2">  1       -2 0.10837431E+00 0.15146536E+04</pdfrwt>
<totfact> 0.12389921E+01</totfact>
</mgrwt>
</event>
<event>
12    5  0.5221187E-008  0.1866347E+04  0.7818608E-02  0.8671792E-01
          1   -1    0    0  501    0  0.00000000000E+00  0.00000000000E+00  0.24974628034E+04  0.24974628034E+04  0.00000000000E+00 0. -1.
         -2   -1    0    0    0  501 -0.00000000000E+00 -0.00000000000E+00 -0.34867884984E+03  0.34867884984E+03  0.00000000000E+00 0.  1.
        -24    2    1    2    0    0 -0.95760033710E+02  0.31288470413E+03  0.17769787578E+04  0.18088659497E+04  0.85297692029E+02 0.  0.
        254    2    1    2    0    0  0.95760033710E+02 -0.31288470413E+03  0.37180519581E+03  0.10372757036E+04  0.91139177055E+03 0.  0.
         23    2    4    4    0    0  0.47180735519E+03 -0.22476505934E+02  0.14256746946E+03  0.50172654300E+03  0.91086041005E+02 0.  0.
         23    2    4    4    0    0 -0.37604732148E+03 -0.29040819820E+03  0.22923772634E+03  0.53554916056E+03  0.92273824161E+02 0.  0.
          1    1    3    3  502    0 -0.68888993462E+02  0.28773295645E+03  0.16623341047E+04  0.16884580609E+04  0.00000000000E+00 0. -1.
         -2    1    3    3    0  502 -0.26871040248E+02  0.25151747682E+02  0.11464465309E+03  0.12040788885E+03  0.00000000000E+00 0.  1.
         13    1    5    5    0    0  0.22499574498E+03  0.26770095533E+02  0.94506425482E+02  0.24550190983E+03  0.00000000000E+00 0. -1.
        -13    1    5    5    0    0  0.24681161022E+03 -0.49246601467E+02  0.48061043981E+02  0.25622463317E+03  0.00000000000E+00 0.  1.
          2    1    6    6  503    0 -0.19749568758E+02 -0.25872784263E+02 -0.62948335266E+01  0.33152245185E+02  0.00000000000E+00 0. -1.
         -2    1    6    6    0  503 -0.35629775272E+03 -0.26453541394E+03  0.23553255987E+03  0.50239691538E+03  0.00000000000E+00 0.  1.
<mgrwt>
<rscale>  0 0.18663467E+04</rscale>
<asrwt>0</asrwt>
<pdfrwt beam="1">  1        1 0.38422504E+00 0.18663467E+04</pdfrwt>
<pdfrwt beam="2">  1       -2 0.53642901E-01 0.18663467E+04</pdfrwt>
<totfact> 0.36739567E+00</totfact>
</mgrwt>
</event>
<event>
12    5  0.5221187E-008  0.1535885E+04  0.7818608E-02  0.8860934E-01
         -2   -1    0    0    0  501 -0.00000000000E+00  0.00000000000E+00  0.75833095539E+03  0.75833095539E+03  0.00000000000E+00 0.  1.
          1   -1    0    0  501    0  0.00000000000E+00 -0.00000000000E+00 -0.77767609437E+03  0.77767609437E+03  0.00000000000E+00 0. -1.
        -24    2    1    2    0    0 -0.33986515218E+03 -0.17392856597E+03 -0.33220268098E+03  0.51226835251E+03  0.79377427568E+02 0.  0.
        254    2    1    2    0    0  0.33986515218E+03  0.17392856597E+03  0.31285754200E+03  0.10237386972E+04  0.89688439106E+03 0.  0.
         23    2    4    4    0    0  0.26208056936E+03 -0.31491859250E+02  0.59362526574E+03  0.65581292362E+03  0.89563790857E+02 0.  0.
         23    2    4    4    0    0  0.77784582821E+02  0.20542042522E+03 -0.28076772374E+03  0.36792577362E+03  0.91054202424E+02 0.  0.
          3    1    3    3  502    0 -0.29874033498E+03 -0.17147209411E+03 -0.31769020535E+03  0.46858887458E+03  0.00000000000E+00 0. -1.
         -4    1    3    3    0  502 -0.41124817196E+02 -0.24564718583E+01 -0.14512475631E+02  0.43679477931E+02  0.00000000000E+00 0.  1.
         13    1    5    5    0    0  0.14553383659E+02 -0.98580302902E+01  0.73394316771E+01  0.19048595604E+02  0.00000000000E+00 0. -1.
        -13    1    5    5    0    0  0.24752718570E+03 -0.21633828960E+02  0.58628583406E+03  0.63676432802E+03  0.00000000000E+00 0.  1.
          4    1    6    6  503    0  0.61607028967E+02  0.12541850555E+03 -0.10717385109E+03  0.17610071524E+03  0.00000000000E+00 0. -1.
         -4    1    6    6    0  503  0.16177553854E+02  0.80001919671E+02 -0.17359387265E+03  0.19182505838E+03  0.00000000000E+00 0.  1.
<mgrwt>
<rscale>  0 0.15358852E+04</rscale>
<asrwt>0</asrwt>
<pdfrwt beam="1">  1        1 0.11964248E+00 0.15358852E+04</pdfrwt>
<pdfrwt beam="2">  1       -2 0.11666630E+00 0.15358852E+04</pdfrwt>
<totfact> 0.11124205E+01</totfact>
</mgrwt>
</event>
<event>
12    5  0.5221187E-008  0.4444298E+04  0.7818608E-02  0.7920462E-01
          1   -1    0    0  501    0  0.00000000000E+00  0.00000000000E+00  0.26726275060E+04  0.26726275060E+04  0.00000000000E+00 0. -1.
         -2   -1    0    0    0  501 -0.00000000000E+00 -0.00000000000E+00 -0.18475999245E+04  0.18475999245E+04  0.00000000000E+00 0.  1.
        -24    2    1    2    0    0  0.17206149201E+04 -0.71162301942E+03  0.14512531980E+04  0.23620628675E+04  0.79259826288E+02 0.  0.
        254    2    1    2    0    0 -0.17206149201E+04  0.71162301942E+03 -0.62622561649E+03  0.21581645630E+04  0.89364015862E+03 0.  0.
         23    2    4    4    0    0 -0.17105378168E+04  0.57496052447E+03 -0.74386809863E+03  0.19540329768E+04  0.91574551969E+02 0.  0.
         23    2    4    4    0    0 -0.10077103292E+02  0.13666249495E+03  0.11764248215E+03  0.20413158624E+03  0.95140766007E+02 0.  0.
          3    1    3    3  502    0  0.16052810032E+04 -0.67246847485E+03  0.13325976591E+04  0.21920213206E+04  0.00000000000E+00 0. -1.
         -4    1    3    3    0  502  0.11533391696E+03 -0.39154544575E+02  0.11865553890E+03  0.17004154691E+03  0.00000000000E+00 0.  1.
         13    1    5    5    0    0 -0.15810368880E+04  0.51546956155E+03 -0.66352178662E+03  0.17904322583E+04  0.00000000000E+00 0.  1.
        -13    1    5    5    0    0 -0.12950092883E+03  0.59490962921E+02 -0.80346312015E+02  0.16360071850E+03  0.00000000000E+00 0. -1.
          1    1    6    6  503    0  0.41843129195E+01  0.95679772110E+02  0.20788935815E+02  0.98001566915E+02  0.00000000000E+00 0. -1.
         -1    1    6    6    0  503 -0.14261416211E+02  0.40982722844E+02  0.96853546334E+02  0.10613001932E+03  0.00000000000E+00 0.  1.
<mgrwt>
<rscale>  0 0.44442981E+04</rscale>
<asrwt>0</asrwt>
<pdfrwt beam="1">  1        1 0.41117346E+00 0.44442981E+04</pdfrwt>
<pdfrwt beam="2">  1       -2 0.28424614E+00 0.44442981E+04</pdfrwt>
<totfact> 0.27032503E-02</totfact>
</mgrwt>
</event>
<event>
12    5  0.5221187E-008  0.1808809E+04  0.7818608E-02  0.8701629E-01
          1   -1    0    0  501    0  0.00000000000E+00  0.00000000000E+00  0.76714567792E+03  0.76714567792E+03  0.00000000000E+00 0. -1.
         -2   -1    0    0    0  501 -0.00000000000E+00 -0.00000000000E+00 -0.10662220177E+04  0.10662220177E+04  0.00000000000E+00 0.  1.
        -24    2    1    2    0    0 -0.30317453020E+02 -0.66397341920E+03  0.15208773160E+02  0.66949169967E+03  0.78790734100E+02 0.  0.
        254    2    1    2    0    0  0.30317453020E+02  0.66397341920E+03 -0.31428511296E+03  0.11638759960E+04  0.90224849813E+03 0.  0.
         23    2    4    4    0    0 -0.18157881401E+03  0.21651169537E+03  0.26400176157E+03  0.39719839724E+03  0.90672248931E+02 0.  0.
         23    2    4    4    0    0  0.21189626703E+03  0.44746172383E+03 -0.57828687453E+03  0.76667759872E+03  0.90866984415E+02 0.  0.
          1    1    3    3  502    0  0.18700771136E+01 -0.30660167419E+03  0.42957277426E+02  0.30960202113E+03  0.00000000000E+00 0. -1.
         -2    1    3    3    0  502 -0.32187530133E+02 -0.35737174502E+03 -0.27748504267E+02  0.35988967854E+03  0.00000000000E+00 0.  1.
         13    1    5    5    0    0 -0.13294080478E+03  0.14852233999E+03  0.12588139752E+03  0.23575043859E+03  0.00000000000E+00 0. -1.
        -13    1    5    5    0    0 -0.48638009222E+02  0.67989355381E+02  0.13812036405E+03  0.16144795865E+03  0.00000000000E+00 0.  1.
          4    1    6    6  503    0 -0.58239820845E+01  0.24049137197E+02 -0.14228987084E+02  0.28543718060E+02  0.00000000000E+00 0. -1.
         -4    1    6    6    0  503  0.21772024911E+03  0.42341258663E+03 -0.56405788745E+03  0.73813388066E+03  0.00000000000E+00 0.  1.
<mgrwt>
<rscale>  0 0.18088091E+04</rscale>
<asrwt>0</asrwt>
<pdfrwt beam="1">  1        1 0.11802241E+00 0.18088091E+04</pdfrwt>
<pdfrwt beam="2">  1       -2 0.16403416E+00 0.18088091E+04</pdfrwt>
<totfact> 0.45913673E+00</totfact>
</mgrwt>
</event>
<event>
12    5  0.5221187E-008  0.2388426E+04  0.7818608E-02  0.8443849E-01
          1   -1    0    0  501    0  0.00000000000E+00  0.00000000000E+00  0.25464457142E+04  0.25464457142E+04  0.00000000000E+00 0. -1.
         -2   -1    0    0    0  501 -0.00000000000E+00 -0.00000000000E+00 -0.56005304915E+03  0.56005304915E+03  0.00000000000E+00 0.  1.
        -24    2    1    2    0    0  0.17955034175E+03  0.37453703900E+03 -0.36423370604E+03  0.55742617245E+03  0.74440757039E+02 0.  0.
        254    2    1    2    0    0 -0.17955034175E+03 -0.37453703900E+03  0.23506263711E+04  0.25490725909E+04  0.89432120540E+03 0.  0.
         23    2    4    4    0    0  0.44040194641E+02 -0.14762754143E+03  0.21579756776E+04  0.21654394925E+04  0.92389071070E+02 0.  0.
         23    2    4    4    0    0 -0.22359053639E+03 -0.22690949757E+03  0.19265069346E+03  0.38363309846E+03  0.92625139637E+02 0.  0.
          3    1    3    3  502    0 -0.46421575045E+01  0.15113938664E+02 -0.26923932202E+02  0.31223050675E+02  0.00000000000E+00 0. -1.
         -2    1    3    3    0  502  0.18419249925E+03  0.35942310034E+03 -0.33730977383E+03  0.52620312177E+03  0.00000000000E+00 0.  1.
         13    1    5    5    0    0 -0.59487522441E+01 -0.78748972893E+02  0.14858118754E+04  0.14879091765E+04  0.00000000000E+00 0.  1.
        -13    1    5    5    0    0  0.49988946885E+02 -0.68878568538E+02  0.67216380222E+03  0.67753031595E+03  0.00000000000E+00 0. -1.
          3    1    6    6  503    0 -0.16822412230E+03 -0.18291850140E+03  0.10192216486E+03  0.26860130523E+03  0.00000000000E+00 0. -1.
         -3    1    6    6    0  503 -0.55366414084E+02 -0.43990996172E+02  0.90728528600E+02  0.11503179323E+03  0.00000000000E+00 0.  1.
<mgrwt>
<rscale>  0 0.23884260E+04</rscale>
<asrwt>0</asrwt>
<pdfrwt beam="1">  1        1 0.39176087E+00 0.23884260E+04</pdfrwt>
<pdfrwt beam="2">  1       -2 0.86162009E-01 0.23884260E+04</pdfrwt>
<totfact> 0.11581850E+00</totfact>
</mgrwt>
</event>
<event>
12    5  0.5221187E-008  0.1852761E+04  0.7818608E-02  0.8678734E-01
         -2   -1    0    0    0  501 -0.00000000000E+00  0.00000000000E+00  0.18232304128E+04  0.18232304128E+04  0.00000000000E+00 0.  1.
          1   -1    0    0  501    0  0.00000000000E+00 -0.00000000000E+00 -0.47069254784E+03  0.47069254784E+03  0.00000000000E+00 0. -1.
        -24    2    1    2    0    0  0.35340992360E+03 -0.49663621255E+03  0.69397711262E+02  0.61858839842E+03  0.79306132272E+02 0.  0.
        254    2    1    2    0    0 -0.35340992360E+03  0.49663621255E+03  0.12831401537E+04  0.16753345622E+04  0.88811662500E+03 0.  0.
         23    2    4    4    0    0 -0.36624928022E+03  0.71869923954E+03  0.11275176845E+04  0.13898405535E+04  0.98455589301E+02 0.  0.
         23    2    4    4    0    0  0.12839356619E+02 -0.22206302699E+03  0.15562246915E+03  0.28549400870E+03  0.88383477320E+02 0.  0.
          3    1    3    3  502    0  0.21447095387E+03 -0.34273100171E+03  0.16677767827E+02  0.40464858523E+03  0.00000000000E+00 0. -1.
         -4    1    3    3    0  502  0.13893896973E+03 -0.15390521085E+03  0.52719943434E+02  0.21393981320E+03  0.00000000000E+00 0.  1.
         13    1    5    5    0    0 -0.36926881060E+03  0.69002657287E+03  0.10720003465E+04  0.13272832662E+04  0.00000000000E+00 0.  1.
        -13    1    5    5    0    0  0.30195303862E+01  0.28672666673E+02  0.55517337974E+02  0.62557287294E+02  0.00000000000E+00 0. -1.
          1    1    6    6  503    0 -0.33482511157E+02 -0.11785889146E+03  0.10226181615E+03  0.15959096432E+03  0.00000000000E+00 0. -1.
         -1    1    6    6    0  503  0.46321867775E+02 -0.10420413553E+03  0.53360653008E+02  0.12590304438E+03  0.00000000000E+00 0.  1.
<mgrwt>
<rscale>  0 0.18527611E+04</rscale>
<asrwt>0</asrwt>
<pdfrwt beam="1">  1        1 0.72414239E-01 0.18527611E+04</pdfrwt>
<pdfrwt beam="2">  1       -2 0.28049698E+00 0.18527611E+04</pdfrwt>
<totfact> 0.16568605E+00</totfact>
</mgrwt>
</event>
<event>
12    5  0.5221187E-008  0.1179308E+04  0.7818608E-02  0.9131164E-01
         -2   -1    0    0    0  501 -0.00000000000E+00  0.00000000000E+00  0.65275938880E+03  0.65275938880E+03  0.00000000000E+00 0.  1.
          1   -1    0    0  501    0  0.00000000000E+00 -0.00000000000E+00 -0.53264910972E+03  0.53264910972E+03  0.00000000000E+00 0. -1.
        -24    2    1    2    0    0  0.53135161262E+02 -0.38791875167E+01 -0.22124851946E+03  0.24391409989E+03  0.87776917833E+02 0.  0.
        254    2    1    2    0    0 -0.53135161262E+02  0.38791875167E+01  0.34135879853E+03  0.94149439863E+03  0.87581246843E+03 0.  0.
         23    2    4    4    0    0 -0.16764004818E+03  0.15451581107E+02 -0.25986930079E+03  0.32286878131E+03  0.91489121423E+02 0.  0.
         23    2    4    4    0    0  0.11450488692E+03 -0.11572393590E+02  0.60122809932E+03  0.61862561733E+03  0.89314822825E+02 0.  0.
          1    1    3    3  502    0  0.48826914239E+02 -0.38234934548E+02 -0.98683636229E+02  0.11655229656E+03  0.00000000000E+00 0. -1.
         -2    1    3    3    0  502  0.43082470230E+01  0.34355747031E+02 -0.12256488323E+03  0.12736180333E+03  0.00000000000E+00 0.  1.
         13    1    5    5    0    0 -0.13023258595E+03  0.32025634561E+02 -0.13027778218E+03  0.18697183810E+03  0.00000000000E+00 0.  1.
        -13    1    5    5    0    0 -0.37407462229E+02 -0.16574053454E+02 -0.12959151861E+03  0.13589694321E+03  0.00000000000E+00 0. -1.
          1    1    6    6  503    0  0.53356287410E+01 -0.62906065803E+01  0.26398112377E+03  0.26410996644E+03  0.00000000000E+00 0. -1.
         -1    1    6    6    0  503  0.10916925818E+03 -0.52817870100E+01  0.33724697555E+03  0.35451565088E+03  0.00000000000E+00 0.  1.
<mgrwt>
<rscale>  0 0.11793078E+04</rscale>
<asrwt>0</asrwt>
<pdfrwt beam="1">  1        1 0.81946016E-01 0.11793078E+04</pdfrwt>
<pdfrwt beam="2">  1       -2 0.10042452E+00 0.11793078E+04</pdfrwt>
<totfact> 0.28775882E+01</totfact>
</mgrwt>
</event>
<event>
12    5  0.5221187E-008  0.2417653E+04  0.7818608E-02  0.8432924E-01
          1   -1    0    0  501    0  0.00000000000E+00  0.00000000000E+00  0.17696791604E+04  0.17696791604E+04  0.00000000000E+00 0. -1.
         -2   -1    0    0    0  501 -0.00000000000E+00 -0.00000000000E+00 -0.82572147190E+03  0.82572147190E+03  0.00000000000E+00 0.  1.
        -24    2    1    2    0    0  0.19863815128E+03 -0.11102204924E+03 -0.68414096918E+03  0.72612021251E+03  0.86131798641E+02 0.  0.
        254    2    1    2    0    0 -0.19863815128E+03  0.11102204924E+03  0.16280986577E+04  0.18692804198E+04  0.88978707459E+03 0.  0.
         23    2    4    4    0    0 -0.91503123361E+02 -0.14719460908E+03  0.15533271270E+04  0.15654727502E+04  0.88547690984E+02 0.  0.
         23    2    4    4    0    0 -0.10713502792E+03  0.25821665833E+03  0.74771530688E+02  0.30380766961E+03  0.92490872348E+02 0.  0.
          3    1    3    3  502    0  0.12546140432E+02  0.13211133402E+02 -0.34314748744E+02  0.38851533649E+02  0.00000000000E+00 0. -1.
         -4    1    3    3    0  502  0.18609201085E+03 -0.12423318265E+03 -0.64982622044E+03  0.68726867886E+03  0.00000000000E+00 0.  1.
         13    1    5    5    0    0 -0.70640653742E+01 -0.43693726310E+02  0.16842148126E+03  0.17414028279E+03  0.00000000000E+00 0. -1.
        -13    1    5    5    0    0 -0.84439057987E+02 -0.10350088277E+03  0.13849056457E+04  0.13913324674E+04  0.00000000000E+00 0.  1.
          3    1    6    6  503    0 -0.26778584061E+01  0.96764369674E+02  0.52785169168E+02  0.11025782624E+03  0.00000000000E+00 0. -1.
         -3    1    6    6    0  503 -0.10445716951E+03  0.16145228865E+03  0.21986361520E+02  0.19354984337E+03  0.00000000000E+00 0.  1.
<mgrwt>
<rscale>  0 0.24176535E+04</rscale>
<asrwt>0</asrwt>
<pdfrwt beam="1">  1        1 0.27225833E+00 0.24176535E+04</pdfrwt>
<pdfrwt beam="2">  1       -2 0.12703407E+00 0.24176535E+04</pdfrwt>
<totfact> 0.15459606E+00</totfact>
</mgrwt>
</event>
<event>
12    5  0.5221187E-008  0.2299296E+04  0.7818608E-02  0.8478199E-01
         -2   -1    0    0    0  501 -0.00000000000E+00  0.00000000000E+00  0.60771292075E+03  0.60771292075E+03  0.00000000000E+00 0.  1.
          1   -1    0    0  501    0  0.00000000000E+00 -0.00000000000E+00 -0.21748601978E+04  0.21748601978E+04  0.00000000000E+00 0. -1.
        -24    2    1    2    0    0 -0.24619904194E+03 -0.92569670069E+03 -0.81014925524E+03  0.12571643197E+04  0.81190893136E+02 0.  0.
        254    2    1    2    0    0  0.24619904194E+03  0.92569670069E+03 -0.75699802177E+03  0.15254087988E+04  0.91449311014E+03 0.  0.
         23    2    4    4    0    0  0.37729573776E+03  0.56018920680E+03 -0.14413748144E+02  0.68251228260E+03  0.97217481050E+02 0.  0.
         23    2    4    4    0    0 -0.13109669582E+03  0.36550749389E+03 -0.74258427362E+03  0.84289651617E+03  0.90890383437E+02 0.  0.
          1    1    3    3  502    0 -0.82821924550E+02 -0.28257772495E+03 -0.20203424414E+03  0.35710989574E+03  0.00000000000E+00 0. -1.
         -2    1    3    3    0  502 -0.16337711739E+03 -0.64311897574E+03 -0.60811501109E+03  0.90005442400E+03  0.00000000000E+00 0.  1.
         13    1    5    5    0    0  0.89054095347E+02  0.69570639958E+02 -0.10253364755E+02  0.11347174684E+03  0.00000000000E+00 0.  1.
        -13    1    5    5    0    0  0.28824164241E+03  0.49061856684E+03 -0.41603833898E+01  0.56904053576E+03  0.00000000000E+00 0. -1.
          4    1    6    6  503    0 -0.11485567078E+03  0.18683343156E+03 -0.40016279876E+03  0.45632096354E+03  0.00000000000E+00 0. -1.
         -4    1    6    6    0  503 -0.16241025043E+02  0.17867406233E+03 -0.34242147486E+03  0.38657555263E+03  0.00000000000E+00 0.  1.
<mgrwt>
<rscale>  0 0.22992961E+04</rscale>
<asrwt>0</asrwt>
<pdfrwt beam="1">  1        1 0.33459388E+00 0.22992961E+04</pdfrwt>
<pdfrwt beam="2">  1       -2 0.93494295E-01 0.22992961E+04</pdfrwt>
<totfact> 0.17412310E+00</totfact>
</mgrwt>
</event>
<event>
12    5  0.5221187E-008  0.1274746E+04  0.7818608E-02  0.9049835E-01
         -2   -1    0    0    0  501 -0.00000000000E+00  0.00000000000E+00  0.21073128302E+03  0.21073128302E+03  0.00000000000E+00 0.  1.
          1   -1    0    0  501    0  0.00000000000E+00 -0.00000000000E+00 -0.19277835132E+04  0.19277835132E+04  0.00000000000E+00 0. -1.
        -24    2    1    2    0    0 -0.19549456077E+03 -0.85843248199E+02 -0.86475528926E+03  0.89432087825E+03  0.80130745812E+02 0.  0.
        254    2    1    2    0    0  0.19549456077E+03  0.85843248199E+02 -0.85229694095E+03  0.12441939180E+04  0.88092067946E+03 0.  0.
         23    2    4    4    0    0  0.17985227302E+03  0.46224448905E+03 -0.59032727767E+03  0.77654980687E+03  0.92339049249E+02 0.  0.
         23    2    4    4    0    0  0.15642287745E+02 -0.37640124085E+03 -0.26196966328E+03  0.46764411113E+03  0.90223804609E+02 0.  0.
          3    1    3    3  502    0 -0.12862132450E+03 -0.41452880443E+02 -0.67319000079E+03  0.68661966442E+03  0.00000000000E+00 0. -1.
         -4    1    3    3    0  502 -0.66873236268E+02 -0.44390367756E+02 -0.19156528847E+03  0.20770121383E+03  0.00000000000E+00 0.  1.
         13    1    5    5    0    0  0.25625043703E+02  0.12153316407E+03 -0.97610667396E+02  0.15797086827E+03  0.00000000000E+00 0.  1.
        -13    1    5    5    0    0  0.15422722932E+03  0.34071132499E+03 -0.49271661027E+03  0.61857893860E+03  0.00000000000E+00 0. -1.
          2    1    6    6  503    0  0.16342268388E+02 -0.11316970469E+02 -0.26819680420E+02  0.33383211567E+02  0.00000000000E+00 0.  1.
         -2    1    6    6    0  503 -0.69998064306E+00 -0.36508427038E+03 -0.23514998286E+03  0.43426089957E+03  0.00000000000E+00 0. -1.
<mgrwt>
<rscale>  0 0.12747459E+04</rscale>
<asrwt>0</asrwt>
<pdfrwt beam="1">  1        1 0.29658207E+00 0.12747459E+04</pdfrwt>
<pdfrwt beam="2">  1       -2 0.32420199E-01 0.12747459E+04</pdfrwt>
<totfact> 0.25575760E+01</totfact>
</mgrwt>
</event>
<event>
12    5  0.5221187E-008  0.1814485E+04  0.7818608E-02  0.8698634E-01
          1   -1    0    0  501    0  0.00000000000E+00  0.00000000000E+00  0.57727460862E+03  0.57727460862E+03  0.00000000000E+00 0. -1.
         -2   -1    0    0    0  501 -0.00000000000E+00 -0.00000000000E+00 -0.14258179773E+04  0.14258179773E+04  0.00000000000E+00 0.  1.
        -24    2    1    2    0    0 -0.41255437993E+03  0.34987079214E+03  0.17300301226E+03  0.57386010977E+03  0.82308539869E+02 0.  0.
        254    2    1    2    0    0  0.41255437993E+03 -0.34987079214E+03 -0.10215463809E+04  0.14292324761E+04  0.84055801399E+03 0.  0.
         23    2    4    4    0    0  0.18635743361E+03 -0.38114303095E+03 -0.60865757252E+02  0.43768146316E+03  0.88664083378E+02 0.  0.
         23    2    4    4    0    0  0.22619694632E+03  0.31272238808E+02 -0.96068062368E+03  0.99155101299E+03  0.90128459388E+02 0.  0.
          1    1    3    3  502    0 -0.22330804064E+03  0.13963333127E+03  0.10007685206E+03  0.28174336644E+03  0.00000000000E+00 0. -1.
         -2    1    3    3    0  502 -0.18924633929E+03  0.21023746087E+03  0.72926160200E+02  0.29211674332E+03  0.00000000000E+00 0.  1.
         13    1    5    5    0    0  0.12428362062E+03 -0.17832630101E+03 -0.12773968589E+01  0.21736678616E+03  0.00000000000E+00 0. -1.
        -13    1    5    5    0    0  0.62073812999E+02 -0.20281672995E+03 -0.59588360393E+02  0.22031467700E+03  0.00000000000E+00 0.  1.
          1    1    6    6  503    0  0.23462001251E+03  0.32879610198E+02 -0.92813630578E+03  0.95789593440E+03  0.00000000000E+00 0. -1.
         -1    1    6    6    0  503 -0.84230661896E+01 -0.16073713898E+01 -0.32544317900E+02  0.33655078583E+02  0.00000000000E+00 0.  1.
<mgrwt>
<rscale>  0 0.18144845E+04</rscale>
<asrwt>0</asrwt>
<pdfrwt beam="1">  1        1 0.88811479E-01 0.18144845E+04</pdfrwt>
<pdfrwt beam="2">  1       -2 0.21935661E+00 0.18144845E+04</pdfrwt>
<totfact> 0.29781916E+00</totfact>
</mgrwt>
</event>
<event>
12    5  0.5221187E-008  0.1326982E+04  0.7818608E-02  0.9008438E-01
          1   -1    0    0  501    0  0.00000000000E+00  0.00000000000E+00  0.53539323031E+03  0.53539323031E+03  0.00000000000E+00 0. -1.
         -2   -1    0    0    0  501 -0.00000000000E+00 -0.00000000000E+00 -0.82223695496E+03  0.82223695496E+03  0.00000000000E+00 0.  1.
        -24    2    1    2    0    0  0.41777045099E+02  0.24567501807E+03  0.17495827074E+03  0.31511572919E+03  0.81154114367E+02 0.  0.
        254    2    1    2    0    0 -0.41777045099E+02 -0.24567501807E+03 -0.46180199539E+03  0.10425144561E+04  0.90081839025E+03 0.  0.
         23    2    4    4    0    0  0.15991416310E+03 -0.52208768010E+03 -0.15714942105E+03  0.57546576577E+03  0.91196610469E+02 0.  0.
         23    2    4    4    0    0 -0.20169120820E+03  0.27641266203E+03 -0.30465257434E+03  0.46704869032E+03  0.90763345494E+02 0.  0.
          1    1    3    3  502    0  0.37145491619E+00  0.19890168946E+03  0.14281588498E+03  0.24486403789E+03  0.00000000000E+00 0. -1.
         -2    1    3    3    0  502  0.41405590183E+02  0.46773328613E+02  0.32142385758E+02  0.70251691298E+02  0.00000000000E+00 0.  1.
         13    1    5    5    0    0  0.69908020878E+02 -0.11372390968E+03 -0.17695440357E+02  0.13466026744E+03  0.00000000000E+00 0. -1.
        -13    1    5    5    0    0  0.90006142221E+02 -0.40836377042E+03 -0.13945398069E+03  0.44080549833E+03  0.00000000000E+00 0.  1.
          1    1    6    6  503    0 -0.24168816705E+02  0.95246559081E+02 -0.10867557790E+03  0.14651423122E+03  0.00000000000E+00 0. -1.
         -1    1    6    6    0  503 -0.17752239149E+03  0.18116610295E+03 -0.19597699643E+03  0.32053445910E+03  0.00000000000E+00 0.  1.
<mgrwt>
<rscale>  0 0.13269817E+04</rscale>
<asrwt>0</asrwt>
<pdfrwt beam="1">  1        1 0.82368189E-01 0.13269817E+04</pdfrwt>
<pdfrwt beam="2">  1       -2 0.12649799E+00 0.13269817E+04</pdfrwt>
<totfact> 0.16073823E+01</totfact>
</mgrwt>
</event>
<event>
12    5  0.5221187E-008  0.1322798E+04  0.7818608E-02  0.9011679E-01
          1   -1    0    0  501    0  0.00000000000E+00  0.00000000000E+00  0.94392417873E+03  0.94392417873E+03  0.00000000000E+00 0. -1.
         -2   -1    0    0    0  501 -0.00000000000E+00 -0.00000000000E+00 -0.46343648645E+03  0.46343648645E+03  0.00000000000E+00 0.  1.
        -24    2    1    2    0    0 -0.10829043367E+03 -0.14231103191E+03 -0.17924818075E+03  0.26517214548E+03  0.78785205526E+02 0.  0.
        254    2    1    2    0    0  0.10829043367E+03  0.14231103191E+03  0.65973587304E+03  0.11421885197E+04  0.91507592283E+03 0.  0.
         23    2    4    4    0    0  0.12709093888E+03 -0.32814988537E+03  0.53326099918E+03  0.64539100445E+03  0.91256788093E+02 0.  0.
         23    2    4    4    0    0 -0.18800505205E+02  0.47046091728E+03  0.12647487386E+03  0.49679751525E+03  0.95524571482E+02 0.  0.
          3    1    3    3  502    0 -0.29243357929E+02 -0.97892659867E+02 -0.73415262436E+02  0.12580917136E+03  0.00000000000E+00 0. -1.
         -4    1    3    3    0  502 -0.79047075741E+02 -0.44418372040E+02 -0.10583291832E+03  0.13936297413E+03  0.00000000000E+00 0.  1.
         13    1    5    5    0    0  0.11695530404E+03 -0.32925462905E+03  0.52975738371E+03  0.63461014765E+03  0.00000000000E+00 0.  1.
        -13    1    5    5    0    0  0.10135634839E+02  0.11047436821E+01  0.35036154625E+01  0.10780856808E+02  0.00000000000E+00 0. -1.
          1    1    6    6  503    0  0.26052213901E+02  0.30097063454E+03  0.10658942214E+03  0.32034878744E+03  0.00000000000E+00 0. -1.
         -1    1    6    6    0  503 -0.44852719106E+02  0.16949028274E+03  0.19885451722E+02  0.17644872781E+03  0.00000000000E+00 0.  1.
<mgrwt>
<rscale>  0 0.13227984E+04</rscale>
<asrwt>0</asrwt>
<pdfrwt beam="1">  1        1 0.14521910E+00 0.13227984E+04</pdfrwt>
<pdfrwt beam="2">  1       -2 0.71297921E-01 0.13227984E+04</pdfrwt>
<totfact> 0.25734654E+01</totfact>
</mgrwt>
</event>
<event>
12    5  0.5221187E-008  0.4018097E+04  0.7818608E-02  0.8000906E-01
          1   -1    0    0  501    0  0.00000000000E+00  0.00000000000E+00  0.24912436818E+04  0.24912436818E+04  0.00000000000E+00 0. -1.
         -2   -1    0    0    0  501 -0.00000000000E+00 -0.00000000000E+00 -0.16201852251E+04  0.16201852251E+04  0.00000000000E+00 0.  1.
        -24    2    1    2    0    0 -0.18942061190E+04  0.69923210006E+02  0.68054980051E+03  0.20155334421E+04  0.79504394285E+02 0.  0.
        254    2    1    2    0    0  0.18942061190E+04 -0.69923210006E+02  0.19050865620E+03  0.20958954647E+04  0.87382960263E+03 0.  0.
         23    2    4    4    0    0  0.93700588342E+03  0.33411074410E+03 -0.12477086426E+03  0.10063710286E+04  0.87205869411E+02 0.  0.
         23    2    4    4    0    0  0.95720023557E+03 -0.40403395411E+03  0.31527952046E+03  0.10895244362E+04  0.90479798481E+02 0.  0.
          3    1    3    3  502    0 -0.38913913802E+03  0.62626716033E+00  0.17083102889E+03  0.42498576609E+03  0.00000000000E+00 0. -1.
         -4    1    3    3    0  502 -0.15050669810E+04  0.69296942845E+02  0.50971877161E+03  0.15905476760E+04  0.00000000000E+00 0.  1.
         13    1    5    5    0    0  0.19590819110E+03  0.10514088444E+03 -0.13265621180E+02  0.22273437459E+03  0.00000000000E+00 0. -1.
        -13    1    5    5    0    0  0.74109769233E+03  0.22896985966E+03 -0.11150524308E+03  0.78363665397E+03  0.00000000000E+00 0.  1.
          2    1    6    6  503    0  0.22425855336E+03 -0.67740188225E+02  0.41544828543E+02  0.23792142534E+03  0.00000000000E+00 0. -1.
         -2    1    6    6    0  503  0.73294168220E+03 -0.33629376588E+03  0.27373469192E+03  0.85160301082E+03  0.00000000000E+00 0.  1.
<mgrwt>
<rscale>  0 0.40180972E+04</rscale>
<asrwt>0</asrwt>
<pdfrwt beam="1">  1        1 0.38326826E+00 0.40180972E+04</pdfrwt>
<pdfrwt beam="2">  1       -2 0.24925927E+00 0.40180972E+04</pdfrwt>
<totfact> 0.61341814E-02</totfact>
</mgrwt>
</event>
<event>
12    5  0.5221187E-008  0.1775054E+04  0.7818608E-02  0.8719679E-01
          1   -1    0    0  501    0  0.00000000000E+00  0.00000000000E+00  0.15257493026E+04  0.15257493026E+04  0.00000000000E+00 0. -1.
         -2   -1    0    0    0  501 -0.00000000000E+00 -0.00000000000E+00 -0.51627393577E+03  0.51627393577E+03  0.00000000000E+00 0.  1.
        -24    2    1    2    0    0 -0.39083996061E+03  0.14990704317E+03 -0.20375653738E+03  0.47236691944E+03  0.79911098446E+02 0.  0.
        254    2    1    2    0    0  0.39083996061E+03 -0.14990704317E+03  0.12132319042E+04  0.15696563189E+04  0.90369315021E+03 0.  0.
         23    2    4    4    0    0  0.42745593933E+03 -0.43764467069E+03  0.50109558726E+03  0.79479282359E+03  0.79670615730E+02 0.  0.
         23    2    4    4    0    0 -0.36615978717E+02  0.28773762752E+03  0.71213631691E+03  0.77486349530E+03  0.95611873211E+02 0.  0.
          1    1    3    3  502    0 -0.11836972361E+01 -0.62211135739E+01 -0.21132937801E+01  0.66760320436E+01  0.00000000000E+00 0. -1.
         -2    1    3    3    0  502 -0.38965626337E+03  0.15612815675E+03 -0.20164324360E+03  0.46569088740E+03  0.00000000000E+00 0.  1.
         13    1    5    5    0    0  0.15726181336E+03 -0.13694906858E+03  0.21516734330E+03  0.29963863394E+03  0.00000000000E+00 0.  1.
        -13    1    5    5    0    0  0.27019412596E+03 -0.30069560211E+03  0.28592824396E+03  0.49515418965E+03  0.00000000000E+00 0. -1.
          1    1    6    6  503    0 -0.53723817304E+02  0.28077389045E+03  0.65105556114E+03  0.71105103178E+03  0.00000000000E+00 0. -1.
         -1    1    6    6    0  503  0.17107838587E+02  0.69637370698E+01  0.61080755770E+02  0.63812463521E+02  0.00000000000E+00 0.  1.
<mgrwt>
<rscale>  0 0.17750545E+04</rscale>
<asrwt>0</asrwt>
<pdfrwt beam="1">  1        1 0.23473066E+00 0.17750545E+04</pdfrwt>
<pdfrwt beam="2">  1       -2 0.79426760E-01 0.17750545E+04</pdfrwt>
<totfact> 0.73193360E+00</totfact>
</mgrwt>
</event>
<event>
12    5  0.5221187E-008  0.1164090E+04  0.7818608E-02  0.9144882E-01
          3   -1    0    0  501    0  0.00000000000E+00  0.00000000000E+00  0.52996464488E+03  0.52996464488E+03  0.00000000000E+00 0. -1.
         -4   -1    0    0    0  501 -0.00000000000E+00 -0.00000000000E+00 -0.63924330253E+03  0.63924330253E+03  0.00000000000E+00 0.  1.
        -24    2    1    2    0    0  0.21823359654E+03  0.12037099524E+02 -0.13128621839E+02  0.23308383528E+03  0.79905688998E+02 0.  0.
        254    2    1    2    0    0 -0.21823359654E+03 -0.12037099524E+02 -0.96150035813E+02  0.93612411213E+03  0.90515895262E+03 0.  0.
         23    2    4    4    0    0 -0.55280763841E+03 -0.10580641675E+03 -0.28860700007E+02  0.57071340824E+03  0.89942044860E+02 0.  0.
         23    2    4    4    0    0  0.33457404187E+03  0.93769317221E+02 -0.67289335806E+02  0.36541070389E+03  0.90910139477E+02 0.  0.
          1    1    3    3  502    0  0.20739874184E+03  0.30577263796E+02 -0.38104523996E+01  0.20967528878E+03  0.00000000000E+00 0. -1.
         -2    1    3    3    0  502  0.10834854704E+02 -0.18540164273E+02 -0.93181694395E+01  0.23408546504E+02  0.00000000000E+00 0.  1.
         13    1    5    5    0    0  0.11313533476E+01 -0.16367023994E+01 -0.63074061454E+01  0.66137831401E+01  0.00000000000E+00 0. -1.
        -13    1    5    5    0    0 -0.55393899175E+03 -0.10416971435E+03 -0.22553293862E+02  0.56409962510E+03  0.00000000000E+00 0.  1.
          1    1    6    6  503    0  0.66277652409E+02  0.16331240915E+02 -0.51879593783E+02  0.85737558221E+02  0.00000000000E+00 0. -1.
         -1    1    6    6    0  503  0.26829638946E+03  0.77438076306E+02 -0.15409742023E+02  0.27967314567E+03  0.00000000000E+00 0.  1.
<mgrwt>
<rscale>  0 0.11640899E+04</rscale>
<asrwt>0</asrwt>
<pdfrwt beam="1">  1        3 0.81533022E-01 0.11640899E+04</pdfrwt>
<pdfrwt beam="2">  1       -4 0.98345124E-01 0.11640899E+04</pdfrwt>
<totfact> 0.27093711E+00</totfact>
</mgrwt>
</event>
<event>
12    5  0.5221187E-008  0.1738584E+04  0.7818608E-02  0.8739660E-01
         -2   -1    0    0    0  501 -0.00000000000E+00  0.00000000000E+00  0.61560074845E+03  0.61560074845E+03  0.00000000000E+00 0.  1.
          1   -1    0    0  501    0  0.00000000000E+00 -0.00000000000E+00 -0.12275298875E+04  0.12275298875E+04  0.00000000000E+00 0. -1.
        -24    2    1    2    0    0  0.32146879391E+03 -0.53193081834E+03 -0.36500530768E+03  0.72493803179E+03  0.77548013202E+02 0.  0.
        254    2    1    2    0    0 -0.32146879391E+03  0.53193081834E+03 -0.24692383139E+03  0.11181926042E+04  0.89615330193E+03 0.  0.
         23    2    4    4    0    0 -0.54145845019E+02  0.15204598486E+03  0.32563811199E+03  0.37508557370E+03  0.92732160383E+02 0.  0.
         23    2    4    4    0    0 -0.26732294889E+03  0.37988483347E+03 -0.57256194338E+03  0.74310703048E+03  0.92773024217E+02 0.  0.
          3    1    3    3  502    0  0.10511592695E+03 -0.21507415176E+03 -0.17673653698E+03  0.29756016595E+03  0.00000000000E+00 0. -1.
         -4    1    3    3    0  502  0.21635286696E+03 -0.31685666657E+03 -0.18826877070E+03  0.42737786584E+03  0.00000000000E+00 0.  1.
         13    1    5    5    0    0 -0.56269987364E+02  0.11771280097E+03  0.31181968575E+03  0.33801498696E+03  0.00000000000E+00 0.  1.
        -13    1    5    5    0    0  0.21241423458E+01  0.34333183896E+02  0.13818426240E+02  0.37070586735E+02  0.00000000000E+00 0. -1.
          4    1    6    6  503    0 -0.50175643502E+02  0.73656383450E+02 -0.17454419793E+03  0.19598095584E+03  0.00000000000E+00 0. -1.
         -4    1    6    6    0  503 -0.21714730539E+03  0.30622845002E+03 -0.39801774546E+03  0.54712607463E+03  0.00000000000E+00 0.  1.
<mgrwt>
<rscale>  0 0.17385837E+04</rscale>
<asrwt>0</asrwt>
<pdfrwt beam="1">  1        1 0.18885075E+00 0.17385837E+04</pdfrwt>
<pdfrwt beam="2">  1       -2 0.94707809E-01 0.17385837E+04</pdfrwt>
<totfact> 0.79689060E+00</totfact>
</mgrwt>
</event>
<event>
12    5  0.5221187E-008  0.3569773E+04  0.7818608E-02  0.8097451E-01
         -2   -1    0    0    0  501 -0.00000000000E+00  0.00000000000E+00  0.23732382468E+04  0.23732382468E+04  0.00000000000E+00 0.  1.
          1   -1    0    0  501    0  0.00000000000E+00 -0.00000000000E+00 -0.13423935704E+04  0.13423935704E+04  0.00000000000E+00 0. -1.
        -24    2    1    2    0    0  0.15022581943E+04 -0.96434418874E+02  0.12362199194E+04  0.19494980412E+04  0.78890075961E+02 0.  0.
        254    2    1    2    0    0 -0.15022581943E+04  0.96434418874E+02 -0.20537524306E+03  0.17661337759E+04  0.90053886350E+03 0.  0.
         23    2    4    4    0    0 -0.10807880362E+04 -0.29234005131E+03 -0.33221103954E+03  0.11712547211E+04  0.88926723513E+02 0.  0.
         23    2    4    4    0    0 -0.42147015807E+03  0.38877447018E+03  0.12683579648E+03  0.59487905483E+03  0.94926749634E+02 0.  0.
          1    1    3    3  502    0  0.13465338445E+04 -0.76275708374E+02  0.10778572560E+04  0.17264841853E+04  0.00000000000E+00 0. -1.
         -2    1    3    3    0  502  0.15572434979E+03 -0.20158710500E+02  0.15836266346E+03  0.22301385586E+03  0.00000000000E+00 0.  1.
         13    1    5    5    0    0 -0.18085735359E+03 -0.31755041264E+02 -0.25251423637E+02  0.18535209572E+03  0.00000000000E+00 0.  1.
        -13    1    5    5    0    0 -0.89993068259E+03 -0.26058501004E+03 -0.30695961590E+03  0.98590262538E+03  0.00000000000E+00 0. -1.
          4    1    6    6  503    0 -0.38153241017E+03  0.32836946598E+03  0.82854755901E+02  0.51015526732E+03  0.00000000000E+00 0. -1.
         -4    1    6    6    0  503 -0.39937747907E+02  0.60405004199E+02  0.43981040576E+02  0.84723787511E+02  0.00000000000E+00 0.  1.
<mgrwt>
<rscale>  0 0.35697730E+04</rscale>
<asrwt>0</asrwt>
<pdfrwt beam="1">  1        1 0.20652209E+00 0.35697730E+04</pdfrwt>
<pdfrwt beam="2">  1       -2 0.36511358E+00 0.35697730E+04</pdfrwt>
<totfact> 0.74924567E-02</totfact>
</mgrwt>
</event>
<event>
12    5  0.5221187E-008  0.1541364E+04  0.7818608E-02  0.8857403E-01
         -2   -1    0    0    0  501 -0.00000000000E+00  0.00000000000E+00  0.27031035478E+03  0.27031035478E+03  0.00000000000E+00 0.  1.
          1   -1    0    0  501    0  0.00000000000E+00 -0.00000000000E+00 -0.21972904911E+04  0.21972904911E+04  0.00000000000E+00 0. -1.
        -24    2    1    2    0    0  0.44532250558E+03  0.96563840468E+02 -0.96807382815E+03  0.10729522732E+04  0.80143212199E+02 0.  0.
        254    2    1    2    0    0 -0.44532250558E+03 -0.96563840468E+02 -0.95890630816E+03  0.13946485727E+04  0.90438190178E+03 0.  0.
         23    2    4    4    0    0 -0.40406524234E+02 -0.43188753093E+03 -0.62369824360E+03  0.76502303036E+03  0.90006729418E+02 0.  0.
         23    2    4    4    0    0 -0.40491598135E+03  0.33532369046E+03 -0.33520806456E+03  0.62962554235E+03  0.87549687033E+02 0.  0.
          1    1    3    3  502    0  0.13560388145E+03  0.51458217990E+02 -0.38071915288E+03  0.40741064571E+03  0.00000000000E+00 0. -1.
         -2    1    3    3    0  502  0.30971862413E+03  0.45105622478E+02 -0.58735467527E+03  0.66554162745E+03  0.00000000000E+00 0.  1.
         13    1    5    5    0    0 -0.43856907081E+02 -0.40125575953E+03 -0.60960698153E+03  0.73112945830E+03  0.00000000000E+00 0.  1.
        -13    1    5    5    0    0  0.34503828470E+01 -0.30631771395E+02 -0.14091262069E+02  0.33893572065E+02  0.00000000000E+00 0. -1.
          3    1    6    6  503    0 -0.67688393835E+01 -0.21633233364E+01 -0.16776757128E+02  0.18219679859E+02  0.00000000000E+00 0. -1.
         -3    1    6    6    0  503 -0.39814714197E+03  0.33748701380E+03 -0.31843130743E+03  0.61140586249E+03  0.00000000000E+00 0.  1.
<mgrwt>
<rscale>  0 0.15413635E+04</rscale>
<asrwt>0</asrwt>
<pdfrwt beam="1">  1        1 0.33804470E+00 0.15413635E+04</pdfrwt>
<pdfrwt beam="2">  1       -2 0.41586208E-01 0.15413635E+04</pdfrwt>
<totfact> 0.10157475E+01</totfact>
</mgrwt>
</event>
<event>
12    5  0.5221187E-008  0.2168415E+04  0.7818608E-02  0.8531691E-01
          1   -1    0    0  501    0  0.00000000000E+00  0.00000000000E+00  0.14144192914E+04  0.14144192914E+04  0.00000000000E+00 0. -1.
         -2   -1    0    0    0  501 -0.00000000000E+00 -0.00000000000E+00 -0.83108754415E+03  0.83108754415E+03  0.00000000000E+00 0.  1.
        -24    2    1    2    0    0 -0.23739527619E+03 -0.45890451728E+03  0.10031452216E+04  0.11312297309E+04  0.80190369203E+02 0.  0.
        254    2    1    2    0    0  0.23739527619E+03  0.45890451728E+03 -0.41981347443E+03  0.11142771046E+04  0.89354364155E+03 0.  0.
         23    2    4    4    0    0 -0.29442063368E+03 -0.19064942129E+02 -0.85149274354E+02  0.31978219200E+03  0.89237155064E+02 0.  0.
         23    2    4    4    0    0  0.53181590986E+03  0.47796945941E+03 -0.33466420007E+03  0.79449491258E+03  0.89101476984E+02 0.  0.
          3    1    3    3  502    0 -0.17761349119E+03 -0.26185753628E+03  0.63236973558E+03  0.70711201661E+03  0.00000000000E+00 0. -1.
         -4    1    3    3    0  502 -0.59781784994E+02 -0.19704698099E+03  0.37077548606E+03  0.42411771432E+03  0.00000000000E+00 0.  1.
         13    1    5    5    0    0 -0.20753665126E+03 -0.39576229336E+02 -0.91596625456E+02  0.23027740084E+03  0.00000000000E+00 0. -1.
        -13    1    5    5    0    0 -0.86883982422E+02  0.20511287207E+02  0.64473511012E+01  0.89504791160E+02  0.00000000000E+00 0.  1.
          1    1    6    6  503    0  0.30976513901E+03  0.33566800414E+03 -0.20652332860E+03  0.50127770308E+03  0.00000000000E+00 0. -1.
         -1    1    6    6    0  503  0.22205077085E+03  0.14230145527E+03 -0.12814087147E+03  0.29321720950E+03  0.00000000000E+00 0.  1.
<mgrwt>
<rscale>  0 0.21684153E+04</rscale>
<asrwt>0</asrwt>
<pdfrwt beam="1">  1        1 0.21760297E+00 0.21684153E+04</pdfrwt>
<pdfrwt beam="2">  1       -2 0.12785962E+00 0.21684153E+04</pdfrwt>
<totfact> 0.27280549E+00</totfact>
</mgrwt>
</event>
<event>
12    5  0.5221187E-008  0.1608633E+04  0.7818608E-02  0.8815262E-01
          1   -1    0    0  501    0  0.00000000000E+00  0.00000000000E+00  0.13698182776E+04  0.13698182776E+04  0.00000000000E+00 0. -1.
         -2   -1    0    0    0  501 -0.00000000000E+00 -0.00000000000E+00 -0.47227079598E+03  0.47227079598E+03  0.00000000000E+00 0.  1.
        -24    2    1    2    0    0 -0.20187397031E+03 -0.30630225837E+03 -0.14896717576E+03  0.40376081144E+03  0.79103729546E+02 0.  0.
        254    2    1    2    0    0  0.20187397031E+03  0.30630225837E+03  0.10465146573E+04  0.14383282621E+04  0.91598094313E+03 0.  0.
         23    2    4    4    0    0 -0.41554134337E+02  0.28108999952E+03 -0.55485405956E+02  0.30586004428E+03  0.98658007799E+02 0.  0.
         23    2    4    4    0    0  0.24342810465E+03  0.25212258856E+02  0.11020000633E+04  0.11324682178E+04  0.90483284419E+02 0.  0.
          1    1    3    3  502    0 -0.11235667452E+03 -0.21941268280E+03 -0.12625099203E+03  0.27695714591E+03  0.00000000000E+00 0. -1.
         -2    1    3    3    0  502 -0.89517295785E+02 -0.86889575573E+02 -0.22716183729E+02  0.12680366553E+03  0.00000000000E+00 0.  1.
         13    1    5    5    0    0  0.30002787402E+02  0.56363217154E+02 -0.12667212289E+01  0.63863793205E+02  0.00000000000E+00 0. -1.
        -13    1    5    5    0    0 -0.71556921739E+02  0.22472678236E+03 -0.54218684728E+02  0.24199625108E+03  0.00000000000E+00 0.  1.
          2    1    6    6  503    0  0.82350147943E+02  0.51752425638E+02  0.38116671210E+03  0.39338012512E+03  0.00000000000E+00 0. -1.
         -2    1    6    6    0  503  0.16107795670E+03 -0.26540166781E+02  0.72083335119E+03  0.73908809270E+03  0.00000000000E+00 0.  1.
<mgrwt>
<rscale>  0 0.16086332E+04</rscale>
<asrwt>0</asrwt>
<pdfrwt beam="1">  1        1 0.21074127E+00 0.16086332E+04</pdfrwt>
<pdfrwt beam="2">  1       -2 0.72657046E-01 0.16086332E+04</pdfrwt>
<totfact> 0.11626403E+01</totfact>
</mgrwt>
</event>
<event>
12    5  0.5221187E-008  0.1080553E+04  0.7818608E-02  0.9224357E-01
          1   -1    0    0  501    0  0.00000000000E+00  0.00000000000E+00  0.91852593983E+03  0.91852593983E+03  0.00000000000E+00 0. -1.
         -2   -1    0    0    0  501 -0.00000000000E+00 -0.00000000000E+00 -0.31779015958E+03  0.31779015958E+03  0.00000000000E+00 0.  1.
        -24    2    1    2    0    0 -0.13752478044E+02 -0.21951658264E+03  0.27087278627E+03  0.36125794739E+03  0.93587272142E+02 0.  0.
        254    2    1    2    0    0  0.13752478044E+02  0.21951658264E+03  0.32986299399E+03  0.87505815201E+03  0.78009006781E+03 0.  0.
         23    2    4    4    0    0  0.18300446616E+03  0.42630271174E+03  0.35643856733E+03  0.59190664472E+03  0.89890973511E+02 0.  0.
         23    2    4    4    0    0 -0.16925198811E+03 -0.20678612910E+03 -0.26575573343E+02  0.28315150729E+03  0.89787395059E+02 0.  0.
          1    1    3    3  502    0 -0.11367949049E+02 -0.21022362736E+03  0.20215277707E+03  0.29187145979E+03  0.00000000000E+00 0. -1.
         -2    1    3    3    0  502 -0.23845289949E+01 -0.92929552749E+01  0.68720009200E+02  0.69386487594E+02  0.00000000000E+00 0.  1.
         13    1    5    5    0    0  0.14813819758E+03  0.33946400788E+03  0.32625638245E+03  0.49358278467E+03  0.00000000000E+00 0.  1.
        -13    1    5    5    0    0  0.34866268577E+02  0.86838703859E+02  0.30182184874E+02  0.98323860055E+02  0.00000000000E+00 0. -1.
          2    1    6    6  503    0 -0.99174023343E+01  0.42543341330E+01  0.11750627771E+02  0.15954042779E+02  0.00000000000E+00 0. -1.
         -2    1    6    6    0  503 -0.15933458578E+03 -0.21104046324E+03 -0.38326201114E+02  0.26719746451E+03  0.00000000000E+00 0.  1.
<mgrwt>
<rscale>  0 0.10805526E+04</rscale>
<asrwt>0</asrwt>
<pdfrwt beam="1">  1        1 0.14131168E+00 0.10805526E+04</pdfrwt>
<pdfrwt beam="2">  1       -2 0.48890794E-01 0.10805526E+04</pdfrwt>
<totfact> 0.60869961E+01</totfact>
</mgrwt>
</event>
<event>
12    5  0.5221187E-008  0.1492440E+04  0.7818608E-02  0.8889496E-01
         -2   -1    0    0    0  501 -0.00000000000E+00  0.00000000000E+00  0.86232721392E+03  0.86232721392E+03  0.00000000000E+00 0.  1.
          1   -1    0    0  501    0  0.00000000000E+00 -0.00000000000E+00 -0.64574579636E+03  0.64574579636E+03  0.00000000000E+00 0. -1.
        -24    2    1    2    0    0 -0.15733082931E+03  0.37838068493E+02  0.52049138933E+03  0.55113427625E+03  0.81565892464E+02 0.  0.
        254    2    1    2    0    0  0.15733082931E+03 -0.37838068493E+02 -0.30390997177E+03  0.95693873403E+03  0.89285259728E+03 0.  0.
         23    2    4    4    0    0  0.44074930807E+03  0.23140111590E+03 -0.17086605349E+03  0.53393516880E+03  0.89917335581E+02 0.  0.
         23    2    4    4    0    0 -0.28341847876E+03 -0.26923918439E+03 -0.13304391828E+03  0.42300356523E+03  0.91736358601E+02 0.  0.
          1    1    3    3  502    0 -0.37653589131E+02 -0.25794200410E+02  0.12693919625E+03  0.13489511887E+03  0.00000000000E+00 0. -1.
         -2    1    3    3    0  502 -0.11967724018E+03  0.63632268903E+02  0.39355219308E+03  0.41623915739E+03  0.00000000000E+00 0.  1.
         13    1    5    5    0    0  0.33541908748E+03  0.16999821681E+03 -0.16830951984E+03  0.41198719936E+03  0.00000000000E+00 0. -1.
        -13    1    5    5    0    0  0.10533022059E+03  0.61402899090E+02 -0.25565336512E+01  0.12194796944E+03  0.00000000000E+00 0.  1.
          3    1    6    6  503    0 -0.12403030379E+03 -0.12510050983E+03 -0.12499695649E+02  0.17660661428E+03  0.00000000000E+00 0. -1.
         -3    1    6    6    0  503 -0.15938817498E+03 -0.14413867457E+03 -0.12054422263E+03  0.24639695095E+03  0.00000000000E+00 0.  1.
<mgrwt>
<rscale>  0 0.14924398E+04</rscale>
<asrwt>0</asrwt>
<pdfrwt beam="1">  1        1 0.99345508E-01 0.14924398E+04</pdfrwt>
<pdfrwt beam="2">  1       -2 0.13266572E+00 0.14924398E+04</pdfrwt>
<totfact> 0.10743582E+01</totfact>
</mgrwt>
</event>
<event>
12    5  0.5221187E-008  0.2096820E+04  0.7818608E-02  0.8562646E-01
          1   -1    0    0  501    0  0.00000000000E+00  0.00000000000E+00  0.55308973540E+03  0.55308973540E+03  0.00000000000E+00 0. -1.
         -2   -1    0    0    0  501 -0.00000000000E+00 -0.00000000000E+00 -0.19873142047E+04  0.19873142047E+04  0.00000000000E+00 0.  1.
        -24    2    1    2    0    0  0.15812947398E+03  0.51380441121E+03 -0.13600042390E+04  0.14646075870E+04  0.80398695108E+02 0.  0.
        254    2    1    2    0    0 -0.15812947398E+03 -0.51380441121E+03 -0.74220230297E+02  0.10757963531E+04  0.92888602494E+03 0.  0.
         23    2    4    4    0    0  0.96501591558E+02  0.19791928011E+03  0.14990966692E+03  0.28178510756E+03  0.91898530958E+02 0.  0.
         23    2    4    4    0    0 -0.25463106553E+03 -0.71172369132E+03 -0.22412989722E+03  0.79401124558E+03  0.93979013392E+02 0.  0.
          3    1    3    3  502    0  0.59843779081E+02  0.22642964068E+03 -0.69833507242E+03  0.73656196851E+03  0.00000000000E+00 0. -1.
         -4    1    3    3    0  502  0.98285694895E+02  0.28737477053E+03 -0.66166916662E+03  0.72804561850E+03  0.00000000000E+00 0.  1.
         13    1    5    5    0    0  0.11314463404E+03  0.15565810020E+03  0.11223248038E+03  0.22277181604E+03  0.00000000000E+00 0. -1.
        -13    1    5    5    0    0 -0.16643042477E+02  0.42261179912E+02  0.37677186537E+02  0.59013291518E+02  0.00000000000E+00 0.  1.
          1    1    6    6  503    0 -0.21794035254E+03 -0.58935075062E+03 -0.14892297211E+03  0.64576339021E+03  0.00000000000E+00 0. -1.
         -1    1    6    6    0  503 -0.36690712998E+02 -0.12237294071E+03 -0.75206925110E+02  0.14824785537E+03  0.00000000000E+00 0.  1.
<mgrwt>
<rscale>  0 0.20968196E+04</rscale>
<asrwt>0</asrwt>
<pdfrwt beam="1">  1        1 0.85090727E-01 0.20968196E+04</pdfrwt>
<pdfrwt beam="2">  1       -2 0.30574065E+00 0.20968196E+04</pdfrwt>
<totfact> 0.90948863E-01</totfact>
</mgrwt>
</event>
<event>
12    5  0.5221187E-008  0.2446657E+04  0.7818608E-02  0.8422240E-01
         -2   -1    0    0    0  501 -0.00000000000E+00  0.00000000000E+00  0.77416292679E+03  0.77416292679E+03  0.00000000000E+00 0.  1.
          1   -1    0    0  501    0  0.00000000000E+00 -0.00000000000E+00 -0.19330978972E+04  0.19330978972E+04  0.00000000000E+00 0. -1.
        -24    2    1    2    0    0 -0.38388143875E+02  0.27325824569E+03 -0.16269917291E+04  0.16521106466E+04  0.78890959121E+02 0.  0.
        254    2    1    2    0    0  0.38388143875E+02 -0.27325824569E+03  0.46805675872E+03  0.10551501774E+04  0.90450044174E+03 0.  0.
         23    2    4    4    0    0 -0.32473217642E+03 -0.41986625266E+03  0.21562035283E+03  0.58006719902E+03  0.90813888229E+02 0.  0.
         23    2    4    4    0    0  0.36312032029E+03  0.14660800697E+03  0.25243640589E+03  0.47508297841E+03  0.92894685721E+02 0.  0.
          1    1    3    3  502    0 -0.22495323008E+02  0.26210070089E+03 -0.15703757699E+04  0.15922571638E+04  0.00000000000E+00 0. -1.
         -2    1    3    3    0  502 -0.15892820866E+02  0.11157544801E+02 -0.56615959219E+02  0.59853482767E+02  0.00000000000E+00 0.  1.
         13    1    5    5    0    0 -0.74749325880E+02 -0.54430537619E+02  0.13837875502E+02  0.93496694826E+02  0.00000000000E+00 0.  1.
        -13    1    5    5    0    0 -0.24998285054E+03 -0.36543571504E+03  0.20178247732E+03  0.48657050419E+03  0.00000000000E+00 0. -1.
          1    1    6    6  503    0  0.33829618279E+03  0.12123762549E+03  0.19857826569E+03  0.41058031702E+03  0.00000000000E+00 0. -1.
         -1    1    6    6    0  503  0.24824137506E+02  0.25370381480E+02  0.53858140207E+02  0.64502661386E+02  0.00000000000E+00 0.  1.
<mgrwt>
<rscale>  0 0.24466571E+04</rscale>
<asrwt>0</asrwt>
<pdfrwt beam="1">  1        1 0.29739967E+00 0.24466571E+04</pdfrwt>
<pdfrwt beam="2">  1       -2 0.11910199E+00 0.24466571E+04</pdfrwt>
<totfact> 0.14036036E+00</totfact>
</mgrwt>
</event>
<event>
12    5  0.5221187E-008  0.2032041E+04  0.7818608E-02  0.8591785E-01
          1   -1    0    0  501    0  0.00000000000E+00  0.00000000000E+00  0.60698130722E+03  0.60698130722E+03  0.00000000000E+00 0. -1.
         -2   -1    0    0    0  501 -0.00000000000E+00 -0.00000000000E+00 -0.17007068478E+04  0.17007068478E+04  0.00000000000E+00 0.  1.
        -24    2    1    2    0    0 -0.10481223934E+03 -0.34465639279E+03 -0.12654505123E+04  0.13179446212E+04  0.76415907403E+02 0.  0.
        254    2    1    2    0    0  0.10481223934E+03  0.34465639279E+03  0.17172497174E+03  0.98974353379E+03  0.90572024498E+03 0.  0.
         23    2    4    4    0    0  0.93974058809E+02 -0.19966273197E+03  0.33892567396E+03  0.41358181148E+03  0.86504173579E+02 0.  0.
         23    2    4    4    0    0  0.10838180531E+02  0.54431912476E+03 -0.16720070222E+03  0.57616172232E+03  0.87209401440E+02 0.  0.
          1    1    3    3  502    0 -0.53745372711E+02 -0.91797346532E+02 -0.46242156723E+03  0.47449870786E+03  0.00000000000E+00 0. -1.
         -2    1    3    3    0  502 -0.51066866628E+02 -0.25285904626E+03 -0.80302894509E+03  0.84344591338E+03  0.00000000000E+00 0.  1.
         13    1    5    5    0    0  0.46173027399E+02 -0.23099579484E+02  0.10138230016E+03  0.11377130490E+03  0.00000000000E+00 0.  1.
        -13    1    5    5    0    0  0.47801031410E+02 -0.17656315249E+03  0.23754337380E+03  0.29981050658E+03  0.00000000000E+00 0. -1.
          4    1    6    6  503    0 -0.15889011881E+02  0.36623216072E+03 -0.76278017428E+02  0.37442862096E+03  0.00000000000E+00 0. -1.
         -4    1    6    6    0  503  0.26727192412E+02  0.17808696404E+03 -0.90922684796E+02  0.20173310136E+03  0.00000000000E+00 0.  1.
<mgrwt>
<rscale>  0 0.20320406E+04</rscale>
<asrwt>0</asrwt>
<pdfrwt beam="1">  1        1 0.93381740E-01 0.20320406E+04</pdfrwt>
<pdfrwt beam="2">  1       -2 0.26164721E+00 0.20320406E+04</pdfrwt>
<totfact> 0.14874030E+00</totfact>
</mgrwt>
</event>
<event>
12    5  0.5221187E-008  0.1219277E+04  0.7818608E-02  0.9096148E-01
          1   -1    0    0  501    0  0.00000000000E+00  0.00000000000E+00  0.57922934079E+03  0.57922934079E+03  0.00000000000E+00 0. -1.
         -2   -1    0    0    0  501 -0.00000000000E+00 -0.00000000000E+00 -0.64164449944E+03  0.64164449944E+03  0.00000000000E+00 0.  1.
        -24    2    1    2    0    0 -0.10366063114E+03 -0.14240070156E+03 -0.16657913978E+03  0.25547508788E+03  0.80594196226E+02 0.  0.
        254    2    1    2    0    0  0.10366063114E+03  0.14240070156E+03  0.10416398114E+03  0.96539875235E+03  0.94346230970E+03 0.  0.
         23    2    4    4    0    0  0.21433005065E+03 -0.35008982181E+03 -0.63560857228E+02  0.42493120609E+03  0.89589583077E+02 0.  0.
         23    2    4    4    0    0 -0.11066941951E+03  0.49249052337E+03  0.16772483836E+03  0.54046754626E+03  0.95806634045E+02 0.  0.
          3    1    3    3  502    0 -0.64399980853E+02 -0.33711293441E+02 -0.36043407984E+02  0.81135295023E+02  0.00000000000E+00 0. -1.
         -4    1    3    3    0  502 -0.39260650283E+02 -0.10868940812E+03 -0.13053573180E+03  0.17433979286E+03  0.00000000000E+00 0.  1.
         13    1    5    5    0    0  0.42258912403E+02 -0.30893535400E+02 -0.31029806066E+02  0.60852896985E+02  0.00000000000E+00 0.  1.
        -13    1    5    5    0    0  0.17207113825E+03 -0.31919628641E+03 -0.32531051162E+02  0.36407830911E+03  0.00000000000E+00 0. -1.
          3    1    6    6  503    0 -0.59737466839E+02  0.42310192579E+03  0.13143812042E+03  0.44705680182E+03  0.00000000000E+00 0. -1.
         -3    1    6    6    0  503 -0.50931952676E+02  0.69388597581E+02  0.36286717946E+02  0.93410744440E+02  0.00000000000E+00 0.  1.
<mgrwt>
<rscale>  0 0.12192774E+04</rscale>
<asrwt>0</asrwt>
<pdfrwt beam="1">  1        1 0.89112206E-01 0.12192774E+04</pdfrwt>
<pdfrwt beam="2">  1       -2 0.98714538E-01 0.12192774E+04</pdfrwt>
<totfact> 0.26543663E+01</totfact>
</mgrwt>
</event>
<event>
12    5  0.5221187E-008  0.1574007E+04  0.7818608E-02  0.8836677E-01
          1   -1    0    0  501    0  0.00000000000E+00  0.00000000000E+00  0.18807747646E+04  0.18807747646E+04  0.00000000000E+00 0. -1.
         -2   -1    0    0    0  501 -0.00000000000E+00 -0.00000000000E+00 -0.32931892392E+03  0.32931892392E+03  0.00000000000E+00 0.  1.
        -24    2    1    2    0    0 -0.75791187956E+02  0.38912893175E+03  0.36795251961E+02  0.40638742122E+03  0.81432277775E+02 0.  0.
        254    2    1    2    0    0  0.75791187956E+02 -0.38912893175E+03  0.15146605887E+04  0.18037062673E+04  0.89554116041E+03 0.  0.
         23    2    4    4    0    0  0.23879701787E+03 -0.44501933396E+03  0.34684640175E+03  0.61947228020E+03  0.91527352128E+02 0.  0.
         23    2    4    4    0    0 -0.16300582991E+03  0.55890402205E+02  0.11678141870E+04  0.11842339871E+04  0.94474987560E+02 0.  0.
          3    1    3    3  502    0 -0.45433317613E+02  0.95710925216E+02  0.34405450991E+02  0.11139345857E+03  0.00000000000E+00 0. -1.
         -4    1    3    3    0  502 -0.30357870343E+02  0.29341800653E+03  0.23898009701E+01  0.29499396265E+03  0.00000000000E+00 0.  1.
         13    1    5    5    0    0  0.71298574954E+02 -0.94916604563E+02  0.12519906118E+03  0.17253247095E+03  0.00000000000E+00 0.  1.
        -13    1    5    5    0    0  0.16749844292E+03 -0.35010272939E+03  0.22164734057E+03  0.44693980925E+03  0.00000000000E+00 0. -1.
          3    1    6    6  503    0 -0.13365042267E+03  0.23267993437E+02  0.10459021089E+04  0.10546634802E+04  0.00000000000E+00 0. -1.
         -3    1    6    6    0  503 -0.29355407239E+02  0.32622408768E+02  0.12191207810E+03  0.12957050696E+03  0.00000000000E+00 0.  1.
<mgrwt>
<rscale>  0 0.15740073E+04</rscale>
<asrwt>0</asrwt>
<pdfrwt beam="1">  1        1 0.28934996E+00 0.15740073E+04</pdfrwt>
<pdfrwt beam="2">  1       -2 0.50664451E-01 0.15740073E+04</pdfrwt>
<totfact> 0.11166213E+01</totfact>
</mgrwt>
</event>
<event>
12    5  0.5221187E-008  0.1045686E+04  0.7818608E-02  0.9259809E-01
         -2   -1    0    0    0  501 -0.00000000000E+00  0.00000000000E+00  0.31174699438E+03  0.31174699438E+03  0.00000000000E+00 0.  1.
          1   -1    0    0  501    0  0.00000000000E+00 -0.00000000000E+00 -0.87688114847E+03  0.87688114847E+03  0.00000000000E+00 0. -1.
        -24    2    1    2    0    0  0.85071401738E+02  0.69740661127E+02 -0.11928727154E+03  0.18067507747E+03  0.79455190255E+02 0.  0.
        254    2    1    2    0    0 -0.85071401738E+02 -0.69740661127E+02 -0.44584688255E+03  0.10079530654E+04  0.89726753876E+03 0.  0.
         23    2    4    4    0    0 -0.23881436391E+02 -0.24627250951E+03 -0.65986892931E+03  0.71064214983E+03  0.91459222125E+02 0.  0.
         23    2    4    4    0    0 -0.61189965347E+02  0.17653184838E+03  0.21402204676E+03  0.29731091554E+03  0.87639252900E+02 0.  0.
          3    1    3    3  502    0  0.31910807086E+02  0.72877854044E+02 -0.89143678847E+02  0.11948253721E+03  0.00000000000E+00 0. -1.
         -4    1    3    3    0  502  0.53160594653E+02 -0.31371929166E+01 -0.30143592694E+02  0.61192540262E+02  0.00000000000E+00 0.  1.
         13    1    5    5    0    0 -0.42263445286E+02 -0.19551651185E+03 -0.58564183185E+03  0.61886126105E+03  0.00000000000E+00 0. -1.
        -13    1    5    5    0    0  0.18382008895E+02 -0.50755997659E+02 -0.74227097454E+02  0.91780888783E+02  0.00000000000E+00 0.  1.
          1    1    6    6  503    0 -0.59101864829E+02  0.17999413237E+03  0.21985154645E+03  0.29021650641E+03  0.00000000000E+00 0. -1.
         -1    1    6    6    0  503 -0.20881005182E+01 -0.34622839884E+01 -0.58294996976E+01  0.70944091307E+01  0.00000000000E+00 0.  1.
<mgrwt>
<rscale>  0 0.10456865E+04</rscale>
<asrwt>0</asrwt>
<pdfrwt beam="1">  1        1 0.13490479E+00 0.10456865E+04</pdfrwt>
<pdfrwt beam="2">  1       -2 0.47961076E-01 0.10456865E+04</pdfrwt>
<totfact> 0.68624480E+01</totfact>
</mgrwt>
</event>
<event>
12    5  0.5221187E-008  0.2479890E+04  0.7818608E-02  0.8410185E-01
         -2   -1    0    0    0  501 -0.00000000000E+00  0.00000000000E+00  0.16150096949E+04  0.16150096949E+04  0.00000000000E+00 0.  1.
          1   -1    0    0  501    0  0.00000000000E+00 -0.00000000000E+00 -0.95198423347E+03  0.95198423347E+03  0.00000000000E+00 0. -1.
        -24    2    1    2    0    0 -0.25512632530E+03  0.69231992817E+02 -0.79143508796E+03  0.83806394689E+03  0.78097182639E+02 0.  0.
        254    2    1    2    0    0  0.25512632530E+03 -0.69231992817E+02  0.14544605494E+04  0.17289299815E+04  0.89658289102E+03 0.  0.
         23    2    4    4    0    0 -0.21029931829E+03 -0.71847116576E+01  0.36050463375E+02  0.23206989414E+03  0.90991079242E+02 0.  0.
         23    2    4    4    0    0  0.46542564360E+03 -0.62047281159E+02  0.14184100861E+04  0.14968600874E+04  0.90730668160E+02 0.  0.
          1    1    3    3  502    0 -0.10373609992E+03  0.38810587946E+02 -0.44838603961E+03  0.46186305403E+03  0.00000000000E+00 0. -1.
         -2    1    3    3    0  502 -0.15139022538E+03  0.30421404871E+02 -0.34304904835E+03  0.37620089286E+03  0.00000000000E+00 0.  1.
         13    1    5    5    0    0 -0.33398682003E+02 -0.18397537966E+02 -0.23839994273E+02  0.44969842002E+02  0.00000000000E+00 0.  1.
        -13    1    5    5    0    0 -0.17690063629E+03  0.11212826309E+02  0.59890457648E+02  0.18710005214E+03  0.00000000000E+00 0. -1.
          2    1    6    6  503    0  0.40438974647E+03 -0.35660279537E+02  0.12882195159E+04  0.13506710346E+04  0.00000000000E+00 0. -1.
         -2    1    6    6    0  503  0.61035897124E+02 -0.26387001622E+02  0.13019057019E+03  0.14618905280E+03  0.00000000000E+00 0.  1.
<mgrwt>
<rscale>  0 0.24798901E+04</rscale>
<asrwt>0</asrwt>
<pdfrwt beam="1">  1        1 0.14645911E+00 0.24798901E+04</pdfrwt>
<pdfrwt beam="2">  1       -2 0.24846303E+00 0.24798901E+04</pdfrwt>
<totfact> 0.84642767E-01</totfact>
</mgrwt>
</event>
<event>
12    5  0.5221187E-008  0.2023488E+04  0.7818608E-02  0.8595717E-01
         -2   -1    0    0    0  501 -0.00000000000E+00  0.00000000000E+00  0.48541906824E+03  0.48541906824E+03  0.00000000000E+00 0.  1.
          1   -1    0    0  501    0  0.00000000000E+00 -0.00000000000E+00 -0.21087478505E+04  0.21087478505E+04  0.00000000000E+00 0. -1.
        -24    2    1    2    0    0  0.54878924684E+03  0.44706106917E+03 -0.11781733949E+04  0.13766732647E+04  0.78124850247E+02 0.  0.
        254    2    1    2    0    0 -0.54878924684E+03 -0.44706106917E+03 -0.44515538731E+03  0.12174936540E+04  0.88492612217E+03 0.  0.
         23    2    4    4    0    0 -0.49253508998E+03  0.15070960878E+03 -0.16205346001E+03  0.54746604951E+03  0.90297012273E+02 0.  0.
         23    2    4    4    0    0 -0.56254156860E+02 -0.59777067795E+03 -0.28310192730E+03  0.67002760451E+03  0.91082248435E+02 0.  0.
          3    1    3    3  502    0  0.32149504055E+03  0.30928444406E+03 -0.75519567344E+03  0.87711825521E+03  0.00000000000E+00 0. -1.
         -4    1    3    3    0  502  0.22729420629E+03  0.13777662511E+03 -0.42297772148E+03  0.49955500949E+03  0.00000000000E+00 0.  1.
         13    1    5    5    0    0 -0.13783351023E+03  0.98871556075E+01 -0.17145046221E+02  0.13924720822E+03  0.00000000000E+00 0.  1.
        -13    1    5    5    0    0 -0.35470157975E+03  0.14082245317E+03 -0.14490841379E+03  0.40821884128E+03  0.00000000000E+00 0. -1.
          2    1    6    6  503    0 -0.66050926373E+02 -0.53234057906E+03 -0.27663472021E+03  0.60355280251E+03  0.00000000000E+00 0. -1.
         -2    1    6    6    0  503  0.97967695122E+01 -0.65430098883E+02 -0.64672070930E+01  0.66474801995E+02  0.00000000000E+00 0.  1.
<mgrwt>
<rscale>  0 0.20234885E+04</rscale>
<asrwt>0</asrwt>
<pdfrwt beam="1">  1        1 0.32442275E+00 0.20234885E+04</pdfrwt>
<pdfrwt beam="2">  1       -2 0.74679856E-01 0.20234885E+04</pdfrwt>
<totfact> 0.32950894E+00</totfact>
</mgrwt>
</event>
<event>
12    5  0.5221187E-008  0.2150716E+04  0.7818608E-02  0.8539226E-01
          1   -1    0    0  501    0  0.00000000000E+00  0.00000000000E+00  0.16239046221E+04  0.16239046221E+04  0.00000000000E+00 0. -1.
         -2   -1    0    0    0  501 -0.00000000000E+00 -0.00000000000E+00 -0.71210731713E+03  0.71210731713E+03  0.00000000000E+00 0.  1.
        -24    2    1    2    0    0 -0.45769643400E+03 -0.23491387598E+03  0.11208779368E+04  0.12358948294E+04  0.79988282731E+02 0.  0.
        254    2    1    2    0    0  0.45769643400E+03  0.23491387598E+03 -0.20908063180E+03  0.11001171098E+04  0.94966962146E+03 0.  0.
         23    2    4    4    0    0 -0.27947869803E+02  0.99336632254E+02 -0.49473893416E+03  0.51344813148E+03  0.90628476848E+02 0.  0.
         23    2    4    4    0    0  0.48564430380E+03  0.13557724373E+03  0.28565830236E+03  0.58666897835E+03  0.91368734391E+02 0.  0.
          3    1    3    3  502    0 -0.39719839087E+03 -0.21687706472E+03  0.10321243520E+04  0.11269795477E+04  0.00000000000E+00 0. -1.
         -4    1    3    3    0  502 -0.60498043127E+02 -0.18036811269E+02  0.88753584849E+02  0.10891528179E+03  0.00000000000E+00 0.  1.
         13    1    5    5    0    0 -0.24383362791E+02  0.90137760730E+02 -0.22603629225E+03  0.24456444898E+03  0.00000000000E+00 0. -1.
        -13    1    5    5    0    0 -0.35645070123E+01  0.91988715240E+01 -0.26870264191E+03  0.26888368250E+03  0.00000000000E+00 0.  1.
          2    1    6    6  503    0  0.37121093429E+02  0.38539268062E+02  0.28427036710E+02  0.60591642792E+02  0.00000000000E+00 0.  1.
         -2    1    6    6    0  503  0.44852321037E+03  0.97037975668E+02  0.25723126565E+03  0.52607733556E+03  0.00000000000E+00 0. -1.
<mgrwt>
<rscale>  0 0.21507156E+04</rscale>
<asrwt>0</asrwt>
<pdfrwt beam="1">  1        1 0.24983148E+00 0.21507156E+04</pdfrwt>
<pdfrwt beam="2">  1       -2 0.10955497E+00 0.21507156E+04</pdfrwt>
<totfact> 0.28661701E+00</totfact>
</mgrwt>
</event>
<event>
12    5  0.5221187E-008  0.1482749E+04  0.7818608E-02  0.8896006E-01
          1   -1    0    0  501    0  0.00000000000E+00  0.00000000000E+00  0.70409186015E+03  0.70409186015E+03  0.00000000000E+00 0. -1.
         -2   -1    0    0    0  501 -0.00000000000E+00 -0.00000000000E+00 -0.78063173539E+03  0.78063173539E+03  0.00000000000E+00 0.  1.
        -24    2    1    2    0    0 -0.19334796304E+03 -0.20827357367E+03 -0.39188390366E+03  0.49061779460E+03  0.79821739739E+02 0.  0.
        254    2    1    2    0    0  0.19334796304E+03  0.20827357367E+03  0.31534402841E+03  0.99410580094E+03  0.89891221535E+03 0.  0.
         23    2    4    4    0    0 -0.34457796351E+03  0.10737076939E+03  0.21926173134E+03  0.43116019417E+03  0.86953729921E+02 0.  0.
         23    2    4    4    0    0  0.53792592655E+03  0.10090280429E+03  0.96082297066E+02  0.56294560677E+03  0.90168009883E+02 0.  0.
          3    1    3    3  502    0  0.49785765291E+01  0.23064722139E+01 -0.42150331927E+01  0.69189987097E+01  0.00000000000E+00 0. -1.
         -4    1    3    3    0  502 -0.19832653957E+03 -0.21058004589E+03 -0.38766887046E+03  0.48369879589E+03  0.00000000000E+00 0.  1.
         13    1    5    5    0    0 -0.10468397576E+03  0.42364932821E+02  0.24903525424E+02  0.11564474866E+03  0.00000000000E+00 0.  1.
        -13    1    5    5    0    0 -0.23989398775E+03  0.65005836565E+02  0.19435820592E+03  0.31551544551E+03  0.00000000000E+00 0. -1.
          2    1    6    6  503    0  0.67991738614E+01  0.21584019938E+00 -0.99555139674E+01  0.12057678489E+02  0.00000000000E+00 0.  1.
         -2    1    6    6    0  503  0.53112675269E+03  0.10068696409E+03  0.10603781103E+03  0.55088792828E+03  0.00000000000E+00 0. -1.
<mgrwt>
<rscale>  0 0.14827494E+04</rscale>
<asrwt>0</asrwt>
<pdfrwt beam="1">  1        1 0.10832182E+00 0.14827494E+04</pdfrwt>
<pdfrwt beam="2">  1       -2 0.12009719E+00 0.14827494E+04</pdfrwt>
<totfact> 0.12135114E+01</totfact>
</mgrwt>
</event>
<event>
12    5  0.5221187E-008  0.1570989E+04  0.7818608E-02  0.8838572E-01
         -4   -1    0    0    0  501 -0.00000000000E+00  0.00000000000E+00  0.23263165957E+03  0.23263165957E+03  0.00000000000E+00 0.  1.
          3   -1    0    0  501    0  0.00000000000E+00 -0.00000000000E+00 -0.26522676757E+04  0.26522676757E+04  0.00000000000E+00 0. -1.
        -24    2    1    2    0    0 -0.31970757398E+03  0.28052985014E+03 -0.27547910948E+03  0.51329477923E+03  0.81687581341E+02 0.  0.
        254    2    1    2    0    0  0.31970757398E+03 -0.28052985014E+03 -0.21441569066E+04  0.23716045560E+04  0.91988553644E+03 0.  0.
         23    2    4    4    0    0  0.49044593263E+03 -0.43397955859E+03 -0.19412128422E+04  0.20507431284E+04  0.91458241844E+02 0.  0.
         23    2    4    4    0    0 -0.17073835865E+03  0.15344970845E+03 -0.20294406446E+03  0.32086142760E+03  0.95222698374E+02 0.  0.
          1    1    3    3  502    0  0.93644799539E+00 -0.11749108041E+01 -0.11167465556E+02  0.11268080457E+02  0.00000000000E+00 0. -1.
         -2    1    3    3    0  502 -0.32064402198E+03  0.28170476094E+03 -0.26431164392E+03  0.50202669877E+03  0.00000000000E+00 0.  1.
         13    1    5    5    0    0  0.26345849972E+03 -0.24198816094E+03 -0.91875803047E+03  0.98594369498E+03  0.00000000000E+00 0.  1.
        -13    1    5    5    0    0  0.22698743292E+03 -0.19199139765E+03 -0.10224548117E+04  0.10647994334E+04  0.00000000000E+00 0. -1.
          4    1    6    6  503    0 -0.30811721190E+02  0.75836442903E+02 -0.35397435660E+02  0.89182434852E+02  0.00000000000E+00 0. -1.
         -4    1    6    6    0  503 -0.13992663746E+03  0.77613265548E+02 -0.16754662880E+03  0.23167899275E+03  0.00000000000E+00 0.  1.
<mgrwt>
<rscale>  0 0.15709888E+04</rscale>
<asrwt>0</asrwt>
<pdfrwt beam="1">  1        3 0.40804122E+00 0.15709888E+04</pdfrwt>
<pdfrwt beam="2">  1       -4 0.35789483E-01 0.15709888E+04</pdfrwt>
<totfact> 0.17099884E-01</totfact>
</mgrwt>
</event>
<event>
12    5  0.5221187E-008  0.1706652E+04  0.7818608E-02  0.8757580E-01
          3   -1    0    0  501    0  0.00000000000E+00  0.00000000000E+00  0.70734451689E+03  0.70734451689E+03  0.00000000000E+00 0. -1.
         -4   -1    0    0    0  501 -0.00000000000E+00 -0.00000000000E+00 -0.10294349791E+04  0.10294349791E+04  0.00000000000E+00 0.  1.
        -24    2    1    2    0    0 -0.41304759861E+02  0.54608952130E+03  0.15688730218E+03  0.57541383221E+03  0.81040756713E+02 0.  0.
        254    2    1    2    0    0  0.41304759861E+02 -0.54608952130E+03 -0.47897776435E+03  0.11613656638E+04  0.90522409255E+03 0.  0.
         23    2    4    4    0    0 -0.19897837037E+03 -0.92012601069E+00  0.16862266936E+03  0.27665255254E+03  0.92248532228E+02 0.  0.
         23    2    4    4    0    0  0.24028313024E+03 -0.54516939529E+03 -0.64760043371E+03  0.88471311121E+03  0.91571366497E+02 0.  0.
          1    1    3    3  502    0 -0.40718977337E+02  0.16184477288E+03  0.22768629795E+02  0.16843448615E+03  0.00000000000E+00 0. -1.
         -2    1    3    3    0  502 -0.58578252427E+00  0.38424474843E+03  0.13411867238E+03  0.40697934606E+03  0.00000000000E+00 0.  1.
         13    1    5    5    0    0 -0.17330789046E+03 -0.24205724888E+02  0.10465058776E+03  0.20389528570E+03  0.00000000000E+00 0.  1.
        -13    1    5    5    0    0 -0.25670479917E+02  0.23285598878E+02  0.63972081601E+02  0.72757266844E+02  0.00000000000E+00 0. -1.
          4    1    6    6  503    0  0.10320397981E+03 -0.34505116472E+03 -0.39251223213E+03  0.53270744325E+03  0.00000000000E+00 0. -1.
         -4    1    6    6    0  503  0.13707915042E+03 -0.20011823058E+03 -0.25508820158E+03  0.35200566796E+03  0.00000000000E+00 0.  1.
<mgrwt>
<rscale>  0 0.17066519E+04</rscale>
<asrwt>0</asrwt>
<pdfrwt beam="1">  1        3 0.10882223E+00 0.17066519E+04</pdfrwt>
<pdfrwt beam="2">  1       -4 0.15837461E+00 0.17066519E+04</pdfrwt>
<totfact> 0.40112279E-01</totfact>
</mgrwt>
</event>
<event>
12    5  0.5221187E-008  0.1984567E+04  0.7818608E-02  0.8613870E-01
          1   -1    0    0  501    0  0.00000000000E+00  0.00000000000E+00  0.10399033452E+04  0.10399033452E+04  0.00000000000E+00 0. -1.
         -2   -1    0    0    0  501 -0.00000000000E+00 -0.00000000000E+00 -0.94684452010E+03  0.94684452010E+03  0.00000000000E+00 0.  1.
        -24    2    1    2    0    0 -0.74907154738E+03  0.37871947160E+02 -0.19048214958E+03  0.77801224269E+03  0.80480637318E+02 0.  0.
        254    2    1    2    0    0  0.74907154738E+03 -0.37871947160E+02  0.28354097471E+03  0.12087356226E+04  0.90449093618E+03 0.  0.
         23    2    4    4    0    0  0.73514727634E+03  0.31275594064E+03  0.12946570207E+03  0.81475795482E+03  0.93868847949E+02 0.  0.
         23    2    4    4    0    0  0.13924271042E+02 -0.35062788780E+03  0.15407527264E+03  0.39397766782E+03  0.91353226947E+02 0.  0.
          3    1    3    3  502    0 -0.41539985953E+03  0.23267179335E+02 -0.14673397959E+03  0.44116806967E+03  0.00000000000E+00 0. -1.
         -4    1    3    3    0  502 -0.33367168786E+03  0.14604767825E+02 -0.43748169997E+02  0.33684417302E+03  0.00000000000E+00 0.  1.
         13    1    5    5    0    0  0.84815503440E+02  0.37458641778E+02  0.46421901000E+02  0.10369094637E+03  0.00000000000E+00 0. -1.
        -13    1    5    5    0    0  0.65033177290E+03  0.27529729887E+03  0.83043801065E+02  0.71106700845E+03  0.00000000000E+00 0.  1.
          4    1    6    6  503    0  0.53701577379E+01 -0.23605812118E+03  0.14853962617E+03  0.27895572357E+03  0.00000000000E+00 0.  1.
         -4    1    6    6    0  503  0.85541133036E+01 -0.11456976662E+03  0.55356464774E+01  0.11502194426E+03  0.00000000000E+00 0. -1.
<mgrwt>
<rscale>  0 0.19845672E+04</rscale>
<asrwt>0</asrwt>
<pdfrwt beam="1">  1        1 0.15998513E+00 0.19845672E+04</pdfrwt>
<pdfrwt beam="2">  1       -2 0.14566839E+00 0.19845672E+04</pdfrwt>
<totfact> 0.37143824E+00</totfact>
</mgrwt>
</event>
<event>
12    5  0.5221187E-008  0.1175260E+04  0.7818608E-02  0.9134791E-01
          1   -1    0    0  501    0  0.00000000000E+00  0.00000000000E+00  0.35884797893E+03  0.35884797893E+03  0.00000000000E+00 0. -1.
         -2   -1    0    0    0  501 -0.00000000000E+00 -0.00000000000E+00 -0.96227129207E+03  0.96227129207E+03  0.00000000000E+00 0.  1.
        -24    2    1    2    0    0 -0.54370414037E+02 -0.10002634272E+03 -0.39087781869E+03  0.41483626548E+03  0.79638224811E+02 0.  0.
        254    2    1    2    0    0  0.54370414037E+02  0.10002634272E+03 -0.21254549444E+03  0.90628300552E+03  0.87361999046E+03 0.  0.
         23    2    4    4    0    0  0.42732079422E+03 -0.99273218313E+02 -0.11110235477E+03  0.46182969420E+03  0.92112432203E+02 0.  0.
         23    2    4    4    0    0 -0.37295038018E+03  0.19929956104E+03 -0.10144313967E+03  0.44445331132E+03  0.91846253343E+02 0.  0.
          3    1    3    3  502    0 -0.34209883625E+02 -0.77275547806E+01 -0.18529103173E+03  0.18858101092E+03  0.00000000000E+00 0. -1.
         -4    1    3    3    0  502 -0.20160530412E+02 -0.92298787942E+02 -0.20558678696E+03  0.22625525456E+03  0.00000000000E+00 0.  1.
         13    1    5    5    0    0  0.55739917667E+02 -0.42254460136E+02 -0.35240304954E+02  0.78321497152E+02  0.00000000000E+00 0.  1.
        -13    1    5    5    0    0  0.37158087655E+03 -0.57018758177E+02 -0.75862049815E+02  0.38350819705E+03  0.00000000000E+00 0. -1.
          2    1    6    6  503    0 -0.24352424842E+03  0.17752084444E+03 -0.65921452718E+02  0.30848557132E+03  0.00000000000E+00 0. -1.
         -2    1    6    6    0  503 -0.12942613176E+03  0.21778716591E+02 -0.35521686955E+02  0.13596774001E+03  0.00000000000E+00 0.  1.
<mgrwt>
<rscale>  0 0.11752602E+04</rscale>
<asrwt>0</asrwt>
<pdfrwt beam="1">  1        1 0.55207382E-01 0.11752602E+04</pdfrwt>
<pdfrwt beam="2">  1       -2 0.14804174E+00 0.11752602E+04</pdfrwt>
<totfact> 0.18594536E+01</totfact>
</mgrwt>
</event>
<event>
12    5  0.5221187E-008  0.1307140E+04  0.7818608E-02  0.9023922E-01
          1   -1    0    0  501    0  0.00000000000E+00  0.00000000000E+00  0.28170516938E+04  0.28170516938E+04  0.00000000000E+00 0. -1.
         -2   -1    0    0    0  501 -0.00000000000E+00 -0.00000000000E+00 -0.15163143558E+03  0.15163143558E+03  0.00000000000E+00 0.  1.
        -24    2    1    2    0    0 -0.16207580001E+03 -0.20463537888E+03  0.23256940241E+03  0.35850458106E+03  0.79327198779E+02 0.  0.
        254    2    1    2    0    0  0.16207580001E+03  0.20463537888E+03  0.24328508559E+04  0.26101785484E+04  0.90891394768E+03 0.  0.
         23    2    4    4    0    0 -0.26725289106E+03  0.40077208895E+02  0.17949303737E+04  0.18177554388E+04  0.97105604533E+02 0.  0.
         23    2    4    4    0    0  0.42932869107E+03  0.16455816999E+03  0.63792048220E+03  0.79242310961E+03  0.97925107797E+02 0.  0.
          3    1    3    3  502    0 -0.42354632972E+02 -0.27824788359E+02  0.84942797494E+02  0.98911135003E+02  0.00000000000E+00 0. -1.
         -4    1    3    3    0  502 -0.11972116703E+03 -0.17681059052E+03  0.14762660491E+03  0.25959344606E+03  0.00000000000E+00 0.  1.
         13    1    5    5    0    0 -0.22013883685E+03  0.66643627221E+02  0.15460706902E+04  0.15630857493E+04  0.00000000000E+00 0.  1.
        -13    1    5    5    0    0 -0.47114054209E+02 -0.26566418327E+02  0.24885968343E+03  0.25466968944E+03  0.00000000000E+00 0. -1.
          1    1    6    6  503    0 -0.55073946669E+01  0.24235784712E+01  0.79978644878E+01  0.10008544599E+02  0.00000000000E+00 0. -1.
         -1    1    6    6    0  503  0.43483608574E+03  0.16213459151E+03  0.62992261772E+03  0.78241456501E+03  0.00000000000E+00 0.  1.
<mgrwt>
<rscale>  0 0.13071398E+04</rscale>
<asrwt>0</asrwt>
<pdfrwt beam="1">  1        1 0.43339253E+00 0.13071398E+04</pdfrwt>
<pdfrwt beam="2">  1       -2 0.23327915E-01 0.13071398E+04</pdfrwt>
<totfact> 0.11446971E+01</totfact>
</mgrwt>
</event>
<event>
12    5  0.5221187E-008  0.4856531E+04  0.7818608E-02  0.7851028E-01
         -2   -1    0    0    0  501 -0.00000000000E+00  0.00000000000E+00  0.19039068615E+04  0.19039068615E+04  0.00000000000E+00 0.  1.
          1   -1    0    0  501    0  0.00000000000E+00 -0.00000000000E+00 -0.30970384575E+04  0.30970384575E+04  0.00000000000E+00 0. -1.
        -24    2    1    2    0    0 -0.54445248261E+03  0.15934970487E+04  0.10996705095E+04  0.20128071921E+04  0.80350564399E+02 0.  0.
        254    2    1    2    0    0  0.54445248261E+03 -0.15934970487E+04 -0.22928021055E+04  0.29881381269E+04  0.91453081977E+03 0.  0.
         23    2    4    4    0    0  0.72676376391E+03 -0.14303779563E+04 -0.21694064953E+04  0.26997419540E+04  0.90085571279E+02 0.  0.
         23    2    4    4    0    0 -0.18231128130E+03 -0.16311909242E+03 -0.12339561022E+03  0.28839617287E+03  0.90003523830E+02 0.  0.
          3    1    3    3  502    0 -0.15510784075E+03  0.49426168452E+03  0.38012079545E+03  0.64253005703E+03  0.00000000000E+00 0. -1.
         -2    1    3    3    0  502 -0.38934464186E+03  0.10992353642E+04  0.71954971406E+03  0.13702771351E+04  0.00000000000E+00 0.  1.
         13    1    5    5    0    0  0.31053429560E+03 -0.70135250647E+03 -0.10675182588E+04  0.13145045150E+04  0.00000000000E+00 0.  1.
        -13    1    5    5    0    0  0.41622946831E+03 -0.72902544980E+03 -0.11018882365E+04  0.13852374390E+04  0.00000000000E+00 0. -1.
          1    1    6    6  503    0 -0.69259184759E+02 -0.58622810335E+02 -0.95877155149E+02  0.13200718709E+03  0.00000000000E+00 0. -1.
         -1    1    6    6    0  503 -0.11305209654E+03 -0.10449628208E+03 -0.27518455072E+02  0.15638898577E+03  0.00000000000E+00 0.  1.
<mgrwt>
<rscale>  0 0.48565308E+04</rscale>
<asrwt>0</asrwt>
<pdfrwt beam="1">  1        1 0.47646745E+00 0.48565308E+04</pdfrwt>
<pdfrwt beam="2">  1       -2 0.29290875E+00 0.48565308E+04</pdfrwt>
<totfact> 0.11444806E-02</totfact>
</mgrwt>
</event>
<event>
12    5  0.5221187E-008  0.1745722E+04  0.7818608E-02  0.8735708E-01
         -2   -1    0    0    0  501 -0.00000000000E+00  0.00000000000E+00  0.11433959994E+04  0.11433959994E+04  0.00000000000E+00 0.  1.
          1   -1    0    0  501    0  0.00000000000E+00 -0.00000000000E+00 -0.66633671837E+03  0.66633671837E+03  0.00000000000E+00 0. -1.
        -24    2    1    2    0    0  0.49669207357E+02 -0.63263040370E+03  0.27849829320E+03  0.69761612246E+03  0.80116771998E+02 0.  0.
        254    2    1    2    0    0 -0.49669207357E+02  0.63263040370E+03  0.19856098785E+03  0.11121165953E+04  0.89145308227E+03 0.  0.
         23    2    4    4    0    0 -0.10945981035E+03  0.81682370040E+03  0.14193720675E+02  0.82928968018E+03  0.91309935536E+02 0.  0.
         23    2    4    4    0    0  0.59790602995E+02 -0.18419329670E+03  0.18436726718E+03  0.28282691516E+03  0.92182904998E+02 0.  0.
          1    1    3    3  502    0 -0.51105947287E-01 -0.13009539268E+02 -0.55938943935E+01  0.14161298609E+02  0.00000000000E+00 0. -1.
         -2    1    3    3    0  502  0.49720313304E+02 -0.61962086443E+03  0.28409218759E+03  0.68345482385E+03  0.00000000000E+00 0.  1.
         13    1    5    5    0    0 -0.12377897960E+03  0.64785043031E+03  0.89564552739E+01  0.65962992195E+03  0.00000000000E+00 0.  1.
        -13    1    5    5    0    0  0.14319169246E+02  0.16897327009E+03  0.52372654015E+01  0.16965975823E+03  0.00000000000E+00 0. -1.
          2    1    6    6  503    0 -0.24087692545E+02 -0.56304044083E+02  0.46138211822E+02  0.76675269171E+02  0.00000000000E+00 0. -1.
         -2    1    6    6    0  503  0.83878295541E+02 -0.12788925262E+03  0.13822905536E+03  0.20615164599E+03  0.00000000000E+00 0.  1.
<mgrwt>
<rscale>  0 0.17457225E+04</rscale>
<asrwt>0</asrwt>
<pdfrwt beam="1">  1        1 0.10251334E+00 0.17457225E+04</pdfrwt>
<pdfrwt beam="2">  1       -2 0.17590708E+00 0.17457225E+04</pdfrwt>
<totfact> 0.47132010E+00</totfact>
</mgrwt>
</event>
<event>
12    5  0.5221187E-008  0.1995242E+04  0.7818608E-02  0.8608849E-01
         -2   -1    0    0    0  501 -0.00000000000E+00  0.00000000000E+00  0.44419858058E+03  0.44419858058E+03  0.00000000000E+00 0.  1.
          1   -1    0    0  501    0  0.00000000000E+00 -0.00000000000E+00 -0.22405458909E+04  0.22405458909E+04  0.00000000000E+00 0. -1.
        -24    2    1    2    0    0  0.83533163752E+02  0.17011627933E+03  0.31777843009E+03  0.37857548374E+03  0.80118214634E+02 0.  0.
        254    2    1    2    0    0 -0.83533163752E+02 -0.17011627933E+03 -0.21141257404E+04  0.23061689878E+04  0.90164872088E+03 0.  0.
         23    2    4    4    0    0 -0.69377273033E+01 -0.52610450873E+03 -0.14193791165E+04  0.15165583074E+04  0.92075714089E+02 0.  0.
         23    2    4    4    0    0 -0.76595436449E+02  0.35598822940E+03 -0.69474662392E+03  0.78961068039E+03  0.90651391529E+02 0.  0.
          3    1    3    3  502    0 -0.33594016954E+01  0.43059895349E+02  0.12271162901E+03  0.13009067631E+03  0.00000000000E+00 0. -1.
         -4    1    3    3    0  502  0.86892565447E+02  0.12705638398E+03  0.19506680108E+03  0.24848480743E+03  0.00000000000E+00 0.  1.
         13    1    5    5    0    0 -0.32246115779E+02 -0.20140224275E+03 -0.64487559883E+03  0.67636322589E+03  0.00000000000E+00 0. -1.
        -13    1    5    5    0    0  0.25308388475E+02 -0.32470226598E+03 -0.77450351767E+03  0.84019508148E+03  0.00000000000E+00 0.  1.
          1    1    6    6  503    0 -0.16815311469E+02  0.26019051683E+03 -0.45018653679E+03  0.52024011538E+03  0.00000000000E+00 0. -1.
         -1    1    6    6    0  503 -0.59780124980E+02  0.95797712573E+02 -0.24456008713E+03  0.26937056501E+03  0.00000000000E+00 0.  1.
<mgrwt>
<rscale>  0 0.19952416E+04</rscale>
<asrwt>0</asrwt>
<pdfrwt beam="1">  1        1 0.34469937E+00 0.19952416E+04</pdfrwt>
<pdfrwt beam="2">  1       -2 0.68338243E-01 0.19952416E+04</pdfrwt>
<totfact> 0.32643129E+00</totfact>
</mgrwt>
</event>
<event>
12    5  0.5221187E-008  0.1693613E+04  0.7818608E-02  0.8765015E-01
         -2   -1    0    0    0  501 -0.00000000000E+00  0.00000000000E+00  0.39355827050E+03  0.39355827050E+03  0.00000000000E+00 0.  1.
          1   -1    0    0  501    0  0.00000000000E+00 -0.00000000000E+00 -0.18220461614E+04  0.18220461614E+04  0.00000000000E+00 0. -1.
        -24    2    1    2    0    0 -0.10291375870E+03 -0.28144839743E+03  0.16879119036E+03  0.35315265884E+03  0.80136710419E+02 0.  0.
        254    2    1    2    0    0  0.10291375870E+03  0.28144839743E+03 -0.15972790813E+04  0.18624517731E+04  0.90973716061E+03 0.  0.
         23    2    4    4    0    0  0.12988209665E+03  0.56550662367E+03 -0.13562544859E+04  0.14781209278E+04  0.93531525546E+02 0.  0.
         23    2    4    4    0    0 -0.26968337950E+02 -0.28405822623E+03 -0.24102459543E+03  0.38433084531E+03  0.90559239792E+02 0.  0.
          3    1    3    3  502    0 -0.25866348688E+02 -0.14083236141E+02  0.30635017893E+02  0.42495998117E+02  0.00000000000E+00 0. -1.
         -4    1    3    3    0  502 -0.77047410014E+02 -0.26736516129E+03  0.13815617247E+03  0.31065666073E+03  0.00000000000E+00 0.  1.
         13    1    5    5    0    0  0.55080315442E+02  0.19358313227E+03 -0.58411520751E+03  0.61781780962E+03  0.00000000000E+00 0. -1.
        -13    1    5    5    0    0  0.74801781210E+02  0.37192349139E+03 -0.77213927835E+03  0.86030311815E+03  0.00000000000E+00 0.  1.
          1    1    6    6  503    0  0.24122756097E+02 -0.81758091443E+02 -0.10504592597E+03  0.13528096481E+03  0.00000000000E+00 0. -1.
         -1    1    6    6    0  503 -0.51091094047E+02 -0.20230013479E+03 -0.13597866946E+03  0.24904988050E+03  0.00000000000E+00 0.  1.
<mgrwt>
<rscale>  0 0.16936131E+04</rscale>
<asrwt>0</asrwt>
<pdfrwt beam="1">  1        1 0.28031480E+00 0.16936131E+04</pdfrwt>
<pdfrwt beam="2">  1       -2 0.60547426E-01 0.16936131E+04</pdfrwt>
<totfact> 0.83582669E+00</totfact>
</mgrwt>
</event>
<event>
12    5  0.5221187E-008  0.1761544E+04  0.7818608E-02  0.8727021E-01
         -2   -1    0    0    0  501 -0.00000000000E+00  0.00000000000E+00  0.39355759123E+03  0.39355759123E+03  0.00000000000E+00 0.  1.
          1   -1    0    0  501    0  0.00000000000E+00 -0.00000000000E+00 -0.19711458351E+04  0.19711458351E+04  0.00000000000E+00 0. -1.
        -24    2    1    2    0    0  0.32870827798E+03 -0.51548776478E+03 -0.86665455423E+03  0.10637198257E+04  0.81443131090E+02 0.  0.
        254    2    1    2    0    0 -0.32870827798E+03  0.51548776478E+03 -0.71093368962E+03  0.13009836006E+04  0.90186187987E+03 0.  0.
         23    2    4    4    0    0  0.26873776389E+02 -0.18826724573E+03  0.32987561765E+02  0.21304447433E+03  0.90183219840E+02 0.  0.
         23    2    4    4    0    0 -0.35558205437E+03  0.70375501050E+03 -0.74392125138E+03  0.10879391263E+04  0.92103213918E+02 0.  0.
          3    1    3    3  502    0  0.20464663380E+03 -0.38881683828E+03 -0.62541618394E+03  0.76433250721E+03  0.00000000000E+00 0. -1.
         -4    1    3    3    0  502  0.12406164418E+03 -0.12667092650E+03 -0.24123837029E+03  0.29938731850E+03  0.00000000000E+00 0.  1.
         13    1    5    5    0    0  0.39549144679E+02 -0.19294898895E+03  0.31109725009E+02  0.19940226220E+03  0.00000000000E+00 0.  1.
        -13    1    5    5    0    0 -0.12675368290E+02  0.46817432223E+01  0.18778367563E+01  0.13642212128E+02  0.00000000000E+00 0. -1.
          1    1    6    6  503    0 -0.16705727582E+03  0.42950813758E+03 -0.41994995580E+03  0.62349285403E+03  0.00000000000E+00 0. -1.
         -1    1    6    6    0  503 -0.18852477855E+03  0.27424687292E+03 -0.32397129558E+03  0.46444627224E+03  0.00000000000E+00 0.  1.
<mgrwt>
<rscale>  0 0.17615441E+04</rscale>
<asrwt>0</asrwt>
<pdfrwt beam="1">  1        1 0.30325321E+00 0.17615441E+04</pdfrwt>
<pdfrwt beam="2">  1       -2 0.60547322E-01 0.17615441E+04</pdfrwt>
<totfact> 0.65842990E+00</totfact>
</mgrwt>
</event>
<event>
12    5  0.5221187E-008  0.2855776E+04  0.7818608E-02  0.8286158E-01
          1   -1    0    0  501    0  0.00000000000E+00  0.00000000000E+00  0.17871697070E+04  0.17871697070E+04  0.00000000000E+00 0. -1.
         -2   -1    0    0    0  501 -0.00000000000E+00 -0.00000000000E+00 -0.11408344242E+04  0.11408344242E+04  0.00000000000E+00 0.  1.
        -24    2    1    2    0    0  0.55443444936E+03  0.48966277547E+03  0.13746838897E+04  0.15631068314E+04  0.79874760329E+02 0.  0.
        254    2    1    2    0    0 -0.55443444936E+03 -0.48966277547E+03 -0.72834860699E+03  0.13648972999E+04  0.88616350271E+03 0.  0.
         23    2    4    4    0    0 -0.60511714084E+03 -0.11418022796E+03 -0.74949424975E+03  0.97469560572E+03  0.95320589633E+02 0.  0.
         23    2    4    4    0    0  0.50682691480E+02 -0.37548254751E+03  0.21145642760E+02  0.39020169414E+03  0.90853427012E+02 0.  0.
          1    1    3    3  502    0  0.54071540603E+03  0.46088034954E+03  0.13341448538E+04  0.15115311237E+04  0.00000000000E+00 0. -1.
         -2    1    3    3    0  502  0.13719043321E+02  0.28782425932E+02  0.40539035932E+02  0.51575707717E+02  0.00000000000E+00 0.  1.
         13    1    5    5    0    0 -0.57931450971E+03 -0.87296309891E+02 -0.70326583192E+03  0.91531894836E+03  0.00000000000E+00 0. -1.
        -13    1    5    5    0    0 -0.25802631122E+02 -0.26883918072E+02 -0.46228417828E+02  0.59376657355E+02  0.00000000000E+00 0.  1.
          3    1    6    6  503    0  0.63924321026E+02 -0.14374228946E+03  0.24938818233E+01  0.15733526001E+03  0.00000000000E+00 0. -1.
         -3    1    6    6    0  503 -0.13241629546E+02 -0.23174025805E+03  0.18651760937E+02  0.23286643412E+03  0.00000000000E+00 0.  1.
<mgrwt>
<rscale>  0 0.28557764E+04</rscale>
<asrwt>0</asrwt>
<pdfrwt beam="1">  1        1 0.27494918E+00 0.28557764E+04</pdfrwt>
<pdfrwt beam="2">  1       -2 0.17551299E+00 0.28557764E+04</pdfrwt>
<totfact> 0.61328091E-01</totfact>
</mgrwt>
</event>
<event>
12    5  0.5221187E-008  0.2119828E+04  0.7818608E-02  0.8552559E-01
          1   -1    0    0  501    0  0.00000000000E+00  0.00000000000E+00  0.86552759325E+03  0.86552759325E+03  0.00000000000E+00 0. -1.
         -4   -1    0    0    0  501 -0.00000000000E+00 -0.00000000000E+00 -0.12979571450E+04  0.12979571450E+04  0.00000000000E+00 0.  1.
        -24    2    1    2    0    0 -0.70906231309E+03  0.34926964037E+03  0.18932817408E+03  0.81664990724E+03  0.79456075658E+02 0.  0.
        254    2    1    2    0    0  0.70906231309E+03 -0.34926964037E+03 -0.62175772584E+03  0.13468348310E+04  0.89589215135E+03 0.  0.
         23    2    4    4    0    0 -0.77018095794E+02  0.15615288314E+03 -0.29024403912E+03  0.35099136479E+03  0.92939904874E+02 0.  0.
         23    2    4    4    0    0  0.78608040888E+03 -0.50542252350E+03 -0.33151368672E+03  0.99584346623E+03  0.91807125243E+02 0.  0.
          3    1    3    3  502    0 -0.59377101078E+03  0.29246612510E+03  0.12763695639E+03  0.67408578104E+03  0.00000000000E+00 0. -1.
         -4    1    3    3    0  502 -0.11529130231E+03  0.56803515271E+02  0.61691217698E+02  0.14256412619E+03  0.00000000000E+00 0.  1.
         13    1    5    5    0    0 -0.41604483520E+02  0.13464453192E+03 -0.27068617640E+03  0.30517386703E+03  0.00000000000E+00 0. -1.
        -13    1    5    5    0    0 -0.35413612275E+02  0.21508351221E+02 -0.19557862722E+02  0.45817497758E+02  0.00000000000E+00 0.  1.
          2    1    6    6  503    0  0.54915092969E+03 -0.30575835016E+03 -0.23964528067E+03  0.67266988399E+03  0.00000000000E+00 0. -1.
         -2    1    6    6    0  503  0.23692947919E+03 -0.19966417335E+03 -0.91868406047E+02  0.32317358224E+03  0.00000000000E+00 0.  1.
<mgrwt>
<rscale>  0 0.21198280E+04</rscale>
<asrwt>0</asrwt>
<pdfrwt beam="1">  1        1 0.13315809E+00 0.21198280E+04</pdfrwt>
<pdfrwt beam="2">  1       -4 0.19968571E+00 0.21198280E+04</pdfrwt>
<totfact> 0.11370366E+00</totfact>
</mgrwt>
</event>
<event>
12    5  0.5221187E-008  0.1358949E+04  0.7818608E-02  0.8984081E-01
         -2   -1    0    0    0  501 -0.00000000000E+00  0.00000000000E+00  0.21624204319E+03  0.21624204319E+03  0.00000000000E+00 0.  1.
          1   -1    0    0  501    0  0.00000000000E+00 -0.00000000000E+00 -0.21350414033E+04  0.21350414033E+04  0.00000000000E+00 0. -1.
        -24    2    1    2    0    0 -0.34524343171E+03 -0.13383948846E+03 -0.63244609846E+03  0.73766848833E+03  0.84027944213E+02 0.  0.
        254    2    1    2    0    0  0.34524343171E+03  0.13383948846E+03 -0.12863532616E+04  0.16136149582E+04  0.90107851136E+03 0.  0.
         23    2    4    4    0    0 -0.12587982261E+02 -0.13856233107E+03 -0.11091975308E+04  0.11215290898E+04  0.90279345041E+02 0.  0.
         23    2    4    4    0    0  0.35783141397E+03  0.27240181953E+03 -0.17715573088E+03  0.49208586835E+03  0.92294510897E+02 0.  0.
          1    1    3    3  502    0 -0.24503965275E+03 -0.98555763511E+02 -0.51842813867E+03  0.58182936064E+03  0.00000000000E+00 0. -1.
         -2    1    3    3    0  502 -0.10020377896E+03 -0.35283724952E+02 -0.11401795980E+03  0.15583912769E+03  0.00000000000E+00 0.  1.
         13    1    5    5    0    0  0.39485829711E+01 -0.14326451292E+03 -0.87105026517E+03  0.88276207237E+03  0.00000000000E+00 0. -1.
        -13    1    5    5    0    0 -0.16536565232E+02  0.47021818498E+01 -0.23814726560E+03  0.23876701744E+03  0.00000000000E+00 0.  1.
          2    1    6    6  503    0  0.69648094346E+02  0.10118845290E+03 -0.62390379418E+02  0.13777706446E+03  0.00000000000E+00 0. -1.
         -2    1    6    6    0  503  0.28818331962E+03  0.17121336663E+03 -0.11476535146E+03  0.35430880389E+03  0.00000000000E+00 0.  1.
<mgrwt>
<rscale>  0 0.13589492E+04</rscale>
<asrwt>0</asrwt>
<pdfrwt beam="1">  1        1 0.32846792E+00 0.13589492E+04</pdfrwt>
<pdfrwt beam="2">  1       -2 0.33268005E-01 0.13589492E+04</pdfrwt>
<totfact> 0.17512274E+01</totfact>
</mgrwt>
</event>
<event>
12    5  0.5221187E-008  0.1260417E+04  0.7818608E-02  0.9061558E-01
         -2   -1    0    0    0  501 -0.00000000000E+00  0.00000000000E+00  0.31649410477E+03  0.31649410477E+03  0.00000000000E+00 0.  1.
          1   -1    0    0  501    0  0.00000000000E+00 -0.00000000000E+00 -0.12548813354E+04  0.12548813354E+04  0.00000000000E+00 0. -1.
        -24    2    1    2    0    0  0.59667902768E+02  0.21278043448E+03 -0.51494737646E+03  0.56598697700E+03  0.79590738775E+02 0.  0.
        254    2    1    2    0    0 -0.59667902768E+02 -0.21278043448E+03 -0.42343985416E+03  0.10053884632E+04  0.88468575204E+03 0.  0.
         23    2    4    4    0    0 -0.38833403669E+03  0.59360890289E+02 -0.85634247603E+01  0.40333323766E+03  0.90979827481E+02 0.  0.
         23    2    4    4    0    0  0.32866613392E+03 -0.27214132477E+03 -0.41487642940E+03  0.60205522551E+03  0.90915975812E+02 0.  0.
          1    1    3    3  502    0  0.55714729140E+02  0.21822349775E+03 -0.51035394110E+03  0.55784117023E+03  0.00000000000E+00 0. -1.
         -2    1    3    3    0  502  0.39531736285E+01 -0.54430632730E+01 -0.45934353632E+01  0.81458067720E+01  0.00000000000E+00 0.  1.
         13    1    5    5    0    0 -0.33969773436E+03  0.57833037521E+02  0.22967733502E+02  0.34535015237E+03  0.00000000000E+00 0. -1.
        -13    1    5    5    0    0 -0.48636302329E+02  0.15278527680E+01 -0.31531158263E+02  0.57983085289E+02  0.00000000000E+00 0.  1.
          2    1    6    6  503    0  0.31056282147E+03 -0.27784630991E+03 -0.38981215704E+03  0.57061489271E+03  0.00000000000E+00 0. -1.
         -2    1    6    6    0  503  0.18103312455E+02  0.57049851461E+01 -0.25064272362E+02  0.31440332798E+02  0.00000000000E+00 0.  1.
<mgrwt>
<rscale>  0 0.12604167E+04</rscale>
<asrwt>0</asrwt>
<pdfrwt beam="1">  1        1 0.19305867E+00 0.12604167E+04</pdfrwt>
<pdfrwt beam="2">  1       -2 0.48691400E-01 0.12604167E+04</pdfrwt>
<totfact> 0.33647445E+01</totfact>
</mgrwt>
</event>
<event>
12    5  0.5221187E-008  0.1395318E+04  0.7818608E-02  0.8957215E-01
          1   -1    0    0  501    0  0.00000000000E+00  0.00000000000E+00  0.19743111506E+04  0.19743111506E+04  0.00000000000E+00 0. -1.
         -2   -1    0    0    0  501 -0.00000000000E+00 -0.00000000000E+00 -0.24653045091E+03  0.24653045091E+03  0.00000000000E+00 0.  1.
        -24    2    1    2    0    0  0.31549026726E+02 -0.18824968036E+03  0.10902923760E+04  0.11097812836E+04  0.80272964458E+02 0.  0.
        254    2    1    2    0    0 -0.31549026726E+02  0.18824968036E+03  0.63748832367E+03  0.11110603180E+04  0.88973613175E+03 0.  0.
         23    2    4    4    0    0 -0.29243201075E+03  0.25684656216E+03 -0.14322634354E+02  0.39972744542E+03  0.89945846810E+02 0.  0.
         23    2    4    4    0    0  0.26088298403E+03 -0.68596881796E+02  0.65181095802E+03  0.71133287256E+03  0.91495721481E+02 0.  0.
          3    1    3    3  502    0  0.51216243775E+02 -0.13939731348E+03  0.90683989093E+03  0.91891963872E+03  0.00000000000E+00 0. -1.
         -4    1    3    3    0  502 -0.19667217050E+02 -0.48852366883E+02  0.18345248511E+03  0.19086164483E+03  0.00000000000E+00 0.  1.
         13    1    5    5    0    0 -0.19492315441E+03  0.18312767313E+03  0.31244554985E+02  0.26927124430E+03  0.00000000000E+00 0. -1.
        -13    1    5    5    0    0 -0.97508856346E+02  0.73718889023E+02 -0.45567189340E+02  0.13045620111E+03  0.00000000000E+00 0.  1.
          1    1    6    6  503    0  0.22638558690E+03 -0.56392229312E+02  0.45692109775E+03  0.51303743241E+03  0.00000000000E+00 0. -1.
         -1    1    6    6    0  503  0.34497397126E+02 -0.12204652485E+02  0.19488986027E+03  0.19829544016E+03  0.00000000000E+00 0.  1.
<mgrwt>
<rscale>  0 0.13953176E+04</rscale>
<asrwt>0</asrwt>
<pdfrwt beam="1">  1        1 0.30374017E+00 0.13953176E+04</pdfrwt>
<pdfrwt beam="2">  1       -2 0.37927763E-01 0.13953176E+04</pdfrwt>
<totfact> 0.17442728E+01</totfact>
</mgrwt>
</event>
<event>
12    5  0.5221187E-008  0.2085350E+04  0.7818608E-02  0.8567724E-01
          1   -1    0    0  501    0  0.00000000000E+00  0.00000000000E+00  0.15550436906E+04  0.15550436906E+04  0.00000000000E+00 0. -1.
         -2   -1    0    0    0  501 -0.00000000000E+00 -0.00000000000E+00 -0.69912564950E+03  0.69912564950E+03  0.00000000000E+00 0.  1.
        -24    2    1    2    0    0 -0.75367930270E+03 -0.37760346050E+03  0.33295216040E+03  0.90982399506E+03  0.79408413647E+02 0.  0.
        254    2    1    2    0    0  0.75367930270E+03  0.37760346050E+03  0.52296588067E+03  0.13443453450E+04  0.90727847414E+03 0.  0.
         23    2    4    4    0    0  0.82745015920E+03  0.26354900109E+03  0.84740682512E+02  0.87658923086E+03  0.84236894891E+02 0.  0.
         23    2    4    4    0    0 -0.73770856496E+02  0.11405445941E+03  0.43822519816E+03  0.46775611416E+03  0.91125732121E+02 0.  0.
          3    1    3    3  502    0 -0.24712657207E+03 -0.11703291656E+03  0.69055010764E+02  0.28202276626E+03  0.00000000000E+00 0. -1.
         -4    1    3    3    0  502 -0.50655273064E+03 -0.26057054394E+03  0.26389714964E+03  0.62780122879E+03  0.00000000000E+00 0.  1.
         13    1    5    5    0    0  0.42995826184E+03  0.16897810956E+03  0.74001142619E+02  0.46786095963E+03  0.00000000000E+00 0.  1.
        -13    1    5    5    0    0  0.39749189736E+03  0.94570891529E+02  0.10739539892E+02  0.40872827124E+03  0.00000000000E+00 0. -1.
          2    1    6    6  503    0 -0.30613573991E+02  0.10925530918E+03  0.36889354832E+03  0.38594865396E+03  0.00000000000E+00 0. -1.
         -2    1    6    6    0  503 -0.43157282504E+02  0.47991502273E+01  0.69331649835E+02  0.81807460203E+02  0.00000000000E+00 0.  1.
<mgrwt>
<rscale>  0 0.20853498E+04</rscale>
<asrwt>0</asrwt>
<pdfrwt beam="1">  1        1 0.23923749E+00 0.20853498E+04</pdfrwt>
<pdfrwt beam="2">  1       -2 0.10755779E+00 0.20853498E+04</pdfrwt>
<totfact> 0.33603688E+00</totfact>
</mgrwt>
</event>
<event>
12    5  0.5221187E-008  0.1090921E+04  0.7818608E-02  0.9214086E-01
         -2   -1    0    0    0  501 -0.00000000000E+00  0.00000000000E+00  0.20177231447E+03  0.20177231447E+03  0.00000000000E+00 0.  1.
          1   -1    0    0  501    0  0.00000000000E+00 -0.00000000000E+00 -0.14745690477E+04  0.14745690477E+04  0.00000000000E+00 0. -1.
        -24    2    1    2    0    0  0.11475772999E+03  0.39261778362E+02 -0.42017030032E+03  0.44425112471E+03  0.78135502233E+02 0.  0.
        254    2    1    2    0    0 -0.11475772999E+03 -0.39261778362E+02 -0.85262643295E+03  0.12320902375E+04  0.88111502958E+03 0.  0.
         23    2    4    4    0    0 -0.11164363665E+03 -0.28026641952E+03  0.27204716462E+02  0.31525729208E+03  0.87369880933E+02 0.  0.
         23    2    4    4    0    0 -0.31140933380E+01  0.24100464116E+03 -0.87983114942E+03  0.91683294543E+03  0.91579821451E+02 0.  0.
          3    1    3    3  502    0  0.92178898028E+02  0.38941899512E+02 -0.40467793878E+03  0.41686647133E+03  0.00000000000E+00 0. -1.
         -4    1    3    3    0  502  0.22578831961E+02  0.31987885011E+00 -0.15492361532E+02  0.27384653385E+02  0.00000000000E+00 0.  1.
         13    1    5    5    0    0 -0.10937961126E+03 -0.24964291569E+03 -0.24555734519E+01  0.27256469792E+03  0.00000000000E+00 0. -1.
        -13    1    5    5    0    0 -0.22640253941E+01 -0.30623503834E+02  0.29660289914E+02  0.42692594157E+02  0.00000000000E+00 0.  1.
          4    1    6    6  503    0  0.41115304614E+02  0.79829905632E+02 -0.27176618304E+03  0.28621694630E+03  0.00000000000E+00 0. -1.
         -4    1    6    6    0  503 -0.44229397952E+02  0.16117473553E+03 -0.60806496638E+03  0.63061599912E+03  0.00000000000E+00 0.  1.
<mgrwt>
<rscale>  0 0.10909211E+04</rscale>
<asrwt>0</asrwt>
<pdfrwt beam="1">  1        1 0.22685677E+00 0.10909211E+04</pdfrwt>
<pdfrwt beam="2">  1       -2 0.31041895E-01 0.10909211E+04</pdfrwt>
<totfact> 0.57329731E+01</totfact>
</mgrwt>
</event>
<event>
12    5  0.5221187E-008  0.2167926E+04  0.7818608E-02  0.8531898E-01
         -2   -1    0    0    0  501 -0.00000000000E+00  0.00000000000E+00  0.91217677806E+03  0.91217677806E+03  0.00000000000E+00 0.  1.
          1   -1    0    0  501    0  0.00000000000E+00 -0.00000000000E+00 -0.12881013510E+04  0.12881013510E+04  0.00000000000E+00 0. -1.
        -24    2    1    2    0    0  0.10971905605E+03 -0.59411960598E+03  0.51404777376E+03  0.79726933573E+03  0.79855510271E+02 0.  0.
        254    2    1    2    0    0 -0.10971905605E+03  0.59411960598E+03 -0.88997234672E+03  0.14030087933E+04  0.90075885718E+03 0.  0.
         23    2    4    4    0    0  0.36090392306E+02  0.33269783422E+03 -0.10096609924E+04  0.10678405025E+04  0.94221302544E+02 0.  0.
         23    2    4    4    0    0 -0.14580944836E+03  0.26142177176E+03  0.11968864565E+03  0.33516829089E+03  0.91709723251E+02 0.  0.
          1    1    3    3  502    0  0.49281314612E+02 -0.27410882039E+03  0.18525364233E+03  0.33448946976E+03  0.00000000000E+00 0. -1.
         -2    1    3    3    0  502  0.60437741438E+02 -0.32001078559E+03  0.32879413143E+03  0.46277986597E+03  0.00000000000E+00 0.  1.
         13    1    5    5    0    0  0.43744363260E+02  0.26447327777E+03 -0.89414262276E+03  0.93346168310E+03  0.00000000000E+00 0. -1.
        -13    1    5    5    0    0 -0.76539709535E+01  0.68224556454E+02 -0.11551836961E+03  0.13437881935E+03  0.00000000000E+00 0.  1.
          1    1    6    6  503    0 -0.43464330859E+02  0.17107443116E+03  0.70204511600E+02  0.18995863366E+03  0.00000000000E+00 0. -1.
         -1    1    6    6    0  503 -0.10234511750E+03  0.90347340601E+02  0.49484134051E+02  0.14520965723E+03  0.00000000000E+00 0.  1.
<mgrwt>
<rscale>  0 0.21679263E+04</rscale>
<asrwt>0</asrwt>
<pdfrwt beam="1">  1        1 0.19816944E+00 0.21679263E+04</pdfrwt>
<pdfrwt beam="2">  1       -2 0.14033489E+00 0.21679263E+04</pdfrwt>
<totfact> 0.26416391E+00</totfact>
</mgrwt>
</event>
<event>
12    5  0.5221187E-008  0.1315873E+04  0.7818608E-02  0.9017072E-01
         -2   -1    0    0    0  501 -0.00000000000E+00  0.00000000000E+00  0.13450349461E+04  0.13450349461E+04  0.00000000000E+00 0.  1.
          1   -1    0    0  501    0  0.00000000000E+00 -0.00000000000E+00 -0.32183573675E+03  0.32183573675E+03  0.00000000000E+00 0. -1.
        -24    2    1    2    0    0  0.12847290733E+03 -0.32634308511E+03  0.28706232094E+03  0.45979195882E+03  0.77451740921E+02 0.  0.
        254    2    1    2    0    0 -0.12847290733E+03  0.32634308511E+03  0.73613688836E+03  0.12070787240E+04  0.89002046627E+03 0.  0.
         23    2    4    4    0    0  0.11361397699E+03  0.30451537716E+03 -0.82396877926E+02  0.34845286700E+03  0.94828288699E+02 0.  0.
         23    2    4    4    0    0 -0.24208688432E+03  0.21827707949E+02  0.81853376629E+03  0.85862585698E+03  0.90323459461E+02 0.  0.
          3    1    3    3  502    0  0.77589892818E+02 -0.14235902433E+03  0.17446003304E+03  0.23816504026E+03  0.00000000000E+00 0. -1.
         -4    1    3    3    0  502  0.50883014513E+02 -0.18398406078E+03  0.11260228791E+03  0.22162691856E+03  0.00000000000E+00 0.  1.
         13    1    5    5    0    0  0.32023992707E+02  0.12861552148E+03 -0.79446747247E+02  0.15452920152E+03  0.00000000000E+00 0.  1.
        -13    1    5    5    0    0  0.81589984284E+02  0.17589985568E+03 -0.29501306781E+01  0.19392366549E+03  0.00000000000E+00 0. -1.
          2    1    6    6  503    0 -0.21364899707E+03  0.78604484686E+01  0.77984458322E+03  0.80861935085E+03  0.00000000000E+00 0. -1.
         -2    1    6    6    0  503 -0.28437887249E+02  0.13967259481E+02  0.38689183073E+02  0.50006506131E+02  0.00000000000E+00 0.  1.
<mgrwt>
<rscale>  0 0.13158728E+04</rscale>
<asrwt>0</asrwt>
<pdfrwt beam="1">  1        1 0.49513191E-01 0.13158728E+04</pdfrwt>
<pdfrwt beam="2">  1       -2 0.20692845E+00 0.13158728E+04</pdfrwt>
<totfact> 0.82079383E+00</totfact>
</mgrwt>
</event>
<event>
12    5  0.5221187E-008  0.1584335E+04  0.7818608E-02  0.8830230E-01
         -4   -1    0    0    0  501 -0.00000000000E+00  0.00000000000E+00  0.84129224493E+03  0.84129224493E+03  0.00000000000E+00 0.  1.
          1   -1    0    0  501    0  0.00000000000E+00 -0.00000000000E+00 -0.74591086146E+03  0.74591086146E+03  0.00000000000E+00 0. -1.
        -24    2    1    2    0    0  0.18021904925E+03 -0.49920258722E+03  0.87237333255E+00  0.53838328291E+03  0.90408348515E+02 0.  0.
        254    2    1    2    0    0 -0.18021904925E+03  0.49920258722E+03  0.94509010137E+02  0.10488198235E+04  0.89967157359E+03 0.  0.
         23    2    4    4    0    0 -0.16363044756E+03  0.60757064241E+03 -0.24411476337E+03  0.68113627605E+03  0.91856409533E+02 0.  0.
         23    2    4    4    0    0 -0.16588601687E+02 -0.10836805518E+03  0.33862377351E+03  0.36768354743E+03  0.92229680546E+02 0.  0.
          1    1    3    3  502    0  0.16711229174E+03 -0.49186891769E+03 -0.10429923715E+02  0.51958669493E+03  0.00000000000E+00 0. -1.
         -2    1    3    3    0  502  0.13106757510E+02 -0.73336695356E+01  0.11302297048E+02  0.18796587984E+02  0.00000000000E+00 0.  1.
         13    1    5    5    0    0 -0.35677041263E+02  0.40707233255E+02 -0.12487138492E+02  0.55550506211E+02  0.00000000000E+00 0. -1.
        -13    1    5    5    0    0 -0.12795340630E+03  0.56686340915E+03 -0.23162762488E+03  0.62558576984E+03  0.00000000000E+00 0.  1.
          3    1    6    6  503    0 -0.16938573483E+02 -0.12568405897E+02  0.65780858040E+01  0.22094146538E+02  0.00000000000E+00 0. -1.
         -3    1    6    6    0  503  0.34997179598E+00 -0.95799649286E+02  0.33204568771E+03  0.34558940089E+03  0.00000000000E+00 0.  1.
<mgrwt>
<rscale>  0 0.15843346E+04</rscale>
<asrwt>0</asrwt>
<pdfrwt beam="1">  1        1 0.11475552E+00 0.15843346E+04</pdfrwt>
<pdfrwt beam="2">  1       -4 0.12942958E+00 0.15843346E+04</pdfrwt>
<totfact> 0.50130109E+00</totfact>
</mgrwt>
</event>
<event>
12    5  0.5221187E-008  0.1501137E+04  0.7818608E-02  0.8883697E-01
          1   -1    0    0  501    0  0.00000000000E+00  0.00000000000E+00  0.76937359634E+03  0.76937359634E+03  0.00000000000E+00 0. -1.
         -2   -1    0    0    0  501 -0.00000000000E+00 -0.00000000000E+00 -0.73222338225E+03  0.73222338225E+03  0.00000000000E+00 0.  1.
        -24    2    1    2    0    0  0.31363830257E+03 -0.16729809100E+03 -0.29738621794E+03  0.47033135078E+03  0.80096072426E+02 0.  0.
        254    2    1    2    0    0 -0.31363830257E+03  0.16729809100E+03  0.33453643203E+03  0.10312656278E+04  0.90842530494E+03 0.  0.
         23    2    4    4    0    0 -0.36202438472E+02  0.23945125645E+03  0.58542167887E+03  0.63934455320E+03  0.85996481664E+02 0.  0.
         23    2    4    4    0    0 -0.27743586410E+03 -0.72153165449E+02 -0.25088524684E+03  0.39192107460E+03  0.92097685447E+02 0.  0.
          1    1    3    3  502    0  0.85792944246E+01  0.50928553169E+01 -0.23701584023E+02  0.25715881344E+02  0.00000000000E+00 0. -1.
         -2    1    3    3    0  502  0.30505900815E+03 -0.17239094632E+03 -0.27368463391E+03  0.44461546944E+03  0.00000000000E+00 0.  1.
         13    1    5    5    0    0  0.24078834567E+01 -0.70237245931E+01  0.19814678452E+02  0.21160153403E+02  0.00000000000E+00 0.  1.
        -13    1    5    5    0    0 -0.38610321928E+02  0.24647498104E+03  0.56560700042E+03  0.61818439980E+03  0.00000000000E+00 0. -1.
          3    1    6    6  503    0 -0.78896580203E+02  0.20707705522E+02 -0.59840787867E+02  0.10116520809E+03  0.00000000000E+00 0. -1.
         -3    1    6    6    0  503 -0.19853928390E+03 -0.92860870971E+02 -0.19104445897E+03  0.29075586651E+03  0.00000000000E+00 0.  1.
<mgrwt>
<rscale>  0 0.15011374E+04</rscale>
<asrwt>0</asrwt>
<pdfrwt beam="1">  1        1 0.11836517E+00 0.15011374E+04</pdfrwt>
<pdfrwt beam="2">  1       -2 0.11264975E+00 0.15011374E+04</pdfrwt>
<totfact> 0.12360917E+01</totfact>
</mgrwt>
</event>
<event>
12    5  0.5221187E-008  0.1869592E+04  0.7818608E-02  0.8670142E-01
          1   -1    0    0  501    0  0.00000000000E+00  0.00000000000E+00  0.25243212246E+04  0.25243212246E+04  0.00000000000E+00 0. -1.
         -4   -1    0    0    0  501 -0.00000000000E+00 -0.00000000000E+00 -0.34616987200E+03  0.34616987200E+03  0.00000000000E+00 0.  1.
        -24    2    1    2    0    0 -0.47027045027E+03  0.43124762951E+03  0.34291662851E+03  0.72886566308E+03  0.80774540299E+02 0.  0.
        254    2    1    2    0    0  0.47027045027E+03 -0.43124762951E+03  0.18352347241E+04  0.21416254335E+04  0.90074646299E+03 0.  0.
         23    2    4    4    0    0  0.12744642021E+03 -0.38696180151E+03  0.19045506434E+03  0.45801979001E+03  0.86758115810E+02 0.  0.
         23    2    4    4    0    0  0.34282403006E+03 -0.44285828005E+02  0.16447796598E+04  0.16836056435E+04  0.98682741906E+02 0.  0.
          1    1    3    3  502    0 -0.27774599601E+03  0.25778283634E+03  0.24803656776E+03  0.45289840799E+03  0.00000000000E+00 0. -1.
         -2    1    3    3    0  502 -0.19252445426E+03  0.17346479317E+03  0.94880060743E+02  0.27596725510E+03  0.00000000000E+00 0.  1.
         13    1    5    5    0    0  0.58323601774E+02 -0.12756991701E+03  0.24425699550E+02  0.14238097151E+03  0.00000000000E+00 0. -1.
        -13    1    5    5    0    0  0.69122818440E+02 -0.25939188450E+03  0.16602936479E+03  0.31563881851E+03  0.00000000000E+00 0.  1.
          4    1    6    6  503    0  0.30506810051E+03 -0.59925314814E+02  0.13123513354E+04  0.13486747632E+04  0.00000000000E+00 0. -1.
         -4    1    6    6    0  503  0.37755929549E+02  0.15639486809E+02  0.33242832436E+03  0.33493088033E+03  0.00000000000E+00 0.  1.
<mgrwt>
<rscale>  0 0.18695924E+04</rscale>
<asrwt>0</asrwt>
<pdfrwt beam="1">  1        1 0.38835710E+00 0.18695924E+04</pdfrwt>
<pdfrwt beam="2">  1       -4 0.53256905E-01 0.18695924E+04</pdfrwt>
<totfact> 0.20508784E+00</totfact>
</mgrwt>
</event>
<event>
12    5  0.5221187E-008  0.1303030E+04  0.7818608E-02  0.9027166E-01
         -2   -1    0    0    0  501 -0.00000000000E+00  0.00000000000E+00  0.53708094441E+03  0.53708094441E+03  0.00000000000E+00 0.  1.
          1   -1    0    0  501    0  0.00000000000E+00 -0.00000000000E+00 -0.79033122151E+03  0.79033122151E+03  0.00000000000E+00 0. -1.
        -24    2    1    2    0    0  0.26024712837E+03  0.58472185937E+02 -0.27272626553E+03  0.38854925928E+03  0.73779039183E+02 0.  0.
        254    2    1    2    0    0 -0.26024712837E+03 -0.58472185937E+02  0.19475988433E+02  0.93886290664E+03  0.89996482097E+03 0.  0.
         23    2    4    4    0    0 -0.13182046277E+03 -0.46453287747E+03  0.86365140988E+02  0.49944000060E+03  0.93882628671E+02 0.  0.
         23    2    4    4    0    0 -0.12842666560E+03  0.40606069153E+03 -0.66889152556E+02  0.43942290604E+03  0.85086062219E+02 0.  0.
          1    1    3    3  502    0  0.24707964491E+03  0.37066285058E+02 -0.25919700932E+03  0.36000743056E+03  0.00000000000E+00 0. -1.
         -2    1    3    3    0  502  0.13167483456E+02  0.21405900879E+02 -0.13529256217E+02  0.28541828722E+02  0.00000000000E+00 0.  1.
         13    1    5    5    0    0  0.99645697536E+01 -0.39152534991E+02 -0.81122884229E+01  0.41207073058E+02  0.00000000000E+00 0. -1.
        -13    1    5    5    0    0 -0.14178503253E+03 -0.42538034248E+03  0.94477429411E+02  0.45823292754E+03  0.00000000000E+00 0.  1.
          1    1    6    6  503    0 -0.19417451040E+01  0.80184835081E+01 -0.16874674688E+02  0.18783532618E+02  0.00000000000E+00 0. -1.
         -1    1    6    6    0  503 -0.12648492049E+03  0.39804220802E+03 -0.50014477868E+02  0.42063937342E+03  0.00000000000E+00 0.  1.
<mgrwt>
<rscale>  0 0.13030301E+04</rscale>
<asrwt>0</asrwt>
<pdfrwt beam="1">  1        1 0.12158942E+00 0.13030301E+04</pdfrwt>
<pdfrwt beam="2">  1       -2 0.82627838E-01 0.13030301E+04</pdfrwt>
<totfact> 0.24934266E+01</totfact>
</mgrwt>
</event>
<event>
12    5  0.5221187E-008  0.1040288E+04  0.7818608E-02  0.9265429E-01
         -2   -1    0    0    0  501 -0.00000000000E+00  0.00000000000E+00  0.71574074027E+03  0.71574074027E+03  0.00000000000E+00 0.  1.
          1   -1    0    0  501    0  0.00000000000E+00 -0.00000000000E+00 -0.37799980419E+03  0.37799980419E+03  0.00000000000E+00 0. -1.
        -24    2    1    2    0    0  0.29095538342E+01 -0.11123110402E+03  0.31062103855E+02  0.14000759251E+03  0.79097709587E+02 0.  0.
        254    2    1    2    0    0 -0.29095538342E+01  0.11123110402E+03  0.30667883222E+03  0.95373295195E+03  0.89619965047E+03 0.  0.
         23    2    4    4    0    0  0.21663932181E+03 -0.30057211440E+03 -0.96360635236E+01  0.38288446013E+03  0.96080509881E+02 0.  0.
         23    2    4    4    0    0 -0.21954887564E+03  0.41180321841E+03  0.31631489575E+03  0.57084849182E+03  0.89606293621E+02 0.  0.
          3    1    3    3  502    0  0.10617421128E+02 -0.50244912386E+02 -0.24724486785E+02  0.56996325310E+02  0.00000000000E+00 0. -1.
         -4    1    3    3    0  502 -0.77078672933E+01 -0.60986191629E+02  0.55786590640E+02  0.83011267204E+02  0.00000000000E+00 0.  1.
         13    1    5    5    0    0  0.19998819940E+03 -0.29285794033E+03 -0.29485510423E+02  0.35585172254E+03  0.00000000000E+00 0.  1.
        -13    1    5    5    0    0  0.16651122406E+02 -0.77141740698E+01  0.19849446899E+02  0.27032737582E+02  0.00000000000E+00 0. -1.
          4    1    6    6  503    0 -0.96209138302E+02  0.17202679709E+03  0.81468332510E+02  0.21327565828E+03  0.00000000000E+00 0. -1.
         -4    1    6    6    0  503 -0.12333973734E+03  0.23977642132E+03  0.23484656324E+03  0.35757283355E+03  0.00000000000E+00 0.  1.
<mgrwt>
<rscale>  0 0.10402882E+04</rscale>
<asrwt>0</asrwt>
<pdfrwt beam="1">  1        1 0.58153816E-01 0.10402882E+04</pdfrwt>
<pdfrwt beam="2">  1       -2 0.11011396E+00 0.10402882E+04</pdfrwt>
<totfact> 0.37034266E+01</totfact>
</mgrwt>
</event>
<event>
12    5  0.5221187E-008  0.1606583E+04  0.7818608E-02  0.8816514E-01
         -2   -1    0    0    0  501 -0.00000000000E+00  0.00000000000E+00  0.27461703687E+03  0.27461703687E+03  0.00000000000E+00 0.  1.
          1   -1    0    0  501    0  0.00000000000E+00 -0.00000000000E+00 -0.23497358960E+04  0.23497358960E+04  0.00000000000E+00 0. -1.
        -24    2    1    2    0    0  0.44958825303E+03  0.27289975659E+03 -0.92903752675E+03  0.10708332940E+04  0.83482590492E+02 0.  0.
        254    2    1    2    0    0 -0.44958825303E+03 -0.27289975659E+03 -0.11460813324E+04  0.15535196390E+04  0.90736815774E+03 0.  0.
         23    2    4    4    0    0 -0.19693071236E+02  0.16392044406E+03  0.58506596855E+02  0.19902990265E+03  0.94510058911E+02 0.  0.
         23    2    4    4    0    0 -0.42989518179E+03 -0.43682020066E+03 -0.12045879293E+04  0.13544897363E+04  0.89379032011E+02 0.  0.
          1    1    3    3  502    0  0.15971246346E+03  0.12092225405E+03 -0.42508542019E+03  0.46992326711E+03  0.00000000000E+00 0. -1.
         -2    1    3    3    0  502  0.28987578957E+03  0.15197750254E+03 -0.50395210656E+03  0.60091002684E+03  0.00000000000E+00 0.  1.
         13    1    5    5    0    0 -0.26473992933E+02  0.16145544320E+03  0.75780876129E+02  0.18030938308E+03  0.00000000000E+00 0.  1.
        -13    1    5    5    0    0  0.67809216969E+01  0.24650008623E+01 -0.17274279273E+02  0.18720519564E+02  0.00000000000E+00 0. -1.
          2    1    6    6  503    0 -0.29823834789E+01 -0.73987834643E+00  0.10111374025E+01  0.32348771274E+01  0.00000000000E+00 0. -1.
         -2    1    6    6    0  503 -0.42691279831E+03 -0.43608032231E+03 -0.12055990667E+04  0.13512548592E+04  0.00000000000E+00 0.  1.
<mgrwt>
<rscale>  0 0.16065833E+04</rscale>
<asrwt>0</asrwt>
<pdfrwt beam="1">  1        1 0.36149782E+00 0.16065833E+04</pdfrwt>
<pdfrwt beam="2">  1       -2 0.42248776E-01 0.16065833E+04</pdfrwt>
<totfact> 0.77038577E+00</totfact>
</mgrwt>
</event>
<event>
12    5  0.5221187E-008  0.1323502E+04  0.7818608E-02  0.9011133E-01
          1   -1    0    0  501    0  0.00000000000E+00  0.00000000000E+00  0.34728233582E+03  0.34728233582E+03  0.00000000000E+00 0. -1.
         -2   -1    0    0    0  501 -0.00000000000E+00 -0.00000000000E+00 -0.12609754878E+04  0.12609754878E+04  0.00000000000E+00 0.  1.
        -24    2    1    2    0    0  0.31701447076E+03 -0.13450381975E+03 -0.17075642915E+03  0.39265788113E+03  0.80205993017E+02 0.  0.
        254    2    1    2    0    0 -0.31701447076E+03  0.13450381975E+03 -0.74293672281E+03  0.12155999425E+04  0.89840903482E+03 0.  0.
         23    2    4    4    0    0  0.26731215731E+03  0.11925872890E+03 -0.60527837120E+02  0.31257922311E+03  0.91453364004E+02 0.  0.
         23    2    4    4    0    0 -0.58432662808E+03  0.15245090850E+02 -0.68240888569E+03  0.90302071936E+03  0.89969501803E+02 0.  0.
          3    1    3    3  502    0  0.27048419597E+03 -0.13149692513E+03 -0.17112277713E+03  0.34602911213E+03  0.00000000000E+00 0. -1.
         -4    1    3    3    0  502  0.46530274788E+02 -0.30068946127E+01  0.36634797794E+00  0.46628768994E+02  0.00000000000E+00 0.  1.
         13    1    5    5    0    0  0.10242866762E+03 -0.88561032152E+00 -0.25800847606E+02  0.10563190803E+03  0.00000000000E+00 0.  1.
        -13    1    5    5    0    0  0.16488348970E+03  0.12014433922E+03 -0.34726989513E+02  0.20694731508E+03  0.00000000000E+00 0. -1.
          2    1    6    6  503    0 -0.99664337267E+02  0.87934603954E+01 -0.17307556048E+03  0.19991361811E+03  0.00000000000E+00 0. -1.
         -2    1    6    6    0  503 -0.48466229081E+03  0.64516304543E+01 -0.50933332521E+03  0.70310710126E+03  0.00000000000E+00 0.  1.
<mgrwt>
<rscale>  0 0.13235022E+04</rscale>
<asrwt>0</asrwt>
<pdfrwt beam="1">  1        1 0.53428052E-01 0.13235022E+04</pdfrwt>
<pdfrwt beam="2">  1       -2 0.19399623E+00 0.13235022E+04</pdfrwt>
<totfact> 0.90248466E+00</totfact>
</mgrwt>
</event>
<event>
12    5  0.5221187E-008  0.2975946E+04  0.7818608E-02  0.8250633E-01
         -2   -1    0    0    0  501 -0.00000000000E+00  0.00000000000E+00  0.92300122674E+03  0.92300122674E+03  0.00000000000E+00 0.  1.
          1   -1    0    0  501    0  0.00000000000E+00 -0.00000000000E+00 -0.23987652407E+04  0.23987652407E+04  0.00000000000E+00 0. -1.
        -24    2    1    2    0    0  0.26130822076E+03 -0.11355779594E+04 -0.14305378784E+04  0.18467687027E+04  0.79351947250E+02 0.  0.
        254    2    1    2    0    0 -0.26130822076E+03  0.11355779594E+04 -0.45226135570E+02  0.14749977648E+04  0.90319085164E+03 0.  0.
         23    2    4    4    0    0  0.27269785968E+03  0.10234430959E+03 -0.41275108045E+02  0.30832644026E+03  0.92320522320E+02 0.  0.
         23    2    4    4    0    0 -0.53400608044E+03  0.10332336499E+04 -0.39510275252E+01  0.11666713245E+04  0.91499178392E+02 0.  0.
          3    1    3    3  502    0  0.14408412881E+03 -0.78128916398E+03 -0.99309023882E+03  0.12717708978E+04  0.00000000000E+00 0. -1.
         -4    1    3    3    0  502  0.11722409195E+03 -0.35428879546E+03 -0.43744763957E+03  0.57499780494E+03  0.00000000000E+00 0.  1.
         13    1    5    5    0    0  0.68832652586E+02  0.62697753385E+02  0.12107198300E+02  0.93891035739E+02  0.00000000000E+00 0. -1.
        -13    1    5    5    0    0  0.20386520709E+03  0.39646556202E+02 -0.53382306345E+02  0.21443540452E+03  0.00000000000E+00 0.  1.
          3    1    6    6  503    0  0.16151571762E+01  0.20622492283E+02 -0.42962945510E+01  0.21127093211E+02  0.00000000000E+00 0. -1.
         -3    1    6    6    0  503 -0.53562123761E+03  0.10126111576E+04  0.34526702584E+00  0.11455442313E+04  0.00000000000E+00 0.  1.
<mgrwt>
<rscale>  0 0.29759457E+04</rscale>
<asrwt>0</asrwt>
<pdfrwt beam="1">  1        1 0.36904080E+00 0.29759457E+04</pdfrwt>
<pdfrwt beam="2">  1       -2 0.14200019E+00 0.29759457E+04</pdfrwt>
<totfact> 0.41320679E-01</totfact>
</mgrwt>
</event>
<event>
12    5  0.5221187E-008  0.1959240E+04  0.7818608E-02  0.8625918E-01
          1   -1    0    0  501    0  0.00000000000E+00  0.00000000000E+00  0.38101488492E+03  0.38101488492E+03  0.00000000000E+00 0. -1.
         -2   -1    0    0    0  501 -0.00000000000E+00 -0.00000000000E+00 -0.25186823924E+04  0.25186823924E+04  0.00000000000E+00 0.  1.
        -24    2    1    2    0    0  0.50491478065E+03  0.29546082093E+03 -0.10047294542E+03  0.59822350412E+03  0.74434640427E+02 0.  0.
        254    2    1    2    0    0 -0.50491478065E+03 -0.29546082093E+03 -0.20371945620E+04  0.23014737732E+04  0.89687446867E+03 0.  0.
         23    2    4    4    0    0 -0.26231421381E+03 -0.60398633292E+03 -0.11774807215E+04  0.13519697990E+04  0.88052546025E+02 0.  0.
         23    2    4    4    0    0 -0.24260056684E+03  0.30852551199E+03 -0.85971384056E+03  0.94950397416E+03  0.91689054484E+02 0.  0.
          1    1    3    3  502    0  0.21484660457E+03  0.13934936601E+03 -0.85255682426E+01  0.25622254900E+03  0.00000000000E+00 0. -1.
         -2    1    3    3    0  502  0.29006817609E+03  0.15611145491E+03 -0.91947377177E+02  0.34200095512E+03  0.00000000000E+00 0.  1.
         13    1    5    5    0    0 -0.20753915225E+01 -0.71107260364E+02 -0.13619156913E+03  0.15365120640E+03  0.00000000000E+00 0.  1.
        -13    1    5    5    0    0 -0.26023882229E+03 -0.53287907255E+03 -0.10412891523E+04  0.11983185926E+04  0.00000000000E+00 0. -1.
          4    1    6    6  503    0 -0.14916876134E+03  0.11916486064E+03 -0.44123189026E+03  0.48076726631E+03  0.00000000000E+00 0. -1.
         -4    1    6    6    0  503 -0.93431805499E+02  0.18936065135E+03 -0.41848195030E+03  0.46873670785E+03  0.00000000000E+00 0.  1.
<mgrwt>
<rscale>  0 0.19592401E+04</rscale>
<asrwt>0</asrwt>
<pdfrwt beam="1">  1        1 0.58617675E-01 0.19592401E+04</pdfrwt>
<pdfrwt beam="2">  1       -2 0.38748960E+00 0.19592401E+04</pdfrwt>
<totfact> 0.46828442E-01</totfact>
</mgrwt>
</event>
<event>
12    5  0.5221187E-008  0.1125794E+04  0.7818608E-02  0.9180409E-01
         -2   -1    0    0    0  501 -0.00000000000E+00  0.00000000000E+00  0.12193226146E+03  0.12193226146E+03  0.00000000000E+00 0.  1.
          1   -1    0    0  501    0  0.00000000000E+00 -0.00000000000E+00 -0.25986006623E+04  0.25986006623E+04  0.00000000000E+00 0. -1.
        -24    2    1    2    0    0 -0.17413796445E+02  0.26910342014E+02 -0.88864742363E+03  0.89284462900E+03  0.80311152447E+02 0.  0.
        254    2    1    2    0    0  0.17413796445E+02 -0.26910342014E+02 -0.15880209772E+04  0.18276882948E+04  0.90421594320E+03 0.  0.
         23    2    4    4    0    0  0.35260464521E+03  0.23194618145E+03 -0.10641414736E+04  0.11477687781E+04  0.82746753799E+02 0.  0.
         23    2    4    4    0    0 -0.33519084877E+03 -0.25885652347E+03 -0.52387950368E+03  0.67991951671E+03  0.92093485057E+02 0.  0.
          1    1    3    3  502    0 -0.33873176533E+02  0.46961152207E+02 -0.70503878951E+03  0.70741249396E+03  0.00000000000E+00 0. -1.
         -2    1    3    3    0  502  0.16459380088E+02 -0.20050810193E+02 -0.18360863412E+03  0.18543213504E+03  0.00000000000E+00 0.  1.
         13    1    5    5    0    0  0.30769628617E+02  0.43430666223E+02 -0.88624588423E+02  0.10337944906E+03  0.00000000000E+00 0.  1.
        -13    1    5    5    0    0  0.32183501660E+03  0.18851551523E+03 -0.97551688513E+03  0.10443893290E+04  0.00000000000E+00 0. -1.
          3    1    6    6  503    0 -0.21603387289E+03 -0.20254498863E+03 -0.40987089396E+03  0.50565725187E+03  0.00000000000E+00 0. -1.
         -3    1    6    6    0  503 -0.11915697588E+03 -0.56311534831E+02 -0.11400860972E+03  0.17426226484E+03  0.00000000000E+00 0.  1.
<mgrwt>
<rscale>  0 0.11257944E+04</rscale>
<asrwt>0</asrwt>
<pdfrwt beam="1">  1        1 0.39978470E+00 0.11257944E+04</pdfrwt>
<pdfrwt beam="2">  1       -2 0.18758810E-01 0.11257944E+04</pdfrwt>
<totfact> 0.24383273E+01</totfact>
</mgrwt>
</event>
<event>
12    5  0.5221187E-008  0.1162736E+04  0.7818608E-02  0.9146114E-01
          1   -1    0    0  501    0  0.00000000000E+00  0.00000000000E+00  0.14091837892E+04  0.14091837892E+04  0.00000000000E+00 0. -1.
         -2   -1    0    0    0  501 -0.00000000000E+00 -0.00000000000E+00 -0.23984715787E+03  0.23984715787E+03  0.00000000000E+00 0.  1.
        -24    2    1    2    0    0 -0.43401626391E+02 -0.38545859477E+02 -0.68875238899E+02  0.12016094682E+03  0.79532195693E+02 0.  0.
        254    2    1    2    0    0  0.43401626391E+02  0.38545859477E+02  0.12382118703E+04  0.15288700003E+04  0.89493315821E+03 0.  0.
         23    2    4    4    0    0 -0.40062592269E+03 -0.96104511051E+02  0.53575531160E+03  0.68202475314E+03  0.91579490136E+02 0.  0.
         23    2    4    4    0    0  0.44402754908E+03  0.13465037053E+03  0.70245655865E+03  0.84684524714E+03  0.91708610209E+02 0.  0.
          3    1    3    3  502    0 -0.52033754802E+02 -0.46287384962E+01 -0.12352040302E+02  0.53679695961E+02  0.00000000000E+00 0. -1.
         -4    1    3    3    0  502  0.86321284105E+01 -0.33917120981E+02 -0.56523198597E+02  0.66481250862E+02  0.00000000000E+00 0.  1.
         13    1    5    5    0    0 -0.17802148970E+03 -0.75308329748E+02  0.30201464221E+03  0.35857473340E+03  0.00000000000E+00 0. -1.
        -13    1    5    5    0    0 -0.22260443298E+03 -0.20796181303E+02  0.23374066939E+03  0.32345001974E+03  0.00000000000E+00 0.  1.
          1    1    6    6  503    0  0.96923255610E+02  0.69775214015E+02  0.19353548679E+03  0.22741741933E+03  0.00000000000E+00 0. -1.
         -1    1    6    6    0  503  0.34710429347E+03  0.64875156513E+02  0.50892107186E+03  0.61942782780E+03  0.00000000000E+00 0.  1.
<mgrwt>
<rscale>  0 0.11627360E+04</rscale>
<asrwt>0</asrwt>
<pdfrwt beam="1">  1        1 0.21679750E+00 0.11627360E+04</pdfrwt>
<pdfrwt beam="2">  1       -2 0.36899564E-01 0.11627360E+04</pdfrwt>
<totfact> 0.45591912E+01</totfact>
</mgrwt>
</event>
<event>
12    5  0.5221187E-008  0.1501367E+04  0.7818608E-02  0.8883544E-01
          1   -1    0    0  501    0  0.00000000000E+00  0.00000000000E+00  0.14744760297E+04  0.14744760297E+04  0.00000000000E+00 0. -1.
         -2   -1    0    0    0  501 -0.00000000000E+00 -0.00000000000E+00 -0.38218722304E+03  0.38218722304E+03  0.00000000000E+00 0.  1.
        -24    2    1    2    0    0  0.35697837159E+03 -0.30581835877E+03  0.43804980565E+03  0.64742486973E+03  0.79453781346E+02 0.  0.
        254    2    1    2    0    0 -0.35697837159E+03  0.30581835877E+03  0.65423900101E+03  0.12092383830E+04  0.90181504210E+03 0.  0.
         23    2    4    4    0    0 -0.43361001267E+03  0.44320745720E+03  0.77072646680E+03  0.99343897586E+03  0.91930511340E+02 0.  0.
         23    2    4    4    0    0  0.76631641084E+02 -0.13738909843E+03 -0.11648746579E+03  0.21579940716E+03  0.90839868229E+02 0.  0.
          3    1    3    3  502    0  0.33209082560E+03 -0.30061805202E+03  0.42954207735E+03  0.62061415216E+03  0.00000000000E+00 0. -1.
         -4    1    3    3    0  502  0.24887545993E+02 -0.52003067422E+01  0.85077283087E+01  0.26810717573E+02  0.00000000000E+00 0.  1.
         13    1    5    5    0    0 -0.16101261948E+02  0.44613453608E+02  0.38743234359E+02  0.61242543119E+02  0.00000000000E+00 0.  1.
        -13    1    5    5    0    0 -0.41750875073E+03  0.39859400359E+03  0.73198323244E+03  0.93219643274E+03  0.00000000000E+00 0. -1.
          3    1    6    6  503    0  0.62956371025E+02 -0.14835761476E+03 -0.91655360542E+02  0.18540278214E+03  0.00000000000E+00 0. -1.
         -3    1    6    6    0  503  0.13675270059E+02  0.10968516323E+02 -0.24832105246E+02  0.30396625017E+02  0.00000000000E+00 0.  1.
<mgrwt>
<rscale>  0 0.15013672E+04</rscale>
<asrwt>0</asrwt>
<pdfrwt beam="1">  1        1 0.22684246E+00 0.15013672E+04</pdfrwt>
<pdfrwt beam="2">  1       -2 0.58798035E-01 0.15013672E+04</pdfrwt>
<totfact> 0.15632428E+01</totfact>
</mgrwt>
</event>
<event>
12    5  0.5221187E-008  0.2326388E+04  0.7818608E-02  0.8467589E-01
          1   -1    0    0  501    0  0.00000000000E+00  0.00000000000E+00  0.19133851966E+04  0.19133851966E+04  0.00000000000E+00 0. -1.
         -2   -1    0    0    0  501 -0.00000000000E+00 -0.00000000000E+00 -0.70713422113E+03  0.70713422113E+03  0.00000000000E+00 0.  1.
        -24    2    1    2    0    0  0.56040039081E+03  0.15684995664E+03 -0.37716257840E+03  0.69807541072E+03  0.80044747430E+02 0.  0.
        254    2    1    2    0    0 -0.56040039081E+03 -0.15684995664E+03  0.15834135538E+04  0.19224440070E+04  0.92192297430E+03 0.  0.
         23    2    4    4    0    0 -0.26068594429E+03 -0.52970192460E+03  0.96938117082E+03  0.11383437615E+04  0.87094056245E+02 0.  0.
         23    2    4    4    0    0 -0.29971444652E+03  0.37285196796E+03  0.61403238303E+03  0.78410024543E+03  0.94499142902E+02 0.  0.
          3    1    3    3  502    0  0.52418275549E+02  0.34182203454E+01 -0.11880325210E+02  0.53856308534E+02  0.00000000000E+00 0. -1.
         -4    1    3    3    0  502  0.50798211526E+03  0.15343173630E+03 -0.36528225319E+03  0.64421910219E+03  0.00000000000E+00 0.  1.
         13    1    5    5    0    0 -0.48916999374E+01 -0.70454019903E+02  0.12983399599E+03  0.14779906685E+03  0.00000000000E+00 0.  1.
        -13    1    5    5    0    0 -0.25579424435E+03 -0.45924790470E+03  0.83954717483E+03  0.99054469469E+03  0.00000000000E+00 0. -1.
          4    1    6    6  503    0 -0.16613343138E+03  0.23752609124E+03  0.43636860152E+03  0.52386688904E+03  0.00000000000E+00 0. -1.
         -4    1    6    6    0  503 -0.13358101515E+03  0.13532587672E+03  0.17766378151E+03  0.26023335639E+03  0.00000000000E+00 0.  1.
<mgrwt>
<rscale>  0 0.23263879E+04</rscale>
<asrwt>0</asrwt>
<pdfrwt beam="1">  1        1 0.29436695E+00 0.23263879E+04</pdfrwt>
<pdfrwt beam="2">  1       -2 0.10878988E+00 0.23263879E+04</pdfrwt>
<totfact> 0.18241675E+00</totfact>
</mgrwt>
</event>
<event>
12    5  0.5221187E-008  0.1707946E+04  0.7818608E-02  0.8756845E-01
         -2   -1    0    0    0  501 -0.00000000000E+00  0.00000000000E+00  0.10668208834E+04  0.10668208834E+04  0.00000000000E+00 0.  1.
          1   -1    0    0  501    0  0.00000000000E+00 -0.00000000000E+00 -0.68359169391E+03  0.68359169391E+03  0.00000000000E+00 0. -1.
        -24    2    1    2    0    0  0.25712306092E+03 -0.54116632156E+03  0.23922774328E+03  0.64980217227E+03  0.77715467464E+02 0.  0.
        254    2    1    2    0    0 -0.25712306092E+03  0.54116632156E+03  0.14400144619E+03  0.11006104050E+04  0.91193946679E+03 0.  0.
         23    2    4    4    0    0 -0.16764081762E+03  0.24759166820E+03 -0.37651785977E+03  0.48965441035E+03  0.92685840108E+02 0.  0.
         23    2    4    4    0    0 -0.89482243306E+02  0.29357465336E+03  0.52051930596E+03  0.61095599467E+03  0.90187197434E+02 0.  0.
          3    1    3    3  502    0  0.39092180851E+02 -0.10589386524E+03  0.15182628892E+02  0.11389566066E+03  0.00000000000E+00 0. -1.
         -4    1    3    3    0  502  0.21803088007E+03 -0.43527245633E+03  0.22404511439E+03  0.53590651161E+03  0.00000000000E+00 0.  1.
         13    1    5    5    0    0 -0.47104307701E+02  0.27005193679E+02 -0.31485960080E+02  0.62765133409E+02  0.00000000000E+00 0. -1.
        -13    1    5    5    0    0 -0.12053650992E+03  0.22058647452E+03 -0.34503189969E+03  0.42688927694E+03  0.00000000000E+00 0.  1.
          1    1    6    6  503    0 -0.17491802750E+02  0.14125023531E+03  0.31160031405E+03  0.34256728953E+03  0.00000000000E+00 0. -1.
         -1    1    6    6    0  503 -0.71990440556E+02  0.15232441805E+03  0.20891899191E+03  0.26838870514E+03  0.00000000000E+00 0.  1.
<mgrwt>
<rscale>  0 0.17079460E+04</rscale>
<asrwt>0</asrwt>
<pdfrwt beam="1">  1        1 0.10516795E+00 0.17079460E+04</pdfrwt>
<pdfrwt beam="2">  1       -2 0.16412629E+00 0.17079460E+04</pdfrwt>
<totfact> 0.55210648E+00</totfact>
</mgrwt>
</event>
<event>
12    5  0.5221187E-008  0.1430828E+04  0.7818608E-02  0.8931801E-01
         -2   -1    0    0    0  501 -0.00000000000E+00  0.00000000000E+00  0.30843243380E+03  0.30843243380E+03  0.00000000000E+00 0.  1.
          1   -1    0    0  501    0  0.00000000000E+00 -0.00000000000E+00 -0.16594143059E+04  0.16594143059E+04  0.00000000000E+00 0. -1.
        -24    2    1    2    0    0 -0.43233092848E+03 -0.18237632424E+02 -0.43599541763E+03  0.61939693929E+03  0.79485352480E+02 0.  0.
        254    2    1    2    0    0  0.43233092848E+03  0.18237632424E+02 -0.91498645451E+03  0.13484498004E+04  0.89099607711E+03 0.  0.
         23    2    4    4    0    0  0.80925956703E+02 -0.29577270049E+03 -0.79008579211E+03  0.85236369735E+03  0.90872508712E+02 0.  0.
         23    2    4    4    0    0  0.35140497177E+03  0.31401033291E+03 -0.12490066240E+03  0.49608610309E+03  0.91724058191E+02 0.  0.
          3    1    3    3  502    0 -0.24550460115E+03 -0.29132945757E+02 -0.29611756637E+03  0.38575491031E+03  0.00000000000E+00 0. -1.
         -4    1    3    3    0  502 -0.18682632733E+03  0.10895313333E+02 -0.13987785125E+03  0.23364202898E+03  0.00000000000E+00 0.  1.
         13    1    5    5    0    0 -0.39450241262E+01 -0.13178445010E+03 -0.26997301994E+03  0.30044656098E+03  0.00000000000E+00 0. -1.
        -13    1    5    5    0    0  0.84870980829E+02 -0.16398825039E+03 -0.52011277217E+03  0.55191713637E+03  0.00000000000E+00 0.  1.
          3    1    6    6  503    0  0.14549219018E+03  0.91796370992E+02 -0.80375453597E+02  0.18988092235E+03  0.00000000000E+00 0. -1.
         -3    1    6    6    0  503  0.20591278159E+03  0.22221396192E+03 -0.44525208801E+02  0.30620518074E+03  0.00000000000E+00 0.  1.
<mgrwt>
<rscale>  0 0.14308280E+04</rscale>
<asrwt>0</asrwt>
<pdfrwt beam="1">  1        1 0.25529451E+00 0.14308280E+04</pdfrwt>
<pdfrwt beam="2">  1       -2 0.47451142E-01 0.14308280E+04</pdfrwt>
<totfact> 0.18256037E+01</totfact>
</mgrwt>
</event>
<event>
12    5  0.5221187E-008  0.1213392E+04  0.7818608E-02  0.9101215E-01
          1   -1    0    0  501    0  0.00000000000E+00  0.00000000000E+00  0.25808621591E+03  0.25808621591E+03  0.00000000000E+00 0. -1.
         -2   -1    0    0    0  501 -0.00000000000E+00 -0.00000000000E+00 -0.14261901702E+04  0.14261901702E+04  0.00000000000E+00 0.  1.
        -24    2    1    2    0    0  0.57540725582E+02  0.24756100661E+03 -0.17820539204E+03  0.32074958208E+03  0.80782086883E+02 0.  0.
        254    2    1    2    0    0 -0.57540725582E+02 -0.24756100661E+03 -0.98989856222E+03  0.13635268040E+04  0.90261220611E+03 0.  0.
         23    2    4    4    0    0  0.20712266062E+03  0.79100716214E+02 -0.89000111279E+03  0.92205945355E+03  0.94524786499E+02 0.  0.
         23    2    4    4    0    0 -0.26466338620E+03 -0.32666172282E+03 -0.99897449431E+02  0.44146735044E+03  0.90329020565E+02 0.  0.
          3    1    3    3  502    0  0.50901699002E+02  0.24706526159E+03 -0.18375145210E+03  0.31208464012E+03  0.00000000000E+00 0. -1.
         -4    1    3    3    0  502  0.66390265800E+01  0.49574501219E+00  0.55460600614E+01  0.86649419647E+01  0.00000000000E+00 0.  1.
         13    1    5    5    0    0  0.19257740978E+03  0.36527322835E+02 -0.72861669571E+03  0.75452143332E+03  0.00000000000E+00 0. -1.
        -13    1    5    5    0    0  0.14545250836E+02  0.42573393380E+02 -0.16138441708E+03  0.16753802023E+03  0.00000000000E+00 0.  1.
          2    1    6    6  503    0 -0.18596971336E+03 -0.25530033631E+03 -0.11069498181E+03  0.33468847456E+03  0.00000000000E+00 0. -1.
         -2    1    6    6    0  503 -0.78693672836E+02 -0.71361386509E+02  0.10797532377E+02  0.10677887588E+03  0.00000000000E+00 0.  1.
<mgrwt>
<rscale>  0 0.12133920E+04</rscale>
<asrwt>0</asrwt>
<pdfrwt beam="1">  1        1 0.39705572E-01 0.12133920E+04</pdfrwt>
<pdfrwt beam="2">  1       -2 0.21941387E+00 0.12133920E+04</pdfrwt>
<totfact> 0.91762706E+00</totfact>
</mgrwt>
</event>
<event>
12    5  0.5221187E-008  0.2377084E+04  0.7818608E-02  0.8448133E-01
         -2   -1    0    0    0  501 -0.00000000000E+00  0.00000000000E+00  0.63458360943E+03  0.63458360943E+03  0.00000000000E+00 0.  1.
          1   -1    0    0  501    0  0.00000000000E+00 -0.00000000000E+00 -0.22260772561E+04  0.22260772561E+04  0.00000000000E+00 0. -1.
        -24    2    1    2    0    0  0.89693156364E+03 -0.33353975759E+03 -0.10807530491E+04  0.14457252537E+04  0.79745571979E+02 0.  0.
        254    2    1    2    0    0 -0.89693156364E+03  0.33353975759E+03 -0.51074059754E+03  0.14149356118E+04  0.90854379526E+03 0.  0.
         23    2    4    4    0    0  0.99431932507E+02  0.26577770161E+03 -0.22561994594E+03  0.37255482117E+03  0.85838446477E+02 0.  0.
         23    2    4    4    0    0 -0.99636349614E+03  0.67762055980E+02 -0.28512065160E+03  0.10423807907E+04  0.89061855421E+02 0.  0.
          1    1    3    3  502    0  0.55282927178E+03 -0.24477236912E+03 -0.69791898947E+03  0.92337675532E+03  0.00000000000E+00 0. -1.
         -2    1    3    3    0  502  0.34410229186E+03 -0.88767388475E+02 -0.38283405966E+03  0.52234849838E+03  0.00000000000E+00 0.  1.
         13    1    5    5    0    0  0.32798112564E+02  0.26999802847E+02 -0.63320414253E+02  0.76250773129E+02  0.00000000000E+00 0.  1.
        -13    1    5    5    0    0  0.66633819943E+02  0.23877789877E+03 -0.16229953169E+03  0.29630404804E+03  0.00000000000E+00 0. -1.
          4    1    6    6  503    0 -0.13087183723E+03  0.34335578172E+02 -0.56151706582E+02  0.14649021763E+03  0.00000000000E+00 0.  1.
         -4    1    6    6    0  503 -0.86549165891E+03  0.33426477809E+02 -0.22896894501E+03  0.89589057303E+03  0.00000000000E+00 0. -1.
<mgrwt>
<rscale>  0 0.23770840E+04</rscale>
<asrwt>0</asrwt>
<pdfrwt beam="1">  1        1 0.34247343E+00 0.23770840E+04</pdfrwt>
<pdfrwt beam="2">  1       -2 0.97628245E-01 0.23770840E+04</pdfrwt>
<totfact> 0.14422335E+00</totfact>
</mgrwt>
</event>
<event>
12    5  0.5221187E-008  0.3811324E+04  0.7818608E-02  0.8043729E-01
         -2   -1    0    0    0  501 -0.00000000000E+00  0.00000000000E+00  0.25336519827E+04  0.25336519827E+04  0.00000000000E+00 0.  1.
          1   -1    0    0  501    0  0.00000000000E+00 -0.00000000000E+00 -0.14333252679E+04  0.14333252679E+04  0.00000000000E+00 0. -1.
        -24    2    1    2    0    0 -0.92848148073E+03 -0.30281140076E+03  0.20863930851E+04  0.23050512406E+04  0.80327526552E+02 0.  0.
        254    2    1    2    0    0  0.92848148073E+03  0.30281140076E+03 -0.98606637034E+03  0.16619260100E+04  0.91427488841E+03 0.  0.
         23    2    4    4    0    0  0.22147076403E+02  0.33952918822E+03 -0.51140171979E+02  0.35587917320E+03  0.90907128891E+02 0.  0.
         23    2    4    4    0    0  0.90633440433E+03 -0.36717787463E+02 -0.93492619836E+03  0.13060468368E+04  0.94239562821E+02 0.  0.
          3    1    3    3  502    0 -0.65299725291E+03 -0.19466247035E+03  0.15290571515E+04  0.16740115478E+04  0.00000000000E+00 0. -1.
         -4    1    3    3    0  502 -0.27548422782E+03 -0.10814893041E+03  0.55733593369E+03  0.63103969281E+03  0.00000000000E+00 0.  1.
         13    1    5    5    0    0  0.31013134634E+02  0.33888752843E+03 -0.41595752486E+02  0.34283637215E+03  0.00000000000E+00 0. -1.
        -13    1    5    5    0    0 -0.88660582308E+01  0.64165979120E+00 -0.95444194932E+01  0.13042801053E+02  0.00000000000E+00 0.  1.
          4    1    6    6  503    0  0.84239494807E+03 -0.58469501072E+02 -0.86535123039E+03  0.12090825791E+04  0.00000000000E+00 0. -1.
         -4    1    6    6    0  503  0.63939456258E+02  0.21751713609E+02 -0.69574967972E+02  0.96964257744E+02  0.00000000000E+00 0.  1.
<mgrwt>
<rscale>  0 0.38113239E+04</rscale>
<asrwt>0</asrwt>
<pdfrwt beam="1">  1        1 0.22051158E+00 0.38113239E+04</pdfrwt>
<pdfrwt beam="2">  1       -2 0.38979261E+00 0.38113239E+04</pdfrwt>
<totfact> 0.43935057E-02</totfact>
</mgrwt>
</event>
<event>
12    5  0.5221187E-008  0.1072557E+04  0.7818608E-02  0.9232360E-01
         -2   -1    0    0    0  501 -0.00000000000E+00  0.00000000000E+00  0.14857151405E+03  0.14857151405E+03  0.00000000000E+00 0.  1.
          1   -1    0    0  501    0  0.00000000000E+00 -0.00000000000E+00 -0.19357337303E+04  0.19357337303E+04  0.00000000000E+00 0. -1.
        -24    2    1    2    0    0 -0.25213554145E+02 -0.88450516111E+02 -0.71354742030E+02  0.14111084772E+03  0.79759356943E+02 0.  0.
        254    2    1    2    0    0  0.25213554145E+02  0.88450516111E+02 -0.17158074742E+04  0.19431943967E+04  0.90749653301E+03 0.  0.
         23    2    4    4    0    0  0.35731303744E+03  0.30579352357E+03 -0.69555215538E+03  0.84453965336E+03  0.90951302703E+02 0.  0.
         23    2    4    4    0    0 -0.33209948329E+03 -0.21734300746E+03 -0.10202553189E+04  0.10986547433E+04  0.92699943949E+02 0.  0.
          1    1    3    3  502    0  0.22365596766E+02 -0.54474263169E+02 -0.17023198838E+02  0.61298079621E+02  0.00000000000E+00 0. -1.
         -2    1    3    3    0  502 -0.47579150911E+02 -0.33976252942E+02 -0.54331543193E+02  0.79812768096E+02  0.00000000000E+00 0.  1.
         13    1    5    5    0    0  0.57379818963E+02  0.23692317562E+02 -0.54314532517E+02  0.82485380391E+02  0.00000000000E+00 0.  1.
        -13    1    5    5    0    0  0.29993321848E+03  0.28210120601E+03 -0.64123762287E+03  0.76205427297E+03  0.00000000000E+00 0. -1.
          2    1    6    6  503    0 -0.28224424300E+03 -0.20105479893E+03 -0.79272526339E+03  0.86515789779E+03  0.00000000000E+00 0. -1.
         -2    1    6    6    0  503 -0.49855240292E+02 -0.16288208524E+02 -0.22753005546E+03  0.23349684550E+03  0.00000000000E+00 0.  1.
<mgrwt>
<rscale>  0 0.10725575E+04</rscale>
<asrwt>0</asrwt>
<pdfrwt beam="1">  1        1 0.29780518E+00 0.10725575E+04</pdfrwt>
<pdfrwt beam="2">  1       -2 0.22857156E-01 0.10725575E+04</pdfrwt>
<totfact> 0.48818338E+01</totfact>
</mgrwt>
</event>
<event>
12    5  0.5221187E-008  0.2298058E+04  0.7818608E-02  0.8478687E-01
         -4   -1    0    0    0  501 -0.00000000000E+00  0.00000000000E+00  0.10012398237E+04  0.10012398237E+04  0.00000000000E+00 0.  1.
          1   -1    0    0  501    0  0.00000000000E+00 -0.00000000000E+00 -0.13186324022E+04  0.13186324022E+04  0.00000000000E+00 0. -1.
        -24    2    1    2    0    0 -0.14497399979E+03 -0.35299561606E+03 -0.10245477462E+04  0.10961677769E+04  0.79134981595E+02 0.  0.
        254    2    1    2    0    0  0.14497399979E+03  0.35299561606E+03  0.70715516768E+03  0.12237044491E+04  0.92290886977E+03 0.  0.
         23    2    4    4    0    0  0.40419485800E+03  0.50387046077E+03  0.61636678120E+03  0.89770601372E+03  0.93322846237E+02 0.  0.
         23    2    4    4    0    0 -0.25922085820E+03 -0.15087484471E+03  0.90788386479E+02  0.32599843534E+03  0.89854196515E+02 0.  0.
          1    1    3    3  502    0 -0.15127857666E+03 -0.29968122671E+03 -0.86684550713E+03  0.92957795726E+03  0.00000000000E+00 0. -1.
         -2    1    3    3    0  502  0.63045768666E+01 -0.53314389347E+02 -0.15770223905E+03  0.16658981962E+03  0.00000000000E+00 0.  1.
         13    1    5    5    0    0  0.35277018909E+03  0.39476696925E+03  0.46909458181E+03  0.70734538452E+03  0.00000000000E+00 0.  1.
        -13    1    5    5    0    0  0.51424668905E+02  0.10910349152E+03  0.14727219939E+03  0.19036062920E+03  0.00000000000E+00 0. -1.
          1    1    6    6  503    0 -0.57249322217E+02 -0.65308287573E+02  0.57448867427E+02  0.10412986934E+03  0.00000000000E+00 0. -1.
         -1    1    6    6    0  503 -0.20197153599E+03 -0.85566557139E+02  0.33339519052E+02  0.22186856600E+03  0.00000000000E+00 0.  1.
<mgrwt>
<rscale>  0 0.22980577E+04</rscale>
<asrwt>0</asrwt>
<pdfrwt beam="1">  1        1 0.20286652E+00 0.22980577E+04</pdfrwt>
<pdfrwt beam="2">  1       -4 0.15403690E+00 0.22980577E+04</pdfrwt>
<totfact> 0.10705325E+00</totfact>
</mgrwt>
</event>
<event>
12    5  0.5221187E-008  0.2245728E+04  0.7818608E-02  0.8499633E-01
          1   -1    0    0  501    0  0.00000000000E+00  0.00000000000E+00  0.12832649503E+04  0.12832649503E+04  0.00000000000E+00 0. -1.
         -2   -1    0    0    0  501 -0.00000000000E+00 -0.00000000000E+00 -0.98251240510E+03  0.98251240510E+03  0.00000000000E+00 0.  1.
        -24    2    1    2    0    0  0.82306440864E+03  0.44286631870E+03  0.17195658596E+03  0.95401971394E+03  0.83779174729E+02 0.  0.
        254    2    1    2    0    0 -0.82306440864E+03 -0.44286631870E+03  0.12879595928E+03  0.13117576415E+04  0.91134741667E+03 0.  0.
         23    2    4    4    0    0 -0.38868961289E+03 -0.31022947523E+03 -0.37323310557E+03  0.62855949511E+03  0.91989919716E+02 0.  0.
         23    2    4    4    0    0 -0.43437479575E+03 -0.13263684348E+03  0.50202906485E+03  0.68319814638E+03  0.91937641005E+02 0.  0.
          3    1    3    3  502    0  0.37775255205E+03  0.19833391037E+03  0.12074846416E+03  0.44341123371E+03  0.00000000000E+00 0. -1.
         -4    1    3    3    0  502  0.44531185659E+03  0.24453240834E+03  0.51208121804E+02  0.51060848023E+03  0.00000000000E+00 0.  1.
         13    1    5    5    0    0 -0.37604512719E+03 -0.30588011270E+03 -0.33819631071E+03  0.59105780225E+03  0.00000000000E+00 0. -1.
        -13    1    5    5    0    0 -0.12644485703E+02 -0.43493625315E+01 -0.35036794860E+02  0.37501692857E+02  0.00000000000E+00 0.  1.
          1    1    6    6  503    0 -0.22080944987E+03 -0.19574187923E+02  0.24584635809E+03  0.33102929443E+03  0.00000000000E+00 0. -1.
         -1    1    6    6    0  503 -0.21356534589E+03 -0.11306265555E+03  0.25618270676E+03  0.35216885196E+03  0.00000000000E+00 0.  1.
<mgrwt>
<rscale>  0 0.22457282E+04</rscale>
<asrwt>0</asrwt>
<pdfrwt beam="1">  1        1 0.19742538E+00 0.22457282E+04</pdfrwt>
<pdfrwt beam="2">  1       -2 0.15115575E+00 0.22457282E+04</pdfrwt>
<totfact> 0.21754520E+00</totfact>
</mgrwt>
</event>
<event>
12    5  0.5221187E-008  0.2553719E+04  0.7818608E-02  0.8384094E-01
          1   -1    0    0  501    0  0.00000000000E+00  0.00000000000E+00  0.33475547440E+04  0.33475547440E+04  0.00000000000E+00 0. -1.
         -2   -1    0    0    0  501 -0.00000000000E+00 -0.00000000000E+00 -0.48703331239E+03  0.48703331239E+03  0.00000000000E+00 0.  1.
        -24    2    1    2    0    0  0.69566160316E+03  0.52423830214E+02 -0.57165177798E+02  0.70394462875E+03  0.74678368406E+02 0.  0.
        254    2    1    2    0    0 -0.69566160316E+03 -0.52423830214E+02  0.29176866094E+04  0.31306434277E+04  0.89517584654E+03 0.  0.
         23    2    4    4    0    0  0.75551642756E+02  0.61459677575E+02  0.22491721246E+02  0.13093928364E+03  0.84580587514E+02 0.  0.
         23    2    4    4    0    0 -0.77121324591E+03 -0.11388350779E+03  0.28951948882E+04  0.29997041440E+04  0.91280814403E+02 0.  0.
          3    1    3    3  502    0  0.32810725264E+03 -0.64982905521E+01 -0.47333394624E+02  0.33156756063E+03  0.00000000000E+00 0. -1.
         -4    1    3    3    0  502  0.36755435052E+03  0.58922120766E+02 -0.98317831746E+01  0.37237706812E+03  0.00000000000E+00 0.  1.
         13    1    5    5    0    0  0.45446093936E+02  0.20700289059E+02  0.52167368139E+02  0.72216921283E+02  0.00000000000E+00 0.  1.
        -13    1    5    5    0    0  0.30105548820E+02  0.40759388516E+02 -0.29675646893E+02  0.58722362354E+02  0.00000000000E+00 0. -1.
          3    1    6    6  503    0 -0.31487596895E+03 -0.91994071652E+02  0.12123215642E+04  0.12559193287E+04  0.00000000000E+00 0. -1.
         -3    1    6    6    0  503 -0.45633727696E+03 -0.21889436138E+02  0.16828733240E+04  0.17437848154E+04  0.00000000000E+00 0.  1.
<mgrwt>
<rscale>  0 0.25537194E+04</rscale>
<asrwt>0</asrwt>
<pdfrwt beam="1">  1        1 0.51500841E+00 0.25537194E+04</pdfrwt>
<pdfrwt beam="2">  1       -2 0.74928204E-01 0.25537194E+04</pdfrwt>
<totfact> 0.40882751E-01</totfact>
</mgrwt>
</event>
<event>
12    5  0.5221187E-008  0.2129424E+04  0.7818608E-02  0.8548391E-01
         -2   -1    0    0    0  501 -0.00000000000E+00  0.00000000000E+00  0.44373439870E+03  0.44373439870E+03  0.00000000000E+00 0.  1.
          1   -1    0    0  501    0  0.00000000000E+00 -0.00000000000E+00 -0.25547080646E+04  0.25547080646E+04  0.00000000000E+00 0. -1.
        -24    2    1    2    0    0  0.21025775828E+03  0.77058878695E+03 -0.14721246716E+04  0.16766407361E+04  0.77186174934E+02 0.  0.
        254    2    1    2    0    0 -0.21025775828E+03 -0.77058878695E+03 -0.63884899433E+03  0.13218017273E+04  0.83726720056E+03 0.  0.
         23    2    4    4    0    0 -0.37137442805E+02 -0.87062072144E+03 -0.66439199797E+03  0.10997165791E+04  0.92737248005E+02 0.  0.
         23    2    4    4    0    0 -0.17312031547E+03  0.10003193449E+03  0.25543003648E+02  0.22208514813E+03  0.93232700481E+02 0.  0.
          3    1    3    3  502    0  0.19695543469E+03  0.70276210089E+03 -0.13839588727E+04  0.15646111898E+04  0.00000000000E+00 0. -1.
         -4    1    3    3    0  502  0.13302323587E+02  0.67826686066E+02 -0.88165798857E+02  0.11202954630E+03  0.00000000000E+00 0.  1.
         13    1    5    5    0    0 -0.18310163383E+02 -0.54096964473E+03 -0.35561333567E+03  0.64764516760E+03  0.00000000000E+00 0.  1.
        -13    1    5    5    0    0 -0.18827279421E+02 -0.32965107671E+03 -0.30877866231E+03  0.45207141153E+03  0.00000000000E+00 0. -1.
          2    1    6    6  503    0 -0.38512170561E+02  0.98412859553E+01  0.43661350672E+02  0.59045336251E+02  0.00000000000E+00 0. -1.
         -2    1    6    6    0  503 -0.13460814491E+03  0.90190648533E+02 -0.18118347024E+02  0.16303981188E+03  0.00000000000E+00 0.  1.
<mgrwt>
<rscale>  0 0.21294242E+04</rscale>
<asrwt>0</asrwt>
<pdfrwt beam="1">  1        1 0.39303201E+00 0.21294242E+04</pdfrwt>
<pdfrwt beam="2">  1       -2 0.68266830E-01 0.21294242E+04</pdfrwt>
<totfact> 0.19645250E+00</totfact>
</mgrwt>
</event>
<event>
12    5  0.5221187E-008  0.1455419E+04  0.7818608E-02  0.8914652E-01
          1   -1    0    0  501    0  0.00000000000E+00  0.00000000000E+00  0.61269238608E+03  0.61269238608E+03  0.00000000000E+00 0. -1.
         -2   -1    0    0    0  501 -0.00000000000E+00 -0.00000000000E+00 -0.86431783042E+03  0.86431783042E+03  0.00000000000E+00 0.  1.
        -24    2    1    2    0    0  0.17159574887E+03 -0.39445512602E+03 -0.18890316600E+03  0.47649095891E+03  0.79493901175E+02 0.  0.
        254    2    1    2    0    0 -0.17159574887E+03  0.39445512602E+03 -0.62722278343E+02  0.10005192576E+04  0.90114635501E+03 0.  0.
         23    2    4    4    0    0  0.16027561703E+00  0.66125322780E+03 -0.29077095613E+02  0.66822570988E+03  0.91783794220E+02 0.  0.
         23    2    4    4    0    0 -0.17175602449E+03 -0.26679810179E+03 -0.33645182730E+02  0.33229354772E+03  0.92766612901E+02 0.  0.
          1    1    3    3  502    0  0.65138949740E+02 -0.16980173139E+03 -0.12216225466E+03  0.21908748759E+03  0.00000000000E+00 0. -1.
         -2    1    3    3    0  502  0.10645679913E+03 -0.22465339463E+03 -0.66740911341E+02  0.25740347131E+03  0.00000000000E+00 0.  1.
         13    1    5    5    0    0  0.66947323705E+01  0.10743599852E+03  0.28588612207E+02  0.11137603857E+03  0.00000000000E+00 0. -1.
        -13    1    5    5    0    0 -0.65344567535E+01  0.55381722928E+03 -0.57665707819E+02  0.55684967131E+03  0.00000000000E+00 0.  1.
          2    1    6    6  503    0 -0.10563486076E+03 -0.22411247439E+03 -0.28382883694E+01  0.24777647359E+03  0.00000000000E+00 0.  1.
         -2    1    6    6    0  503 -0.66121163723E+02 -0.42685627399E+02 -0.30806894361E+02  0.84517074125E+02  0.00000000000E+00 0. -1.
<mgrwt>
<rscale>  0 0.14554188E+04</rscale>
<asrwt>0</asrwt>
<pdfrwt beam="1">  1        1 0.94260367E-01 0.14554188E+04</pdfrwt>
<pdfrwt beam="2">  1       -2 0.13297197E+00 0.14554188E+04</pdfrwt>
<totfact> 0.11569243E+01</totfact>
</mgrwt>
</event>
<event>
12    5  0.5221187E-008  0.3462222E+04  0.7818608E-02  0.8122802E-01
         -2   -1    0    0    0  501 -0.00000000000E+00  0.00000000000E+00  0.16948470298E+04  0.16948470298E+04  0.00000000000E+00 0.  1.
          1   -1    0    0  501    0  0.00000000000E+00 -0.00000000000E+00 -0.17681504899E+04  0.17681504899E+04  0.00000000000E+00 0. -1.
        -24    2    1    2    0    0  0.58496210640E+03  0.47560914952E+03  0.13893689574E+04  0.15827682880E+04  0.80153757299E+02 0.  0.
        254    2    1    2    0    0 -0.58496210640E+03 -0.47560914952E+03 -0.14626724174E+04  0.18802292317E+04  0.90965193002E+03 0.  0.
         23    2    4    4    0    0 -0.14263869878E+03 -0.50915188827E+03 -0.12879733286E+04  0.13954211472E+04  0.93506357965E+02 0.  0.
         23    2    4    4    0    0 -0.44232340762E+03  0.33542738752E+02 -0.17469908880E+03  0.48480808448E+03  0.87999971001E+02 0.  0.
          3    1    3    3  502    0  0.29288372904E+03  0.23111315785E+03  0.60467590493E+03  0.71051187215E+03  0.00000000000E+00 0. -1.
         -4    1    3    3    0  502  0.29207837736E+03  0.24449599167E+03  0.78469305242E+03  0.87225641585E+03  0.00000000000E+00 0.  1.
         13    1    5    5    0    0 -0.11420693197E+03 -0.34084261553E+03 -0.76391856281E+03  0.84426801578E+03  0.00000000000E+00 0. -1.
        -13    1    5    5    0    0 -0.28431766813E+02 -0.16830927275E+03 -0.52405476583E+03  0.55115313140E+03  0.00000000000E+00 0.  1.
          3    1    6    6  503    0 -0.79192243723E+02  0.70098296426E+01 -0.70070894845E+02  0.10597395662E+03  0.00000000000E+00 0. -1.
         -3    1    6    6    0  503 -0.36313116390E+03  0.26532909109E+02 -0.10462819396E+03  0.37883412786E+03  0.00000000000E+00 0.  1.
<mgrwt>
<rscale>  0 0.34622216E+04</rscale>
<asrwt>0</asrwt>
<pdfrwt beam="1">  1        1 0.27202315E+00 0.34622216E+04</pdfrwt>
<pdfrwt beam="2">  1       -2 0.26074570E+00 0.34622216E+04</pdfrwt>
<totfact> 0.17005290E-01</totfact>
</mgrwt>
</event>
<event>
12    5  0.5221187E-008  0.1366049E+04  0.7818608E-02  0.8978767E-01
         -2   -1    0    0    0  501 -0.00000000000E+00  0.00000000000E+00  0.84383962523E+03  0.84383962523E+03  0.00000000000E+00 0.  1.
          1   -1    0    0  501    0  0.00000000000E+00 -0.00000000000E+00 -0.55285666065E+03  0.55285666065E+03  0.00000000000E+00 0. -1.
        -24    2    1    2    0    0 -0.10041536531E+03  0.88063582267E+02  0.43914243980E+03  0.46527161326E+03  0.76112755616E+02 0.  0.
        254    2    1    2    0    0  0.10041536531E+03 -0.88063582267E+02 -0.14815947522E+03  0.93142467261E+03  0.90981440445E+03 0.  0.
         23    2    4    4    0    0  0.35533253491E+03  0.21574105678E+03 -0.27294420937E+03  0.50568561627E+03  0.91727788210E+02 0.  0.
         23    2    4    4    0    0 -0.25491716959E+03 -0.30380463905E+03  0.12478473415E+03  0.42573905634E+03  0.91665108719E+02 0.  0.
          3    1    3    3  502    0 -0.36371021940E+02  0.12449429662E+02  0.46575271100E+02  0.60391186558E+02  0.00000000000E+00 0. -1.
         -4    1    3    3    0  502 -0.64044343374E+02  0.75614152605E+02  0.39256716870E+03  0.40488042671E+03  0.00000000000E+00 0.  1.
         13    1    5    5    0    0  0.31916158077E+03  0.21803818752E+03 -0.26481259040E+03  0.46854079213E+03  0.00000000000E+00 0.  1.
        -13    1    5    5    0    0  0.36170954139E+02 -0.22971307455E+01 -0.81316189641E+01  0.37144824135E+02  0.00000000000E+00 0. -1.
          4    1    6    6  503    0 -0.26920789726E+01 -0.18327142338E-02  0.15922187208E+02  0.16148168257E+02  0.00000000000E+00 0. -1.
         -4    1    6    6    0  503 -0.25222509062E+03 -0.30380280633E+03  0.10886254695E+03  0.40959088808E+03  0.00000000000E+00 0.  1.
<mgrwt>
<rscale>  0 0.13660488E+04</rscale>
<asrwt>0</asrwt>
<pdfrwt beam="1">  1        1 0.85054871E-01 0.13660488E+04</pdfrwt>
<pdfrwt beam="2">  1       -2 0.12982148E+00 0.13660488E+04</pdfrwt>
<totfact> 0.14346169E+01</totfact>
</mgrwt>
</event>
<event>
12    5  0.5221187E-008  0.1804581E+04  0.7818608E-02  0.8703867E-01
         -2   -1    0    0    0  501 -0.00000000000E+00  0.00000000000E+00  0.31153201892E+03  0.31153201892E+03  0.00000000000E+00 0.  1.
          1   -1    0    0  501    0  0.00000000000E+00 -0.00000000000E+00 -0.26133053856E+04  0.26133053856E+04  0.00000000000E+00 0. -1.
        -24    2    1    2    0    0  0.18280105851E+03  0.42059638077E+03 -0.16541437345E+04  0.17196472631E+04  0.10333282533E+03 0.  0.
        254    2    1    2    0    0 -0.18280105851E+03 -0.42059638077E+03 -0.64762963224E+03  0.12051901414E+04  0.90705104260E+03 0.  0.
         23    2    4    4    0    0 -0.19762421161E+03  0.71247738544E+02  0.14236678545E+03  0.26984079366E+03  0.91728856199E+02 0.  0.
         23    2    4    4    0    0  0.14823153101E+02 -0.49184411932E+03 -0.78999641769E+03  0.93534934775E+03  0.93025258934E+02 0.  0.
          1    1    3    3  502    0  0.16233474382E+03  0.39746143188E+03 -0.16063945989E+04  0.16627783274E+04  0.00000000000E+00 0. -1.
         -2    1    3    3    0  502  0.20466314694E+02  0.23134948898E+02 -0.47749135608E+02  0.56868935711E+02  0.00000000000E+00 0.  1.
         13    1    5    5    0    0 -0.13820444801E+03  0.41752654865E+02  0.14341019482E+03  0.20349505551E+03  0.00000000000E+00 0.  1.
        -13    1    5    5    0    0 -0.59419763603E+02  0.29495083678E+02 -0.10434093662E+01  0.66345738152E+02  0.00000000000E+00 0. -1.
          4    1    6    6  503    0 -0.31447589186E+02 -0.21598446374E+03 -0.39588471509E+03  0.45206520225E+03  0.00000000000E+00 0. -1.
         -4    1    6    6    0  503  0.46270742287E+02 -0.27585965558E+03 -0.39411170261E+03  0.48328414551E+03  0.00000000000E+00 0.  1.
<mgrwt>
<rscale>  0 0.18045812E+04</rscale>
<asrwt>0</asrwt>
<pdfrwt beam="1">  1        1 0.40204697E+00 0.18045812E+04</pdfrwt>
<pdfrwt beam="2">  1       -2 0.47928004E-01 0.18045812E+04</pdfrwt>
<totfact> 0.38645901E+00</totfact>
</mgrwt>
</event>
<event>
12    5  0.5221187E-008  0.2078666E+04  0.7818608E-02  0.8570700E-01
         -2   -1    0    0    0  501 -0.00000000000E+00  0.00000000000E+00  0.37823076834E+03  0.37823076834E+03  0.00000000000E+00 0.  1.
          1   -1    0    0  501    0  0.00000000000E+00 -0.00000000000E+00 -0.28559621319E+04  0.28559621319E+04  0.00000000000E+00 0. -1.
        -24    2    1    2    0    0  0.25438436999E+03 -0.52560794070E+03 -0.19417256756E+04  0.20290614525E+04  0.76267055056E+02 0.  0.
        254    2    1    2    0    0 -0.25438436999E+03  0.52560794070E+03 -0.53600568796E+03  0.12051314477E+04  0.90778003602E+03 0.  0.
         23    2    4    4    0    0 -0.39217000605E+03  0.67917293398E+03 -0.57522253651E+03  0.97675946891E+03  0.90027249847E+02 0.  0.
         23    2    4    4    0    0  0.13778563606E+03 -0.15356499328E+03  0.39216848546E+02  0.22837197883E+03  0.89714607730E+02 0.  0.
          3    1    3    3  502    0  0.17192802650E+03 -0.42720211449E+03 -0.15216381867E+04  0.15897935917E+04  0.00000000000E+00 0. -1.
         -4    1    3    3    0  502  0.82456343485E+02 -0.98405826208E+02 -0.42008748882E+03  0.43926786073E+03  0.00000000000E+00 0.  1.
         13    1    5    5    0    0 -0.30728461285E+03  0.52302866233E+03 -0.39645180071E+03  0.72467706270E+03  0.00000000000E+00 0. -1.
        -13    1    5    5    0    0 -0.84885393196E+02  0.15614427165E+03 -0.17877073579E+03  0.25208240621E+03  0.00000000000E+00 0.  1.
          1    1    6    6  503    0  0.87222699494E+01  0.32399178315E+01  0.22794146126E+02  0.24620076325E+02  0.00000000000E+00 0. -1.
         -1    1    6    6    0  503  0.12906336612E+03 -0.15680491111E+03  0.16422702420E+02  0.20375190251E+03  0.00000000000E+00 0.  1.
<mgrwt>
<rscale>  0 0.20786657E+04</rscale>
<asrwt>0</asrwt>
<pdfrwt beam="1">  1        1 0.43937879E+00 0.20786657E+04</pdfrwt>
<pdfrwt beam="2">  1       -2 0.58189349E-01 0.20786657E+04</pdfrwt>
<totfact> 0.17017075E+00</totfact>
</mgrwt>
</event>
<event>
12    5  0.5221187E-008  0.1488979E+04  0.7818608E-02  0.8891815E-01
         -2   -1    0    0    0  501 -0.00000000000E+00  0.00000000000E+00  0.35738589932E+03  0.35738589932E+03  0.00000000000E+00 0.  1.
          1   -1    0    0  501    0  0.00000000000E+00 -0.00000000000E+00 -0.15508865343E+04  0.15508865343E+04  0.00000000000E+00 0. -1.
        -24    2    1    2    0    0 -0.39929829032E+03  0.11340609392E+03 -0.15121381375E+03  0.45012914913E+03  0.86316664897E+02 0.  0.
        254    2    1    2    0    0  0.39929829032E+03 -0.11340609392E+03 -0.10422868212E+04  0.14581432845E+04  0.93140751211E+03 0.  0.
         23    2    4    4    0    0  0.41573949726E+03 -0.48065091281E+03 -0.63160296237E+03  0.90039400434E+03  0.89008041229E+02 0.  0.
         23    2    4    4    0    0 -0.16441206939E+02  0.36724481889E+03 -0.41068385887E+03  0.55774928016E+03  0.85346103010E+02 0.  0.
          3    1    3    3  502    0 -0.26658532786E+02  0.21223919058E+02 -0.35472636392E+02  0.49187803804E+02  0.00000000000E+00 0. -1.
         -4    1    3    3    0  502 -0.37263975753E+03  0.92182174863E+02 -0.11574117736E+03  0.40094134533E+03  0.00000000000E+00 0.  1.
         13    1    5    5    0    0  0.31465739415E+03 -0.34487910046E+03 -0.51349213141E+03  0.69399210272E+03  0.00000000000E+00 0. -1.
        -13    1    5    5    0    0  0.10108210311E+03 -0.13577181235E+03 -0.11811083096E+03  0.20640190161E+03  0.00000000000E+00 0.  1.
          3    1    6    6  503    0 -0.39609786493E+02  0.24447460574E+03 -0.22938740948E+03  0.33757273537E+03  0.00000000000E+00 0. -1.
         -3    1    6    6    0  503  0.23168579554E+02  0.12277021316E+03 -0.18129644939E+03  0.22017654480E+03  0.00000000000E+00 0.  1.
<mgrwt>
<rscale>  0 0.14889795E+04</rscale>
<asrwt>0</asrwt>
<pdfrwt beam="1">  1        1 0.23859793E+00 0.14889795E+04</pdfrwt>
<pdfrwt beam="2">  1       -2 0.54982446E-01 0.14889795E+04</pdfrwt>
<totfact> 0.15944226E+01</totfact>
</mgrwt>
</event>
<event>
12    5  0.5221187E-008  0.1295276E+04  0.7818608E-02  0.9033320E-01
          1   -1    0    0  501    0  0.00000000000E+00  0.00000000000E+00  0.20405585689E+04  0.20405585689E+04  0.00000000000E+00 0. -1.
         -2   -1    0    0    0  501 -0.00000000000E+00 -0.00000000000E+00 -0.20554900901E+03  0.20554900901E+03  0.00000000000E+00 0.  1.
        -24    2    1    2    0    0  0.14116065889E+03 -0.21900126894E+03  0.80243217235E+03  0.84751829972E+03  0.80634916261E+02 0.  0.
        254    2    1    2    0    0 -0.14116065889E+03  0.21900126894E+03  0.10325773876E+04  0.13985892782E+04  0.90661349010E+03 0.  0.
         23    2    4    4    0    0  0.23425186266E+03 -0.23633545619E+03  0.40766384500E+03  0.53422476096E+03  0.92075521643E+02 0.  0.
         23    2    4    4    0    0 -0.37541252156E+03  0.45533672512E+03  0.62491354257E+03  0.86436451727E+03  0.91339960799E+02 0.  0.
          3    1    3    3  502    0  0.87693439748E+02 -0.13864925322E+03  0.61743244804E+03  0.63885568220E+03  0.00000000000E+00 0. -1.
         -4    1    3    3    0  502  0.53467219146E+02 -0.80352015716E+02  0.18499972431E+03  0.20866261752E+03  0.00000000000E+00 0.  1.
         13    1    5    5    0    0  0.16184908367E+03 -0.20955453574E+03  0.34438611555E+03  0.43440767249E+03  0.00000000000E+00 0.  1.
        -13    1    5    5    0    0  0.72402778991E+02 -0.26780920448E+02  0.63277729453E+02  0.99817088469E+02  0.00000000000E+00 0. -1.
          1    1    6    6  503    0 -0.26003931741E+03  0.25462992879E+03  0.34962001272E+03  0.50466919911E+03  0.00000000000E+00 0. -1.
         -1    1    6    6    0  503 -0.11537320415E+03  0.20070679633E+03  0.27529352986E+03  0.35969531817E+03  0.00000000000E+00 0.  1.
<mgrwt>
<rscale>  0 0.12952757E+04</rscale>
<asrwt>0</asrwt>
<pdfrwt beam="1">  1        1 0.31393207E+00 0.12952757E+04</pdfrwt>
<pdfrwt beam="2">  1       -2 0.31622926E-01 0.12952757E+04</pdfrwt>
<totfact> 0.22451731E+01</totfact>
</mgrwt>
</event>
<event>
12    5  0.5221187E-008  0.1462600E+04  0.7818608E-02  0.8909712E-01
          1   -1    0    0  501    0  0.00000000000E+00  0.00000000000E+00  0.20723517984E+04  0.20723517984E+04  0.00000000000E+00 0. -1.
         -2   -1    0    0    0  501 -0.00000000000E+00 -0.00000000000E+00 -0.25806401690E+03  0.25806401690E+03  0.00000000000E+00 0.  1.
        -24    2    1    2    0    0 -0.31488479155E+03  0.59705998656E+02  0.68526025646E+02  0.33758427218E+03  0.80932604070E+02 0.  0.
        254    2    1    2    0    0  0.31488479155E+03 -0.59705998656E+02  0.17457617558E+04  0.19928315431E+04  0.90607737685E+03 0.  0.
         23    2    4    4    0    0  0.45557945107E+03  0.26317475415E+03  0.66634767216E+03  0.85381172949E+03  0.90341915900E+02 0.  0.
         23    2    4    4    0    0 -0.14069465952E+03 -0.32288075280E+03  0.10794140837E+04  0.11390198136E+04  0.90467696023E+02 0.  0.
          3    1    3    3  502    0 -0.29889000301E+02 -0.10394051369E+02 -0.11013875447E+02  0.33506627631E+02  0.00000000000E+00 0. -1.
         -4    1    3    3    0  502 -0.28499579125E+03  0.70100050025E+02  0.79539901094E+02  0.30407764454E+03  0.00000000000E+00 0.  1.
         13    1    5    5    0    0  0.48025449240E+02  0.74835877122E+01  0.34339842657E+02  0.59511953870E+02  0.00000000000E+00 0.  1.
        -13    1    5    5    0    0  0.40755400183E+03  0.25569116643E+03  0.63200782950E+03  0.79429977562E+03  0.00000000000E+00 0. -1.
          1    1    6    6  503    0 -0.73224187889E+02 -0.26283492716E+03  0.83533806146E+03  0.87876826157E+03  0.00000000000E+00 0. -1.
         -1    1    6    6    0  503 -0.67470471630E+02 -0.60045825647E+02  0.24407602220E+03  0.26025155203E+03  0.00000000000E+00 0.  1.
<mgrwt>
<rscale>  0 0.14625996E+04</rscale>
<asrwt>0</asrwt>
<pdfrwt beam="1">  1        1 0.31882334E+00 0.14625996E+04</pdfrwt>
<pdfrwt beam="2">  1       -2 0.39702158E-01 0.14625996E+04</pdfrwt>
<totfact> 0.13617358E+01</totfact>
</mgrwt>
</event>
<event>
12    5  0.6172080E-008  0.1862129E+04  0.7818608E-02  0.8673940E-01
         -2   -1    0    0    0  501 -0.00000000000E+00  0.00000000000E+00  0.10469824412E+04  0.10469824412E+04  0.00000000000E+00 0.  1.
          1   -1    0    0  501    0  0.00000000000E+00 -0.00000000000E+00 -0.82798076299E+03  0.82798076299E+03  0.00000000000E+00 0. -1.
        -24    2    1    2    0    0  0.46286955980E+03 -0.50100263039E+03  0.31358753818E+03  0.75843502756E+03  0.10786418257E+03 0.  0.
        254    2    1    2    0    0 -0.46286955980E+03  0.50100263039E+03 -0.94585859997E+02  0.11165281766E+04  0.87888384852E+03 0.  0.
         23    2    4    4    0    0 -0.35114584291E+03  0.57547564943E+03 -0.38568006052E+03  0.78228363568E+03  0.93503751124E+02 0.  0.
         23    2    4    4    0    0 -0.11172371689E+03 -0.74473019040E+02  0.29109420052E+03  0.33424454093E+03  0.94631707591E+02 0.  0.
          1    1    3    3  502    0  0.55533162867E+02 -0.76870029505E+02  0.85529924612E+02  0.12770396086E+03  0.00000000000E+00 0. -1.
         -2    1    3    3    0  502  0.40733639693E+03 -0.42413260089E+03  0.22805761357E+03  0.63073106671E+03  0.00000000000E+00 0.  1.
         13    1    5    5    0    0 -0.25752728618E+02  0.11716236232E+02 -0.26845597273E+02  0.39002042455E+02  0.00000000000E+00 0. -1.
        -13    1    5    5    0    0 -0.32539311429E+03  0.56375941320E+03 -0.35883446325E+03  0.74328159322E+03  0.00000000000E+00 0.  1.
          1    1    6    6  503    0 -0.98771047247E+02 -0.95669822602E+02  0.22567930441E+03  0.26427179791E+03  0.00000000000E+00 0. -1.
         -1    1    6    6    0  503 -0.12952669640E+02  0.21196803562E+02  0.65414896116E+02  0.69972743021E+02  0.00000000000E+00 0.  1.
<mgrwt>
<rscale>  0 0.18621292E+04</rscale>
<asrwt>0</asrwt>
<pdfrwt beam="1">  1        1 0.12738166E+00 0.18621292E+04</pdfrwt>
<pdfrwt beam="2">  1       -2 0.16107422E+00 0.18621292E+04</pdfrwt>
<totfact> 0.42517172E+00</totfact>
</mgrwt>
</event>
<event>
12    5  0.5221187E-008  0.1554417E+04  0.7818608E-02  0.8849052E-01
         -2   -1    0    0    0  501 -0.00000000000E+00  0.00000000000E+00  0.48641200769E+03  0.48641200769E+03  0.00000000000E+00 0.  1.
          1   -1    0    0  501    0  0.00000000000E+00 -0.00000000000E+00 -0.12418540659E+04  0.12418540659E+04  0.00000000000E+00 0. -1.
        -24    2    1    2    0    0  0.13511332917E+03  0.30337114339E+03  0.18440522137E+03  0.38805530073E+03  0.79321928813E+02 0.  0.
        254    2    1    2    0    0 -0.13511332917E+03 -0.30337114339E+03 -0.93984727962E+03  0.13402107729E+04  0.89585843994E+03 0.  0.
         23    2    4    4    0    0 -0.32275430943E+03  0.14673057887E+03 -0.12499038273E+03  0.38625906699E+03  0.88731415070E+02 0.  0.
         23    2    4    4    0    0  0.18764098027E+03 -0.45010172226E+03 -0.81485689689E+03  0.95395170591E+03  0.90727046322E+02 0.  0.
          1    1    3    3  502    0  0.11308105708E+03  0.16660078301E+03  0.90916272977E+02  0.22092739772E+03  0.00000000000E+00 0. -1.
         -2    1    3    3    0  502  0.22032272088E+02  0.13677036038E+03  0.93488948396E+02  0.16712790301E+03  0.00000000000E+00 0.  1.
         13    1    5    5    0    0 -0.31736894387E+03  0.13370137763E+03 -0.10178910118E+03  0.35911018648E+03  0.00000000000E+00 0.  1.
        -13    1    5    5    0    0 -0.53853655591E+01  0.13029201241E+02 -0.23201281546E+02  0.27148880503E+02  0.00000000000E+00 0. -1.
          4    1    6    6  503    0  0.17921529880E+02 -0.66523720805E+01 -0.51925653025E+02  0.55332709401E+02  0.00000000000E+00 0. -1.
         -4    1    6    6    0  503  0.16971945039E+03 -0.44344935018E+03 -0.76293124387E+03  0.89861899651E+03  0.00000000000E+00 0.  1.
<mgrwt>
<rscale>  0 0.15544166E+04</rscale>
<asrwt>0</asrwt>
<pdfrwt beam="1">  1        1 0.19105447E+00 0.15544166E+04</pdfrwt>
<pdfrwt beam="2">  1       -2 0.74832617E-01 0.15544166E+04</pdfrwt>
<totfact> 0.13503835E+01</totfact>
</mgrwt>
</event>
<event>
12    5  0.5221187E-008  0.2647637E+04  0.7818608E-02  0.8352198E-01
          1   -1    0    0  501    0  0.00000000000E+00  0.00000000000E+00  0.17560066223E+04  0.17560066223E+04  0.00000000000E+00 0. -1.
         -2   -1    0    0    0  501 -0.00000000000E+00 -0.00000000000E+00 -0.99800080494E+03  0.99800080494E+03  0.00000000000E+00 0.  1.
        -24    2    1    2    0    0  0.63827010478E+03 -0.94227224166E+03  0.62087112960E+03  0.12988719770E+04  0.79509427902E+02 0.  0.
        254    2    1    2    0    0 -0.63827010478E+03  0.94227224166E+03  0.13713468780E+03  0.14551354502E+04  0.89629657586E+03 0.  0.
         23    2    4    4    0    0 -0.53960037307E+03  0.65312267166E+03 -0.30932170195E+03  0.90664950453E+03  0.92712576965E+02 0.  0.
         23    2    4    4    0    0 -0.98669731715E+02  0.28914957000E+03  0.44645638975E+03  0.54848594571E+03  0.90389904876E+02 0.  0.
          1    1    3    3  502    0  0.46577990763E+03 -0.67567570973E+03  0.40712110543E+03  0.91609834710E+03  0.00000000000E+00 0. -1.
         -2    1    3    3    0  502  0.17249019715E+03 -0.26659653192E+03  0.21375002417E+03  0.38277362994E+03  0.00000000000E+00 0.  1.
         13    1    5    5    0    0 -0.32838017354E+02  0.60196293564E+02 -0.49356694848E+02  0.84486759134E+02  0.00000000000E+00 0.  1.
        -13    1    5    5    0    0 -0.50676235571E+03  0.59292637809E+03 -0.25996500710E+03  0.82216274540E+03  0.00000000000E+00 0. -1.
          4    1    6    6  503    0 -0.10744218584E+01  0.14214477423E+03  0.20148040448E+03  0.24657786724E+03  0.00000000000E+00 0. -1.
         -4    1    6    6    0  503 -0.97595309857E+02  0.14700479576E+03  0.24497598527E+03  0.30190807847E+03  0.00000000000E+00 0.  1.
<mgrwt>
<rscale>  0 0.26476375E+04</rscale>
<asrwt>0</asrwt>
<pdfrwt beam="1">  1        1 0.27015486E+00 0.26476375E+04</pdfrwt>
<pdfrwt beam="2">  1       -2 0.15353859E+00 0.26476375E+04</pdfrwt>
<totfact> 0.94714497E-01</totfact>
</mgrwt>
</event>
<event>
12    5  0.5221187E-008  0.1424575E+04  0.7818608E-02  0.8936220E-01
          3   -1    0    0  501    0  0.00000000000E+00  0.00000000000E+00  0.30423113942E+03  0.30423113942E+03  0.00000000000E+00 0. -1.
         -4   -1    0    0    0  501 -0.00000000000E+00 -0.00000000000E+00 -0.16676571426E+04  0.16676571426E+04  0.00000000000E+00 0.  1.
        -24    2    1    2    0    0 -0.22860935858E+03 -0.18162552674E+03  0.28690713045E+01  0.30244975608E+03  0.78851459022E+02 0.  0.
        254    2    1    2    0    0  0.22860935858E+03  0.18162552674E+03 -0.13662950745E+04  0.16694385259E+04  0.91379028806E+03 0.  0.
         23    2    4    4    0    0 -0.10987971933E+03  0.17306319832E+03  0.32950251434E+02  0.22630960657E+03  0.90032747504E+02 0.  0.
         23    2    4    4    0    0  0.33848907791E+03  0.85623284152E+01 -0.13992453259E+04  0.14431289194E+04  0.10042622417E+03 0.  0.
          1    1    3    3  502    0 -0.21029675042E+03 -0.17903255514E+03  0.20439728519E+02  0.27693891301E+03  0.00000000000E+00 0. -1.
         -2    1    3    3    0  502 -0.18312608156E+02 -0.25929716021E+01 -0.17570657215E+02  0.25510843070E+02  0.00000000000E+00 0.  1.
         13    1    5    5    0    0 -0.19179609531E+02  0.82909577667E+02  0.47737224144E+02  0.97574064482E+02  0.00000000000E+00 0. -1.
        -13    1    5    5    0    0 -0.90700109799E+02  0.90153620657E+02 -0.14786972710E+02  0.12873554209E+03  0.00000000000E+00 0.  1.
          3    1    6    6  503    0  0.31898677975E+03  0.31816195941E+01 -0.13751541321E+04  0.14116697827E+04  0.00000000000E+00 0. -1.
         -3    1    6    6    0  503  0.19502298161E+02  0.53807088211E+01 -0.24091193836E+02  0.31459136692E+02  0.00000000000E+00 0.  1.
<mgrwt>
<rscale>  0 0.14245746E+04</rscale>
<asrwt>0</asrwt>
<pdfrwt beam="1">  1        3 0.46804789E-01 0.14245746E+04</pdfrwt>
<pdfrwt beam="2">  1       -4 0.25656264E+00 0.14245746E+04</pdfrwt>
<totfact> 0.58158132E-01</totfact>
</mgrwt>
</event>
<event>
12    5  0.5221187E-008  0.1826309E+04  0.7818608E-02  0.8692433E-01
         -2   -1    0    0    0  501 -0.00000000000E+00  0.00000000000E+00  0.11788139701E+04  0.11788139701E+04  0.00000000000E+00 0.  1.
          1   -1    0    0  501    0  0.00000000000E+00 -0.00000000000E+00 -0.70736413115E+03  0.70736413115E+03  0.00000000000E+00 0. -1.
        -24    2    1    2    0    0  0.53042429180E+03 -0.36344889765E+03 -0.44291422172E+02  0.64946990189E+03  0.80027450526E+02 0.  0.
        254    2    1    2    0    0 -0.53042429180E+03  0.36344889765E+03  0.51574126114E+03  0.12367081994E+04  0.92196154552E+03 0.  0.
         23    2    4    4    0    0  0.18760211661E+03 -0.12233644044E+03  0.18856003727E+03  0.30674920675E+03  0.91539223131E+02 0.  0.
         23    2    4    4    0    0 -0.71802640841E+03  0.48578533809E+03  0.32718122386E+03  0.92995899262E+03  0.78910435444E+02 0.  0.
          3    1    3    3  502    0  0.36481359903E+02 -0.33402071254E+02  0.16884834291E+02  0.52265529878E+02  0.00000000000E+00 0. -1.
         -4    1    3    3    0  502  0.49394293190E+03 -0.33004682640E+03 -0.61176256462E+02  0.59720437201E+03  0.00000000000E+00 0.  1.
         13    1    5    5    0    0  0.10763106749E+03 -0.97511593727E+02  0.69023182046E+02  0.16080160838E+03  0.00000000000E+00 0.  1.
        -13    1    5    5    0    0  0.79971049127E+02 -0.24824846713E+02  0.11953685522E+03  0.14594759837E+03  0.00000000000E+00 0. -1.
          1    1    6    6  503    0 -0.62581054738E+03  0.44277505607E+03  0.26718427411E+03  0.81183497574E+03  0.00000000000E+00 0. -1.
         -1    1    6    6    0  503 -0.92215861030E+02  0.43010282020E+02  0.59996949759E+02  0.11812401689E+03  0.00000000000E+00 0.  1.
<mgrwt>
<rscale>  0 0.18263085E+04</rscale>
<asrwt>0</asrwt>
<pdfrwt beam="1">  1        1 0.10882525E+00 0.18263085E+04</pdfrwt>
<pdfrwt beam="2">  1       -2 0.18135600E+00 0.18263085E+04</pdfrwt>
<totfact> 0.39207458E+00</totfact>
</mgrwt>
</event>
<event>
12    5  0.5221187E-008  0.1600632E+04  0.7818608E-02  0.8820160E-01
          1   -1    0    0  501    0  0.00000000000E+00  0.00000000000E+00  0.14218706445E+04  0.14218706445E+04  0.00000000000E+00 0. -1.
         -2   -1    0    0    0  501 -0.00000000000E+00 -0.00000000000E+00 -0.45046694864E+03  0.45046694864E+03  0.00000000000E+00 0.  1.
        -24    2    1    2    0    0  0.45917158027E+03 -0.64672712059E+02  0.64947727461E+03  0.80175522724E+03  0.77263279559E+02 0.  0.
        254    2    1    2    0    0 -0.45917158027E+03  0.64672712059E+02  0.32192642121E+03  0.10705823659E+04  0.90966415868E+03 0.  0.
         23    2    4    4    0    0  0.25924823363E+03 -0.56981705881E+02  0.14237620166E+03  0.31467359313E+03  0.91060013024E+02 0.  0.
         23    2    4    4    0    0 -0.71841981389E+03  0.12165441794E+03  0.17955021954E+03  0.75590877272E+03  0.90735687218E+02 0.  0.
          3    1    3    3  502    0  0.33693545244E+03 -0.23419525280E+02  0.51064073253E+03  0.61223192582E+03  0.00000000000E+00 0. -1.
         -4    1    3    3    0  502  0.12223612783E+03 -0.41253186780E+02  0.13883654208E+03  0.18952330142E+03  0.00000000000E+00 0.  1.
         13    1    5    5    0    0  0.13803731344E+03 -0.69195815250E+02  0.10684977384E+03  0.18777442562E+03  0.00000000000E+00 0.  1.
        -13    1    5    5    0    0  0.12121092019E+03  0.12214109369E+02  0.35526427827E+02  0.12689916751E+03  0.00000000000E+00 0. -1.
          4    1    6    6  503    0 -0.53888556067E+03  0.52979447631E+02  0.14554956803E+03  0.56070415205E+03  0.00000000000E+00 0. -1.
         -4    1    6    6    0  503 -0.17953425322E+03  0.68674970309E+02  0.34000651507E+02  0.19520462067E+03  0.00000000000E+00 0.  1.
<mgrwt>
<rscale>  0 0.16006320E+04</rscale>
<asrwt>0</asrwt>
<pdfrwt beam="1">  1        1 0.21874933E+00 0.16006320E+04</pdfrwt>
<pdfrwt beam="2">  1       -2 0.69302608E-01 0.16006320E+04</pdfrwt>
<totfact> 0.11861787E+01</totfact>
</mgrwt>
</event>
<event>
12    5  0.5221187E-008  0.1347973E+04  0.7818608E-02  0.8992364E-01
         -2   -1    0    0    0  501 -0.00000000000E+00  0.00000000000E+00  0.37721223611E+03  0.37721223611E+03  0.00000000000E+00 0.  1.
          1   -1    0    0  501    0  0.00000000000E+00 -0.00000000000E+00 -0.12042506440E+04  0.12042506440E+04  0.00000000000E+00 0. -1.
        -24    2    1    2    0    0  0.16898369791E+03  0.85173516856E+02 -0.55561915189E+03  0.59254014290E+03  0.81124354320E+02 0.  0.
        254    2    1    2    0    0 -0.16898369791E+03 -0.85173516856E+02 -0.27141925598E+03  0.98892273719E+03  0.93192797441E+03 0.  0.
         23    2    4    4    0    0 -0.33830829545E+03  0.19448196731E+03 -0.45200709306E+03  0.60400603934E+03  0.90758718588E+02 0.  0.
         23    2    4    4    0    0  0.16932459754E+03 -0.27965548417E+03  0.18058783707E+03  0.38491669785E+03  0.93117604286E+02 0.  0.
          1    1    3    3  502    0  0.12698267770E+03  0.46956986183E+02 -0.47508351144E+03  0.49399787634E+03  0.00000000000E+00 0. -1.
         -2    1    3    3    0  502  0.42001020209E+02  0.38216530672E+02 -0.80535640453E+02  0.98542266558E+02  0.00000000000E+00 0.  1.
         13    1    5    5    0    0 -0.11338395195E+01  0.82328112205E+00  0.42873321458E+01  0.45104989514E+01  0.00000000000E+00 0.  1.
        -13    1    5    5    0    0 -0.33717445594E+03  0.19365868619E+03 -0.45629442520E+03  0.59949554039E+03  0.00000000000E+00 0. -1.
          3    1    6    6  503    0  0.17066793699E+03 -0.28583115195E+03  0.18028572065E+03  0.37858939924E+03  0.00000000000E+00 0. -1.
         -3    1    6    6    0  503 -0.13433394521E+01  0.61756677822E+01  0.30211642281E+00  0.63272986158E+01  0.00000000000E+00 0.  1.
<mgrwt>
<rscale>  0 0.13479734E+04</rscale>
<asrwt>0</asrwt>
<pdfrwt beam="1">  1        1 0.18526933E+00 0.13479734E+04</pdfrwt>
<pdfrwt beam="2">  1       -2 0.58032653E-01 0.13479734E+04</pdfrwt>
<totfact> 0.25311405E+01</totfact>
</mgrwt>
</event>
<event>
12    5  0.5221187E-008  0.1922829E+04  0.7818608E-02  0.8643576E-01
          1   -1    0    0  501    0  0.00000000000E+00  0.00000000000E+00  0.13942778976E+04  0.13942778976E+04  0.00000000000E+00 0. -1.
         -2   -1    0    0    0  501 -0.00000000000E+00 -0.00000000000E+00 -0.66293646503E+03  0.66293646503E+03  0.00000000000E+00 0.  1.
        -24    2    1    2    0    0 -0.26252839407E+03 -0.50537939285E+03  0.79684272882E+03  0.98259475590E+03  0.78769482884E+02 0.  0.
        254    2    1    2    0    0  0.26252839407E+03  0.50537939285E+03 -0.65501296263E+02  0.10746196067E+04  0.90894850839E+03 0.  0.
         23    2    4    4    0    0  0.15469742220E+03 -0.54227220675E+02  0.32722083768E+03  0.37714960363E+03  0.91084921951E+02 0.  0.
         23    2    4    4    0    0  0.10783097187E+03  0.55960661353E+03 -0.39272213395E+03  0.69747000308E+03  0.86293976071E+02 0.  0.
          1    1    3    3  502    0 -0.24588779701E+03 -0.45164070734E+03  0.67657228304E+03  0.84981774012E+03  0.00000000000E+00 0. -1.
         -2    1    3    3    0  502 -0.16640597061E+02 -0.53738685513E+02  0.12027044578E+03  0.13277701578E+03  0.00000000000E+00 0.  1.
         13    1    5    5    0    0  0.16044791989E+03 -0.30877984841E+02  0.28114182992E+03  0.32517335911E+03  0.00000000000E+00 0. -1.
        -13    1    5    5    0    0 -0.57504976921E+01 -0.23349235834E+02  0.46079007766E+02  0.51976244521E+02  0.00000000000E+00 0.  1.
          3    1    6    6  503    0  0.21596374585E+02  0.19232539028E+03 -0.18031545908E+03  0.26451677437E+03  0.00000000000E+00 0. -1.
         -3    1    6    6    0  503  0.86234597290E+02  0.36728122325E+03 -0.21240667487E+03  0.43295322871E+03  0.00000000000E+00 0.  1.
<mgrwt>
<rscale>  0 0.19228288E+04</rscale>
<asrwt>0</asrwt>
<pdfrwt beam="1">  1        1 0.21450429E+00 0.19228288E+04</pdfrwt>
<pdfrwt beam="2">  1       -2 0.10199023E+00 0.19228288E+04</pdfrwt>
<totfact> 0.50079766E+00</totfact>
</mgrwt>
</event>
<event>
12    5  0.5221187E-008  0.1204767E+04  0.7818608E-02  0.9108694E-01
         -2   -1    0    0    0  501 -0.00000000000E+00  0.00000000000E+00  0.14710745609E+03  0.14710745609E+03  0.00000000000E+00 0.  1.
          1   -1    0    0  501    0  0.00000000000E+00 -0.00000000000E+00 -0.24666709487E+04  0.24666709487E+04  0.00000000000E+00 0. -1.
        -24    2    1    2    0    0  0.85736736242E+02  0.18175851031E+03 -0.87838442390E+03  0.90605775710E+03  0.94839438193E+02 0.  0.
        254    2    1    2    0    0 -0.85736736242E+02 -0.18175851031E+03 -0.14411790687E+04  0.17077206477E+04  0.89382646997E+03 0.  0.
         23    2    4    4    0    0  0.25550494944E+03  0.32059002722E+02 -0.11944903427E+04  0.12252838922E+04  0.90569745579E+02 0.  0.
         23    2    4    4    0    0 -0.34124168568E+03 -0.21381751303E+03 -0.24668872601E+03  0.48243675550E+03  0.98620883095E+02 0.  0.
          1    1    3    3  502    0  0.14572051813E+02  0.98933418669E+02 -0.57473664463E+03  0.58337155973E+03  0.00000000000E+00 0. -1.
         -2    1    3    3    0  502  0.71164684429E+02  0.82825091642E+02 -0.30364777927E+03  0.32268619736E+03  0.00000000000E+00 0.  1.
         13    1    5    5    0    0 -0.63039805860E+01  0.53413550428E+01 -0.65922683620E+02  0.66438471239E+02  0.00000000000E+00 0. -1.
        -13    1    5    5    0    0  0.26180893003E+03  0.26717647679E+02 -0.11285676591E+04  0.11588454209E+04  0.00000000000E+00 0.  1.
          1    1    6    6  503    0 -0.22795305404E+01  0.87142316815E+01 -0.38225994311E+01  0.97850068827E+01  0.00000000000E+00 0. -1.
         -1    1    6    6    0  503 -0.33896215514E+03 -0.22253174472E+03 -0.24286612658E+03  0.47265174861E+03  0.00000000000E+00 0.  1.
<mgrwt>
<rscale>  0 0.12047667E+04</rscale>
<asrwt>0</asrwt>
<pdfrwt beam="1">  1        1 0.37948785E+00 0.12047667E+04</pdfrwt>
<pdfrwt beam="2">  1       -2 0.22631916E-01 0.12047667E+04</pdfrwt>
<totfact> 0.21429166E+01</totfact>
</mgrwt>
</event>
<event>
12    5  0.5221187E-008  0.1769028E+04  0.7818608E-02  0.8722945E-01
          1   -1    0    0  501    0  0.00000000000E+00  0.00000000000E+00  0.62274536659E+03  0.62274536659E+03  0.00000000000E+00 0. -1.
         -2   -1    0    0    0  501 -0.00000000000E+00 -0.00000000000E+00 -0.12563165672E+04  0.12563165672E+04  0.00000000000E+00 0.  1.
        -24    2    1    2    0    0 -0.15761955045E+03  0.33020107488E+03  0.33795969475E+03  0.50452373004E+03  0.80316663038E+02 0.  0.
        254    2    1    2    0    0  0.15761955045E+03 -0.33020107488E+03 -0.97153089535E+03  0.13745382037E+04  0.90089195823E+03 0.  0.
         23    2    4    4    0    0 -0.20094775010E+03 -0.49908889237E+03 -0.41608508724E+03  0.68620648537E+03  0.91009999376E+02 0.  0.
         23    2    4    4    0    0  0.35856730055E+03  0.16888781749E+03 -0.55544580811E+03  0.68833171837E+03  0.90481516630E+02 0.  0.
          3    1    3    3  502    0 -0.15699654370E+03  0.27388471244E+03  0.26379413699E+03  0.41139773595E+03  0.00000000000E+00 0. -1.
         -4    1    3    3    0  502 -0.62300675411E+00  0.56316362443E+02  0.74165557761E+02  0.93125994084E+02  0.00000000000E+00 0.  1.
         13    1    5    5    0    0 -0.18170354782E+03 -0.48509434947E+03 -0.37785554642E+03  0.64117666921E+03  0.00000000000E+00 0.  1.
        -13    1    5    5    0    0 -0.19244202275E+02 -0.13994542898E+02 -0.38229540820E+02  0.45029816160E+02  0.00000000000E+00 0. -1.
          3    1    6    6  503    0  0.45658515203E+01  0.57638193748E+01 -0.47520318967E+02  0.48085853726E+02  0.00000000000E+00 0. -1.
         -3    1    6    6    0  503  0.35400144903E+03  0.16312399812E+03 -0.50792548914E+03  0.64024586464E+03  0.00000000000E+00 0.  1.
<mgrwt>
<rscale>  0 0.17690283E+04</rscale>
<asrwt>0</asrwt>
<pdfrwt beam="1">  1        1 0.95806981E-01 0.17690283E+04</pdfrwt>
<pdfrwt beam="2">  1       -2 0.19327947E+00 0.17690283E+04</pdfrwt>
<totfact> 0.39563826E+00</totfact>
</mgrwt>
</event>
<event>
12    5  0.5221187E-008  0.2018873E+04  0.7818608E-02  0.8597848E-01
         -2   -1    0    0    0  501 -0.00000000000E+00  0.00000000000E+00  0.43498016870E+03  0.43498016870E+03  0.00000000000E+00 0.  1.
          1   -1    0    0  501    0  0.00000000000E+00 -0.00000000000E+00 -0.23425478630E+04  0.23425478630E+04  0.00000000000E+00 0. -1.
        -24    2    1    2    0    0 -0.44634788945E+02 -0.75571692558E+03 -0.41825634205E+03  0.86895417281E+03  0.83920502833E+02 0.  0.
        254    2    1    2    0    0  0.44634788945E+02  0.75571692558E+03 -0.14893113522E+04  0.19085738588E+04  0.92277057544E+03 0.  0.
         23    2    4    4    0    0 -0.14103542491E+03  0.23937813560E+03 -0.12816078003E+04  0.13147759642E+04  0.94469038917E+02 0.  0.
         23    2    4    4    0    0  0.18567021385E+03  0.51633878998E+03 -0.20770355188E+03  0.59379789464E+03  0.91520488830E+02 0.  0.
          3    1    3    3  502    0 -0.25452130287E+02 -0.68195587890E+02 -0.54232905454E+02  0.90772557405E+02  0.00000000000E+00 0. -1.
         -4    1    3    3    0  502 -0.19182658659E+02 -0.68752133769E+03 -0.36402343660E+03  0.77818161541E+03  0.00000000000E+00 0.  1.
         13    1    5    5    0    0 -0.85217346893E+02  0.94614190222E+02 -0.40505719884E+03  0.42460001829E+03  0.00000000000E+00 0.  1.
        -13    1    5    5    0    0 -0.55818078014E+02  0.14476394538E+03 -0.87655060148E+03  0.89017594591E+03  0.00000000000E+00 0. -1.
          3    1    6    6  503    0  0.18123185780E+03  0.48043288758E+03 -0.16842420927E+03  0.54039565137E+03  0.00000000000E+00 0. -1.
         -3    1    6    6    0  503  0.44383560515E+01  0.35905902394E+02 -0.39279342603E+02  0.53402243272E+02  0.00000000000E+00 0.  1.
<mgrwt>
<rscale>  0 0.20188728E+04</rscale>
<asrwt>0</asrwt>
<pdfrwt beam="1">  1        1 0.36039197E+00 0.20188728E+04</pdfrwt>
<pdfrwt beam="2">  1       -2 0.66920027E-01 0.20188728E+04</pdfrwt>
<totfact> 0.29030446E+00</totfact>
</mgrwt>
</event>
<event>
12    5  0.5221187E-008  0.1150959E+04  0.7818608E-02  0.9156899E-01
          1   -1    0    0  501    0  0.00000000000E+00  0.00000000000E+00  0.91465229065E+03  0.91465229065E+03  0.00000000000E+00 0. -1.
         -2   -1    0    0    0  501 -0.00000000000E+00 -0.00000000000E+00 -0.36207957275E+03  0.36207957275E+03  0.00000000000E+00 0.  1.
        -24    2    1    2    0    0  0.63795602969E+02 -0.61974962714E+02 -0.11851785385E+03  0.16838492186E+03  0.79976404440E+02 0.  0.
        254    2    1    2    0    0 -0.63795602969E+02  0.61974962714E+02  0.67109057175E+03  0.11083469415E+04  0.87758738163E+03 0.  0.
         23    2    4    4    0    0  0.37363211372E+03  0.17299354537E+03  0.31938345200E+03  0.52900713594E+03  0.91186826486E+02 0.  0.
         23    2    4    4    0    0 -0.43742771669E+03 -0.11101858265E+03  0.35170711975E+03  0.57933980561E+03  0.90931728526E+02 0.  0.
          3    1    3    3  502    0 -0.17506801547E+02 -0.31346151504E+00 -0.19319064653E+02  0.26073216480E+02  0.00000000000E+00 0. -1.
         -4    1    3    3    0  502  0.81302404516E+02 -0.61661501199E+02 -0.99198789193E+02  0.14231170538E+03  0.00000000000E+00 0.  1.
         13    1    5    5    0    0  0.23747252184E+03  0.10913848573E+03  0.25588649554E+03  0.36576263655E+03  0.00000000000E+00 0. -1.
        -13    1    5    5    0    0  0.13615959188E+03  0.63855059633E+02  0.63496956458E+02  0.16324449939E+03  0.00000000000E+00 0.  1.
          3    1    6    6  503    0 -0.17646188697E+03 -0.56092511524E+02  0.90695689929E+02  0.20618165674E+03  0.00000000000E+00 0. -1.
         -3    1    6    6    0  503 -0.26096582972E+03 -0.54926071130E+02  0.26101142982E+03  0.37315814887E+03  0.00000000000E+00 0.  1.
<mgrwt>
<rscale>  0 0.11509594E+04</rscale>
<asrwt>0</asrwt>
<pdfrwt beam="1">  1        1 0.14071574E+00 0.11509594E+04</pdfrwt>
<pdfrwt beam="2">  1       -2 0.55704550E-01 0.11509594E+04</pdfrwt>
<totfact> 0.46649796E+01</totfact>
</mgrwt>
</event>
<event>
12    5  0.5221187E-008  0.1478850E+04  0.7818608E-02  0.8898640E-01
         -2   -1    0    0    0  501 -0.00000000000E+00  0.00000000000E+00  0.42779673269E+03  0.42779673269E+03  0.00000000000E+00 0.  1.
          1   -1    0    0  501    0  0.00000000000E+00 -0.00000000000E+00 -0.12780594286E+04  0.12780594286E+04  0.00000000000E+00 0. -1.
        -24    2    1    2    0    0  0.30834091467E+03  0.72601314094E+02 -0.66066589953E+03  0.73696383259E+03  0.79317017515E+02 0.  0.
        254    2    1    2    0    0 -0.30834091467E+03 -0.72601314094E+02 -0.18959679641E+03  0.96889232874E+03  0.89580150089E+03 0.  0.
         23    2    4    4    0    0 -0.54194464174E+02 -0.29342837800E+03  0.25446856657E+03  0.40357888969E+03  0.95312202113E+02 0.  0.
         23    2    4    4    0    0 -0.25414645050E+03  0.22082706390E+03 -0.44406536298E+03  0.56531343905E+03  0.95027508213E+02 0.  0.
          3    1    3    3  502    0  0.11260436110E+03  0.26513313711E+02 -0.33291187056E+03  0.35243866346E+03  0.00000000000E+00 0. -1.
         -4    1    3    3    0  502  0.19573655357E+03  0.46088000384E+02 -0.32775402897E+03  0.38452516912E+03  0.00000000000E+00 0.  1.
         13    1    5    5    0    0 -0.66531939333E+02 -0.13631255150E+03  0.92875461100E+02  0.17785798246E+03  0.00000000000E+00 0. -1.
        -13    1    5    5    0    0  0.12337475159E+02 -0.15711582649E+03  0.16159310547E+03  0.22572090723E+03  0.00000000000E+00 0.  1.
          2    1    6    6  503    0 -0.44319374257E+02  0.12662780868E+02 -0.10998854766E+03  0.11925616785E+03  0.00000000000E+00 0. -1.
         -2    1    6    6    0  503 -0.20982707624E+03  0.20816428303E+03 -0.33407681532E+03  0.44605727120E+03  0.00000000000E+00 0.  1.
<mgrwt>
<rscale>  0 0.14788504E+04</rscale>
<asrwt>0</asrwt>
<pdfrwt beam="1">  1        1 0.19662453E+00 0.14788504E+04</pdfrwt>
<pdfrwt beam="2">  1       -2 0.65814882E-01 0.14788504E+04</pdfrwt>
<totfact> 0.16943489E+01</totfact>
</mgrwt>
</event>
<event>
12    5  0.5221187E-008  0.1372911E+04  0.7818608E-02  0.8973664E-01
          1   -1    0    0  501    0  0.00000000000E+00  0.00000000000E+00  0.81245011581E+03  0.81245011581E+03  0.00000000000E+00 0. -1.
         -2   -1    0    0    0  501 -0.00000000000E+00 -0.00000000000E+00 -0.58000036548E+03  0.58000036548E+03  0.00000000000E+00 0.  1.
        -24    2    1    2    0    0 -0.33779214533E+03  0.29403369647E+02 -0.11736389968E+03  0.36831757377E+03  0.83159236458E+02 0.  0.
        254    2    1    2    0    0  0.33779214533E+03 -0.29403369647E+02  0.34981365000E+03  0.10241329075E+04  0.90083879298E+03 0.  0.
         23    2    4    4    0    0  0.80475890655E+02  0.26231190373E+03  0.51619685466E+03  0.59164595125E+03  0.91114406399E+02 0.  0.
         23    2    4    4    0    0  0.25731625468E+03 -0.29171527338E+03 -0.16638320466E+03  0.43248695626E+03  0.89733722195E+02 0.  0.
          3    1    3    3  502    0 -0.17104559541E+02  0.17064129563E+02 -0.24076513163E+02  0.34109074466E+02  0.00000000000E+00 0. -1.
         -4    1    3    3    0  502 -0.32068758579E+03  0.12339240083E+02 -0.93287386515E+02  0.33420849931E+03  0.00000000000E+00 0.  1.
         13    1    5    5    0    0  0.41244516577E+02  0.44947421231E+02  0.17373105630E+03  0.18413001044E+03  0.00000000000E+00 0. -1.
        -13    1    5    5    0    0  0.39231374078E+02  0.21736448250E+03  0.34246579837E+03  0.40751594081E+03  0.00000000000E+00 0.  1.
          2    1    6    6  503    0  0.80544201679E+02 -0.46692850327E+02 -0.14151484239E+02  0.94169290121E+02  0.00000000000E+00 0. -1.
         -2    1    6    6    0  503  0.17677205300E+03 -0.24502242305E+03 -0.15223172042E+03  0.33831766614E+03  0.00000000000E+00 0.  1.
<mgrwt>
<rscale>  0 0.13729113E+04</rscale>
<asrwt>0</asrwt>
<pdfrwt beam="1">  1        1 0.12499233E+00 0.13729113E+04</pdfrwt>
<pdfrwt beam="2">  1       -2 0.89230825E-01 0.13729113E+04</pdfrwt>
<totfact> 0.19902166E+01</totfact>
</mgrwt>
</event>
<event>
12    5  0.5221187E-008  0.1056687E+04  0.7818608E-02  0.9248468E-01
         -4   -1    0    0    0  501 -0.00000000000E+00  0.00000000000E+00  0.12342665351E+03  0.12342665351E+03  0.00000000000E+00 0.  1.
          3   -1    0    0  501    0  0.00000000000E+00 -0.00000000000E+00 -0.22616401045E+04  0.22616401045E+04  0.00000000000E+00 0. -1.
        -24    2    1    2    0    0 -0.20419398837E+02 -0.12567382261E+03 -0.28700123084E+03  0.32409218730E+03  0.80344121278E+02 0.  0.
        254    2    1    2    0    0  0.20419398837E+02  0.12567382261E+03 -0.18512122201E+04  0.20609745707E+04  0.89689388200E+03 0.  0.
         23    2    4    4    0    0  0.37842200509E+03  0.16483039334E+03 -0.47758539267E+03  0.63800736726E+03  0.92700166574E+02 0.  0.
         23    2    4    4    0    0 -0.35800260626E+03 -0.39156570730E+02 -0.13736268274E+04  0.14229672034E+04  0.91026907072E+02 0.  0.
          1    1    3    3  502    0  0.15653450804E+02 -0.52418555651E+02 -0.18780658238E+03  0.19561198298E+03  0.00000000000E+00 0. -1.
         -2    1    3    3    0  502 -0.36072849641E+02 -0.73255266963E+02 -0.99194648456E+02  0.12848020432E+03  0.00000000000E+00 0.  1.
         13    1    5    5    0    0  0.13540634166E+03  0.32259496708E+02 -0.21713251701E+03  0.25791875162E+03  0.00000000000E+00 0. -1.
        -13    1    5    5    0    0  0.24301566343E+03  0.13257089664E+03 -0.26045287565E+03  0.38008861565E+03  0.00000000000E+00 0.  1.
          4    1    6    6  503    0 -0.59289721063E+02  0.27439356867E+02 -0.25347619498E+03  0.26176013972E+03  0.00000000000E+00 0. -1.
         -4    1    6    6    0  503 -0.29871288519E+03 -0.66595927597E+02 -0.11201506325E+04  0.11612070637E+04  0.00000000000E+00 0.  1.
<mgrwt>
<rscale>  0 0.10566867E+04</rscale>
<asrwt>0</asrwt>
<pdfrwt beam="1">  1        3 0.34794460E+00 0.10566867E+04</pdfrwt>
<pdfrwt beam="2">  1       -4 0.18988718E-01 0.10566867E+04</pdfrwt>
<totfact> 0.12502057E+00</totfact>
</mgrwt>
</event>
<event>
12    5  0.5221187E-008  0.2594690E+04  0.7818608E-02  0.8370007E-01
          1   -1    0    0  501    0  0.00000000000E+00  0.00000000000E+00  0.17278496250E+04  0.17278496250E+04  0.00000000000E+00 0. -1.
         -2   -1    0    0    0  501 -0.00000000000E+00 -0.00000000000E+00 -0.97410308954E+03  0.97410308954E+03  0.00000000000E+00 0.  1.
        -24    2    1    2    0    0  0.59892854652E+02 -0.93443015194E+03  0.10023439904E+04  0.13739560014E+04  0.79465437714E+02 0.  0.
        254    2    1    2    0    0 -0.59892854652E+02  0.93443015194E+03 -0.24859745503E+03  0.13279967131E+04  0.90831036127E+03 0.  0.
         23    2    4    4    0    0 -0.41452727129E+03  0.17225588300E+03 -0.10308564478E+03  0.46996491074E+03  0.93463465017E+02 0.  0.
         23    2    4    4    0    0  0.35463441664E+03  0.76217426894E+03 -0.14551181025E+03  0.85803180233E+03  0.91486071038E+02 0.  0.
          3    1    3    3  502    0  0.47298414523E+02 -0.71236656261E+03  0.81182702648E+03  0.10810949914E+04  0.00000000000E+00 0. -1.
         -4    1    3    3    0  502  0.12594440128E+02 -0.22206358933E+03  0.19051696397E+03  0.29286101002E+03  0.00000000000E+00 0.  1.
         13    1    5    5    0    0 -0.40171594924E+03  0.17168959575E+03 -0.11575023765E+03  0.45194152131E+03  0.00000000000E+00 0.  1.
        -13    1    5    5    0    0 -0.12811322054E+02  0.56628724541E+00  0.12664592874E+02  0.18023389434E+02  0.00000000000E+00 0. -1.
          3    1    6    6  503    0  0.73139636292E+01  0.56570565380E+01  0.71810872669E+01  0.11707449209E+02  0.00000000000E+00 0. -1.
         -3    1    6    6    0  503  0.34732045301E+03  0.75651721240E+03 -0.15269289752E+03  0.84632435312E+03  0.00000000000E+00 0.  1.
<mgrwt>
<rscale>  0 0.25946897E+04</rscale>
<asrwt>0</asrwt>
<pdfrwt beam="1">  1        1 0.26582302E+00 0.25946897E+04</pdfrwt>
<pdfrwt beam="2">  1       -2 0.14986201E+00 0.25946897E+04</pdfrwt>
<totfact> 0.10606955E+00</totfact>
</mgrwt>
</event>
<event>
12    5  0.5221187E-008  0.1052657E+04  0.7818608E-02  0.9252605E-01
          1   -1    0    0  501    0  0.00000000000E+00  0.00000000000E+00  0.46815553116E+03  0.46815553116E+03  0.00000000000E+00 0. -1.
         -2   -1    0    0    0  501 -0.00000000000E+00 -0.00000000000E+00 -0.59172970039E+03  0.59172970039E+03  0.00000000000E+00 0.  1.
        -24    2    1    2    0    0 -0.48322474769E+02  0.58541955635E+02  0.84089577574E+02  0.13359529439E+03  0.70812594141E+02 0.  0.
        254    2    1    2    0    0  0.48322474769E+02 -0.58541955635E+02 -0.20766374681E+03  0.92628993716E+03  0.89951464347E+03 0.  0.
         23    2    4    4    0    0  0.46094717588E+03 -0.14176455538E+02 -0.51679460401E+02  0.47298509475E+03  0.91492417057E+02 0.  0.
         23    2    4    4    0    0 -0.41262470112E+03 -0.44365500097E+02 -0.15598428641E+03  0.45330484241E+03  0.94481431927E+02 0.  0.
          3    1    3    3  502    0 -0.42830722627E+02  0.19698131562E+02  0.81658446860E+02  0.94289920625E+02  0.00000000000E+00 0. -1.
         -4    1    3    3    0  502 -0.54917521412E+01  0.38843824073E+02  0.24311307133E+01  0.39305373764E+02  0.00000000000E+00 0.  1.
         13    1    5    5    0    0  0.33276902396E+03  0.25249568612E+02 -0.15497668525E+02  0.33408523127E+03  0.00000000000E+00 0. -1.
        -13    1    5    5    0    0  0.12817815192E+03 -0.39426024150E+02 -0.36181791876E+02  0.13889986348E+03  0.00000000000E+00 0.  1.
          2    1    6    6  503    0 -0.29443234945E+02 -0.16011891021E+02  0.96769099281E+01  0.34884485432E+02  0.00000000000E+00 0.  1.
         -2    1    6    6    0  503 -0.38318146617E+03 -0.28353609076E+02 -0.16566119634E+03  0.41842035698E+03  0.00000000000E+00 0. -1.
<mgrwt>
<rscale>  0 0.10526567E+04</rscale>
<asrwt>0</asrwt>
<pdfrwt beam="1">  1        1 0.72023928E-01 0.10526567E+04</pdfrwt>
<pdfrwt beam="2">  1       -2 0.91035339E-01 0.10526567E+04</pdfrwt>
<totfact> 0.43653586E+01</totfact>
</mgrwt>
</event>
<event>
12    5  0.5555943E-008  0.1803271E+04  0.7818608E-02  0.8704562E-01
         -2   -1    0    0    0  501 -0.00000000000E+00  0.00000000000E+00  0.10175098761E+04  0.10175098761E+04  0.00000000000E+00 0.  1.
          1   -1    0    0  501    0  0.00000000000E+00 -0.00000000000E+00 -0.79895726920E+03  0.79895726920E+03  0.00000000000E+00 0. -1.
        -24    2    1    2    0    0  0.50767335861E+03  0.13224291045E+03  0.51087078936E+03  0.73648295367E+03  0.78725797642E+02 0.  0.
        254    2    1    2    0    0 -0.50767335861E+03 -0.13224291045E+03 -0.29231818247E+03  0.10799841916E+04  0.89760542999E+03 0.  0.
         23    2    4    4    0    0  0.19342276124E+03 -0.13894236260E+03 -0.27198987326E+03  0.37295952579E+03  0.91667726217E+02 0.  0.
         23    2    4    4    0    0 -0.70109611986E+03  0.66994521566E+01 -0.20328309212E+02  0.70702466583E+03  0.88825593147E+02 0.  0.
          1    1    3    3  502    0  0.61408115803E+02  0.42360443620E+02  0.85183161224E+02  0.11323221638E+03  0.00000000000E+00 0. -1.
         -2    1    3    3    0  502  0.44626524281E+03  0.89882466828E+02  0.42568762814E+03  0.62325073729E+03  0.00000000000E+00 0.  1.
         13    1    5    5    0    0 -0.23155353825E+01  0.26502730148E+01  0.45543569811E+01  0.57556770820E+01  0.00000000000E+00 0. -1.
        -13    1    5    5    0    0  0.19573829663E+03 -0.14159263562E+03 -0.27654423024E+03  0.36720384871E+03  0.00000000000E+00 0.  1.
          3    1    6    6  503    0 -0.38314951389E+02 -0.19732209665E+02 -0.64025308468E+01  0.43570494597E+02  0.00000000000E+00 0. -1.
         -3    1    6    6    0  503 -0.66278116847E+03  0.26431661821E+02 -0.13925778365E+02  0.66345417123E+03  0.00000000000E+00 0.  1.
<mgrwt>
<rscale>  0 0.18032714E+04</rscale>
<asrwt>0</asrwt>
<pdfrwt beam="1">  1        1 0.12291650E+00 0.18032714E+04</pdfrwt>
<pdfrwt beam="2">  1       -2 0.15653998E+00 0.18032714E+04</pdfrwt>
<totfact> 0.48921076E+00</totfact>
</mgrwt>
</event>
<event>
12    5  0.5350312E-008  0.3216008E+04  0.7818608E-02  0.8184602E-01
         -2   -1    0    0    0  501 -0.00000000000E+00  0.00000000000E+00  0.14446028513E+04  0.14446028513E+04  0.00000000000E+00 0.  1.
          1   -1    0    0  501    0  0.00000000000E+00 -0.00000000000E+00 -0.17898878790E+04  0.17898878790E+04  0.00000000000E+00 0. -1.
        -24    2    1    2    0    0 -0.81992906035E+03  0.63818831307E+03  0.90767975399E+03  0.13822794969E+04  0.85123938317E+02 0.  0.
        254    2    1    2    0    0  0.81992906035E+03 -0.63818831307E+03 -0.12529647817E+04  0.18522112333E+04  0.88385390293E+03 0.  0.
         23    2    4    4    0    0  0.10864791671E+03 -0.59594656911E+03 -0.37705203278E+03  0.71949495469E+03  0.92455780564E+02 0.  0.
         23    2    4    4    0    0  0.71128114365E+03 -0.42241743952E+02 -0.87591274891E+03  0.11327162786E+04  0.90098800902E+02 0.  0.
          3    1    3    3  502    0 -0.11532769925E+02 -0.12751608107E+01  0.12824957074E+02  0.17294806769E+02  0.00000000000E+00 0. -1.
         -4    1    3    3    0  502 -0.80839629043E+03  0.63946347388E+03  0.89485479692E+03  0.13649846902E+04  0.00000000000E+00 0.  1.
         13    1    5    5    0    0 -0.15034386493E+02 -0.79429232474E+02 -0.37518660513E+02  0.89121746141E+02  0.00000000000E+00 0. -1.
        -13    1    5    5    0    0  0.12368230320E+03 -0.51651733664E+03 -0.33953337227E+03  0.63037320855E+03  0.00000000000E+00 0.  1.
          2    1    6    6  503    0  0.40476055698E+02 -0.18900262321E+02 -0.34872302870E+02  0.56671055294E+02  0.00000000000E+00 0. -1.
         -2    1    6    6    0  503  0.67080508795E+03 -0.23341481632E+02 -0.84104044604E+03  0.10760452233E+04  0.00000000000E+00 0.  1.
<mgrwt>
<rscale>  0 0.32160082E+04</rscale>
<asrwt>0</asrwt>
<pdfrwt beam="1">  1        1 0.27536737E+00 0.32160082E+04</pdfrwt>
<pdfrwt beam="2">  1       -2 0.22224659E+00 0.32160082E+04</pdfrwt>
<totfact> 0.29072746E-01</totfact>
</mgrwt>
</event>
<event>
12    5  0.5221187E-008  0.3288279E+04  0.7818608E-02  0.8165884E-01
          1   -1    0    0  501    0  0.00000000000E+00  0.00000000000E+00  0.12149877304E+04  0.12149877304E+04  0.00000000000E+00 0. -1.
         -2   -1    0    0    0  501 -0.00000000000E+00 -0.00000000000E+00 -0.22248745126E+04  0.22248745126E+04  0.00000000000E+00 0.  1.
        -24    2    1    2    0    0 -0.58999756679E+03  0.59811663091E+03 -0.18227976309E+04  0.20087199854E+04  0.80772169628E+02 0.  0.
        254    2    1    2    0    0  0.58999756679E+03 -0.59811663091E+03  0.81291084865E+03  0.14311422576E+04  0.82553224087E+03 0.  0.
         23    2    4    4    0    0  0.44133889322E+03 -0.78450822896E+03  0.52482926554E+03  0.10458618196E+04  0.90266315367E+02 0.  0.
         23    2    4    4    0    0  0.14865867357E+03  0.18639159806E+03  0.28808158311E+03  0.38528043805E+03  0.92783556549E+02 0.  0.
          1    1    3    3  502    0 -0.34701231203E+03  0.40466431568E+03 -0.11794943883E+04  0.12943638457E+04  0.00000000000E+00 0. -1.
         -2    1    3    3    0  502 -0.24298525476E+03  0.19345231523E+03 -0.64330324262E+03  0.71435613966E+03  0.00000000000E+00 0.  1.
         13    1    5    5    0    0  0.19191728238E+03 -0.25330266764E+03  0.18445155510E+03  0.36744640546E+03  0.00000000000E+00 0. -1.
        -13    1    5    5    0    0  0.24942161085E+03 -0.53120556133E+03  0.34037771045E+03  0.67841541411E+03  0.00000000000E+00 0.  1.
          1    1    6    6  503    0 -0.24053204658E+01  0.57051124195E+01  0.50033237565E+02  0.50414866215E+02  0.00000000000E+00 0. -1.
         -1    1    6    6    0  503  0.15106399404E+03  0.18068648564E+03  0.23804834555E+03  0.33486557184E+03  0.00000000000E+00 0.  1.
<mgrwt>
<rscale>  0 0.32882793E+04</rscale>
<asrwt>0</asrwt>
<pdfrwt beam="1">  1        1 0.18692119E+00 0.32882793E+04</pdfrwt>
<pdfrwt beam="2">  1       -2 0.34228839E+00 0.32882793E+04</pdfrwt>
<totfact> 0.13209498E-01</totfact>
</mgrwt>
</event>
<event>
12    5  0.5221187E-008  0.1609072E+04  0.7818608E-02  0.8814994E-01
         -2   -1    0    0    0  501 -0.00000000000E+00  0.00000000000E+00  0.13822935025E+04  0.13822935025E+04  0.00000000000E+00 0.  1.
          1   -1    0    0  501    0  0.00000000000E+00 -0.00000000000E+00 -0.46826412712E+03  0.46826412712E+03  0.00000000000E+00 0. -1.
        -24    2    1    2    0    0 -0.24749803702E+03 -0.44894522383E+03  0.76833490716E+02  0.52427116367E+03  0.78420503886E+02 0.  0.
        254    2    1    2    0    0  0.24749803702E+03  0.44894522383E+03  0.83719588467E+03  0.13262864660E+04  0.89181374071E+03 0.  0.
         23    2    4    4    0    0  0.40281643996E+03  0.16135652334E+02  0.58845933077E+02  0.41769312726E+03  0.92104620656E+02 0.  0.
         23    2    4    4    0    0 -0.15531840293E+03  0.43280957150E+03  0.77834995160E+03  0.90859333869E+03  0.90913566054E+02 0.  0.
          1    1    3    3  502    0 -0.68680858918E+02 -0.20441259332E+03  0.29185144148E+02  0.21760822900E+03  0.00000000000E+00 0. -1.
         -2    1    3    3    0  502 -0.17881717810E+03 -0.24453263051E+03  0.47648346567E+02  0.30666293467E+03  0.00000000000E+00 0.  1.
         13    1    5    5    0    0  0.31736085141E+03  0.12123377566E+02  0.70203801993E+01  0.31766991049E+03  0.00000000000E+00 0. -1.
        -13    1    5    5    0    0  0.85455588546E+02  0.40122747677E+01  0.51825552877E+02  0.10002321677E+03  0.00000000000E+00 0.  1.
          3    1    6    6  503    0 -0.10884787532E+03  0.33557265180E+03  0.51701020814E+03  0.62590448147E+03  0.00000000000E+00 0. -1.
         -3    1    6    6    0  503 -0.46470527618E+02  0.97236919694E+02  0.26133974345E+03  0.28268885722E+03  0.00000000000E+00 0.  1.
<mgrwt>
<rscale>  0 0.16090724E+04</rscale>
<asrwt>0</asrwt>
<pdfrwt beam="1">  1        1 0.72040636E-01 0.16090724E+04</pdfrwt>
<pdfrwt beam="2">  1       -2 0.21266054E+00 0.16090724E+04</pdfrwt>
<totfact> 0.44741472E+00</totfact>
</mgrwt>
</event>
<event>
12    5  0.5221187E-008  0.2244444E+04  0.7818608E-02  0.8500154E-01
          1   -1    0    0  501    0  0.00000000000E+00  0.00000000000E+00  0.29050553508E+04  0.29050553508E+04  0.00000000000E+00 0. -1.
         -2   -1    0    0    0  501 -0.00000000000E+00 -0.00000000000E+00 -0.43351413012E+03  0.43351413012E+03  0.00000000000E+00 0.  1.
        -24    2    1    2    0    0 -0.31894226408E+03  0.82435176058E+03  0.47546285861E+03  0.10068447590E+04  0.79946518213E+02 0.  0.
        254    2    1    2    0    0  0.31894226408E+03 -0.82435176058E+03  0.19960783621E+04  0.23317247220E+04  0.81934813020E+03 0.  0.
         23    2    4    4    0    0  0.12090473993E+03 -0.11776025922E+03  0.13070659731E+04  0.13209821234E+04  0.89927067990E+02 0.  0.
         23    2    4    4    0    0  0.19803752415E+03 -0.70659150136E+03  0.68901238902E+03  0.10107425986E+04  0.91499276502E+02 0.  0.
          3    1    3    3  502    0 -0.12552748040E+03  0.32601804422E+03  0.14397887435E+03  0.37785556732E+03  0.00000000000E+00 0. -1.
         -4    1    3    3    0  502 -0.19341478368E+03  0.49833371636E+03  0.33148398425E+03  0.62898919166E+03  0.00000000000E+00 0.  1.
         13    1    5    5    0    0  0.10144136702E+02 -0.87005759559E+01  0.17189544952E+02  0.21773469798E+02  0.00000000000E+00 0. -1.
        -13    1    5    5    0    0  0.11076060323E+03 -0.10905968326E+03  0.12898764281E+04  0.12992086536E+04  0.00000000000E+00 0.  1.
          3    1    6    6  503    0  0.98476872626E+02 -0.49771175183E+03  0.45186614513E+03  0.67940981408E+03  0.00000000000E+00 0. -1.
         -3    1    6    6    0  503  0.99560651522E+02 -0.20887974953E+03  0.23714624389E+03  0.33133278450E+03  0.00000000000E+00 0.  1.
<mgrwt>
<rscale>  0 0.22444443E+04</rscale>
<asrwt>0</asrwt>
<pdfrwt beam="1">  1        1 0.44693158E+00 0.22444443E+04</pdfrwt>
<pdfrwt beam="2">  1       -2 0.66694484E-01 0.22444443E+04</pdfrwt>
<totfact> 0.11555115E+00</totfact>
</mgrwt>
</event>
<event>
12    5  0.5221187E-008  0.1747183E+04  0.7818608E-02  0.8734903E-01
         -2   -1    0    0    0  501 -0.00000000000E+00  0.00000000000E+00  0.18571193327E+04  0.18571193327E+04  0.00000000000E+00 0.  1.
          1   -1    0    0  501    0  0.00000000000E+00 -0.00000000000E+00 -0.41093849086E+03  0.41093849086E+03  0.00000000000E+00 0. -1.
        -24    2    1    2    0    0 -0.23133663683E+03  0.34337388077E+03  0.11643968977E+04  0.12384584879E+04  0.80851897593E+02 0.  0.
        254    2    1    2    0    0  0.23133663683E+03 -0.34337388077E+03  0.28178394418E+03  0.10295993357E+04  0.89958342544E+03 0.  0.
         23    2    4    4    0    0  0.41149812401E+03  0.29079627943E+02  0.40853395779E+03  0.58775815734E+03  0.91560504768E+02 0.  0.
         23    2    4    4    0    0 -0.18016148718E+03 -0.37245350871E+03 -0.12675001360E+03  0.44184117835E+03  0.89321236683E+02 0.  0.
          1    1    3    3  502    0 -0.74982028082E+02  0.52552698515E+02  0.24182821083E+03  0.25858262550E+03  0.00000000000E+00 0. -1.
         -2    1    3    3    0  502 -0.15635460875E+03  0.29082118225E+03  0.92256868683E+03  0.97987586236E+03  0.00000000000E+00 0.  1.
         13    1    5    5    0    0  0.14529228240E+03  0.53408934876E+02  0.13686305312E+03  0.20662491853E+03  0.00000000000E+00 0.  1.
        -13    1    5    5    0    0  0.26620584162E+03 -0.24329306933E+02  0.27167090467E+03  0.38113323882E+03  0.00000000000E+00 0. -1.
          2    1    6    6  503    0 -0.79285546075E+02 -0.14024925613E+03 -0.94095653255E+02  0.18657449886E+03  0.00000000000E+00 0. -1.
         -2    1    6    6    0  503 -0.10087594111E+03 -0.23220425258E+03 -0.32654360347E+02  0.25526667949E+03  0.00000000000E+00 0.  1.
<mgrwt>
<rscale>  0 0.17471827E+04</rscale>
<asrwt>0</asrwt>
<pdfrwt beam="1">  1        1 0.63221307E-01 0.17471827E+04</pdfrwt>
<pdfrwt beam="2">  1       -2 0.28571066E+00 0.17471827E+04</pdfrwt>
<totfact> 0.18669495E+00</totfact>
</mgrwt>
</event>
<event>
12    5  0.5221187E-008  0.1800120E+04  0.7818608E-02  0.8706236E-01
          1   -1    0    0  501    0  0.00000000000E+00  0.00000000000E+00  0.75343882428E+03  0.75343882428E+03  0.00000000000E+00 0. -1.
         -2   -1    0    0    0  501 -0.00000000000E+00 -0.00000000000E+00 -0.10752135716E+04  0.10752135716E+04  0.00000000000E+00 0.  1.
        -24    2    1    2    0    0  0.22526761312E+02  0.66952684418E+03 -0.18164986090E+03  0.69868253589E+03  0.79918483157E+02 0.  0.
        254    2    1    2    0    0 -0.22526761312E+02 -0.66952684418E+03 -0.14012488642E+03  0.11299698600E+04  0.89912360142E+03 0.  0.
         23    2    4    4    0    0  0.12551925257E+03  0.18822312267E+03 -0.11022785930E+02  0.24518448745E+03  0.93866417875E+02 0.  0.
         23    2    4    4    0    0 -0.14804601388E+03 -0.85774996684E+03 -0.12910210049E+03  0.88478537253E+03  0.92331875554E+02 0.  0.
          1    1    3    3  502    0  0.46552020657E+01  0.29285171241E+02 -0.26265344633E+02  0.39612630430E+02  0.00000000000E+00 0. -1.
         -2    1    3    3    0  502  0.17871559247E+02  0.64024167294E+03 -0.15538451627E+03  0.65906990547E+03  0.00000000000E+00 0.  1.
         13    1    5    5    0    0  0.58161980689E+02  0.95410076480E+02  0.41306174509E+02  0.11913059533E+03  0.00000000000E+00 0.  1.
        -13    1    5    5    0    0  0.67357271883E+02  0.92813046187E+02 -0.52328960439E+02  0.12605389212E+03  0.00000000000E+00 0. -1.
          1    1    6    6  503    0  0.88907840064E+01 -0.28667790695E+02 -0.14162525324E+02  0.33188332093E+02  0.00000000000E+00 0. -1.
         -1    1    6    6    0  503 -0.15693679789E+03 -0.82908217615E+03 -0.11493957516E+03  0.85159704044E+03  0.00000000000E+00 0.  1.
<mgrwt>
<rscale>  0 0.18001196E+04</rscale>
<asrwt>0</asrwt>
<pdfrwt beam="1">  1        1 0.11591367E+00 0.18001196E+04</pdfrwt>
<pdfrwt beam="2">  1       -2 0.16541747E+00 0.18001196E+04</pdfrwt>
<totfact> 0.46184051E+00</totfact>
</mgrwt>
</event>
<event>
12    5  0.5221187E-008  0.1785230E+04  0.7818608E-02  0.8714194E-01
         -4   -1    0    0    0  501 -0.00000000000E+00  0.00000000000E+00  0.28204835887E+03  0.28204835887E+03  0.00000000000E+00 0.  1.
          3   -1    0    0  501    0  0.00000000000E+00 -0.00000000000E+00 -0.28249101140E+04  0.28249101140E+04  0.00000000000E+00 0. -1.
        -24    2    1    2    0    0 -0.35681021370E+03  0.51548509928E+03 -0.13560614723E+04  0.14960879204E+04  0.79611135307E+02 0.  0.
        254    2    1    2    0    0  0.35681021370E+03 -0.51548509928E+03 -0.11868002829E+04  0.16108705525E+04  0.89071353939E+03 0.  0.
         23    2    4    4    0    0  0.54337315651E+03 -0.35540104011E+03 -0.36918720579E+03  0.75242321796E+03  0.90979225543E+02 0.  0.
         23    2    4    4    0    0 -0.18656294281E+03 -0.16008405917E+03 -0.81761307713E+03  0.85844733456E+03  0.89487678929E+02 0.  0.
          3    1    3    3  502    0 -0.24555240720E+03  0.28625503940E+03 -0.81426879519E+03  0.89736926796E+03  0.00000000000E+00 0. -1.
         -4    1    3    3    0  502 -0.11125780650E+03  0.22923005988E+03 -0.54179267706E+03  0.59871865244E+03  0.00000000000E+00 0.  1.
         13    1    5    5    0    0  0.10036794986E+03 -0.91833465037E+02 -0.11268769704E+03  0.17665114696E+03  0.00000000000E+00 0.  1.
        -13    1    5    5    0    0  0.44300520665E+03 -0.26356757508E+03 -0.25649950874E+03  0.57577207099E+03  0.00000000000E+00 0. -1.
          3    1    6    6  503    0 -0.19532209308E+03 -0.14550398227E+03 -0.78055197235E+03  0.81766956066E+03  0.00000000000E+00 0. -1.
         -3    1    6    6    0  503  0.87591502677E+01 -0.14580076899E+02 -0.37061104788E+02  0.40777773896E+02  0.00000000000E+00 0.  1.
<mgrwt>
<rscale>  0 0.17852297E+04</rscale>
<asrwt>0</asrwt>
<pdfrwt beam="1">  1        3 0.43460156E+00 0.17852297E+04</pdfrwt>
<pdfrwt beam="2">  1       -4 0.43392055E-01 0.17852297E+04</pdfrwt>
<totfact> 0.82658152E-02</totfact>
</mgrwt>
</event>
<event>
12    5  0.5221187E-008  0.1938051E+04  0.7818608E-02  0.8636144E-01
         -2   -1    0    0    0  501 -0.00000000000E+00  0.00000000000E+00  0.33859050981E+03  0.33859050981E+03  0.00000000000E+00 0.  1.
          1   -1    0    0  501    0  0.00000000000E+00 -0.00000000000E+00 -0.27732919439E+04  0.27732919439E+04  0.00000000000E+00 0. -1.
        -24    2    1    2    0    0  0.37217700731E+03 -0.58903331349E+03 -0.47422123229E+03  0.84673684656E+03  0.81249867607E+02 0.  0.
        254    2    1    2    0    0 -0.37217700731E+03  0.58903331349E+03 -0.19604802018E+04  0.22651456072E+04  0.89550322769E+03 0.  0.
         23    2    4    4    0    0 -0.63879262322E+03  0.44022832564E+03 -0.16218522937E+04  0.18000889843E+04  0.89769118828E+02 0.  0.
         23    2    4    4    0    0  0.26661561591E+03  0.14880498786E+03 -0.33862790812E+03  0.46505662286E+03  0.91553215421E+02 0.  0.
          1    1    3    3  502    0  0.10460589705E+03 -0.20048401369E+03 -0.19452768316E+03  0.29829055124E+03  0.00000000000E+00 0. -1.
         -2    1    3    3    0  502  0.26757111026E+03 -0.38854929980E+03 -0.27969354914E+03  0.54844629532E+03  0.00000000000E+00 0.  1.
         13    1    5    5    0    0 -0.31188108673E+03  0.19104372216E+03 -0.67133404210E+03  0.76449781695E+03  0.00000000000E+00 0.  1.
        -13    1    5    5    0    0 -0.32691153649E+03  0.24918460348E+03 -0.95051825160E+03  0.10355911674E+04  0.00000000000E+00 0. -1.
          3    1    6    6  503    0  0.87231557779E+02  0.25373323032E+02 -0.50615861186E+02  0.10399574798E+03  0.00000000000E+00 0. -1.
         -3    1    6    6    0  503  0.17938405813E+03  0.12343166483E+03 -0.28801204694E+03  0.36106087489E+03  0.00000000000E+00 0.  1.
<mgrwt>
<rscale>  0 0.19380509E+04</rscale>
<asrwt>0</asrwt>
<pdfrwt beam="1">  1        1 0.42666030E+00 0.19380509E+04</pdfrwt>
<pdfrwt beam="2">  1       -2 0.52090848E-01 0.19380509E+04</pdfrwt>
<totfact> 0.24853274E+00</totfact>
</mgrwt>
</event>
<event>
12    5  0.5221187E-008  0.3752598E+04  0.7818608E-02  0.8056404E-01
          1   -1    0    0  501    0  0.00000000000E+00  0.00000000000E+00  0.17196953102E+04  0.17196953102E+04  0.00000000000E+00 0. -1.
         -2   -1    0    0    0  501 -0.00000000000E+00 -0.00000000000E+00 -0.20471639209E+04  0.20471639209E+04  0.00000000000E+00 0.  1.
        -24    2    1    2    0    0 -0.13030013720E+04  0.23070097430E+03  0.10168831817E+04  0.16707680131E+04  0.79867598923E+02 0.  0.
        254    2    1    2    0    0  0.13030013720E+04 -0.23070097430E+03 -0.13443517925E+04  0.20960912180E+04  0.91393716257E+03 0.  0.
         23    2    4    4    0    0  0.13494638135E+04 -0.39464368553E+02 -0.97455285363E+03  0.16676378762E+04  0.93020434754E+02 0.  0.
         23    2    4    4    0    0 -0.46462441537E+02 -0.19123660574E+03 -0.36979893885E+03  0.42845334174E+03  0.89948946767E+02 0.  0.
          3    1    3    3  502    0 -0.11518237562E+04  0.18073526206E+03  0.90985677198E+03  0.14789193845E+04  0.00000000000E+00 0. -1.
         -4    1    3    3    0  502 -0.15117761578E+03  0.49965712241E+02  0.10702640975E+03  0.19184862860E+03  0.00000000000E+00 0.  1.
         13    1    5    5    0    0  0.10832710166E+04 -0.21631311979E+02 -0.73672102931E+03  0.13102297066E+04  0.00000000000E+00 0.  1.
        -13    1    5    5    0    0  0.26619279692E+03 -0.17833056574E+02 -0.23783182432E+03  0.35740816960E+03  0.00000000000E+00 0. -1.
          2    1    6    6  503    0  0.13955557598E+02 -0.81972961989E+01 -0.70104010927E+01  0.17637998081E+02  0.00000000000E+00 0. -1.
         -2    1    6    6    0  503 -0.60417999135E+02 -0.18303930954E+03 -0.36278853776E+03  0.41081534366E+03  0.00000000000E+00 0.  1.
<mgrwt>
<rscale>  0 0.37525981E+04</rscale>
<asrwt>0</asrwt>
<pdfrwt beam="1">  1        1 0.26456851E+00 0.37525981E+04</pdfrwt>
<pdfrwt beam="2">  1       -2 0.31494829E+00 0.37525981E+04</pdfrwt>
<totfact> 0.83418172E-02</totfact>
</mgrwt>
</event>
<event>
12    5  0.5221187E-008  0.1188337E+04  0.7818608E-02  0.9123127E-01
          1   -1    0    0  501    0  0.00000000000E+00  0.00000000000E+00  0.75429574873E+03  0.75429574873E+03  0.00000000000E+00 0. -1.
         -2   -1    0    0    0  501 -0.00000000000E+00 -0.00000000000E+00 -0.46803405419E+03  0.46803405419E+03  0.00000000000E+00 0.  1.
        -24    2    1    2    0    0  0.10882215545E+03 -0.18856319916E+03  0.32057494625E+03  0.39511437404E+03  0.77128015740E+02 0.  0.
        254    2    1    2    0    0 -0.10882215545E+03  0.18856319916E+03 -0.34313251710E+02  0.82721542888E+03  0.79731400649E+03 0.  0.
         23    2    4    4    0    0  0.22245742411E+03  0.20584592811E+03 -0.26613422602E+03  0.41181883716E+03  0.83111231017E+02 0.  0.
         23    2    4    4    0    0 -0.33127957956E+03 -0.17282728956E+02  0.23182097431E+03  0.41539659172E+03  0.93640331718E+02 0.  0.
          1    1    3    3  502    0  0.99990985819E+02 -0.19556225195E+03  0.30678412184E+03  0.37730529952E+03  0.00000000000E+00 0. -1.
         -2    1    3    3    0  502  0.88311696352E+01  0.69990527944E+01  0.13790824408E+02  0.17809074513E+02  0.00000000000E+00 0.  1.
         13    1    5    5    0    0  0.16587582844E+03  0.10634597989E+03 -0.19404834483E+03  0.27654840088E+03  0.00000000000E+00 0.  1.
        -13    1    5    5    0    0  0.56581595671E+02  0.99499948219E+02 -0.72085881185E+02  0.13527043628E+03  0.00000000000E+00 0. -1.
          2    1    6    6  503    0  0.62173535532E+00 -0.12736662310E+02  0.80193379913E+01  0.15063827650E+02  0.00000000000E+00 0. -1.
         -2    1    6    6    0  503 -0.33190131492E+03 -0.45460666460E+01  0.22380163632E+03  0.40033276407E+03  0.00000000000E+00 0.  1.
<mgrwt>
<rscale>  0 0.11883368E+04</rscale>
<asrwt>0</asrwt>
<pdfrwt beam="1">  1        1 0.11604550E+00 0.11883368E+04</pdfrwt>
<pdfrwt beam="2">  1       -2 0.72005239E-01 0.11883368E+04</pdfrwt>
<totfact> 0.36811118E+01</totfact>
</mgrwt>
</event>
<event>
12    5  0.5221187E-008  0.1809634E+04  0.7818608E-02  0.8701193E-01
          1   -1    0    0  501    0  0.00000000000E+00  0.00000000000E+00  0.15782599802E+04  0.15782599802E+04  0.00000000000E+00 0. -1.
         -2   -1    0    0    0  501 -0.00000000000E+00 -0.00000000000E+00 -0.51873174857E+03  0.51873174857E+03  0.00000000000E+00 0.  1.
        -24    2    1    2    0    0 -0.63771223490E+03  0.18884853977E+03  0.54511467405E+03  0.86344432988E+03  0.77752411067E+02 0.  0.
        254    2    1    2    0    0  0.63771223490E+03 -0.18884853977E+03  0.51441355759E+03  0.12335473989E+04  0.90259471059E+03 0.  0.
         23    2    4    4    0    0  0.59861588835E+03  0.25856117699E+03  0.24639368620E+03  0.70295661046E+03  0.90792530323E+02 0.  0.
         23    2    4    4    0    0  0.39096346550E+02 -0.44740971676E+03  0.26801987138E+03  0.53059078844E+03  0.89375356515E+02 0.  0.
          1    1    3    3  502    0 -0.60010239223E+03  0.17798278561E+03  0.53393414130E+03  0.82273107415E+03  0.00000000000E+00 0. -1.
         -2    1    3    3    0  502 -0.37609842674E+02  0.10865754160E+02  0.11180532744E+02  0.40713255726E+02  0.00000000000E+00 0.  1.
         13    1    5    5    0    0  0.55967127489E+03  0.26425582353E+03  0.23424323961E+03  0.66176504253E+03  0.00000000000E+00 0.  1.
        -13    1    5    5    0    0  0.38944613458E+02 -0.56946465404E+01  0.12150446594E+02  0.41191567936E+02  0.00000000000E+00 0. -1.
          2    1    6    6  503    0 -0.13709574534E+02 -0.17593132638E+03  0.14276089462E+03  0.22698118219E+03  0.00000000000E+00 0. -1.
         -2    1    6    6    0  503  0.52805921084E+02 -0.27147839038E+03  0.12525897676E+03  0.30360960625E+03  0.00000000000E+00 0.  1.
<mgrwt>
<rscale>  0 0.18096337E+04</rscale>
<asrwt>0</asrwt>
<pdfrwt beam="1">  1        1 0.24280923E+00 0.18096337E+04</pdfrwt>
<pdfrwt beam="2">  1       -2 0.79804885E-01 0.18096337E+04</pdfrwt>
<totfact> 0.66427726E+00</totfact>
</mgrwt>
</event>
<event>
12    5  0.5221187E-008  0.1863694E+04  0.7818608E-02  0.8673142E-01
         -2   -1    0    0    0  501 -0.00000000000E+00  0.00000000000E+00  0.70621477033E+03  0.70621477033E+03  0.00000000000E+00 0.  1.
          1   -1    0    0  501    0  0.00000000000E+00 -0.00000000000E+00 -0.12295677115E+04  0.12295677115E+04  0.00000000000E+00 0. -1.
        -24    2    1    2    0    0 -0.29336094814E+03 -0.33154808471E+03  0.38024930704E+03  0.58843282121E+03  0.75358285575E+02 0.  0.
        254    2    1    2    0    0  0.29336094814E+03  0.33154808471E+03 -0.90360224821E+03  0.13473496606E+04  0.89602974653E+03 0.  0.
         23    2    4    4    0    0  0.21163648735E+03  0.40968555277E+03 -0.39236400914E+02  0.47131811477E+03  0.89269340940E+02 0.  0.
         23    2    4    4    0    0  0.81724460792E+02 -0.78137468057E+02 -0.86436584730E+03  0.87603154586E+03  0.86709860805E+02 0.  0.
          1    1    3    3  502    0 -0.17073729490E+03 -0.16542705847E+03  0.16015557198E+03  0.28664811666E+03  0.00000000000E+00 0. -1.
         -2    1    3    3    0  502 -0.12262365324E+03 -0.16612102624E+03  0.22009373505E+03  0.30178470456E+03  0.00000000000E+00 0.  1.
         13    1    5    5    0    0  0.85210869427E+02  0.81208880029E+02 -0.88799105538E+01  0.11804502224E+03  0.00000000000E+00 0. -1.
        -13    1    5    5    0    0  0.12642561792E+03  0.32847667274E+03 -0.30356490361E+02  0.35327309253E+03  0.00000000000E+00 0.  1.
          4    1    6    6  503    0  0.94847483164E+02 -0.41439046146E+02 -0.62340074743E+03  0.63193491081E+03  0.00000000000E+00 0.  1.
         -4    1    6    6    0  503 -0.13123022372E+02 -0.36698421911E+02 -0.24096509987E+03  0.24409663505E+03  0.00000000000E+00 0. -1.
<mgrwt>
<rscale>  0 0.18636941E+04</rscale>
<asrwt>0</asrwt>
<pdfrwt beam="1">  1        1 0.18916426E+00 0.18636941E+04</pdfrwt>
<pdfrwt beam="2">  1       -2 0.10864843E+00 0.18636941E+04</pdfrwt>
<totfact> 0.56670761E+00</totfact>
</mgrwt>
</event>
<event>
12    5  0.5221187E-008  0.1470626E+04  0.7818608E-02  0.8904225E-01
          1   -1    0    0  501    0  0.00000000000E+00  0.00000000000E+00  0.24077395761E+04  0.24077395761E+04  0.00000000000E+00 0. -1.
         -2   -1    0    0    0  501 -0.00000000000E+00 -0.00000000000E+00 -0.22456140288E+03  0.22456140288E+03  0.00000000000E+00 0.  1.
        -24    2    1    2    0    0  0.45226683371E+02 -0.87407332689E+02 -0.11013183389E+03  0.16805486426E+03  0.80174321746E+02 0.  0.
        254    2    1    2    0    0 -0.45226683371E+02  0.87407332689E+02  0.22933100071E+04  0.24642461147E+04  0.89641097188E+03 0.  0.
         23    2    4    4    0    0 -0.34145255224E+03 -0.12414673884E+03  0.46100093251E+03  0.59389240392E+03  0.90465846936E+02 0.  0.
         23    2    4    4    0    0  0.29622586887E+03  0.21155407153E+03  0.18323090746E+04  0.18703537108E+04  0.91441610275E+02 0.  0.
          1    1    3    3  502    0  0.68372320984E+01 -0.55785943515E+02 -0.11176741432E+02  0.57303915972E+02  0.00000000000E+00 0. -1.
         -2    1    3    3    0  502  0.38389451272E+02 -0.31621389173E+02 -0.98955092461E+02  0.11075094829E+03  0.00000000000E+00 0.  1.
         13    1    5    5    0    0 -0.26390908951E+03 -0.13371916596E+03  0.37595469781E+03  0.47840438718E+03  0.00000000000E+00 0.  1.
        -13    1    5    5    0    0 -0.77543462727E+02  0.95724271180E+01  0.85046234702E+02  0.11548801674E+03  0.00000000000E+00 0. -1.
          3    1    6    6  503    0 -0.66786197504E+01  0.76573244502E+01  0.53167056790E+02  0.54129238931E+02  0.00000000000E+00 0. -1.
         -3    1    6    6    0  503  0.30290448862E+03  0.20389674708E+03  0.17791420178E+04  0.18162244719E+04  0.00000000000E+00 0.  1.
<mgrwt>
<rscale>  0 0.14706262E+04</rscale>
<asrwt>0</asrwt>
<pdfrwt beam="1">  1        1 0.37042146E+00 0.14706262E+04</pdfrwt>
<pdfrwt beam="2">  1       -2 0.34547910E-01 0.14706262E+04</pdfrwt>
<totfact> 0.10517988E+01</totfact>
</mgrwt>
</event>
<event>
12    5  0.5221187E-008  0.1752888E+04  0.7818608E-02  0.8731762E-01
          1   -1    0    0  501    0  0.00000000000E+00  0.00000000000E+00  0.73603624857E+03  0.73603624857E+03  0.00000000000E+00 0. -1.
         -2   -1    0    0    0  501 -0.00000000000E+00 -0.00000000000E+00 -0.10436362184E+04  0.10436362184E+04  0.00000000000E+00 0.  1.
        -24    2    1    2    0    0  0.47932683832E+03  0.42432289756E+03 -0.15183394223E+03  0.66317956943E+03  0.83363397038E+02 0.  0.
        254    2    1    2    0    0 -0.47932683832E+03 -0.42432289756E+03 -0.15576602764E+03  0.11164928976E+04  0.90138182569E+03 0.  0.
         23    2    4    4    0    0 -0.65852549975E+03 -0.40834298272E+03  0.10470457730E+03  0.78682140467E+03  0.87892257812E+02 0.  0.
         23    2    4    4    0    0  0.17919866143E+03 -0.15979914838E+02 -0.26047060494E+03  0.32967149292E+03  0.92037162445E+02 0.  0.
          3    1    3    3  502    0  0.15052383319E+03  0.12481436222E+03 -0.85808460525E+02  0.21353955435E+03  0.00000000000E+00 0. -1.
         -4    1    3    3    0  502  0.32880300513E+03  0.29950853535E+03 -0.66025481708E+02  0.44964001508E+03  0.00000000000E+00 0.  1.
         13    1    5    5    0    0 -0.21818949617E+03 -0.17988937180E+03  0.19201520445E+02  0.28343524959E+03  0.00000000000E+00 0. -1.
        -13    1    5    5    0    0 -0.44033600358E+03 -0.22845361093E+03  0.85503056857E+02  0.50338615508E+03  0.00000000000E+00 0.  1.
          3    1    6    6  503    0  0.24695259354E+02  0.79500487213E+01 -0.73297748098E-01  0.25943486307E+02  0.00000000000E+00 0. -1.
         -3    1    6    6    0  503  0.15450340207E+03 -0.23929963560E+02 -0.26039730719E+03  0.30372800661E+03  0.00000000000E+00 0.  1.
<mgrwt>
<rscale>  0 0.17528880E+04</rscale>
<asrwt>0</asrwt>
<pdfrwt beam="1">  1        1 0.11323635E+00 0.17528880E+04</pdfrwt>
<pdfrwt beam="2">  1       -2 0.16055942E+00 0.17528880E+04</pdfrwt>
<totfact> 0.52183073E+00</totfact>
</mgrwt>
</event>
<event>
12    5  0.5221187E-008  0.2456424E+04  0.7818608E-02  0.8418676E-01
         -2   -1    0    0    0  501 -0.00000000000E+00  0.00000000000E+00  0.66783395033E+03  0.66783395033E+03  0.00000000000E+00 0.  1.
          3   -1    0    0  501    0  0.00000000000E+00 -0.00000000000E+00 -0.22588015224E+04  0.22588015224E+04  0.00000000000E+00 0. -1.
        -24    2    1    2    0    0  0.14444795735E+03 -0.35591089866E+03 -0.18699945184E+04  0.19106562361E+04  0.78676384681E+02 0.  0.
        254    2    1    2    0    0 -0.14444795735E+03  0.35591089866E+03  0.27902694640E+03  0.10159792366E+04  0.89823159160E+03 0.  0.
         23    2    4    4    0    0 -0.39434009213E+03  0.45947609055E+03  0.37097815598E+03  0.71593097738E+03  0.91159125189E+02 0.  0.
         23    2    4    4    0    0  0.24989213479E+03 -0.10356519189E+03 -0.91951209583E+02  0.30004825919E+03  0.91662996338E+02 0.  0.
          3    1    3    3  502    0  0.14550693208E+03 -0.30375684377E+03 -0.16909590450E+04  0.17241760290E+04  0.00000000000E+00 0. -1.
         -4    1    3    3    0  502 -0.10589747319E+01 -0.52154054887E+02 -0.17903547348E+03  0.18648020708E+03  0.00000000000E+00 0.  1.
         13    1    5    5    0    0 -0.20945420053E+03  0.31214186879E+03  0.22675282471E+03  0.43899937572E+03  0.00000000000E+00 0. -1.
        -13    1    5    5    0    0 -0.18488589160E+03  0.14733422176E+03  0.14422533128E+03  0.27693160166E+03  0.00000000000E+00 0.  1.
          2    1    6    6  503    0  0.21780846393E+03 -0.51745898434E+02 -0.81305472692E+02  0.23817796887E+03  0.00000000000E+00 0.  1.
         -2    1    6    6    0  503  0.32083670855E+02 -0.51819293459E+02 -0.10645736891E+02  0.61870290318E+02  0.00000000000E+00 0. -1.
<mgrwt>
<rscale>  0 0.24564237E+04</rscale>
<asrwt>0</asrwt>
<pdfrwt beam="1">  1        3 0.34750794E+00 0.24564237E+04</pdfrwt>
<pdfrwt beam="2">  1       -2 0.10274368E+00 0.24564237E+04</pdfrwt>
<totfact> 0.60232684E-02</totfact>
</mgrwt>
</event>
<event>
12    5  0.5221187E-008  0.1350564E+04  0.7818608E-02  0.8990401E-01
         -2   -1    0    0    0  501 -0.00000000000E+00  0.00000000000E+00  0.19300069979E+04  0.19300069979E+04  0.00000000000E+00 0.  1.
          1   -1    0    0  501    0  0.00000000000E+00 -0.00000000000E+00 -0.23627156820E+03  0.23627156820E+03  0.00000000000E+00 0. -1.
        -24    2    1    2    0    0 -0.18122375474E+03  0.95892217393E+02  0.95623616132E+03  0.98133375675E+03  0.81184846361E+02 0.  0.
        254    2    1    2    0    0  0.18122375474E+03 -0.95892217393E+02  0.73749926839E+03  0.11849448094E+04  0.90451736508E+03 0.  0.
         23    2    4    4    0    0  0.24116671216E+03 -0.47085985438E+03  0.43482869549E+03  0.69062147714E+03  0.89507791527E+02 0.  0.
         23    2    4    4    0    0 -0.59942957420E+02  0.37496763699E+03  0.30267057290E+03  0.49432333223E+03  0.92478073922E+02 0.  0.
          3    1    3    3  502    0  0.46705859805E+01 -0.66223585403E+01  0.41966414557E+02  0.42741665349E+02  0.00000000000E+00 0. -1.
         -4    1    3    3    0  502 -0.18589434072E+03  0.10251457593E+03  0.91426974676E+03  0.93859209140E+03  0.00000000000E+00 0.  1.
         13    1    5    5    0    0  0.15956694148E+03 -0.22452517107E+03  0.19724520416E+03  0.33879024753E+03  0.00000000000E+00 0. -1.
        -13    1    5    5    0    0  0.81599770680E+02 -0.24633468331E+03  0.23758349132E+03  0.35183122961E+03  0.00000000000E+00 0.  1.
          1    1    6    6  503    0 -0.53983264309E+02  0.86335205354E+02  0.87681550004E+02  0.13437267103E+03  0.00000000000E+00 0. -1.
         -1    1    6    6    0  503 -0.59596931109E+01  0.28863243163E+03  0.21498902290E+03  0.35995066120E+03  0.00000000000E+00 0.  1.
<mgrwt>
<rscale>  0 0.13505640E+04</rscale>
<asrwt>0</asrwt>
<pdfrwt beam="1">  1        1 0.36349473E-01 0.13505640E+04</pdfrwt>
<pdfrwt beam="2">  1       -2 0.29692414E+00 0.13505640E+04</pdfrwt>
<totfact> 0.34103548E+00</totfact>
</mgrwt>
</event>
<event>
12    5  0.5221187E-008  0.2230326E+04  0.7818608E-02  0.8505911E-01
         -2   -1    0    0    0  501 -0.00000000000E+00  0.00000000000E+00  0.14912482119E+04  0.14912482119E+04  0.00000000000E+00 0.  1.
          1   -1    0    0  501    0  0.00000000000E+00 -0.00000000000E+00 -0.83392463104E+03  0.83392463104E+03  0.00000000000E+00 0. -1.
        -24    2    1    2    0    0 -0.78241379375E+03 -0.46033375399E+03  0.66302173484E+02  0.91366089576E+03  0.79383528031E+02 0.  0.
        254    2    1    2    0    0  0.78241379375E+03  0.46033375399E+03  0.59102140743E+03  0.14115119472E+04  0.90497578057E+03 0.  0.
         23    2    4    4    0    0  0.21967892783E+03  0.50989362802E+03 -0.34695635088E+02  0.56348232038E+03  0.89767449850E+02 0.  0.
         23    2    4    4    0    0  0.56273486592E+03 -0.49559874035E+02  0.62571704251E+03  0.84802962685E+03  0.92226461979E+02 0.  0.
          1    1    3    3  502    0 -0.53052221752E+03 -0.29504455692E+03  0.97837207622E+01  0.60712505717E+03  0.00000000000E+00 0. -1.
         -2    1    3    3    0  502 -0.25189157622E+03 -0.16528919707E+03  0.56518452721E+02  0.30653583858E+03  0.00000000000E+00 0.  1.
         13    1    5    5    0    0  0.12170682478E+03  0.19950437648E+03 -0.44286471512E+02  0.23785676150E+03  0.00000000000E+00 0. -1.
        -13    1    5    5    0    0  0.97972103046E+02  0.31038925154E+03  0.95908364246E+01  0.32562555888E+03  0.00000000000E+00 0.  1.
          3    1    6    6  503    0  0.55743192066E+03 -0.36990944503E+02  0.60838183179E+03  0.82597041679E+03  0.00000000000E+00 0. -1.
         -3    1    6    6    0  503  0.53029452560E+01 -0.12568929532E+02  0.17335210720E+02  0.22059210065E+02  0.00000000000E+00 0.  1.
<mgrwt>
<rscale>  0 0.22303261E+04</rscale>
<asrwt>0</asrwt>
<pdfrwt beam="1">  1        1 0.12829610E+00 0.22303261E+04</pdfrwt>
<pdfrwt beam="2">  1       -2 0.22942280E+00 0.22303261E+04</pdfrwt>
<totfact> 0.14197805E+00</totfact>
</mgrwt>
</event>
<event>
12    5  0.5221187E-008  0.2636945E+04  0.7818608E-02  0.8355759E-01
          1   -1    0    0  501    0  0.00000000000E+00  0.00000000000E+00  0.16625844032E+04  0.16625844032E+04  0.00000000000E+00 0. -1.
         -2   -1    0    0    0  501 -0.00000000000E+00 -0.00000000000E+00 -0.10455825658E+04  0.10455825658E+04  0.00000000000E+00 0.  1.
        -24    2    1    2    0    0 -0.88920488740E+02 -0.10026460040E+04  0.87116032759E+03  0.13336789728E+04  0.81076652984E+02 0.  0.
        254    2    1    2    0    0  0.88920488740E+02  0.10026460040E+04 -0.25415849023E+03  0.13744879962E+04  0.90078568535E+03 0.  0.
         23    2    4    4    0    0 -0.30466986412E+03  0.59174312100E+03  0.12757498691E+03  0.68351146265E+03  0.89044342582E+02 0.  0.
         23    2    4    4    0    0  0.39359035286E+03  0.41090288298E+03 -0.38173347714E+03  0.69097653354E+03  0.89294889193E+02 0.  0.
          1    1    3    3  502    0 -0.23986296868E+02 -0.68080557442E+03  0.60266677907E+03  0.90954868984E+03  0.00000000000E+00 0. -1.
         -2    1    3    3    0  502 -0.64934191872E+02 -0.32184042956E+03  0.26849354852E+03  0.42413028301E+03  0.00000000000E+00 0.  1.
         13    1    5    5    0    0 -0.28621989979E+02  0.13241825124E+03  0.31167820015E+02  0.13901526742E+03  0.00000000000E+00 0. -1.
        -13    1    5    5    0    0 -0.27604787414E+03  0.45932486976E+03  0.96407166896E+02  0.54449619523E+03  0.00000000000E+00 0.  1.
          3    1    6    6  503    0  0.22704404384E+02  0.21043595289E+02  0.46388350830E+00  0.30960265972E+02  0.00000000000E+00 0. -1.
         -3    1    6    6    0  503  0.37088594847E+03  0.38985928769E+03 -0.38219736065E+03  0.66001626757E+03  0.00000000000E+00 0.  1.
<mgrwt>
<rscale>  0 0.26369446E+04</rscale>
<asrwt>0</asrwt>
<pdfrwt beam="1">  1        1 0.25578222E+00 0.26369446E+04</pdfrwt>
<pdfrwt beam="2">  1       -2 0.16085886E+00 0.26369446E+04</pdfrwt>
<totfact> 0.96780272E-01</totfact>
</mgrwt>
</event>
<event>
12    5  0.5221187E-008  0.1716539E+04  0.7818608E-02  0.8751987E-01
          1   -1    0    0  501    0  0.00000000000E+00  0.00000000000E+00  0.25055830473E+04  0.25055830473E+04  0.00000000000E+00 0. -1.
         -2   -1    0    0    0  501 -0.00000000000E+00 -0.00000000000E+00 -0.29399414929E+03  0.29399414929E+03  0.00000000000E+00 0.  1.
        -24    2    1    2    0    0  0.19079182488E+03 -0.37798767564E+03  0.15413760922E+04  0.16004563342E+04  0.79649336773E+02 0.  0.
        254    2    1    2    0    0 -0.19079182488E+03  0.37798767564E+03  0.67021280588E+03  0.11991208624E+04  0.89968296311E+03 0.  0.
         23    2    4    4    0    0 -0.19305986915E+03  0.41339891053E+03 -0.53722896807E+02  0.46853270863E+03  0.92010744549E+02 0.  0.
         23    2    4    4    0    0  0.22680442706E+01 -0.35411234894E+02  0.72393570269E+03  0.73058815377E+03  0.91744477902E+02 0.  0.
          3    1    3    3  502    0  0.95714629705E+02 -0.13680240844E+03  0.49313743924E+03  0.52063492322E+03  0.00000000000E+00 0. -1.
         -2    1    3    3    0  502  0.95077195173E+02 -0.24118526720E+03  0.10482386529E+04  0.10798214110E+04  0.00000000000E+00 0.  1.
         13    1    5    5    0    0 -0.90814184675E+02  0.12712769202E+03  0.14769944697E+02  0.15692933914E+03  0.00000000000E+00 0. -1.
        -13    1    5    5    0    0 -0.10224568447E+03  0.28627121851E+03 -0.68492841504E+02  0.31160336949E+03  0.00000000000E+00 0.  1.
          4    1    6    6  503    0 -0.17105749146E+02 -0.40685929722E+02  0.15143812277E+03  0.15773857030E+03  0.00000000000E+00 0. -1.
         -4    1    6    6    0  503  0.19373793417E+02  0.52746948277E+01  0.57249757992E+03  0.57284958348E+03  0.00000000000E+00 0.  1.
<mgrwt>
<rscale>  0 0.17165393E+04</rscale>
<asrwt>0</asrwt>
<pdfrwt beam="1">  1        1 0.38547430E+00 0.17165393E+04</pdfrwt>
<pdfrwt beam="2">  1       -2 0.45229871E-01 0.17165393E+04</pdfrwt>
<totfact> 0.52021042E+00</totfact>
</mgrwt>
</event>
<event>
12    5  0.5221187E-008  0.1588795E+04  0.7818608E-02  0.8827461E-01
          1   -1    0    0  501    0  0.00000000000E+00  0.00000000000E+00  0.42870756885E+04  0.42870756885E+04  0.00000000000E+00 0. -1.
         -2   -1    0    0    0  501 -0.00000000000E+00 -0.00000000000E+00 -0.14720238906E+03  0.14720238906E+03  0.00000000000E+00 0.  1.
        -24    2    1    2    0    0 -0.80022070959E+02 -0.45700237239E+03  0.66853463709E+03  0.81754923587E+03  0.78698741146E+02 0.  0.
        254    2    1    2    0    0  0.80022070959E+02  0.45700237239E+03  0.34713386624E+04  0.36167288417E+04  0.90292895925E+03 0.  0.
         23    2    4    4    0    0  0.64475919269E+02  0.17020833729E+03  0.32149087119E+04  0.32213154698E+04  0.90040590417E+02 0.  0.
         23    2    4    4    0    0  0.15546151690E+02  0.28679403510E+03  0.25642995044E+03  0.39541337188E+03  0.90016186208E+02 0.  0.
          3    1    3    3  502    0 -0.92851935034E+02 -0.33623424379E+03  0.50877533074E+03  0.61686893722E+03  0.00000000000E+00 0. -1.
         -4    1    3    3    0  502  0.12829864075E+02 -0.12076812860E+03  0.15975930635E+03  0.20068029864E+03  0.00000000000E+00 0.  1.
         13    1    5    5    0    0  0.89261451322E+01  0.37285287500E+00  0.27773978859E+02  0.29175486077E+02  0.00000000000E+00 0. -1.
        -13    1    5    5    0    0  0.55549774137E+02  0.16983548442E+03  0.31871347331E+04  0.31921399838E+04  0.00000000000E+00 0.  1.
          1    1    6    6  503    0  0.33001366241E+02  0.10293222740E+03  0.14082625811E+03  0.17752793748E+03  0.00000000000E+00 0. -1.
         -1    1    6    6    0  503 -0.17455214551E+02  0.18386180770E+03  0.11560369233E+03  0.21788543440E+03  0.00000000000E+00 0.  1.
<mgrwt>
<rscale>  0 0.15887955E+04</rscale>
<asrwt>0</asrwt>
<pdfrwt beam="1">  1        1 0.65955001E+00 0.15887955E+04</pdfrwt>
<pdfrwt beam="2">  1       -2 0.22646525E-01 0.15887955E+04</pdfrwt>
<totfact> 0.77367552E-01</totfact>
</mgrwt>
</event>
<event>
12    5  0.5221187E-008  0.2795545E+04  0.7818608E-02  0.8304653E-01
          1   -1    0    0  501    0  0.00000000000E+00  0.00000000000E+00  0.18088967542E+04  0.18088967542E+04  0.00000000000E+00 0. -1.
         -2   -1    0    0    0  501 -0.00000000000E+00 -0.00000000000E+00 -0.10800879406E+04  0.10800879406E+04  0.00000000000E+00 0.  1.
        -24    2    1    2    0    0  0.36531261390E+03  0.53236352300E+03 -0.78327040052E+03  0.10181673151E+04  0.79296498119E+02 0.  0.
        254    2    1    2    0    0 -0.36531261390E+03 -0.53236352300E+03  0.15120792142E+04  0.18708173797E+04  0.89258606973E+03 0.  0.
         23    2    4    4    0    0  0.13268766891E+03 -0.40719051571E+03  0.11651170141E+04  0.12444871150E+04  0.88545973671E+02 0.  0.
         23    2    4    4    0    0 -0.49800028281E+03 -0.12517300729E+03  0.34696220011E+03  0.62633026470E+03  0.90742871591E+02 0.  0.
          1    1    3    3  502    0  0.37194506667E+02  0.55470473529E+02 -0.47379759543E+02  0.81885568778E+02  0.00000000000E+00 0. -1.
         -4    1    3    3    0  502  0.32811810723E+03  0.47689304947E+03 -0.73589064098E+03  0.93628174628E+03  0.00000000000E+00 0.  1.
         13    1    5    5    0    0  0.44100368543E+02 -0.24861856754E+03  0.60231396620E+03  0.65309888111E+03  0.00000000000E+00 0. -1.
        -13    1    5    5    0    0  0.88587300365E+02 -0.15857194817E+03  0.56280304786E+03  0.59138823391E+03  0.00000000000E+00 0.  1.
          1    1    6    6  503    0 -0.22938006136E+03 -0.15433229837E+02  0.17606855046E+03  0.28957474267E+03  0.00000000000E+00 0. -1.
         -1    1    6    6    0  503 -0.26862022144E+03 -0.10973977745E+03  0.17089364965E+03  0.33675552202E+03  0.00000000000E+00 0.  1.
<mgrwt>
<rscale>  0 0.27955447E+04</rscale>
<asrwt>0</asrwt>
<pdfrwt beam="1">  1        1 0.27829181E+00 0.27955447E+04</pdfrwt>
<pdfrwt beam="2">  1       -2 0.16616738E+00 0.27955447E+04</pdfrwt>
<totfact> 0.69428556E-01</totfact>
</mgrwt>
</event>
<event>
12    5  0.5221187E-008  0.2757139E+04  0.7818608E-02  0.8316700E-01
          1   -1    0    0  501    0  0.00000000000E+00  0.00000000000E+00  0.98038348787E+03  0.98038348787E+03  0.00000000000E+00 0. -1.
         -2   -1    0    0    0  501 -0.00000000000E+00 -0.00000000000E+00 -0.19384802690E+04  0.19384802690E+04  0.00000000000E+00 0.  1.
        -24    2    1    2    0    0 -0.17160515334E+03  0.12039689784E+04 -0.57089546423E+03  0.13458686392E+04  0.80318948626E+02 0.  0.
        254    2    1    2    0    0  0.17160515334E+03 -0.12039689784E+04 -0.38720131691E+03  0.15729951176E+04  0.91945589934E+03 0.  0.
         23    2    4    4    0    0  0.27772329834E+03 -0.96780180738E+03  0.97713708214E+02  0.10157443288E+04  0.91749680828E+02 0.  0.
         23    2    4    4    0    0 -0.10611814500E+03 -0.23616717098E+03 -0.48491502512E+03  0.55725078884E+03  0.91377605177E+02 0.  0.
          3    1    3    3  502    0 -0.95256010205E+02  0.44288513564E+03 -0.18788319385E+03  0.49042944996E+03  0.00000000000E+00 0. -1.
         -4    1    3    3    0  502 -0.76349143140E+02  0.76108384271E+03 -0.38301227038E+03  0.85543918928E+03  0.00000000000E+00 0.  1.
         13    1    5    5    0    0  0.19183356922E+03 -0.71401884791E+03  0.11031890670E+03  0.74752477860E+03  0.00000000000E+00 0.  1.
        -13    1    5    5    0    0  0.85889729123E+02 -0.25378295946E+03 -0.12605198481E+02  0.26821955021E+03  0.00000000000E+00 0. -1.
          1    1    6    6  503    0 -0.63156816881E+02 -0.52411275986E+02 -0.10711578536E+03  0.13494264279E+03  0.00000000000E+00 0. -1.
         -1    1    6    6    0  503 -0.42961328115E+02 -0.18375589499E+03 -0.37779923976E+03  0.42230814605E+03  0.00000000000E+00 0.  1.
<mgrwt>
<rscale>  0 0.27571391E+04</rscale>
<asrwt>0</asrwt>
<pdfrwt beam="1">  1        1 0.15082823E+00 0.27571391E+04</pdfrwt>
<pdfrwt beam="2">  1       -2 0.29822773E+00 0.27571391E+04</pdfrwt>
<totfact> 0.38944895E-01</totfact>
</mgrwt>
</event>
<event>
12    5  0.5221187E-008  0.1294555E+04  0.7818608E-02  0.9033894E-01
          1   -1    0    0  501    0  0.00000000000E+00  0.00000000000E+00  0.27469252977E+04  0.27469252977E+04  0.00000000000E+00 0. -1.
         -2   -1    0    0    0  501 -0.00000000000E+00 -0.00000000000E+00 -0.15252265187E+03  0.15252265187E+03  0.00000000000E+00 0.  1.
        -24    2    1    2    0    0 -0.29319974094E+03 -0.12502761696E+03  0.47899358985E+03  0.58070120825E+03  0.78619597133E+02 0.  0.
        254    2    1    2    0    0  0.29319974094E+03  0.12502761696E+03  0.21154090560E+04  0.23187467413E+04  0.89444562899E+03 0.  0.
         23    2    4    4    0    0  0.30316027362E+03 -0.34226037455E+03  0.92142682549E+03  0.10328665914E+04  0.93475587701E+02 0.  0.
         23    2    4    4    0    0 -0.99605326795E+01  0.46728799151E+03  0.11939822305E+04  0.12858801499E+04  0.97143779705E+02 0.  0.
          3    1    3    3  502    0 -0.16097881479E+03 -0.48200841877E+02  0.31125395916E+03  0.35371814636E+03  0.00000000000E+00 0. -1.
         -4    1    3    3    0  502 -0.13222092615E+03 -0.76826775084E+02  0.16773963069E+03  0.22698306189E+03  0.00000000000E+00 0.  1.
         13    1    5    5    0    0  0.76685508073E+02 -0.33310402651E+02  0.16500942726E+03  0.18498205631E+03  0.00000000000E+00 0. -1.
        -13    1    5    5    0    0  0.22647476555E+03 -0.30894997189E+03  0.75641739823E+03  0.84788453513E+03  0.00000000000E+00 0.  1.
          2    1    6    6  503    0 -0.35132378527E+02  0.27044422312E+03  0.79084365906E+03  0.83654530954E+03  0.00000000000E+00 0. -1.
         -2    1    6    6    0  503  0.25171845848E+02  0.19684376839E+03  0.40313857145E+03  0.44933484036E+03  0.00000000000E+00 0.  1.
<mgrwt>
<rscale>  0 0.12945553E+04</rscale>
<asrwt>0</asrwt>
<pdfrwt beam="1">  1        1 0.42260386E+00 0.12945553E+04</pdfrwt>
<pdfrwt beam="2">  1       -2 0.23465025E-01 0.12945553E+04</pdfrwt>
<totfact> 0.12712369E+01</totfact>
</mgrwt>
</event>
<event>
12    5  0.5221187E-008  0.1760745E+04  0.7818608E-02  0.8727458E-01
         -2   -1    0    0    0  501 -0.00000000000E+00  0.00000000000E+00  0.77972312756E+03  0.77972312756E+03  0.00000000000E+00 0.  1.
          1   -1    0    0  501    0  0.00000000000E+00 -0.00000000000E+00 -0.99401401106E+03  0.99401401106E+03  0.00000000000E+00 0. -1.
        -24    2    1    2    0    0 -0.40466178790E+03 -0.88491363823E+01 -0.56926067718E+03  0.70305257550E+03  0.79973342604E+02 0.  0.
        254    2    1    2    0    0  0.40466178790E+03  0.88491363823E+01  0.35496979368E+03  0.10706845631E+04  0.92549036163E+03 0.  0.
         23    2    4    4    0    0  0.18393327097E+03  0.34693389179E+03  0.49017929406E+03  0.63553594571E+03  0.97137142838E+02 0.  0.
         23    2    4    4    0    0  0.22072851692E+03 -0.33808475541E+03 -0.13520950038E+03  0.43514861741E+03  0.89723632430E+02 0.  0.
          1    1    3    3  502    0 -0.40654662357E+03 -0.12790264347E+02 -0.56778044783E+03  0.69843996516E+03  0.00000000000E+00 0. -1.
         -2    1    3    3    0  502  0.18848356772E+01  0.39411279647E+01 -0.14802293589E+01  0.46126103368E+01  0.00000000000E+00 0.  1.
         13    1    5    5    0    0  0.13279848084E+03  0.21799050918E+03  0.38288584940E+03  0.46017048176E+03  0.00000000000E+00 0. -1.
        -13    1    5    5    0    0  0.51134790127E+02  0.12894338261E+03  0.10729344466E+03  0.17536546395E+03  0.00000000000E+00 0.  1.
          4    1    6    6  503    0  0.20112686104E+03 -0.31721683322E+03 -0.14810332535E+03  0.40374884333E+03  0.00000000000E+00 0. -1.
         -4    1    6    6    0  503  0.19601655884E+02 -0.20867922193E+02  0.12893824971E+02  0.31399774083E+02  0.00000000000E+00 0.  1.
<mgrwt>
<rscale>  0 0.17607450E+04</rscale>
<asrwt>0</asrwt>
<pdfrwt beam="1">  1        1 0.15292523E+00 0.17607450E+04</pdfrwt>
<pdfrwt beam="2">  1       -2 0.11995740E+00 0.17607450E+04</pdfrwt>
<totfact> 0.67463787E+00</totfact>
</mgrwt>
</event>
<event>
12    5  0.5221187E-008  0.1683427E+04  0.7818608E-02  0.8770873E-01
         -2   -1    0    0    0  501 -0.00000000000E+00  0.00000000000E+00  0.31857913331E+03  0.31857913331E+03  0.00000000000E+00 0.  1.
          1   -1    0    0  501    0  0.00000000000E+00 -0.00000000000E+00 -0.22238808396E+04  0.22238808396E+04  0.00000000000E+00 0. -1.
        -24    2    1    2    0    0 -0.27565827599E+03  0.26124919914E+03  0.13114577557E+02  0.38824999766E+03  0.79545203325E+02 0.  0.
        254    2    1    2    0    0  0.27565827599E+03 -0.26124919914E+03 -0.19184162839E+04  0.21542099753E+04  0.90336091912E+03 0.  0.
         23    2    4    4    0    0  0.41300640517E+03  0.68153119577E+02 -0.16305216521E+04  0.16858276364E+04  0.90525263111E+02 0.  0.
         23    2    4    4    0    0 -0.13734812918E+03 -0.32940231871E+03 -0.28789463173E+03  0.46838233884E+03  0.95542138319E+02 0.  0.
          3    1    3    3  502    0 -0.80139598788E+00 -0.45024400533E+01 -0.31972474744E+01  0.55800173275E+01  0.00000000000E+00 0. -1.
         -4    1    3    3    0  502 -0.27485688000E+03  0.26575163919E+03  0.16311825031E+02  0.38266998034E+03  0.00000000000E+00 0.  1.
         13    1    5    5    0    0  0.14586049612E+03  0.22814107805E+02 -0.75633678697E+03  0.77061086364E+03  0.00000000000E+00 0.  1.
        -13    1    5    5    0    0  0.26714590904E+03  0.45339011772E+02 -0.87418486516E+03  0.91521677279E+03  0.00000000000E+00 0. -1.
          3    1    6    6  503    0 -0.12521263118E+03 -0.31465206492E+03 -0.23515057507E+03  0.41228620874E+03  0.00000000000E+00 0. -1.
         -3    1    6    6    0  503 -0.12135497998E+02 -0.14750253796E+02 -0.52744056662E+02  0.56096130097E+02  0.00000000000E+00 0.  1.
<mgrwt>
<rscale>  0 0.16834275E+04</rscale>
<asrwt>0</asrwt>
<pdfrwt beam="1">  1        1 0.34213551E+00 0.16834275E+04</pdfrwt>
<pdfrwt beam="2">  1       -2 0.49012175E-01 0.16834275E+04</pdfrwt>
<totfact> 0.69253319E+00</totfact>
</mgrwt>
</event>
<event>
12    5  0.5633488E-008  0.2405339E+04  0.7818608E-02  0.8437507E-01
          1   -1    0    0  501    0  0.00000000000E+00  0.00000000000E+00  0.13696763223E+04  0.13696763223E+04  0.00000000000E+00 0. -1.
         -2   -1    0    0    0  501 -0.00000000000E+00 -0.00000000000E+00 -0.10560260386E+04  0.10560260386E+04  0.00000000000E+00 0.  1.
        -24    2    1    2    0    0 -0.62754431194E+03  0.47513575280E+02  0.95515099634E+03  0.11464744286E+04  0.77593725678E+02 0.  0.
        254    2    1    2    0    0  0.62754431194E+03 -0.47513575280E+02 -0.64150071266E+03  0.12792279323E+04  0.91040185365E+03 0.  0.
         23    2    4    4    0    0  0.71358231927E+03 -0.13310227276E+03 -0.12715426642E+03  0.74256113706E+03  0.91175070116E+02 0.  0.
         23    2    4    4    0    0 -0.86038007322E+02  0.85588697484E+02 -0.51434644623E+03  0.53666679524E+03  0.93439919292E+02 0.  0.
          3    1    3    3  502    0 -0.57618815442E+03  0.64735139619E+02  0.86700047941E+03  0.10430116293E+04  0.00000000000E+00 0. -1.
         -4    1    3    3    0  502 -0.51356157528E+02 -0.17221564339E+02  0.88150516934E+02  0.10346279926E+03  0.00000000000E+00 0.  1.
         13    1    5    5    0    0  0.65751861573E+03 -0.13515841725E+03 -0.95159947371E+02  0.67797783398E+03  0.00000000000E+00 0. -1.
        -13    1    5    5    0    0  0.56063703534E+02  0.20561444869E+01 -0.31994319053E+02  0.64583303073E+02  0.00000000000E+00 0.  1.
          2    1    6    6  503    0 -0.69160159291E+02  0.10199014528E+03 -0.47584620932E+03  0.49154321508E+03  0.00000000000E+00 0. -1.
         -2    1    6    6    0  503 -0.16877848031E+02 -0.16401447793E+02 -0.38500236910E+02  0.45123580155E+02  0.00000000000E+00 0.  1.
<mgrwt>
<rscale>  0 0.24053389E+04</rscale>
<asrwt>0</asrwt>
<pdfrwt beam="1">  1        1 0.21071943E+00 0.24053389E+04</pdfrwt>
<pdfrwt beam="2">  1       -2 0.16246554E+00 0.24053389E+04</pdfrwt>
<totfact> 0.15329138E+00</totfact>
</mgrwt>
</event>
<event>
12    5  0.5221187E-008  0.1531193E+04  0.7818608E-02  0.8863971E-01
         -2   -1    0    0    0  501 -0.00000000000E+00  0.00000000000E+00  0.20933563096E+03  0.20933563096E+03  0.00000000000E+00 0.  1.
          1   -1    0    0  501    0  0.00000000000E+00 -0.00000000000E+00 -0.27999928384E+04  0.27999928384E+04  0.00000000000E+00 0. -1.
        -24    2    1    2    0    0  0.18178078009E+03  0.24198071263E+03 -0.17228135303E+04  0.17510265315E+04  0.80053335629E+02 0.  0.
        254    2    1    2    0    0 -0.18178078009E+03 -0.24198071263E+03 -0.86784367718E+03  0.12583019379E+04  0.85940223504E+03 0.  0.
         23    2    4    4    0    0  0.42555149667E+02  0.25198619391E+03 -0.57634372952E+03  0.63558477038E+03  0.80547644934E+02 0.  0.
         23    2    4    4    0    0 -0.22433592976E+03 -0.49396690654E+03 -0.29149994767E+03  0.62271716752E+03  0.92057248982E+02 0.  0.
          3    1    3    3  502    0  0.18829272390E+03  0.21762819301E+03 -0.15941638064E+04  0.16199303757E+04  0.00000000000E+00 0. -1.
         -4    1    3    3    0  502 -0.65119438042E+01  0.24352519624E+02 -0.12864972386E+03  0.13109615583E+03  0.00000000000E+00 0.  1.
         13    1    5    5    0    0  0.29373033220E+02  0.23817575877E+03 -0.56377915111E+03  0.61272946589E+03  0.00000000000E+00 0. -1.
        -13    1    5    5    0    0  0.13182116447E+02  0.13810435141E+02 -0.12564578405E+02  0.22855304489E+02  0.00000000000E+00 0.  1.
          2    1    6    6  503    0 -0.59492842176E+02 -0.64623917266E+02 -0.25653562227E+02  0.91508219346E+02  0.00000000000E+00 0.  1.
         -2    1    6    6    0  503 -0.16484308758E+03 -0.42934298928E+03 -0.26584638544E+03  0.53120894817E+03  0.00000000000E+00 0. -1.
<mgrwt>
<rscale>  0 0.15311933E+04</rscale>
<asrwt>0</asrwt>
<pdfrwt beam="1">  1        1 0.43076814E+00 0.15311933E+04</pdfrwt>
<pdfrwt beam="2">  1       -2 0.32205481E-01 0.15311933E+04</pdfrwt>
<totfact> 0.63647197E+00</totfact>
</mgrwt>
</event>
<event>
12    5  0.5221187E-008  0.1645909E+04  0.7818608E-02  0.8792830E-01
          1   -1    0    0  501    0  0.00000000000E+00  0.00000000000E+00  0.24537616705E+04  0.24537616705E+04  0.00000000000E+00 0. -1.
         -2   -1    0    0    0  501 -0.00000000000E+00 -0.00000000000E+00 -0.27600641660E+03  0.27600641660E+03  0.00000000000E+00 0.  1.
        -24    2    1    2    0    0  0.31682187630E+02  0.38420599371E+03  0.14501440060E+04  0.15038937636E+04  0.10080083031E+03 0.  0.
        254    2    1    2    0    0 -0.31682187630E+02 -0.38420599371E+03  0.72761124790E+03  0.12258743235E+04  0.90814741224E+03 0.  0.
         23    2    4    4    0    0  0.35458315881E+03 -0.79104429331E+02  0.43850470098E+02  0.37827755325E+03  0.95834838696E+02 0.  0.
         23    2    4    4    0    0 -0.38626534644E+03 -0.30510156438E+03  0.68376077780E+03  0.84759677026E+03  0.92755599581E+02 0.  0.
          1    1    3    3  502    0  0.23376763417E+02  0.38086636046E+03  0.14425184187E+04  0.14921343927E+04  0.00000000000E+00 0. -1.
         -2    1    3    3    0  502  0.83054242133E+01  0.33396332488E+01  0.76255872700E+01  0.11759370851E+02  0.00000000000E+00 0.  1.
         13    1    5    5    0    0  0.87082599898E+02 -0.42475600105E+02 -0.24140802795E+02  0.99851560673E+02  0.00000000000E+00 0.  1.
        -13    1    5    5    0    0  0.26750055892E+03 -0.36628829226E+02  0.67991272892E+02  0.27842599257E+03  0.00000000000E+00 0. -1.
          1    1    6    6  503    0 -0.37637094511E+03 -0.30456154490E+03  0.63874677437E+03  0.80150499981E+03  0.00000000000E+00 0. -1.
         -1    1    6    6    0  503 -0.98944013330E+01 -0.54001948327E+00  0.45014003426E+02  0.46091770450E+02  0.00000000000E+00 0.  1.
<mgrwt>
<rscale>  0 0.16459088E+04</rscale>
<asrwt>0</asrwt>
<pdfrwt beam="1">  1        1 0.37750178E+00 0.16459088E+04</pdfrwt>
<pdfrwt beam="2">  1       -2 0.42462527E-01 0.16459088E+04</pdfrwt>
<totfact> 0.64467823E+00</totfact>
</mgrwt>
</event>
<event>
12    5  0.5221187E-008  0.1118886E+04  0.7818608E-02  0.9186977E-01
          1   -1    0    0  501    0  0.00000000000E+00  0.00000000000E+00  0.84611811847E+03  0.84611811847E+03  0.00000000000E+00 0. -1.
         -2   -1    0    0    0  501 -0.00000000000E+00 -0.00000000000E+00 -0.36989720284E+03  0.36989720284E+03  0.00000000000E+00 0.  1.
        -24    2    1    2    0    0 -0.11505819993E+03 -0.68318434713E+02  0.27063546838E+03  0.31271434382E+03  0.81491755379E+02 0.  0.
        254    2    1    2    0    0  0.11505819993E+03  0.68318434713E+02  0.20558544725E+03  0.90330097748E+03  0.86935693585E+03 0.  0.
         23    2    4    4    0    0 -0.23399872537E+03  0.16743069991E+03 -0.19156737099E+03  0.35746086328E+03  0.91059147806E+02 0.  0.
         23    2    4    4    0    0  0.34905692529E+03 -0.99112265202E+02  0.39715281824E+03  0.54584011421E+03  0.92450478804E+02 0.  0.
          1    1    3    3  502    0 -0.12316045695E+03 -0.70247456055E+02  0.22230584628E+03  0.26367232036E+03  0.00000000000E+00 0. -1.
         -2    1    3    3    0  502  0.81022570210E+01  0.19290213413E+01  0.48329622101E+02  0.49042023456E+02  0.00000000000E+00 0.  1.
         13    1    5    5    0    0 -0.19785510847E+01  0.16181667293E+02  0.58700574334E+01  0.17326817222E+02  0.00000000000E+00 0. -1.
        -13    1    5    5    0    0 -0.23202017428E+03  0.15124903262E+03 -0.19743742842E+03  0.34013404605E+03  0.00000000000E+00 0.  1.
          4    1    6    6  503    0  0.57473165883E+02 -0.41359933433E+02  0.40552202817E+02  0.81598345838E+02  0.00000000000E+00 0. -1.
         -4    1    6    6    0  503  0.29158375941E+03 -0.57752331769E+02  0.35660061542E+03  0.46424176837E+03  0.00000000000E+00 0.  1.
<mgrwt>
<rscale>  0 0.11188865E+04</rscale>
<asrwt>0</asrwt>
<pdfrwt beam="1">  1        1 0.13017202E+00 0.11188865E+04</pdfrwt>
<pdfrwt beam="2">  1       -2 0.56907262E-01 0.11188865E+04</pdfrwt>
<totfact> 0.50961438E+01</totfact>
</mgrwt>
</event>
<event>
12    5  0.5221187E-008  0.1266654E+04  0.7818608E-02  0.9056435E-01
          1   -1    0    0  501    0  0.00000000000E+00  0.00000000000E+00  0.57159765377E+03  0.57159765377E+03  0.00000000000E+00 0. -1.
         -2   -1    0    0    0  501 -0.00000000000E+00 -0.00000000000E+00 -0.70172300650E+03  0.70172300650E+03  0.00000000000E+00 0.  1.
        -24    2    1    2    0    0 -0.41133954683E+02 -0.10066015145E+03  0.25436917735E+03  0.28803465786E+03  0.80223546572E+02 0.  0.
        254    2    1    2    0    0  0.41133954683E+02  0.10066015145E+03 -0.38449453007E+03  0.98528600241E+03  0.90062644563E+03 0.  0.
         23    2    4    4    0    0  0.25166984228E+03  0.30134961701E+03 -0.51418831840E+03  0.65397004359E+03  0.95592311131E+02 0.  0.
         23    2    4    4    0    0 -0.21053588759E+03 -0.20068946557E+03  0.12969378833E+03  0.33131595882E+03  0.91368289275E+02 0.  0.
          1    1    3    3  502    0 -0.30158064953E+02 -0.79172193229E+02  0.24940292015E+03  0.26340000311E+03  0.00000000000E+00 0. -1.
         -2    1    3    3    0  502 -0.10975889730E+02 -0.21487958217E+02  0.49662572012E+01  0.24634654743E+02  0.00000000000E+00 0.  1.
         13    1    5    5    0    0  0.24481700881E+03  0.28020565416E+03 -0.51006968710E+03  0.63136491993E+03  0.00000000000E+00 0. -1.
        -13    1    5    5    0    0  0.68528334654E+01  0.21143962853E+02 -0.41186313005E+01  0.22605123654E+02  0.00000000000E+00 0.  1.
          4    1    6    6  503    0 -0.21895455807E+03 -0.19423824217E+03  0.11815315686E+03  0.31564182501E+03  0.00000000000E+00 0. -1.
         -4    1    6    6    0  503  0.84186704795E+01 -0.64512234016E+01  0.11540631470E+02  0.15674133812E+02  0.00000000000E+00 0.  1.
<mgrwt>
<rscale>  0 0.12666542E+04</rscale>
<asrwt>0</asrwt>
<pdfrwt beam="1">  1        1 0.87938101E-01 0.12666542E+04</pdfrwt>
<pdfrwt beam="2">  1       -2 0.10795739E+00 0.12666542E+04</pdfrwt>
<totfact> 0.21757299E+01</totfact>
</mgrwt>
</event>
<event>
12    5  0.5221187E-008  0.2272244E+04  0.7818608E-02  0.8488946E-01
          1   -1    0    0  501    0  0.00000000000E+00  0.00000000000E+00  0.19618454345E+04  0.19618454345E+04  0.00000000000E+00 0. -1.
         -2   -1    0    0    0  501 -0.00000000000E+00 -0.00000000000E+00 -0.65793802725E+03  0.65793802725E+03  0.00000000000E+00 0.  1.
        -24    2    1    2    0    0 -0.47737865092E+03  0.63838968210E+03 -0.55023888121E+02  0.80488884769E+03  0.96884809454E+02 0.  0.
        254    2    1    2    0    0  0.47737865092E+03 -0.63838968210E+03  0.13589312953E+04  0.18148946140E+04  0.90095306872E+03 0.  0.
         23    2    4    4    0    0  0.64465486760E+03 -0.67722509237E+03  0.13127998221E+04  0.16148407177E+04  0.10026687711E+03 0.  0.
         23    2    4    4    0    0 -0.16727621668E+03  0.38835410267E+02  0.46131473290E+02  0.20005389636E+03  0.91672934185E+02 0.  0.
          1    1    3    3  502    0 -0.19029427620E+03  0.26743365265E+03 -0.69886892418E+02  0.33558433792E+03  0.00000000000E+00 0. -1.
         -2    1    3    3    0  502 -0.28708437472E+03  0.37095602946E+03  0.14863004297E+02  0.46930450978E+03  0.00000000000E+00 0.  1.
         13    1    5    5    0    0  0.32180002853E+03 -0.40486618727E+03  0.68966159884E+03  0.86203538725E+03  0.00000000000E+00 0. -1.
        -13    1    5    5    0    0  0.32285483908E+03 -0.27235890510E+03  0.62313822322E+03  0.75280533044E+03  0.00000000000E+00 0.  1.
          2    1    6    6  503    0 -0.63759314872E+02 -0.24383032748E+02  0.38844315323E+02  0.78540838752E+02  0.00000000000E+00 0.  1.
         -2    1    6    6    0  503 -0.10351690181E+03  0.63218443015E+02  0.72871579664E+01  0.12151305761E+03  0.00000000000E+00 0. -1.
<mgrwt>
<rscale>  0 0.22722436E+04</rscale>
<asrwt>0</asrwt>
<pdfrwt beam="1">  1        1 0.30182237E+00 0.22722436E+04</pdfrwt>
<pdfrwt beam="2">  1       -2 0.10122124E+00 0.22722436E+04</pdfrwt>
<totfact> 0.20202927E+00</totfact>
</mgrwt>
</event>
<event>
12    5  0.5823023E-008  0.2214821E+04  0.7818608E-02  0.8512285E-01
         -2   -1    0    0    0  501 -0.00000000000E+00  0.00000000000E+00  0.51315806739E+03  0.51315806739E+03  0.00000000000E+00 0.  1.
          1   -1    0    0  501    0  0.00000000000E+00 -0.00000000000E+00 -0.23898243583E+04  0.23898243583E+04  0.00000000000E+00 0. -1.
        -24    2    1    2    0    0 -0.27009796939E+03 -0.47357775672E+03  0.18558035612E+03  0.58137033628E+03  0.79514744538E+02 0.  0.
        254    2    1    2    0    0  0.27009796939E+03  0.47357775672E+03 -0.20622466471E+04  0.23216120894E+04  0.91640201647E+03 0.  0.
         23    2    4    4    0    0 -0.17887325486E+03  0.36895496826E+03 -0.16277368582E+04  0.16811172126E+04  0.92219266907E+02 0.  0.
         23    2    4    4    0    0  0.44897122425E+03  0.10462278846E+03 -0.43450978889E+03  0.64049487682E+03  0.94413148069E+02 0.  0.
          3    1    3    3  502    0 -0.82019287732E+02 -0.79402290513E+02  0.41664223014E+02  0.12152281587E+03  0.00000000000E+00 0. -1.
         -4    1    3    3    0  502 -0.18807868166E+03 -0.39417546621E+03  0.14391613310E+03  0.45984752041E+03  0.00000000000E+00 0.  1.
         13    1    5    5    0    0 -0.18374739649E+03  0.32395990181E+03 -0.15018569934E+04  0.15473485555E+04  0.00000000000E+00 0.  1.
        -13    1    5    5    0    0  0.48741416364E+01  0.44995066447E+02 -0.12587986481E+03  0.13376865712E+03  0.00000000000E+00 0. -1.
          3    1    6    6  503    0 -0.19963086037E+01  0.10370785372E+01 -0.17361332232E+02  0.17506474140E+02  0.00000000000E+00 0. -1.
         -3    1    6    6    0  503  0.45096753285E+03  0.10358570992E+03 -0.41714845665E+03  0.62298840268E+03  0.00000000000E+00 0.  1.
<mgrwt>
<rscale>  0 0.22148207E+04</rscale>
<asrwt>0</asrwt>
<pdfrwt beam="1">  1        1 0.36766528E+00 0.22148207E+04</pdfrwt>
<pdfrwt beam="2">  1       -2 0.78947395E-01 0.22148207E+04</pdfrwt>
<totfact> 0.18395679E+00</totfact>
</mgrwt>
</event>
<event>
12    5  0.5221187E-008  0.2018262E+04  0.7818608E-02  0.8598130E-01
         -2   -1    0    0    0  501 -0.00000000000E+00  0.00000000000E+00  0.79812494620E+03  0.79812494620E+03  0.00000000000E+00 0.  1.
          1   -1    0    0  501    0  0.00000000000E+00 -0.00000000000E+00 -0.12759226253E+04  0.12759226253E+04  0.00000000000E+00 0. -1.
        -24    2    1    2    0    0 -0.74342568271E+02 -0.39948096953E+03 -0.90545725888E+03  0.99569320058E+03  0.80251103048E+02 0.  0.
        254    2    1    2    0    0  0.74342568271E+02  0.39948096953E+03  0.42765957982E+03  0.10783543709E+04  0.90268686182E+03 0.  0.
         23    2    4    4    0    0  0.17005633774E+03 -0.21631350953E+03  0.33310071616E+03  0.44153785162E+03  0.91043368202E+02 0.  0.
         23    2    4    4    0    0 -0.95713769465E+02  0.61579447906E+03  0.94558863665E+02  0.63681651926E+03  0.90718985893E+02 0.  0.
          1    1    3    3  502    0 -0.56354825042E+02 -0.20508202937E+03 -0.55777326535E+03  0.59694683231E+03  0.00000000000E+00 0. -1.
         -2    1    3    3    0  502 -0.17987743229E+02 -0.19439894016E+03 -0.34768399354E+03  0.39874636826E+03  0.00000000000E+00 0.  1.
         13    1    5    5    0    0  0.16230920962E+03 -0.20925490761E+03  0.27230203789E+03  0.37984246172E+03  0.00000000000E+00 0. -1.
        -13    1    5    5    0    0  0.77471281183E+01 -0.70586019231E+01  0.60798678273E+02  0.61695389900E+02  0.00000000000E+00 0.  1.
          1    1    6    6  503    0 -0.11037454071E+03  0.57322480360E+03  0.78470757819E+02  0.58900498684E+03  0.00000000000E+00 0. -1.
         -1    1    6    6    0  503  0.14660771241E+02  0.42569675466E+02  0.16088105847E+02  0.47811532420E+02  0.00000000000E+00 0.  1.
<mgrwt>
<rscale>  0 0.20182623E+04</rscale>
<asrwt>0</asrwt>
<pdfrwt beam="1">  1        1 0.19629579E+00 0.20182623E+04</pdfrwt>
<pdfrwt beam="2">  1       -2 0.12278845E+00 0.20182623E+04</pdfrwt>
<totfact> 0.38354223E+00</totfact>
</mgrwt>
</event>
<event>
12    5  0.5221187E-008  0.1484658E+04  0.7818608E-02  0.8894720E-01
         -2   -1    0    0    0  501 -0.00000000000E+00  0.00000000000E+00  0.57757972457E+03  0.57757972457E+03  0.00000000000E+00 0.  1.
          1   -1    0    0  501    0  0.00000000000E+00 -0.00000000000E+00 -0.95407087333E+03  0.95407087333E+03  0.00000000000E+00 0. -1.
        -24    2    1    2    0    0  0.11924407070E+03 -0.10637040150E+03 -0.56485729905E+03  0.59223190316E+03  0.78364839832E+02 0.  0.
        254    2    1    2    0    0 -0.11924407070E+03  0.10637040150E+03  0.18836615029E+03  0.93941869474E+03  0.90636188509E+03 0.  0.
         23    2    4    4    0    0 -0.39517138046E+03  0.34643176194E+03  0.17804412311E+03  0.56211641471E+03  0.89998712795E+02 0.  0.
         23    2    4    4    0    0  0.27592730976E+03 -0.24006136044E+03  0.10322027184E+02  0.37730228003E+03  0.92114761144E+02 0.  0.
          3    1    3    3  502    0  0.97015559797E+02 -0.10717889491E+03 -0.53934936332E+03  0.55838792078E+03  0.00000000000E+00 0. -1.
         -4    1    3    3    0  502  0.22228510901E+02  0.80849341019E+00 -0.25507935730E+02  0.33843982385E+02  0.00000000000E+00 0.  1.
         13    1    5    5    0    0 -0.23350037637E+01  0.13798110460E+01 -0.69778719465E+01  0.74864422792E+01  0.00000000000E+00 0.  1.
        -13    1    5    5    0    0 -0.39283637670E+03  0.34505195089E+03  0.18502199506E+03  0.55462997244E+03  0.00000000000E+00 0. -1.
          2    1    6    6  503    0  0.19464701165E+03 -0.21927770189E+03  0.10798254053E+02  0.29340547367E+03  0.00000000000E+00 0. -1.
         -2    1    6    6    0  503  0.81280298117E+02 -0.20783658543E+02 -0.47622686958E+00  0.83896806354E+02  0.00000000000E+00 0.  1.
<mgrwt>
<rscale>  0 0.14846575E+04</rscale>
<asrwt>0</asrwt>
<pdfrwt beam="1">  1        1 0.14678013E+00 0.14846575E+04</pdfrwt>
<pdfrwt beam="2">  1       -2 0.88858420E-01 0.14846575E+04</pdfrwt>
<totfact> 0.15201611E+01</totfact>
</mgrwt>
</event>
<event>
12    5  0.5221187E-008  0.2618222E+04  0.7818608E-02  0.8362038E-01
          1   -1    0    0  501    0  0.00000000000E+00  0.00000000000E+00  0.99569229112E+03  0.99569229112E+03  0.00000000000E+00 0. -1.
         -2   -1    0    0    0  501 -0.00000000000E+00 -0.00000000000E+00 -0.17211861741E+04  0.17211861741E+04  0.00000000000E+00 0.  1.
        -24    2    1    2    0    0 -0.46001460512E+03  0.96168633295E+03 -0.77801147921E+03  0.13221743823E+04  0.79932443055E+02 0.  0.
        254    2    1    2    0    0  0.46001460512E+03 -0.96168633295E+03  0.52517596282E+02  0.13947040829E+04  0.89776797728E+03 0.  0.
         23    2    4    4    0    0  0.14723712691E+03 -0.96914535188E+03 -0.17179637063E+03  0.99929855099E+03  0.90344432182E+02 0.  0.
         23    2    4    4    0    0  0.31277747821E+03  0.74590189329E+01  0.22431396691E+03  0.39540553191E+03  0.90240739576E+02 0.  0.
          1    1    3    3  502    0 -0.31009932498E+03  0.61105310090E+03 -0.54235668243E+03  0.87389830899E+03  0.00000000000E+00 0. -1.
         -2    1    3    3    0  502 -0.14991528014E+03  0.35063323205E+03 -0.23565479678E+03  0.44827607329E+03  0.00000000000E+00 0.  1.
         13    1    5    5    0    0  0.13095076246E+03 -0.88205879783E+03 -0.12934983244E+03  0.90105893490E+03  0.00000000000E+00 0.  1.
        -13    1    5    5    0    0  0.16286364456E+02 -0.87086554054E+02 -0.42446538190E+02  0.98239616085E+02  0.00000000000E+00 0. -1.
          3    1    6    6  503    0  0.51996523197E+02 -0.38535367333E+01  0.84504832881E+02  0.99295291682E+02  0.00000000000E+00 0. -1.
         -3    1    6    6    0  503  0.26078095501E+03  0.11312555666E+02  0.13980913403E+03  0.29611024023E+03  0.00000000000E+00 0.  1.
<mgrwt>
<rscale>  0 0.26182221E+04</rscale>
<asrwt>0</asrwt>
<pdfrwt beam="1">  1        1 0.15318343E+00 0.26182221E+04</pdfrwt>
<pdfrwt beam="2">  1       -2 0.26479787E+00 0.26182221E+04</pdfrwt>
<totfact> 0.61336426E-01</totfact>
</mgrwt>
</event>
<event>
12    5  0.5221187E-008  0.2390044E+04  0.7818608E-02  0.8443240E-01
          1   -1    0    0  501    0  0.00000000000E+00  0.00000000000E+00  0.74356868809E+03  0.74356868809E+03  0.00000000000E+00 0. -1.
         -2   -1    0    0    0  501 -0.00000000000E+00 -0.00000000000E+00 -0.19205728378E+04  0.19205728378E+04  0.00000000000E+00 0.  1.
        -24    2    1    2    0    0 -0.89791921925E+02 -0.40224482300E+03 -0.15514888947E+04  0.16072802588E+04  0.79803213721E+02 0.  0.
        254    2    1    2    0    0  0.89791921925E+02  0.40224482300E+03  0.37448474499E+03  0.10568612671E+04  0.89825020284E+03 0.  0.
         23    2    4    4    0    0 -0.31984496518E+03  0.23896266631E+03 -0.79663513964E+02  0.41719574944E+03  0.91115642198E+02 0.  0.
         23    2    4    4    0    0  0.40963688711E+03  0.16328215668E+03  0.45414825895E+03  0.63966551770E+03  0.91966795397E+02 0.  0.
          1    1    3    3  502    0 -0.91029500902E+01 -0.10107915749E+03 -0.27102731879E+03  0.28940571403E+03  0.00000000000E+00 0. -1.
         -2    1    3    3    0  502 -0.80688971835E+02 -0.30116566551E+03 -0.12804615759E+04  0.13178745447E+04  0.00000000000E+00 0.  1.
         13    1    5    5    0    0 -0.36587752896E+02  0.42925347526E+01  0.10815339260E+02  0.38393503095E+02  0.00000000000E+00 0. -1.
        -13    1    5    5    0    0 -0.28325721229E+03  0.23467013156E+03 -0.90478853223E+02  0.37880224635E+03  0.00000000000E+00 0.  1.
          2    1    6    6  503    0  0.38941482724E+03  0.13341843567E+03  0.39569260538E+03  0.57097900540E+03  0.00000000000E+00 0. -1.
         -2    1    6    6    0  503  0.20222059870E+02  0.29863721015E+02  0.58455653573E+02  0.68686512307E+02  0.00000000000E+00 0.  1.
<mgrwt>
<rscale>  0 0.23900442E+04</rscale>
<asrwt>0</asrwt>
<pdfrwt beam="1">  1        1 0.11439518E+00 0.23900442E+04</pdfrwt>
<pdfrwt beam="2">  1       -2 0.29547274E+00 0.23900442E+04</pdfrwt>
<totfact> 0.66129542E-01</totfact>
</mgrwt>
</event>
<event>
12    5  0.5221187E-008  0.1769421E+04  0.7818608E-02  0.8722732E-01
         -2   -1    0    0    0  501 -0.00000000000E+00  0.00000000000E+00  0.47965700816E+03  0.47965700816E+03  0.00000000000E+00 0.  1.
          1   -1    0    0  501    0  0.00000000000E+00 -0.00000000000E+00 -0.16318170262E+04  0.16318170262E+04  0.00000000000E+00 0. -1.
        -24    2    1    2    0    0 -0.59426815039E+03 -0.16470201676E+02 -0.12291417338E+03  0.61229832309E+03  0.79846354526E+02 0.  0.
        254    2    1    2    0    0  0.59426815039E+03  0.16470201676E+02 -0.10292458447E+04  0.14991757113E+04  0.91364922287E+03 0.  0.
         23    2    4    4    0    0  0.10778403955E+03 -0.29421124946E+03 -0.12215395377E+02  0.32638905048E+03  0.90570071775E+02 0.  0.
         23    2    4    4    0    0  0.48648411084E+03  0.31068145113E+03 -0.10170304493E+04  0.11727866608E+04  0.88813640835E+02 0.  0.
          1    1    3    3  502    0 -0.62782904426E+02  0.20274611373E+02 -0.20545563858E+01  0.66007379560E+02  0.00000000000E+00 0. -1.
         -2    1    3    3    0  502 -0.53148524596E+03 -0.36744813050E+02 -0.12085961700E+03  0.54629094353E+03  0.00000000000E+00 0.  1.
         13    1    5    5    0    0  0.23733839165E+02 -0.10617387537E+03 -0.45176506562E+02  0.11780111917E+03  0.00000000000E+00 0. -1.
        -13    1    5    5    0    0  0.84050200382E+02 -0.18803737409E+03  0.32961111185E+02  0.20858793131E+03  0.00000000000E+00 0.  1.
          1    1    6    6  503    0  0.23886913937E+02  0.10278569921E+02 -0.93788689301E+02  0.97327035801E+02  0.00000000000E+00 0. -1.
         -1    1    6    6    0  503  0.46259719691E+03  0.30040288121E+03 -0.92324176000E+03  0.10754596250E+04  0.00000000000E+00 0.  1.
<mgrwt>
<rscale>  0 0.17694208E+04</rscale>
<asrwt>0</asrwt>
<pdfrwt beam="1">  1        1 0.25104877E+00 0.17694208E+04</pdfrwt>
<pdfrwt beam="2">  1       -2 0.73793386E-01 0.17694208E+04</pdfrwt>
<totfact> 0.72932949E+00</totfact>
</mgrwt>
</event>
<event>
12    5  0.5221187E-008  0.1583039E+04  0.7818608E-02  0.8831036E-01
          1   -1    0    0  501    0  0.00000000000E+00  0.00000000000E+00  0.61920223630E+03  0.61920223630E+03  0.00000000000E+00 0. -1.
         -2   -1    0    0    0  501 -0.00000000000E+00 -0.00000000000E+00 -0.10117901810E+04  0.10117901810E+04  0.00000000000E+00 0.  1.
        -24    2    1    2    0    0 -0.68708259483E+02 -0.35588718419E+03 -0.52932251134E+03  0.64648191204E+03  0.79875082426E+02 0.  0.
        254    2    1    2    0    0  0.68708259483E+02  0.35588718419E+03  0.13673456668E+03  0.98451050522E+03  0.90509009517E+03 0.  0.
         23    2    4    4    0    0  0.40695093964E+03  0.42709488029E+03  0.18243827858E+03  0.62415105948E+03  0.90893979565E+02 0.  0.
         23    2    4    4    0    0 -0.33824268015E+03 -0.71207696097E+02 -0.45703711905E+02  0.36035944573E+03  0.91057422473E+02 0.  0.
          3    1    3    3  502    0 -0.12711346360E+01 -0.70442080570E+01  0.18868029723E+01  0.74024776845E+01  0.00000000000E+00 0. -1.
         -4    1    3    3    0  502 -0.67437124847E+02 -0.34884297614E+03 -0.53120931431E+03  0.63907943435E+03  0.00000000000E+00 0.  1.
         13    1    5    5    0    0  0.21614180949E+03  0.24868521499E+03  0.14604581655E+03  0.36040393795E+03  0.00000000000E+00 0.  1.
        -13    1    5    5    0    0  0.19080913015E+03  0.17840966531E+03  0.36392462031E+02  0.26374712153E+03  0.00000000000E+00 0. -1.
          3    1    6    6  503    0 -0.13987588784E+03  0.11999082486E+02 -0.36474898997E+02  0.14505054373E+03  0.00000000000E+00 0. -1.
         -3    1    6    6    0  503 -0.19836679232E+03 -0.83206778582E+02 -0.92288129083E+01  0.21530890201E+03  0.00000000000E+00 0.  1.
<mgrwt>
<rscale>  0 0.15830385E+04</rscale>
<asrwt>0</asrwt>
<pdfrwt beam="1">  1        1 0.95261883E-01 0.15830385E+04</pdfrwt>
<pdfrwt beam="2">  1       -2 0.15566003E+00 0.15830385E+04</pdfrwt>
<totfact> 0.74614804E+00</totfact>
</mgrwt>
</event>
<event>
12    5  0.5221187E-008  0.2098104E+04  0.7818608E-02  0.8562079E-01
          3   -1    0    0  501    0  0.00000000000E+00  0.00000000000E+00  0.65205553162E+03  0.65205553162E+03  0.00000000000E+00 0. -1.
         -4   -1    0    0    0  501 -0.00000000000E+00 -0.00000000000E+00 -0.16877548997E+04  0.16877548997E+04  0.00000000000E+00 0.  1.
        -24    2    1    2    0    0 -0.17618001074E+03 -0.51915884664E+03 -0.11333260661E+04  0.12615222520E+04  0.80281479507E+02 0.  0.
        254    2    1    2    0    0  0.17618001074E+03  0.51915884664E+03  0.97626697968E+02  0.10782881794E+04  0.92336835629E+03 0.  0.
         23    2    4    4    0    0 -0.10492848939E+03  0.41217125143E+03  0.43522831053E+03  0.61689820182E+03  0.10121551624E+03 0.  0.
         23    2    4    4    0    0  0.28110850013E+03  0.10698759520E+03 -0.33760161256E+03  0.46138997756E+03  0.91856018967E+02 0.  0.
          1    1    3    3  502    0 -0.17758398872E+02 -0.17726637015E+02 -0.28760486037E+02  0.38167524775E+02  0.00000000000E+00 0. -1.
         -2    1    3    3    0  502 -0.15842161187E+03 -0.50143220962E+03 -0.11045655800E+04  0.12233547272E+04  0.00000000000E+00 0.  1.
         13    1    5    5    0    0 -0.48490821593E+02  0.34764742749E+03  0.33829521194E+03  0.48749742978E+03  0.00000000000E+00 0.  1.
        -13    1    5    5    0    0 -0.56437667795E+02  0.64523823941E+02  0.96933098591E+02  0.12940077204E+03  0.00000000000E+00 0. -1.
          2    1    6    6  503    0  0.93570749838E+02  0.60752243310E+02 -0.71248883953E+02  0.13237342542E+03  0.00000000000E+00 0. -1.
         -2    1    6    6    0  503  0.18753775029E+03  0.46235351895E+02 -0.26635272861E+03  0.32901655214E+03  0.00000000000E+00 0.  1.
<mgrwt>
<rscale>  0 0.20981038E+04</rscale>
<asrwt>0</asrwt>
<pdfrwt beam="1">  1        3 0.10031624E+00 0.20981038E+04</pdfrwt>
<pdfrwt beam="2">  1       -4 0.25965459E+00 0.20981038E+04</pdfrwt>
<totfact> 0.10051539E-01</totfact>
</mgrwt>
</event>
<event>
12    5  0.5221187E-008  0.1905126E+04  0.7818608E-02  0.8652309E-01
          1   -1    0    0  501    0  0.00000000000E+00  0.00000000000E+00  0.19237411089E+04  0.19237411089E+04  0.00000000000E+00 0. -1.
         -2   -1    0    0    0  501 -0.00000000000E+00 -0.00000000000E+00 -0.47167270315E+03  0.47167270315E+03  0.00000000000E+00 0.  1.
        -24    2    1    2    0    0  0.26560879590E+03 -0.63387654638E+03  0.66965899639E+03  0.96273537614E+03  0.77902018672E+02 0.  0.
        254    2    1    2    0    0 -0.26560879590E+03  0.63387654638E+03  0.78240940932E+03  0.14326784359E+04  0.98389811885E+03 0.  0.
         23    2    4    4    0    0  0.63524660227E+02  0.73442732937E+03  0.77979172989E+03  0.10767103648E+04  0.88380897046E+02 0.  0.
         23    2    4    4    0    0 -0.32913345612E+03 -0.10055078299E+03  0.26176794292E+01  0.35596807111E+03  0.90923723561E+02 0.  0.
          1    1    3    3  502    0  0.13929193362E+03 -0.38924218156E+03  0.44483848250E+03  0.60728328990E+03  0.00000000000E+00 0. -1.
         -2    1    3    3    0  502  0.12631686227E+03 -0.24463436483E+03  0.22482051389E+03  0.35545208625E+03  0.00000000000E+00 0.  1.
         13    1    5    5    0    0  0.13849896073E+02  0.36298469758E+02  0.20030793262E+02  0.43710767629E+02  0.00000000000E+00 0. -1.
        -13    1    5    5    0    0  0.49674764154E+02  0.69812885962E+03  0.75976093663E+03  0.10329995971E+04  0.00000000000E+00 0.  1.
          4    1    6    6  503    0 -0.17967321402E+03 -0.33480590984E+02  0.41894302574E+02  0.18750612362E+03  0.00000000000E+00 0. -1.
         -4    1    6    6    0  503 -0.14946024210E+03 -0.67070192006E+02 -0.39276623145E+02  0.16846194749E+03  0.00000000000E+00 0.  1.
<mgrwt>
<rscale>  0 0.19051259E+04</rscale>
<asrwt>0</asrwt>
<pdfrwt beam="1">  1        1 0.29596016E+00 0.19051259E+04</pdfrwt>
<pdfrwt beam="2">  1       -2 0.72565033E-01 0.19051259E+04</pdfrwt>
<totfact> 0.47355652E+00</totfact>
</mgrwt>
</event>
<event>
12    5  0.5221187E-008  0.1350370E+04  0.7818608E-02  0.8990548E-01
          1   -1    0    0  501    0  0.00000000000E+00  0.00000000000E+00  0.12508493790E+04  0.12508493790E+04  0.00000000000E+00 0. -1.
         -2   -1    0    0    0  501 -0.00000000000E+00 -0.00000000000E+00 -0.36445204449E+03  0.36445204449E+03  0.00000000000E+00 0.  1.
        -24    2    1    2    0    0  0.70514734278E+02  0.33838758594E+03  0.40309194982E+03  0.53689132626E+03  0.79313871009E+02 0.  0.
        254    2    1    2    0    0 -0.70514734278E+02 -0.33838758594E+03  0.48330538474E+03  0.10784100973E+04  0.89994764120E+03 0.  0.
         23    2    4    4    0    0 -0.12815050220E+03 -0.26496478983E+03 -0.21018039881E+03  0.37280975921E+03  0.90456760161E+02 0.  0.
         23    2    4    4    0    0  0.57635767924E+02 -0.73422796119E+02  0.69348578355E+03  0.70560033805E+03  0.90755255201E+02 0.  0.
          1    1    3    3  502    0  0.54868743617E+02  0.32282628487E+03  0.34949911218E+03  0.47893320896E+03  0.00000000000E+00 0. -1.
         -4    1    3    3    0  502  0.15645990661E+02  0.15561301071E+02  0.53592837641E+02  0.57958117302E+02  0.00000000000E+00 0.  1.
         13    1    5    5    0    0  0.12292274154E+02 -0.16538065786E+02 -0.25933191001E+02  0.33123073820E+02  0.00000000000E+00 0.  1.
        -13    1    5    5    0    0 -0.14044277636E+03 -0.24842672404E+03 -0.18424720781E+03  0.33968668539E+03  0.00000000000E+00 0. -1.
          1    1    6    6  503    0  0.52406066791E+02 -0.93218613302E+02  0.51795762049E+03  0.52888203063E+03  0.00000000000E+00 0. -1.
         -1    1    6    6    0  503  0.52297011330E+01  0.19795817182E+02  0.17552816306E+03  0.17671830742E+03  0.00000000000E+00 0.  1.
<mgrwt>
<rscale>  0 0.13503697E+04</rscale>
<asrwt>0</asrwt>
<pdfrwt beam="1">  1        1 0.19243836E+00 0.13503697E+04</pdfrwt>
<pdfrwt beam="2">  1       -2 0.56069546E-01 0.13503697E+04</pdfrwt>
<totfact> 0.25159637E+01</totfact>
</mgrwt>
</event>
<event>
12    5  0.5221187E-008  0.2159373E+04  0.7818608E-02  0.8535531E-01
         -2   -1    0    0    0  501 -0.00000000000E+00  0.00000000000E+00  0.15684132431E+04  0.15684132431E+04  0.00000000000E+00 0.  1.
          1   -1    0    0  501    0  0.00000000000E+00 -0.00000000000E+00 -0.74324996450E+03  0.74324996450E+03  0.00000000000E+00 0. -1.
        -24    2    1    2    0    0  0.31885054320E+03  0.75035586889E+03 -0.48689032883E+02  0.82164732262E+03  0.89633152208E+02 0.  0.
        254    2    1    2    0    0 -0.31885054320E+03 -0.75035586889E+03  0.87385231147E+03  0.14900158850E+04  0.88984823217E+03 0.  0.
         23    2    4    4    0    0 -0.60062367903E+03 -0.53409363221E+03  0.43494740640E+03  0.91818341608E+03  0.88750929277E+02 0.  0.
         23    2    4    4    0    0  0.28177313583E+03 -0.21626223668E+03  0.43890490507E+03  0.57183246888E+03  0.90495313032E+02 0.  0.
          3    1    3    3  502    0  0.26888634101E+03  0.57144016745E+03 -0.66509354363E+02  0.63503324604E+03  0.00000000000E+00 0. -1.
         -4    1    3    3    0  502  0.49964202194E+02  0.17891570143E+03  0.17820321480E+02  0.18661407658E+03  0.00000000000E+00 0.  1.
         13    1    5    5    0    0 -0.36000573275E+03 -0.36649081442E+03  0.24834978353E+03  0.57061130347E+03  0.00000000000E+00 0.  1.
        -13    1    5    5    0    0 -0.24061794628E+03 -0.16760281779E+03  0.18659762286E+03  0.34757211260E+03  0.00000000000E+00 0. -1.
          2    1    6    6  503    0  0.50929946025E+02 -0.57965687764E+02  0.47388404388E+02  0.90551318214E+02  0.00000000000E+00 0. -1.
         -2    1    6    6    0  503  0.23084318980E+03 -0.15829654891E+03  0.39151650068E+03  0.48128115066E+03  0.00000000000E+00 0.  1.
<mgrwt>
<rscale>  0 0.21593731E+04</rscale>
<asrwt>0</asrwt>
<pdfrwt beam="1">  1        1 0.11434615E+00 0.21593731E+04</pdfrwt>
<pdfrwt beam="2">  1       -2 0.24129434E+00 0.21593731E+04</pdfrwt>
<totfact> 0.14478869E+00</totfact>
</mgrwt>
</event>
<event>
12    5  0.5221187E-008  0.1582695E+04  0.7818608E-02  0.8831250E-01
         -2   -1    0    0    0  501 -0.00000000000E+00  0.00000000000E+00  0.91602664401E+03  0.91602664401E+03  0.00000000000E+00 0.  1.
          1   -1    0    0  501    0  0.00000000000E+00 -0.00000000000E+00 -0.68363796720E+03  0.68363796720E+03  0.00000000000E+00 0. -1.
        -24    2    1    2    0    0  0.91764530678E+02 -0.44159175417E+03 -0.20152765379E+03  0.50062418351E+03  0.81161391279E+02 0.  0.
        254    2    1    2    0    0 -0.91764530678E+02  0.44159175417E+03  0.43391633059E+03  0.10990404277E+04  0.90342817828E+03 0.  0.
         23    2    4    4    0    0  0.23082295467E+03 -0.15693434441E+03  0.16004999062E+02  0.29531428509E+03  0.95114363412E+02 0.  0.
         23    2    4    4    0    0 -0.32258748534E+03  0.59852609858E+03  0.41791133153E+03  0.80372614260E+03  0.95024496309E+02 0.  0.
          1    1    3    3  502    0  0.53631710587E+02 -0.38935030066E+03 -0.16420559143E+03  0.42595010654E+03  0.00000000000E+00 0. -1.
         -2    1    3    3    0  502  0.38132820091E+02 -0.52241453509E+02 -0.37322062361E+02  0.74674076972E+02  0.00000000000E+00 0.  1.
         13    1    5    5    0    0  0.21357119140E+01 -0.29924561076E+02 -0.11827129145E+02  0.32247815504E+02  0.00000000000E+00 0. -1.
        -13    1    5    5    0    0  0.22868724275E+03 -0.12700978334E+03  0.27832128208E+02  0.26306646959E+03  0.00000000000E+00 0.  1.
          2    1    6    6  503    0 -0.10945408503E+03  0.21613135145E+03  0.20283395699E+03  0.31596609299E+03  0.00000000000E+00 0. -1.
         -2    1    6    6    0  503 -0.21313340032E+03  0.38239474713E+03  0.21507737454E+03  0.48776004962E+03  0.00000000000E+00 0.  1.
<mgrwt>
<rscale>  0 0.15826947E+04</rscale>
<asrwt>0</asrwt>
<pdfrwt beam="1">  1        1 0.10517507E+00 0.15826947E+04</pdfrwt>
<pdfrwt beam="2">  1       -2 0.14092718E+00 0.15826947E+04</pdfrwt>
<totfact> 0.83833827E+00</totfact>
</mgrwt>
</event>
<event>
12    5  0.5221187E-008  0.1673379E+04  0.7818608E-02  0.8776694E-01
          1   -1    0    0  501    0  0.00000000000E+00  0.00000000000E+00  0.26991883786E+04  0.26991883786E+04  0.00000000000E+00 0. -1.
         -2   -1    0    0    0  501 -0.00000000000E+00 -0.00000000000E+00 -0.25935557341E+03  0.25935557341E+03  0.00000000000E+00 0.  1.
        -24    2    1    2    0    0 -0.49173003871E+03  0.22949217501E+03  0.12786708665E+04  0.13913802567E+04  0.80465797305E+02 0.  0.
        254    2    1    2    0    0  0.49173003871E+03 -0.22949217501E+03  0.11611619387E+04  0.15671636953E+04  0.90179815405E+03 0.  0.
         23    2    4    4    0    0  0.16181841413E+03  0.13444141035E+03 -0.69077047952E+02  0.23937654957E+03  0.90938451506E+02 0.  0.
         23    2    4    4    0    0  0.32991162459E+03 -0.36393358536E+03  0.12302389866E+04  0.13277871457E+04  0.90782187354E+02 0.  0.
          3    1    3    3  502    0 -0.25421543936E+03  0.10428190912E+03  0.74312971179E+03  0.79230169426E+03  0.00000000000E+00 0. -1.
         -4    1    3    3    0  502 -0.23751459936E+03  0.12521026590E+03  0.53554115473E+03  0.59907856247E+03  0.00000000000E+00 0.  1.
         13    1    5    5    0    0  0.93688586832E+02  0.10294902927E+03 -0.84380133607E+02  0.16277610659E+03  0.00000000000E+00 0. -1.
        -13    1    5    5    0    0  0.68129827298E+02  0.31492381079E+02  0.15303085655E+02  0.76600442977E+02  0.00000000000E+00 0.  1.
          4    1    6    6  503    0  0.11953621129E+02  0.36702580442E+01  0.19862520182E+02  0.23470823594E+02  0.00000000000E+00 0.  1.
         -4    1    6    6    0  503  0.31795800346E+03 -0.36760384341E+03  0.12103764665E+04  0.13043163221E+04  0.00000000000E+00 0. -1.
<mgrwt>
<rscale>  0 0.16733793E+04</rscale>
<asrwt>0</asrwt>
<pdfrwt beam="1">  1        1 0.41525973E+00 0.16733793E+04</pdfrwt>
<pdfrwt beam="2">  1       -2 0.39900859E-01 0.16733793E+04</pdfrwt>
<totfact> 0.49039719E+00</totfact>
</mgrwt>
</event>
<event>
12    5  0.5221187E-008  0.1237364E+04  0.7818608E-02  0.9080766E-01
         -2   -1    0    0    0  501 -0.00000000000E+00  0.00000000000E+00  0.46454618656E+03  0.46454618656E+03  0.00000000000E+00 0.  1.
          1   -1    0    0  501    0  0.00000000000E+00 -0.00000000000E+00 -0.82396000009E+03  0.82396000009E+03  0.00000000000E+00 0. -1.
        -24    2    1    2    0    0 -0.55903740163E+02 -0.24405862180E+03  0.28923151411E+02  0.26384139763E+03  0.78012148889E+02 0.  0.
        254    2    1    2    0    0  0.55903740163E+02  0.24405862180E+03 -0.38833696494E+03  0.10246647890E+04  0.91457230030E+03 0.  0.
         23    2    4    4    0    0  0.74742546297E+02 -0.26802787962E+03 -0.41219377464E+03  0.50382994560E+03  0.80718732316E+02 0.  0.
         23    2    4    4    0    0 -0.18838806134E+02  0.51208650142E+03  0.23856809700E+02  0.52083484343E+03  0.90068314117E+02 0.  0.
          3    1    3    3  502    0 -0.59581222329E+02 -0.17344892273E+03 -0.89811989543E+01  0.18361675519E+03  0.00000000000E+00 0. -1.
         -4    1    3    3    0  502  0.36774821664E+01 -0.70609699069E+02  0.37904350366E+02  0.80224642438E+02  0.00000000000E+00 0.  1.
         13    1    5    5    0    0  0.19666440239E+02 -0.19274534192E+03 -0.30908856920E+03  0.36479210424E+03  0.00000000000E+00 0.  1.
        -13    1    5    5    0    0  0.55076106058E+02 -0.75282537692E+02 -0.10310520544E+03  0.13903784136E+03  0.00000000000E+00 0. -1.
          3    1    6    6  503    0 -0.39737567696E+02  0.99116269085E+02  0.40574042509E+01  0.10686239569E+03  0.00000000000E+00 0. -1.
         -3    1    6    6    0  503  0.20898761562E+02  0.41297023233E+03  0.19799405449E+02  0.41397244773E+03  0.00000000000E+00 0.  1.
<mgrwt>
<rscale>  0 0.12373641E+04</rscale>
<asrwt>0</asrwt>
<pdfrwt beam="1">  1        1 0.12676307E+00 0.12373641E+04</pdfrwt>
<pdfrwt beam="2">  1       -2 0.71468646E-01 0.12373641E+04</pdfrwt>
<totfact> 0.32386164E+01</totfact>
</mgrwt>
</event>
<event>
12    5  0.5221187E-008  0.1269533E+04  0.7818608E-02  0.9054081E-01
         -2   -1    0    0    0  501 -0.00000000000E+00  0.00000000000E+00  0.84745022187E+03  0.84745022187E+03  0.00000000000E+00 0.  1.
          1   -1    0    0  501    0  0.00000000000E+00 -0.00000000000E+00 -0.47545968732E+03  0.47545968732E+03  0.00000000000E+00 0. -1.
        -24    2    1    2    0    0 -0.87684795180E+02  0.23377269585E+03  0.29667963817E+03  0.39605855260E+03  0.80655271085E+02 0.  0.
        254    2    1    2    0    0  0.87684795180E+02 -0.23377269585E+03  0.75310896382E+02  0.92685135660E+03  0.88940621174E+03 0.  0.
         23    2    4    4    0    0  0.83746717462E+02  0.31513825555E+03 -0.82505804637E+02  0.34826374323E+03  0.90303899426E+02 0.  0.
         23    2    4    4    0    0  0.39380777174E+01 -0.54891095140E+03  0.15781670102E+03  0.57858761337E+03  0.92405487946E+02 0.  0.
          3    1    3    3  502    0  0.41507561325E+01 -0.15340059438E+01 -0.20290818906E+01  0.48681746092E+01  0.00000000000E+00 0. -1.
         -4    1    3    3    0  502 -0.91835551312E+02  0.23530670179E+03  0.29870872006E+03  0.39119037799E+03  0.00000000000E+00 0.  1.
         13    1    5    5    0    0 -0.18532824063E+02  0.38740552562E+02 -0.31957615722E+01  0.43064009017E+02  0.00000000000E+00 0. -1.
        -13    1    5    5    0    0  0.10227954153E+03  0.27639770299E+03 -0.79310043065E+02  0.30519973421E+03  0.00000000000E+00 0.  1.
          2    1    6    6  503    0 -0.42554970980E+02 -0.33756040449E+03  0.94583255798E+02  0.35313445670E+03  0.00000000000E+00 0.  1.
         -2    1    6    6    0  503  0.46493048697E+02 -0.21135054691E+03  0.63233445221E+02  0.22545315667E+03  0.00000000000E+00 0. -1.
<mgrwt>
<rscale>  0 0.12695329E+04</rscale>
<asrwt>0</asrwt>
<pdfrwt beam="1">  1        1 0.73147644E-01 0.12695329E+04</pdfrwt>
<pdfrwt beam="2">  1       -2 0.13037696E+00 0.12695329E+04</pdfrwt>
<totfact> 0.17622192E+01</totfact>
</mgrwt>
</event>
<event>
12    5  0.5221187E-008  0.1274989E+04  0.7818608E-02  0.9049638E-01
          1   -1    0    0  501    0  0.00000000000E+00  0.00000000000E+00  0.12962132732E+04  0.12962132732E+04  0.00000000000E+00 0. -1.
         -4   -1    0    0    0  501 -0.00000000000E+00 -0.00000000000E+00 -0.31352799757E+03  0.31352799757E+03  0.00000000000E+00 0.  1.
        -24    2    1    2    0    0  0.31269167384E+03  0.60599463335E+02  0.26922542652E+03  0.42033035328E+03  0.52410855408E+02 0.  0.
        254    2    1    2    0    0 -0.31269167384E+03 -0.60599463335E+02  0.71345984910E+03  0.11894109175E+04  0.89678592567E+03 0.  0.
         23    2    4    4    0    0 -0.18892961331E+03 -0.41447547670E+03  0.64914999628E+03  0.79842671995E+03  0.92764162802E+02 0.  0.
         23    2    4    4    0    0 -0.12376206052E+03  0.35387601336E+03  0.64309852822E+02  0.39098419751E+03  0.90485385989E+02 0.  0.
          3    1    3    3  502    0  0.10267716707E+02  0.19968559665E+01  0.25376115571E+02  0.27447416665E+02  0.00000000000E+00 0. -1.
         -4    1    3    3    0  502  0.30242395713E+03  0.58602607369E+02  0.24384931094E+03  0.39288293662E+03  0.00000000000E+00 0.  1.
         13    1    5    5    0    0 -0.10146492594E+03 -0.31932749095E+03  0.48557428983E+03  0.58995556495E+03  0.00000000000E+00 0. -1.
        -13    1    5    5    0    0 -0.87464687371E+02 -0.95147985744E+02  0.16357570645E+03  0.20847115500E+03  0.00000000000E+00 0.  1.
          1    1    6    6  503    0 -0.52511458046E+02  0.54070604020E+02 -0.35065683784E+01  0.75454486062E+02  0.00000000000E+00 0. -1.
         -1    1    6    6    0  503 -0.71250602479E+02  0.29980540934E+03  0.67816421200E+02  0.31552971145E+03  0.00000000000E+00 0.  1.
<mgrwt>
<rscale>  0 0.12749889E+04</rscale>
<asrwt>0</asrwt>
<pdfrwt beam="1">  1        1 0.19941742E+00 0.12749889E+04</pdfrwt>
<pdfrwt beam="2">  1       -4 0.48235077E-01 0.12749889E+04</pdfrwt>
<totfact> 0.18269777E+01</totfact>
</mgrwt>
</event>
<event>
12    5  0.5221187E-008  0.1467322E+04  0.7818608E-02  0.8906479E-01
          1   -1    0    0  501    0  0.00000000000E+00  0.00000000000E+00  0.34920911169E+03  0.34920911169E+03  0.00000000000E+00 0. -1.
         -2   -1    0    0    0  501 -0.00000000000E+00 -0.00000000000E+00 -0.15413640006E+04  0.15413640006E+04  0.00000000000E+00 0.  1.
        -24    2    1    2    0    0 -0.19914581051E+03  0.16880885782E+03 -0.84911303655E+03  0.89187594388E+03  0.79336410977E+02 0.  0.
        254    2    1    2    0    0  0.19914581051E+03 -0.16880885782E+03 -0.34304185232E+03  0.99869716836E+03  0.90086782456E+03 0.  0.
         23    2    4    4    0    0  0.22206359187E+03  0.80906700872E+02 -0.58555984023E+03  0.63794357954E+03  0.90738917292E+02 0.  0.
         23    2    4    4    0    0 -0.22917781356E+02 -0.24971555870E+03  0.24251798791E+03  0.36075358882E+03  0.91897184018E+02 0.  0.
          3    1    3    3  502    0 -0.40601045490E+02  0.80035902569E+01 -0.76976492773E+02  0.87394981501E+02  0.00000000000E+00 0. -1.
         -4    1    3    3    0  502 -0.15854476502E+03  0.16080526757E+03 -0.77213654378E+03  0.80448096238E+03  0.00000000000E+00 0.  1.
         13    1    5    5    0    0  0.34921938844E+02  0.46463750388E+02 -0.90330836825E+02  0.10741546441E+03  0.00000000000E+00 0.  1.
        -13    1    5    5    0    0  0.18714165302E+03  0.34442950484E+02 -0.49522900340E+03  0.53052811513E+03  0.00000000000E+00 0. -1.
          3    1    6    6  503    0 -0.54747240580E+01  0.67462398191E+01  0.15668135007E+02  0.17915769864E+02  0.00000000000E+00 0. -1.
         -3    1    6    6    0  503 -0.17443057298E+02 -0.25646179852E+03  0.22684985290E+03  0.34283781896E+03  0.00000000000E+00 0.  1.
<mgrwt>
<rscale>  0 0.14673219E+04</rscale>
<asrwt>0</asrwt>
<pdfrwt beam="1">  1        1 0.53724478E-01 0.14673219E+04</pdfrwt>
<pdfrwt beam="2">  1       -2 0.23713293E+00 0.14673219E+04</pdfrwt>
<totfact> 0.46979973E+00</totfact>
</mgrwt>
</event>
<event>
12    5  0.5221187E-008  0.1580937E+04  0.7818608E-02  0.8832345E-01
         -2   -1    0    0    0  501 -0.00000000000E+00  0.00000000000E+00  0.13057346794E+04  0.13057346794E+04  0.00000000000E+00 0.  1.
          1   -1    0    0  501    0  0.00000000000E+00 -0.00000000000E+00 -0.47853557492E+03  0.47853557492E+03  0.00000000000E+00 0. -1.
        -24    2    1    2    0    0  0.20962721267E+02 -0.21974966086E+03 -0.26543566971E+03  0.35431661764E+03  0.79717135241E+02 0.  0.
        254    2    1    2    0    0 -0.20962721267E+02  0.21974966086E+03  0.10926347742E+04  0.14299536367E+04  0.89564909655E+03 0.  0.
         23    2    4    4    0    0 -0.17800224017E+03 -0.22732308248E+03  0.86813397795E+02  0.31422131102E+03  0.88531830016E+02 0.  0.
         23    2    4    4    0    0  0.15703951890E+03  0.44707274334E+03  0.10058213764E+04  0.11157323257E+04  0.92986735508E+02 0.  0.
          1    1    3    3  502    0  0.45650316359E+02 -0.12926375118E+03 -0.18808455081E+03  0.23274206110E+03  0.00000000000E+00 0. -1.
         -2    1    3    3    0  502 -0.24687595092E+02 -0.90485909683E+02 -0.77351118892E+02  0.12157455653E+03  0.00000000000E+00 0.  1.
         13    1    5    5    0    0 -0.18178845805E+03 -0.20758612754E+03  0.62949408384E+02  0.28302238753E+03  0.00000000000E+00 0. -1.
        -13    1    5    5    0    0  0.37862178797E+01 -0.19736954944E+02  0.23863989410E+02  0.31198923489E+02  0.00000000000E+00 0.  1.
          3    1    6    6  503    0  0.15375587471E+03  0.38306635854E+03  0.92230127925E+03  0.10104555180E+04  0.00000000000E+00 0. -1.
         -3    1    6    6    0  503  0.32836441857E+01  0.64006384799E+02  0.83520097137E+02  0.10527680770E+03  0.00000000000E+00 0.  1.
<mgrwt>
<rscale>  0 0.15809371E+04</rscale>
<asrwt>0</asrwt>
<pdfrwt beam="1">  1        1 0.73620858E-01 0.15809371E+04</pdfrwt>
<pdfrwt beam="2">  1       -2 0.20088226E+00 0.15809371E+04</pdfrwt>
<totfact> 0.51889590E+00</totfact>
</mgrwt>
</event>
<event>
12    5  0.5221187E-008  0.1524884E+04  0.7818608E-02  0.8868072E-01
          1   -1    0    0  501    0  0.00000000000E+00  0.00000000000E+00  0.22165921060E+04  0.22165921060E+04  0.00000000000E+00 0. -1.
         -2   -1    0    0    0  501 -0.00000000000E+00 -0.00000000000E+00 -0.26225755852E+03  0.26225755852E+03  0.00000000000E+00 0.  1.
        -24    2    1    2    0    0 -0.16721860455E+03  0.66089046139E+01  0.13993943833E+04  0.14115859822E+04  0.79149263460E+02 0.  0.
        254    2    1    2    0    0  0.16721860455E+03 -0.66089046139E+01  0.55494016413E+03  0.10672636822E+04  0.89615146172E+03 0.  0.
         23    2    4    4    0    0  0.41848443710E+03  0.16086765948E+03  0.35754852396E+02  0.45980310278E+03  0.95565976669E+02 0.  0.
         23    2    4    4    0    0 -0.25126583255E+03 -0.16747656409E+03  0.51918531174E+03  0.60746057946E+03  0.90950808382E+02 0.  0.
          3    1    3    3  502    0 -0.10786370598E+03  0.41252147729E+02  0.80776368572E+03  0.81597701605E+03  0.00000000000E+00 0. -1.
         -4    1    3    3    0  502 -0.59354898570E+02 -0.34643243115E+02  0.59163069760E+03  0.59560896620E+03  0.00000000000E+00 0.  1.
         13    1    5    5    0    0  0.12950686614E+03  0.15119835856E+02 -0.18312954452E+02  0.13166625275E+03  0.00000000000E+00 0.  1.
        -13    1    5    5    0    0  0.28897757097E+03  0.14574782362E+03  0.54067806848E+02  0.32813685003E+03  0.00000000000E+00 0. -1.
          4    1    6    6  503    0 -0.20134014652E+03 -0.16150376564E+03  0.37911512091E+03  0.45863885119E+03  0.00000000000E+00 0. -1.
         -4    1    6    6    0  503 -0.49925686027E+02 -0.59727984531E+01  0.14007019083E+03  0.14882172827E+03  0.00000000000E+00 0.  1.
<mgrwt>
<rscale>  0 0.15248843E+04</rscale>
<asrwt>0</asrwt>
<pdfrwt beam="1">  1        1 0.34101416E+00 0.15248843E+04</pdfrwt>
<pdfrwt beam="2">  1       -2 0.40347318E-01 0.15248843E+04</pdfrwt>
<totfact> 0.10473794E+01</totfact>
</mgrwt>
</event>
<event>
12    5  0.5221187E-008  0.1391579E+04  0.7818608E-02  0.8959936E-01
          1   -1    0    0  501    0  0.00000000000E+00  0.00000000000E+00  0.53781133375E+03  0.53781133375E+03  0.00000000000E+00 0. -1.
         -2   -1    0    0    0  501 -0.00000000000E+00 -0.00000000000E+00 -0.90017312334E+03  0.90017312334E+03  0.00000000000E+00 0.  1.
        -24    2    1    2    0    0 -0.68634674735E+02 -0.69098290215E+02 -0.49160876628E+03  0.50748220773E+03  0.79835579740E+02 0.  0.
        254    2    1    2    0    0  0.68634674735E+02  0.69098290215E+02  0.12924697669E+03  0.93050224936E+03  0.91632110245E+03 0.  0.
         23    2    4    4    0    0  0.34710913464E+03 -0.28735502422E+03  0.72712930600E+02  0.46556727849E+03  0.91695470066E+02 0.  0.
         23    2    4    4    0    0 -0.27847445991E+03  0.35645331444E+03  0.56534046089E+02  0.46493497087E+03  0.91440902098E+02 0.  0.
          3    1    3    3  502    0 -0.19665351549E+02  0.17527986609E+02 -0.11045291343E+03  0.11355088045E+03  0.00000000000E+00 0. -1.
         -4    1    3    3    0  502 -0.48969323186E+02 -0.86626276823E+02 -0.38115585285E+03  0.39393132727E+03  0.00000000000E+00 0.  1.
         13    1    5    5    0    0  0.40338548898E+02 -0.45399486381E+02 -0.20132972394E+02  0.63981626021E+02  0.00000000000E+00 0.  1.
        -13    1    5    5    0    0  0.30677058574E+03 -0.24195553784E+03  0.92845902994E+02  0.40158565247E+03  0.00000000000E+00 0. -1.
          2    1    6    6  503    0 -0.13595013482E+03  0.10476401190E+03  0.95157437733E+01  0.17189673274E+03  0.00000000000E+00 0. -1.
         -2    1    6    6    0  503 -0.14252432509E+03  0.25168930254E+03  0.47018302316E+02  0.29303823813E+03  0.00000000000E+00 0.  1.
<mgrwt>
<rscale>  0 0.13915794E+04</rscale>
<asrwt>0</asrwt>
<pdfrwt beam="1">  1        1 0.82740206E-01 0.13915794E+04</pdfrwt>
<pdfrwt beam="2">  1       -2 0.13848817E+00 0.13915794E+04</pdfrwt>
<totfact> 0.12615848E+01</totfact>
</mgrwt>
</event>
<event>
12    5  0.5221187E-008  0.1463835E+04  0.7818608E-02  0.8908865E-01
          1   -1    0    0  501    0  0.00000000000E+00  0.00000000000E+00  0.73294565331E+03  0.73294565331E+03  0.00000000000E+00 0. -1.
         -2   -1    0    0    0  501 -0.00000000000E+00 -0.00000000000E+00 -0.73089118815E+03  0.73089118815E+03  0.00000000000E+00 0.  1.
        -24    2    1    2    0    0  0.44389880447E+02  0.38069288770E+03 -0.24727912090E+03  0.46286726897E+03  0.78750294060E+02 0.  0.
        254    2    1    2    0    0 -0.44389880447E+02 -0.38069288770E+03  0.24933358606E+03  0.10009695725E+04  0.89043546183E+03 0.  0.
         23    2    4    4    0    0  0.26098506907E+03  0.95392800740E+02 -0.12442867746E+03  0.31728561560E+03  0.89301026765E+02 0.  0.
         23    2    4    4    0    0 -0.30537494952E+03 -0.47608568844E+03  0.37376226351E+03  0.68368395689E+03  0.88397289277E+02 0.  0.
          1    1    3    3  502    0  0.55470074250E+02  0.17064309382E+03 -0.13412315704E+03  0.22402012378E+03  0.00000000000E+00 0. -1.
         -2    1    3    3    0  502 -0.11080193803E+02  0.21004979388E+03 -0.11315596386E+03  0.23884714518E+03  0.00000000000E+00 0.  1.
         13    1    5    5    0    0  0.22538189192E+03  0.86612622388E+02 -0.13809397555E+03  0.27815227781E+03  0.00000000000E+00 0. -1.
        -13    1    5    5    0    0  0.35603177147E+02  0.87801783521E+01  0.13665298096E+02  0.39133337794E+02  0.00000000000E+00 0.  1.
          3    1    6    6  503    0 -0.16176204026E+03 -0.31615487665E+03  0.26270998450E+03  0.44174359039E+03  0.00000000000E+00 0. -1.
         -3    1    6    6    0  503 -0.14361290926E+03 -0.15993081179E+03  0.11105227901E+03  0.24194036650E+03  0.00000000000E+00 0.  1.
<mgrwt>
<rscale>  0 0.14638354E+04</rscale>
<asrwt>0</asrwt>
<pdfrwt beam="1">  1        1 0.11276087E+00 0.14638354E+04</pdfrwt>
<pdfrwt beam="2">  1       -2 0.11244480E+00 0.14638354E+04</pdfrwt>
<totfact> 0.13432622E+01</totfact>
</mgrwt>
</event>
<event>
12    5  0.5221187E-008  0.1073672E+04  0.7818608E-02  0.9231240E-01
          1   -1    0    0  501    0  0.00000000000E+00  0.00000000000E+00  0.45836789177E+03  0.45836789177E+03  0.00000000000E+00 0. -1.
         -2   -1    0    0    0  501 -0.00000000000E+00 -0.00000000000E+00 -0.62873675153E+03  0.62873675153E+03  0.00000000000E+00 0.  1.
        -24    2    1    2    0    0  0.62589804050E+02  0.63354695744E+02 -0.14294071827E+03  0.18115084750E+03  0.66725404212E+02 0.  0.
        254    2    1    2    0    0 -0.62589804050E+02 -0.63354695744E+02 -0.27428141493E+02  0.90595379580E+03  0.90114853167E+03 0.  0.
         23    2    4    4    0    0  0.11243936138E+03 -0.39839350802E+03  0.18554736874E+03  0.46261292825E+03  0.90680196950E+02 0.  0.
         23    2    4    4    0    0 -0.17502916543E+03  0.33503881227E+03 -0.21297551024E+03  0.44334086755E+03  0.91139137569E+02 0.  0.
          3    1    3    3  502    0 -0.65465971738E+01  0.10865496139E+02  0.13553644473E+01  0.12757505778E+02  0.00000000000E+00 0. -1.
         -4    1    3    3    0  502  0.69136401224E+02  0.52489199605E+02 -0.14429608271E+03  0.16839334172E+03  0.00000000000E+00 0.  1.
         13    1    5    5    0    0  0.13212800259E+01 -0.25768795305E+02 -0.96254867408E+01  0.27539545882E+02  0.00000000000E+00 0. -1.
        -13    1    5    5    0    0  0.11111808136E+03 -0.37262471271E+03  0.19517285548E+03  0.43507338237E+03  0.00000000000E+00 0.  1.
          3    1    6    6  503    0 -0.67833314804E+01 -0.16330453390E+00  0.59847526746E+01  0.90475145161E+01  0.00000000000E+00 0. -1.
         -3    1    6    6    0  503 -0.16824583395E+03  0.33520211681E+03 -0.21896026291E+03  0.43429335303E+03  0.00000000000E+00 0.  1.
<mgrwt>
<rscale>  0 0.10736717E+04</rscale>
<asrwt>0</asrwt>
<pdfrwt beam="1">  1        1 0.70518137E-01 0.10736717E+04</pdfrwt>
<pdfrwt beam="2">  1       -2 0.96728731E-01 0.10736717E+04</pdfrwt>
<totfact> 0.38941014E+01</totfact>
</mgrwt>
</event>
<event>
12    5  0.5221187E-008  0.1165200E+04  0.7818608E-02  0.9143874E-01
          1   -1    0    0  501    0  0.00000000000E+00  0.00000000000E+00  0.10492055053E+04  0.10492055053E+04  0.00000000000E+00 0. -1.
         -2   -1    0    0    0  501 -0.00000000000E+00 -0.00000000000E+00 -0.32350470778E+03  0.32350470778E+03  0.00000000000E+00 0.  1.
        -24    2    1    2    0    0  0.23962245276E+03  0.45171624147E+02  0.12477510246E+03  0.28558770408E+03  0.80821501068E+02 0.  0.
        254    2    1    2    0    0 -0.23962245276E+03 -0.45171624147E+02  0.60092569506E+03  0.10871225090E+04  0.87250459201E+03 0.  0.
         23    2    4    4    0    0 -0.13143496890E+03 -0.25273484741E+03  0.74210792083E+03  0.79973424145E+03  0.87753271425E+02 0.  0.
         23    2    4    4    0    0 -0.10818748385E+03  0.20756322327E+03 -0.14118222577E+03  0.28738826754E+03  0.88727516205E+02 0.  0.
          1    1    3    3  502    0  0.17710558525E+03  0.54138411017E+02  0.12316276130E+03  0.22241048007E+03  0.00000000000E+00 0. -1.
         -2    1    3    3    0  502  0.62516867505E+02 -0.89667868706E+01  0.16123411599E+01  0.63177224008E+02  0.00000000000E+00 0.  1.
         13    1    5    5    0    0 -0.10463004836E+03 -0.13617846210E+03  0.35118973241E+03  0.39092997929E+03  0.00000000000E+00 0.  1.
        -13    1    5    5    0    0 -0.26804920544E+02 -0.11655638531E+03  0.39091818841E+03  0.40880426215E+03  0.00000000000E+00 0. -1.
          1    1    6    6  503    0 -0.78053209612E+02  0.62348932409E+02 -0.38777083974E+02  0.10716041781E+03  0.00000000000E+00 0. -1.
         -1    1    6    6    0  503 -0.30134274241E+02  0.14521429086E+03 -0.10240514180E+03  0.18022784973E+03  0.00000000000E+00 0.  1.
<mgrwt>
<rscale>  0 0.11652003E+04</rscale>
<asrwt>0</asrwt>
<pdfrwt beam="1">  1        1 0.16141623E+00 0.11652003E+04</pdfrwt>
<pdfrwt beam="2">  1       -2 0.49769956E-01 0.11652003E+04</pdfrwt>
<totfact> 0.46046185E+01</totfact>
</mgrwt>
</event>
<event>
12    5  0.5221187E-008  0.2451455E+04  0.7818608E-02  0.8420487E-01
         -2   -1    0    0    0  501 -0.00000000000E+00  0.00000000000E+00  0.24404000055E+04  0.24404000055E+04  0.00000000000E+00 0.  1.
          1   -1    0    0  501    0  0.00000000000E+00 -0.00000000000E+00 -0.61564025913E+03  0.61564025913E+03  0.00000000000E+00 0. -1.
        -24    2    1    2    0    0 -0.46972705480E+03  0.91249985860E+03  0.45692083921E+03  0.11272039665E+04  0.92263919339E+02 0.  0.
        254    2    1    2    0    0  0.46972705480E+03 -0.91249985860E+03  0.13678389071E+04  0.19288362981E+04  0.89225931831E+03 0.  0.
         23    2    4    4    0    0  0.15101650234E+03 -0.14354818054E+03  0.97998868343E+03  0.10060081365E+04  0.90898223164E+02 0.  0.
         23    2    4    4    0    0  0.31871055247E+03 -0.76895167806E+03  0.38785022371E+03  0.92282816160E+03  0.91219078992E+02 0.  0.
          1    1    3    3  502    0 -0.25232663744E+03  0.55346788529E+03  0.30833356110E+03  0.68195675589E+03  0.00000000000E+00 0. -1.
         -2    1    3    3    0  502 -0.21740041737E+03  0.35903197330E+03  0.14858727811E+03  0.44524721059E+03  0.00000000000E+00 0.  1.
         13    1    5    5    0    0 -0.10937185295E+02 -0.12675254558E+02  0.12045827525E+03  0.12161611808E+03  0.00000000000E+00 0. -1.
        -13    1    5    5    0    0  0.16195368763E+03 -0.13087292598E+03  0.85953040819E+03  0.88439201844E+03  0.00000000000E+00 0.  1.
          2    1    6    6  503    0  0.11613837496E+02 -0.29629883417E+01  0.75131704046E+01  0.14145962351E+02  0.00000000000E+00 0. -1.
         -2    1    6    6    0  503  0.30709671497E+03 -0.76598868972E+03  0.38033705330E+03  0.90868219925E+03  0.00000000000E+00 0.  1.
<mgrwt>
<rscale>  0 0.24514555E+04</rscale>
<asrwt>0</asrwt>
<pdfrwt beam="1">  1        1 0.94713887E-01 0.24514555E+04</pdfrwt>
<pdfrwt beam="2">  1       -2 0.37544615E+00 0.24514555E+04</pdfrwt>
<totfact> 0.27648706E-01</totfact>
</mgrwt>
</event>
<event>
12    5  0.5221187E-008  0.1044789E+04  0.7818608E-02  0.9260741E-01
         -2   -1    0    0    0  501 -0.00000000000E+00  0.00000000000E+00  0.58549686839E+03  0.58549686839E+03  0.00000000000E+00 0.  1.
          1   -1    0    0  501    0  0.00000000000E+00 -0.00000000000E+00 -0.46609315439E+03  0.46609315439E+03  0.00000000000E+00 0. -1.
        -24    2    1    2    0    0  0.77562236197E+02 -0.26338670997E+02  0.87431003240E+02  0.14377375512E+03  0.79480099773E+02 0.  0.
        254    2    1    2    0    0 -0.77562236197E+02  0.26338670997E+02  0.31972710768E+02  0.90781626766E+03  0.90354772731E+03 0.  0.
         23    2    4    4    0    0  0.29766271734E+02  0.35742833735E+03 -0.25333936934E+03  0.44839425699E+03  0.90749800896E+02 0.  0.
         23    2    4    4    0    0 -0.10732850793E+03 -0.33108966636E+03  0.28531208011E+03  0.45942201067E+03  0.92335394364E+02 0.  0.
          3    1    3    3  502    0  0.50674416801E+02  0.83211970051E+00  0.26230864922E+01  0.50749083973E+02  0.00000000000E+00 0. -1.
         -4    1    3    3    0  502  0.26887819396E+02 -0.27170790697E+02  0.84807916747E+02  0.93024671147E+02  0.00000000000E+00 0.  1.
         13    1    5    5    0    0  0.39544706632E+02  0.23807196087E+03 -0.12118714096E+03  0.27005252361E+03  0.00000000000E+00 0. -1.
        -13    1    5    5    0    0 -0.97784348973E+01  0.11935637649E+03 -0.13215222839E+03  0.17834173338E+03  0.00000000000E+00 0.  1.
          1    1    6    6  503    0 -0.78139862017E+02 -0.22127163286E+03  0.24395705312E+03  0.33849965629E+03  0.00000000000E+00 0.  1.
         -1    1    6    6    0  503 -0.29188645915E+02 -0.10981803350E+03  0.41355026992E+02  0.12092235438E+03  0.00000000000E+00 0. -1.
<mgrwt>
<rscale>  0 0.10447891E+04</rscale>
<asrwt>0</asrwt>
<pdfrwt beam="1">  1        1 0.71706639E-01 0.10447891E+04</pdfrwt>
<pdfrwt beam="2">  1       -2 0.90076442E-01 0.10447891E+04</pdfrwt>
<totfact> 0.45028835E+01</totfact>
</mgrwt>
</event>
<event>
12    5  0.5221187E-008  0.1487146E+04  0.7818608E-02  0.8893046E-01
         -2   -1    0    0    0  501 -0.00000000000E+00  0.00000000000E+00  0.26565764749E+03  0.26565764749E+03  0.00000000000E+00 0.  1.
          1   -1    0    0  501    0  0.00000000000E+00 -0.00000000000E+00 -0.20812539603E+04  0.20812539603E+04  0.00000000000E+00 0. -1.
        -24    2    1    2    0    0  0.13665274930E+02 -0.42622426152E+03 -0.29278400021E+03  0.52450741956E+03  0.86785376281E+02 0.  0.
        254    2    1    2    0    0 -0.13665274930E+02  0.42622426152E+03 -0.15228123126E+04  0.18224041882E+04  0.90572944361E+03 0.  0.
         23    2    4    4    0    0 -0.18215220851E+03  0.51920101916E+03 -0.41737092643E+03  0.69660236323E+03  0.91144044540E+02 0.  0.
         23    2    4    4    0    0  0.16848693358E+03 -0.92976757640E+02 -0.11054413862E+04  0.11258018250E+04  0.91632781700E+02 0.  0.
          1    1    3    3  502    0  0.80159411275E+01 -0.19920984337E+02  0.33131558851E+01  0.21727354442E+02  0.00000000000E+00 0. -1.
         -2    1    3    3    0  502  0.56493338024E+01 -0.40630327719E+03 -0.29609715610E+03  0.50278006511E+03  0.00000000000E+00 0.  1.
         13    1    5    5    0    0 -0.12001074515E+03  0.28138763688E+03 -0.28165392731E+03  0.41582510255E+03  0.00000000000E+00 0. -1.
        -13    1    5    5    0    0 -0.62141463357E+02  0.23781338229E+03 -0.13571699912E+03  0.28077726068E+03  0.00000000000E+00 0.  1.
          4    1    6    6  503    0  0.15550004635E+03 -0.48968025920E+02 -0.94367443226E+03  0.95765315542E+03  0.00000000000E+00 0.  1.
         -4    1    6    6    0  503  0.12986887229E+02 -0.44008731720E+02 -0.16176695389E+03  0.16814866957E+03  0.00000000000E+00 0. -1.
<mgrwt>
<rscale>  0 0.14871463E+04</rscale>
<asrwt>0</asrwt>
<pdfrwt beam="1">  1        1 0.32019291E+00 0.14871463E+04</pdfrwt>
<pdfrwt beam="2">  1       -2 0.40870408E-01 0.14871463E+04</pdfrwt>
<totfact> 0.12660341E+01</totfact>
</mgrwt>
</event>
<event>
12    5  0.5221187E-008  0.1877452E+04  0.7818608E-02  0.8666162E-01
         -2   -1    0    0    0  501 -0.00000000000E+00  0.00000000000E+00  0.61147658770E+03  0.61147658770E+03  0.00000000000E+00 0.  1.
          1   -1    0    0  501    0  0.00000000000E+00 -0.00000000000E+00 -0.14411118202E+04  0.14411118202E+04  0.00000000000E+00 0. -1.
        -24    2    1    2    0    0 -0.33108681705E+03 -0.57883074328E+03 -0.49067173605E+01  0.67161340181E+03  0.79855969267E+02 0.  0.
        254    2    1    2    0    0  0.33108681705E+03  0.57883074328E+03 -0.82472851510E+03  0.13809750060E+04  0.88444973510E+03 0.  0.
         23    2    4    4    0    0  0.19693964515E+03  0.68471440188E+03 -0.91860218088E+03  0.11660731773E+04  0.90981603520E+02 0.  0.
         23    2    4    4    0    0  0.13414717190E+03 -0.10588365859E+03  0.93873665779E+02  0.21490182873E+03  0.90353295344E+02 0.  0.
          1    1    3    3  502    0 -0.14896194566E+03 -0.31742563532E+03 -0.30671761612E+02  0.35197933487E+03  0.00000000000E+00 0. -1.
         -2    1    3    3    0  502 -0.18212487139E+03 -0.26140510796E+03  0.25765044252E+02  0.31963406694E+03  0.00000000000E+00 0.  1.
         13    1    5    5    0    0  0.22614985319E+02  0.21713546248E+03 -0.25271061905E+03  0.33394895359E+03  0.00000000000E+00 0.  1.
        -13    1    5    5    0    0  0.17432465983E+03  0.46757893940E+03 -0.66589156183E+03  0.83212422373E+03  0.00000000000E+00 0. -1.
          1    1    6    6  503    0  0.12699892291E+03 -0.87986009326E+02  0.11009341201E+03  0.18971247620E+03  0.00000000000E+00 0. -1.
         -1    1    6    6    0  503  0.71482489881E+01 -0.17897649267E+02 -0.16219746236E+02  0.25189352529E+02  0.00000000000E+00 0.  1.
<mgrwt>
<rscale>  0 0.18774516E+04</rscale>
<asrwt>0</asrwt>
<pdfrwt beam="1">  1        1 0.22170951E+00 0.18774516E+04</pdfrwt>
<pdfrwt beam="2">  1       -2 0.94073322E-01 0.18774516E+04</pdfrwt>
<totfact> 0.56399526E+00</totfact>
</mgrwt>
</event>
<event>
12    5  0.5221187E-008  0.1334661E+04  0.7818608E-02  0.9002521E-01
         -2   -1    0    0    0  501 -0.00000000000E+00  0.00000000000E+00  0.81112350608E+03  0.81112350608E+03  0.00000000000E+00 0.  1.
          1   -1    0    0  501    0  0.00000000000E+00 -0.00000000000E+00 -0.54902851922E+03  0.54902851922E+03  0.00000000000E+00 0. -1.
        -24    2    1    2    0    0 -0.23585877648E+03  0.51215164653E+02  0.38798775439E+03  0.46369985881E+03  0.78934821014E+02 0.  0.
        254    2    1    2    0    0  0.23585877648E+03 -0.51215164653E+02 -0.12589276753E+03  0.89645216648E+03  0.85412243990E+03 0.  0.
         23    2    4    4    0    0 -0.24109661691E+03  0.83497919742E+02  0.16077753969E+03  0.31619776974E+03  0.95037524353E+02 0.  0.
         23    2    4    4    0    0  0.47695539340E+03 -0.13471308439E+03 -0.28667030722E+03  0.58025439674E+03  0.94240317784E+02 0.  0.
          3    1    3    3  502    0 -0.70976256587E+02  0.49960682512E+02  0.16417504992E+03  0.18570715068E+03  0.00000000000E+00 0. -1.
         -4    1    3    3    0  502 -0.16488251989E+03  0.12544821409E+01  0.22381270447E+03  0.27799270813E+03  0.00000000000E+00 0.  1.
         13    1    5    5    0    0 -0.80864363412E+02 -0.16661590379E+02  0.59833769757E+02  0.10196437548E+03  0.00000000000E+00 0. -1.
        -13    1    5    5    0    0 -0.16023225350E+03  0.10015951012E+03  0.10094376993E+03  0.21423339426E+03  0.00000000000E+00 0.  1.
          2    1    6    6  503    0  0.23496218441E+03 -0.34925981296E+02 -0.95058901973E+02  0.25585786507E+03  0.00000000000E+00 0. -1.
         -2    1    6    6    0  503  0.24199320899E+03 -0.99787103098E+02 -0.19161140525E+03  0.32439653167E+03  0.00000000000E+00 0.  1.
<mgrwt>
<rscale>  0 0.13346609E+04</rscale>
<asrwt>0</asrwt>
<pdfrwt beam="1">  1        1 0.84465926E-01 0.13346609E+04</pdfrwt>
<pdfrwt beam="2">  1       -2 0.12478823E+00 0.13346609E+04</pdfrwt>
<totfact> 0.16046934E+01</totfact>
</mgrwt>
</event>
<event>
12    5  0.5221187E-008  0.2390086E+04  0.7818608E-02  0.8443224E-01
          1   -1    0    0  501    0  0.00000000000E+00  0.00000000000E+00  0.14016387664E+04  0.14016387664E+04  0.00000000000E+00 0. -1.
         -2   -1    0    0    0  501 -0.00000000000E+00 -0.00000000000E+00 -0.10188988261E+04  0.10188988261E+04  0.00000000000E+00 0.  1.
        -24    2    1    2    0    0  0.78987986175E+03  0.11643970675E+03  0.81422610756E+03  0.11431836279E+04  0.80226252401E+02 0.  0.
        254    2    1    2    0    0 -0.78987986175E+03 -0.11643970675E+03 -0.43148616718E+03  0.12773539646E+04  0.89887954535E+03 0.  0.
         23    2    4    4    0    0  0.29540456718E+02  0.27391724484E+03 -0.12186844391E+03  0.31403993493E+03  0.88689726059E+02 0.  0.
         23    2    4    4    0    0 -0.81942031847E+03 -0.39035695158E+03 -0.30961772327E+03  0.96331402965E+03  0.91008665430E+02 0.  0.
          3    1    3    3  502    0  0.56579225153E+03  0.49854704689E+02  0.55512092796E+03  0.79420753467E+03  0.00000000000E+00 0. -1.
         -4    1    3    3    0  502  0.22408761022E+03  0.66585002057E+02  0.25910517960E+03  0.34897609323E+03  0.00000000000E+00 0.  1.
         13    1    5    5    0    0  0.34034887798E+02  0.13825143453E+03 -0.10573071558E+03  0.17734378183E+03  0.00000000000E+00 0.  1.
        -13    1    5    5    0    0 -0.44944310803E+01  0.13566581030E+03 -0.16137728330E+02  0.13669615310E+03  0.00000000000E+00 0. -1.
          1    1    6    6  503    0 -0.45797488696E+03 -0.20450601536E+03 -0.21686124896E+03  0.54643618905E+03  0.00000000000E+00 0. -1.
         -1    1    6    6    0  503 -0.36144543151E+03 -0.18585093622E+03 -0.92756474309E+02  0.41687784059E+03  0.00000000000E+00 0.  1.
<mgrwt>
<rscale>  0 0.23900863E+04</rscale>
<asrwt>0</asrwt>
<pdfrwt beam="1">  1        1 0.21563673E+00 0.23900863E+04</pdfrwt>
<pdfrwt beam="2">  1       -2 0.15675367E+00 0.23900863E+04</pdfrwt>
<totfact> 0.16066550E+00</totfact>
</mgrwt>
</event>
<event>
12    5  0.5221187E-008  0.1478524E+04  0.7818608E-02  0.8898861E-01
         -2   -1    0    0    0  501 -0.00000000000E+00  0.00000000000E+00  0.15473445382E+04  0.15473445382E+04  0.00000000000E+00 0.  1.
          1   -1    0    0  501    0  0.00000000000E+00 -0.00000000000E+00 -0.35319120701E+03  0.35319120701E+03  0.00000000000E+00 0. -1.
        -24    2    1    2    0    0  0.19627693111E+03 -0.39192842672E+03  0.20235437862E+03  0.48915402851E+03  0.78688269209E+02 0.  0.
        254    2    1    2    0    0 -0.19627693111E+03  0.39192842672E+03  0.99179895257E+03  0.14113817167E+04  0.90343824500E+03 0.  0.
         23    2    4    4    0    0 -0.34854404021E+03  0.61935324504E+03  0.70008863031E+03  0.10018442014E+04  0.92121243576E+02 0.  0.
         23    2    4    4    0    0  0.15226710910E+03 -0.22742481833E+03  0.29171032226E+03  0.40953751527E+03  0.87856381628E+02 0.  0.
          3    1    3    3  502    0  0.18594424795E+03 -0.39313627318E+03  0.19660809284E+03  0.47726945723E+03  0.00000000000E+00 0. -1.
         -2    1    3    3    0  502  0.10332683160E+02  0.12078464615E+01  0.57462857846E+01  0.11884571287E+02  0.00000000000E+00 0.  1.
         13    1    5    5    0    0 -0.10925266617E+03  0.22670492760E+03  0.30652023653E+03  0.39659289538E+03  0.00000000000E+00 0. -1.
        -13    1    5    5    0    0 -0.23929137404E+03  0.39264831744E+03  0.39356839378E+03  0.60525130604E+03  0.00000000000E+00 0.  1.
          1    1    6    6  503    0  0.11041951657E+03 -0.18399164848E+03  0.17021389865E+03  0.27389444617E+03  0.00000000000E+00 0. -1.
         -1    1    6    6    0  503  0.41847592535E+02 -0.43433169849E+02  0.12149642361E+03  0.13564306910E+03  0.00000000000E+00 0.  1.
<mgrwt>
<rscale>  0 0.14785242E+04</rscale>
<asrwt>0</asrwt>
<pdfrwt beam="1">  1        1 0.54337110E-01 0.14785242E+04</pdfrwt>
<pdfrwt beam="2">  1       -2 0.23805300E+00 0.14785242E+04</pdfrwt>
<totfact> 0.45639613E+00</totfact>
</mgrwt>
</event>
<event>
12    5  0.5221187E-008  0.2897159E+04  0.7818608E-02  0.8273723E-01
          1   -1    0    0  501    0  0.00000000000E+00  0.00000000000E+00  0.27620604958E+04  0.27620604958E+04  0.00000000000E+00 0. -1.
         -2   -1    0    0    0  501 -0.00000000000E+00 -0.00000000000E+00 -0.75971633238E+03  0.75971633238E+03  0.00000000000E+00 0.  1.
        -24    2    1    2    0    0 -0.35904596995E+03  0.88954552111E+03  0.20070084015E+04  0.22261070162E+04  0.85231925914E+02 0.  0.
        254    2    1    2    0    0  0.35904596995E+03 -0.88954552111E+03 -0.46642380995E+01  0.12956698120E+04  0.87093815159E+03 0.  0.
         23    2    4    4    0    0  0.80016432758E+02 -0.14317203920E+03  0.36655739976E+03  0.41192178059E+03  0.91729840716E+02 0.  0.
         23    2    4    4    0    0  0.27902953719E+03 -0.74637348190E+03 -0.37122163786E+03  0.88374803139E+03  0.90962747627E+02 0.  0.
          3    1    3    3  502    0 -0.29824097477E+03  0.64354631556E+03  0.15049760591E+04  0.16637465185E+04  0.00000000000E+00 0. -1.
         -4    1    3    3    0  502 -0.60804995176E+02  0.24599920554E+03  0.50203234241E+03  0.56236049772E+03  0.00000000000E+00 0.  1.
         13    1    5    5    0    0  0.73653034987E+02 -0.15443397231E+03  0.31182590013E+03  0.35568246141E+03  0.00000000000E+00 0. -1.
        -13    1    5    5    0    0  0.63633977711E+01  0.11261933107E+02  0.54731499639E+02  0.56239319174E+02  0.00000000000E+00 0.  1.
          1    1    6    6  503    0  0.26861558758E+03 -0.69671638698E+03 -0.36914493560E+03  0.83296821143E+03  0.00000000000E+00 0. -1.
         -1    1    6    6    0  503  0.10413949609E+02 -0.49657094921E+02 -0.20767022627E+01  0.50779819956E+02  0.00000000000E+00 0.  1.
<mgrwt>
<rscale>  0 0.28971589E+04</rscale>
<asrwt>0</asrwt>
<pdfrwt beam="1">  1        1 0.42493238E+00 0.28971589E+04</pdfrwt>
<pdfrwt beam="2">  1       -2 0.11687944E+00 0.28971589E+04</pdfrwt>
<totfact> 0.37947476E-01</totfact>
</mgrwt>
</event>
<event>
12    5  0.5221187E-008  0.1545406E+04  0.7818608E-02  0.8854807E-01
         -2   -1    0    0    0  501 -0.00000000000E+00  0.00000000000E+00  0.18787309387E+04  0.18787309387E+04  0.00000000000E+00 0.  1.
          1   -1    0    0  501    0  0.00000000000E+00 -0.00000000000E+00 -0.31780492740E+03  0.31780492740E+03  0.00000000000E+00 0. -1.
        -24    2    1    2    0    0 -0.13017813057E+03  0.24488373450E+03  0.10340985323E+04  0.10736811111E+04  0.80727719755E+02 0.  0.
        254    2    1    2    0    0  0.13017813057E+03 -0.24488373450E+03  0.52682747895E+03  0.11228547550E+04  0.95201954762E+03 0.  0.
         23    2    4    4    0    0 -0.27714153616E+03 -0.24163628159E+03  0.59010354083E+03  0.70108805694E+03  0.90037497942E+02 0.  0.
         23    2    4    4    0    0  0.40731966673E+03 -0.32474529060E+01 -0.63276061878E+02  0.42176669802E+03  0.89238056318E+02 0.  0.
          3    1    3    3  502    0 -0.17359944961E+02  0.44596770866E+02  0.89250046089E+02  0.10127097505E+03  0.00000000000E+00 0. -1.
         -2    1    3    3    0  502 -0.11281818561E+03  0.20028696363E+03  0.94484848624E+03  0.97241013608E+03  0.00000000000E+00 0.  1.
         13    1    5    5    0    0 -0.12912797929E+03 -0.16908947454E+03  0.35705557689E+03  0.41563682515E+03  0.00000000000E+00 0. -1.
        -13    1    5    5    0    0 -0.14801355687E+03 -0.72546807048E+02  0.23304796394E+03  0.28545123179E+03  0.00000000000E+00 0.  1.
          4    1    6    6  503    0  0.71293515666E+02 -0.19858088330E+02  0.16891683344E+02  0.75910723974E+02  0.00000000000E+00 0.  1.
         -4    1    6    6    0  503  0.33602615106E+03  0.16610635424E+02 -0.80167745222E+02  0.34585597404E+03  0.00000000000E+00 0. -1.
<mgrwt>
<rscale>  0 0.15454060E+04</rscale>
<asrwt>0</asrwt>
<pdfrwt beam="1">  1        1 0.48893067E-01 0.15454060E+04</pdfrwt>
<pdfrwt beam="2">  1       -2 0.28903552E+00 0.15454060E+04</pdfrwt>
<totfact> 0.25455078E+00</totfact>
</mgrwt>
</event>
<event>
12    5  0.5221187E-008  0.2400332E+04  0.7818608E-02  0.8439379E-01
         -2   -1    0    0    0  501 -0.00000000000E+00  0.00000000000E+00  0.70938633050E+03  0.70938633050E+03  0.00000000000E+00 0.  1.
          1   -1    0    0  501    0  0.00000000000E+00 -0.00000000000E+00 -0.20304859470E+04  0.20304859470E+04  0.00000000000E+00 0. -1.
        -24    2    1    2    0    0  0.67024405857E+03  0.33376512824E+03  0.23899644255E+03  0.78972193176E+03  0.76910149327E+02 0.  0.
        254    2    1    2    0    0 -0.67024405857E+03 -0.33376512824E+03 -0.15600960590E+04  0.19501503457E+04  0.89919986575E+03 0.  0.
         23    2    4    4    0    0 -0.38388893156E+03 -0.16988781644E+03 -0.87956508339E+02  0.43865595420E+03  0.91924517146E+02 0.  0.
         23    2    4    4    0    0 -0.28635512702E+03 -0.16387731180E+03 -0.14721395507E+04  0.15114943915E+04  0.92549482631E+02 0.  0.
          1    1    3    3  502    0  0.68371143812E+02  0.56012040238E+02  0.12728723019E+02  0.89297157555E+02  0.00000000000E+00 0. -1.
         -2    1    3    3    0  502  0.60187291476E+03  0.27775308800E+03  0.22626771954E+03  0.70042477421E+03  0.00000000000E+00 0.  1.
         13    1    5    5    0    0 -0.64369498327E+02  0.47236277598E+01 -0.24575229358E+02  0.69062919661E+02  0.00000000000E+00 0.  1.
        -13    1    5    5    0    0 -0.31951943323E+03 -0.17461144420E+03 -0.63381278981E+02  0.36959303454E+03  0.00000000000E+00 0. -1.
          3    1    6    6  503    0 -0.22488069631E+03 -0.16717634281E+03 -0.11625895879E+04  0.11958820206E+04  0.00000000000E+00 0. -1.
         -3    1    6    6    0  503 -0.61474430704E+02  0.32990310096E+01 -0.30954996277E+03  0.31561237094E+03  0.00000000000E+00 0.  1.
<mgrwt>
<rscale>  0 0.24003325E+04</rscale>
<asrwt>0</asrwt>
<pdfrwt beam="1">  1        1 0.31238244E+00 0.24003325E+04</pdfrwt>
<pdfrwt beam="2">  1       -2 0.10913636E+00 0.24003325E+04</pdfrwt>
<totfact> 0.14980999E+00</totfact>
</mgrwt>
</event>
<event>
12    5  0.5221187E-008  0.2166815E+04  0.7818608E-02  0.8532369E-01
         -2   -1    0    0    0  501 -0.00000000000E+00  0.00000000000E+00  0.13767401505E+04  0.13767401505E+04  0.00000000000E+00 0.  1.
          1   -1    0    0  501    0  0.00000000000E+00 -0.00000000000E+00 -0.85257293954E+03  0.85257293954E+03  0.00000000000E+00 0. -1.
        -24    2    1    2    0    0 -0.75290277258E+03 -0.40178476348E+03  0.48674866787E+03  0.98560630516E+03  0.78752409337E+02 0.  0.
        254    2    1    2    0    0  0.75290277258E+03  0.40178476348E+03  0.37418543098E+02  0.12437067849E+04  0.90394293972E+03 0.  0.
         23    2    4    4    0    0  0.64146549735E+03  0.81660889653E+02  0.37796200866E+03  0.75450580954E+03  0.90979401221E+02 0.  0.
         23    2    4    4    0    0  0.11143727523E+03  0.32012387383E+03 -0.34054346556E+03  0.48920097535E+03  0.91924868443E+02 0.  0.
          1    1    3    3  502    0 -0.44469723726E+03 -0.21447049746E+03  0.24277818008E+03  0.55017676417E+03  0.00000000000E+00 0. -1.
         -2    1    3    3    0  502 -0.30820553532E+03 -0.18731426602E+03  0.24397048779E+03  0.43542954099E+03  0.00000000000E+00 0.  1.
         13    1    5    5    0    0  0.12049657237E+03  0.18951453365E+02  0.32387716949E+02  0.12620438085E+03  0.00000000000E+00 0.  1.
        -13    1    5    5    0    0  0.52096892498E+03  0.62709436288E+02  0.34557429171E+03  0.62830142868E+03  0.00000000000E+00 0. -1.
          2    1    6    6  503    0  0.91877583704E+02  0.16522087788E+03 -0.23087808466E+03  0.29840261200E+03  0.00000000000E+00 0. -1.
         -2    1    6    6    0  503  0.19559691531E+02  0.15490299595E+03 -0.10966538090E+03  0.19079836334E+03  0.00000000000E+00 0.  1.
<mgrwt>
<rscale>  0 0.21668146E+04</rscale>
<asrwt>0</asrwt>
<pdfrwt beam="1">  1        1 0.13116507E+00 0.21668146E+04</pdfrwt>
<pdfrwt beam="2">  1       -2 0.21180618E+00 0.21668146E+04</pdfrwt>
<totfact> 0.17798518E+00</totfact>
</mgrwt>
</event>
<event>
12    5  0.5221187E-008  0.2301950E+04  0.7818608E-02  0.8477152E-01
          1   -1    0    0  501    0  0.00000000000E+00  0.00000000000E+00  0.19328619812E+04  0.19328619812E+04  0.00000000000E+00 0. -1.
         -2   -1    0    0    0  501 -0.00000000000E+00 -0.00000000000E+00 -0.68537946449E+03  0.68537946449E+03  0.00000000000E+00 0.  1.
        -24    2    1    2    0    0 -0.18112138686E+03  0.66865709615E+03 -0.25398345600E+03  0.74276737543E+03  0.85372765367E+02 0.  0.
        254    2    1    2    0    0  0.18112138686E+03 -0.66865709615E+03  0.15014659727E+04  0.18754740703E+04  0.88492691903E+03 0.  0.
         23    2    4    4    0    0  0.26455742603E+03  0.99127178111E+01  0.95582785545E+03  0.99599675014E+03  0.91179731253E+02 0.  0.
         23    2    4    4    0    0 -0.83436039170E+02 -0.67856981396E+03  0.54563811727E+03  0.87947732014E+03  0.91328180568E+02 0.  0.
          3    1    3    3  502    0  0.75248809755E+01  0.58378986419E+02 -0.14879514241E+02  0.60713506183E+02  0.00000000000E+00 0. -1.
         -4    1    3    3    0  502 -0.18864626784E+03  0.61027810973E+03 -0.23910394176E+03  0.68205386924E+03  0.00000000000E+00 0.  1.
         13    1    5    5    0    0  0.91659581766E+02 -0.34277938081E+02  0.41933066098E+03  0.43059802508E+03  0.00000000000E+00 0.  1.
        -13    1    5    5    0    0  0.17289784427E+03  0.44190655892E+02  0.53649719448E+03  0.56539872506E+03  0.00000000000E+00 0. -1.
          1    1    6    6  503    0 -0.19435564068E+02 -0.30801068823E+03  0.29938765355E+03  0.42997824632E+03  0.00000000000E+00 0. -1.
         -1    1    6    6    0  503 -0.64000475103E+02 -0.37055912573E+03  0.24625046372E+03  0.44949907381E+03  0.00000000000E+00 0.  1.
<mgrwt>
<rscale>  0 0.23019504E+04</rscale>
<asrwt>0</asrwt>
<pdfrwt beam="1">  1        1 0.29736338E+00 0.23019504E+04</pdfrwt>
<pdfrwt beam="2">  1       -2 0.10544300E+00 0.23019504E+04</pdfrwt>
<totfact> 0.19119848E+00</totfact>
</mgrwt>
</event>
<event>
12    5  0.5221187E-008  0.1821584E+04  0.7818608E-02  0.8694905E-01
          1   -1    0    0  501    0  0.00000000000E+00  0.00000000000E+00  0.10198416353E+04  0.10198416353E+04  0.00000000000E+00 0. -1.
         -2   -1    0    0    0  501 -0.00000000000E+00 -0.00000000000E+00 -0.81340265043E+03  0.81340265043E+03  0.00000000000E+00 0.  1.
        -24    2    1    2    0    0 -0.67921845842E+03 -0.75462575331E+02  0.49806855192E+02  0.68981772612E+03  0.79595589815E+02 0.  0.
        254    2    1    2    0    0  0.67921845842E+03  0.75462575331E+02  0.15663212971E+03  0.11434265596E+04  0.90324878008E+03 0.  0.
         23    2    4    4    0    0  0.11766100639E+02 -0.30607301203E+03 -0.89112071728E+02  0.33178727302E+03  0.91228851780E+02 0.  0.
         23    2    4    4    0    0  0.66745235778E+03  0.38153558736E+03  0.24574420143E+03  0.81163928662E+03  0.85475521241E+02 0.  0.
          1    1    3    3  502    0 -0.16318703569E+03  0.52819168315E+01 -0.12775141656E+02  0.16377152227E+03  0.00000000000E+00 0. -1.
         -2    1    3    3    0  502 -0.51603142273E+03 -0.80744492162E+02  0.62581996848E+02  0.52604620385E+03  0.00000000000E+00 0.  1.
         13    1    5    5    0    0  0.21705269561E+01 -0.30735634232E+03 -0.78112794474E+02  0.31713442104E+03  0.00000000000E+00 0.  1.
        -13    1    5    5    0    0  0.95955736829E+01  0.12833302934E+01 -0.10999277254E+02  0.14652851977E+02  0.00000000000E+00 0. -1.
          2    1    6    6  503    0  0.23304877944E+03  0.15914349650E+03  0.12651659181E+03  0.30926499007E+03  0.00000000000E+00 0. -1.
         -2    1    6    6    0  503  0.43440357833E+03  0.22239209086E+03  0.11922760963E+03  0.50237429656E+03  0.00000000000E+00 0.  1.
<mgrwt>
<rscale>  0 0.18215838E+04</rscale>
<asrwt>0</asrwt>
<pdfrwt beam="1">  1        1 0.15689871E+00 0.18215838E+04</pdfrwt>
<pdfrwt beam="2">  1       -2 0.12513887E+00 0.18215838E+04</pdfrwt>
<totfact> 0.57647563E+00</totfact>
</mgrwt>
</event>
<event>
12    5  0.5221187E-008  0.2136672E+04  0.7818608E-02  0.8545259E-01
         -2   -1    0    0    0  501 -0.00000000000E+00  0.00000000000E+00  0.40488892194E+03  0.40488892194E+03  0.00000000000E+00 0.  1.
          1   -1    0    0  501    0  0.00000000000E+00 -0.00000000000E+00 -0.28189008888E+04  0.28189008888E+04  0.00000000000E+00 0. -1.
        -24    2    1    2    0    0  0.44487041572E+03 -0.61091963579E+03 -0.16489763450E+04  0.18156300362E+04  0.79100909416E+02 0.  0.
        254    2    1    2    0    0 -0.44487041572E+03  0.61091963579E+03 -0.76503562190E+03  0.14081597746E+04  0.90912153189E+03 0.  0.
         23    2    4    4    0    0 -0.28232217808E+03  0.35899019502E+03 -0.94027759437E+03  0.10492811876E+04  0.91045503894E+02 0.  0.
         23    2    4    4    0    0 -0.16254823763E+03  0.25192944077E+03  0.17524197247E+03  0.35887858698E+03  0.90519161479E+02 0.  0.
          3    1    3    3  502    0  0.31555610879E+03 -0.47169961584E+03 -0.12945254355E+04  0.14134611026E+04  0.00000000000E+00 0. -1.
         -4    1    3    3    0  502  0.12931430692E+03 -0.13922001996E+03 -0.35445090954E+03  0.40216893367E+03  0.00000000000E+00 0.  1.
         13    1    5    5    0    0 -0.11651915630E+03  0.20071057702E+03 -0.40114227619E+03  0.46343993706E+03  0.00000000000E+00 0. -1.
        -13    1    5    5    0    0 -0.16580302178E+03  0.15827961800E+03 -0.53913531817E+03  0.58584125052E+03  0.00000000000E+00 0.  1.
          3    1    6    6  503    0 -0.30961783939E+02  0.28058603075E+01  0.22694773679E+02  0.38491007640E+02  0.00000000000E+00 0. -1.
         -3    1    6    6    0  503 -0.13158645369E+03  0.24912358046E+03  0.15254719879E+03  0.32038757934E+03  0.00000000000E+00 0.  1.
<mgrwt>
<rscale>  0 0.21366719E+04</rscale>
<asrwt>0</asrwt>
<pdfrwt beam="1">  1        1 0.43367707E+00 0.21366719E+04</pdfrwt>
<pdfrwt beam="2">  1       -2 0.62290602E-01 0.21366719E+04</pdfrwt>
<totfact> 0.15576967E+00</totfact>
</mgrwt>
</event>
<event>
12    5  0.5221187E-008  0.1544432E+04  0.7818608E-02  0.8855432E-01
         -2   -1    0    0    0  501 -0.00000000000E+00  0.00000000000E+00  0.72253553949E+03  0.72253553949E+03  0.00000000000E+00 0.  1.
          1   -1    0    0  501    0  0.00000000000E+00 -0.00000000000E+00 -0.82531255854E+03  0.82531255854E+03  0.00000000000E+00 0. -1.
        -24    2    1    2    0    0 -0.24160908805E+03 -0.42046627715E+03 -0.17912703777E+03  0.52325913191E+03  0.80912185856E+02 0.  0.
        254    2    1    2    0    0  0.24160908805E+03  0.42046627715E+03  0.76350018731E+02  0.10245889661E+04  0.89932551531E+03 0.  0.
         23    2    4    4    0    0  0.23765941774E+03  0.68717095475E+03  0.10624437227E+03  0.74073980160E+03  0.93389866419E+02 0.  0.
         23    2    4    4    0    0  0.39496703096E+01 -0.26670467760E+03 -0.29894353538E+02  0.28384916452E+03  0.92356325592E+02 0.  0.
          1    1    3    3  502    0 -0.24751013083E+03 -0.40403299100E+03 -0.17638529046E+03  0.50558450666E+03  0.00000000000E+00 0. -1.
         -4    1    3    3    0  502  0.59010427833E+01 -0.16433286147E+02 -0.27417473161E+01  0.17674625254E+02  0.00000000000E+00 0.  1.
         13    1    5    5    0    0  0.22955851098E+03  0.57492531905E+03  0.10677191764E+03  0.62820098284E+03  0.00000000000E+00 0. -1.
        -13    1    5    5    0    0  0.81009067567E+01  0.11224563570E+03 -0.52754537017E+00  0.11253881876E+03  0.00000000000E+00 0.  1.
          4    1    6    6  503    0 -0.10828690302E+02 -0.23858083570E+03 -0.52911294555E+02  0.24461741718E+03  0.00000000000E+00 0. -1.
         -4    1    6    6    0  503  0.14778360611E+02 -0.28123841900E+02  0.23016941017E+02  0.39231747340E+02  0.00000000000E+00 0.  1.
<mgrwt>
<rscale>  0 0.15444321E+04</rscale>
<asrwt>0</asrwt>
<pdfrwt beam="1">  1        1 0.12697116E+00 0.15444321E+04</pdfrwt>
<pdfrwt beam="2">  1       -2 0.11115931E+00 0.15444321E+04</pdfrwt>
<totfact> 0.11369665E+01</totfact>
</mgrwt>
</event>
<event>
12    5  0.5221187E-008  0.1371800E+04  0.7818608E-02  0.8974488E-01
          1   -1    0    0  501    0  0.00000000000E+00  0.00000000000E+00  0.16133064189E+04  0.16133064189E+04  0.00000000000E+00 0. -1.
         -2   -1    0    0    0  501 -0.00000000000E+00 -0.00000000000E+00 -0.29161166203E+03  0.29161166203E+03  0.00000000000E+00 0.  1.
        -24    2    1    2    0    0  0.20238129117E+03 -0.25502673560E+03  0.64995861957E+03  0.73172076638E+03  0.83499999426E+02 0.  0.
        254    2    1    2    0    0 -0.20238129117E+03  0.25502673560E+03  0.67173613728E+03  0.11731973145E+04  0.90507771922E+03 0.  0.
         23    2    4    4    0    0  0.14889802873E+03 -0.11909637249E+03 -0.10648211777E+03  0.23652345464E+03  0.90831350808E+02 0.  0.
         23    2    4    4    0    0 -0.35127931990E+03  0.37412310809E+03  0.77821825505E+03  0.93667385990E+03  0.91482275514E+02 0.  0.
          3    1    3    3  502    0  0.76460370805E+02 -0.10216708288E+03  0.34751638699E+03  0.37020526786E+03  0.00000000000E+00 0. -1.
         -4    1    3    3    0  502  0.12592092036E+03 -0.15285965272E+03  0.30244223258E+03  0.36151549851E+03  0.00000000000E+00 0.  1.
         13    1    5    5    0    0  0.68720845372E+02 -0.43413916185E+02 -0.95970501850E+02  0.12576827872E+03  0.00000000000E+00 0.  1.
        -13    1    5    5    0    0  0.80177183361E+02 -0.75682456302E+02 -0.10511615922E+02  0.11075517592E+03  0.00000000000E+00 0. -1.
          1    1    6    6  503    0 -0.73497436832E+02  0.11201124681E+03  0.14686904491E+03  0.19879363417E+03  0.00000000000E+00 0. -1.
         -1    1    6    6    0  503 -0.27778188307E+03  0.26211186127E+03  0.63134921014E+03  0.73788022573E+03  0.00000000000E+00 0.  1.
<mgrwt>
<rscale>  0 0.13718002E+04</rscale>
<asrwt>0</asrwt>
<pdfrwt beam="1">  1        1 0.24820098E+00 0.13718002E+04</pdfrwt>
<pdfrwt beam="2">  1       -2 0.44863333E-01 0.13718002E+04</pdfrwt>
<totfact> 0.22079100E+01</totfact>
</mgrwt>
</event>
<event>
12    5  0.5221187E-008  0.1193227E+04  0.7818608E-02  0.9118806E-01
          1   -1    0    0  501    0  0.00000000000E+00  0.00000000000E+00  0.67754060723E+03  0.67754060723E+03  0.00000000000E+00 0. -1.
         -2   -1    0    0    0  501 -0.00000000000E+00 -0.00000000000E+00 -0.52535209432E+03  0.52535209432E+03  0.00000000000E+00 0.  1.
        -24    2    1    2    0    0 -0.95281844535E+02 -0.15552352715E+03  0.16751736259E+03  0.25995797201E+03  0.79056201821E+02 0.  0.
        254    2    1    2    0    0  0.95281844535E+02  0.15552352715E+03 -0.15328849678E+02  0.94293472953E+03  0.92499985575E+03 0.  0.
         23    2    4    4    0    0 -0.10958718799E+03 -0.24895909079E+03 -0.28714054085E+03  0.40692050746E+03  0.95627551100E+02 0.  0.
         23    2    4    4    0    0  0.20486903252E+03  0.40448261795E+03  0.27181169117E+03  0.53601422208E+03  0.88612313503E+02 0.  0.
          1    1    3    3  502    0 -0.99762719765E+02 -0.10570776337E+03  0.14430009080E+03  0.20481515495E+03  0.00000000000E+00 0. -1.
         -2    1    3    3    0  502  0.44808752293E+01 -0.49815763786E+02  0.23217271792E+02  0.55142817065E+02  0.00000000000E+00 0.  1.
         13    1    5    5    0    0 -0.90019823095E+02 -0.14468974948E+03 -0.11804459881E+03  0.20729982987E+03  0.00000000000E+00 0.  1.
        -13    1    5    5    0    0 -0.19567364892E+02 -0.10426934131E+03 -0.16909594204E+03  0.19962067759E+03  0.00000000000E+00 0. -1.
          4    1    6    6  503    0  0.18655304382E+03  0.29272186101E+03  0.22379399935E+03  0.41300348693E+03  0.00000000000E+00 0. -1.
         -4    1    6    6    0  503  0.18315988699E+02  0.11176075694E+03  0.48017691821E+02  0.12301073515E+03  0.00000000000E+00 0.  1.
<mgrwt>
<rscale>  0 0.11932265E+04</rscale>
<asrwt>0</asrwt>
<pdfrwt beam="1">  1        1 0.10423702E+00 0.11932265E+04</pdfrwt>
<pdfrwt beam="2">  1       -2 0.80823399E-01 0.11932265E+04</pdfrwt>
<totfact> 0.33532265E+01</totfact>
</mgrwt>
</event>
<event>
12    5  0.5221187E-008  0.1330178E+04  0.7818608E-02  0.9005970E-01
         -2   -1    0    0    0  501 -0.00000000000E+00  0.00000000000E+00  0.21525916751E+03  0.21525916751E+03  0.00000000000E+00 0.  1.
          1   -1    0    0  501    0  0.00000000000E+00 -0.00000000000E+00 -0.20549352082E+04  0.20549352082E+04  0.00000000000E+00 0. -1.
        -24    2    1    2    0    0 -0.26896265934E+03 -0.61129637495E+02 -0.86462194975E+03  0.91141364610E+03  0.83821080979E+02 0.  0.
        254    2    1    2    0    0  0.26896265934E+03  0.61129637495E+02 -0.97505409097E+03  0.13587807296E+04  0.90524960438E+03 0.  0.
         23    2    4    4    0    0  0.41471182991E+03  0.38864550239E+03 -0.57248930669E+03  0.81191453342E+03  0.91814894775E+02 0.  0.
         23    2    4    4    0    0 -0.14574917058E+03 -0.32751586489E+03 -0.40256478428E+03  0.54686619622E+03  0.92167068684E+02 0.  0.
          3    1    3    3  502    0 -0.24176340896E+03 -0.48944344059E+02 -0.82925038026E+03  0.86515968924E+03  0.00000000000E+00 0. -1.
         -4    1    3    3    0  502 -0.27199250378E+02 -0.12185293436E+02 -0.35371569491E+02  0.46253956863E+02  0.00000000000E+00 0.  1.
         13    1    5    5    0    0  0.36567267580E+03  0.34101404267E+03 -0.54091614690E+03  0.73661208320E+03  0.00000000000E+00 0. -1.
        -13    1    5    5    0    0  0.49039154109E+02  0.47631459715E+02 -0.31573159787E+02  0.75302450221E+02  0.00000000000E+00 0.  1.
          3    1    6    6  503    0 -0.14989346704E+03 -0.28139354144E+03 -0.31714444327E+03  0.44970098345E+03  0.00000000000E+00 0. -1.
         -3    1    6    6    0  503  0.41442964606E+01 -0.46122323454E+02 -0.85420341012E+02  0.97165212770E+02  0.00000000000E+00 0.  1.
<mgrwt>
<rscale>  0 0.13301784E+04</rscale>
<asrwt>0</asrwt>
<pdfrwt beam="1">  1        1 0.31614387E+00 0.13301784E+04</pdfrwt>
<pdfrwt beam="2">  1       -2 0.33116796E-01 0.13301784E+04</pdfrwt>
<totfact> 0.20063219E+01</totfact>
</mgrwt>
</event>
<event>
12    5  0.5221187E-008  0.2077997E+04  0.7818608E-02  0.8570998E-01
          1   -1    0    0  501    0  0.00000000000E+00  0.00000000000E+00  0.95581830209E+03  0.95581830209E+03  0.00000000000E+00 0. -1.
         -2   -1    0    0    0  501 -0.00000000000E+00 -0.00000000000E+00 -0.11294171749E+04  0.11294171749E+04  0.00000000000E+00 0.  1.
        -24    2    1    2    0    0  0.11755500704E+02  0.42930554800E+03  0.66440032674E+03  0.79523193194E+03  0.80774909856E+02 0.  0.
        254    2    1    2    0    0 -0.11755500704E+02 -0.42930554800E+03 -0.83799919954E+03  0.12900035450E+04  0.88171709886E+03 0.  0.
         23    2    4    4    0    0  0.51864431669E+02  0.26059006223E+03 -0.21200767904E+03  0.35189494267E+03  0.91025792475E+02 0.  0.
         23    2    4    4    0    0 -0.63619932372E+02 -0.68989561023E+03 -0.62599152050E+03  0.93810860237E+03  0.90437366616E+02 0.  0.
          3    1    3    3  502    0 -0.11780639041E+02  0.39318085174E+03  0.58649176243E+03  0.70618875170E+03  0.00000000000E+00 0. -1.
         -4    1    3    3    0  502  0.23536139744E+02  0.36124696262E+02  0.77908564315E+02  0.89043180242E+02  0.00000000000E+00 0.  1.
         13    1    5    5    0    0  0.32781131553E+01 -0.44442745553E+01 -0.20733545411E+02  0.21456409474E+02  0.00000000000E+00 0.  1.
        -13    1    5    5    0    0  0.48586318513E+02  0.26503433679E+03 -0.19127413363E+03  0.33043853319E+03  0.00000000000E+00 0. -1.
          2    1    6    6  503    0 -0.67268053856E+02 -0.38308101834E+03 -0.30706720918E+03  0.49554649493E+03  0.00000000000E+00 0.  1.
         -2    1    6    6    0  503  0.36481214842E+01 -0.30681459189E+03 -0.31892431132E+03  0.44256210744E+03  0.00000000000E+00 0. -1.
<mgrwt>
<rscale>  0 0.20779967E+04</rscale>
<asrwt>0</asrwt>
<pdfrwt beam="1">  1        1 0.14704897E+00 0.20779967E+04</pdfrwt>
<pdfrwt beam="2">  1       -2 0.17375649E+00 0.20779967E+04</pdfrwt>
<totfact> 0.26548477E+00</totfact>
</mgrwt>
</event>
<event>
12    5  0.5221187E-008  0.1368557E+04  0.7818608E-02  0.8976898E-01
         -2   -1    0    0    0  501 -0.00000000000E+00  0.00000000000E+00  0.32716085129E+03  0.32716085129E+03  0.00000000000E+00 0.  1.
          1   -1    0    0  501    0  0.00000000000E+00 -0.00000000000E+00 -0.14312135236E+04  0.14312135236E+04  0.00000000000E+00 0. -1.
        -24    2    1    2    0    0 -0.37723642315E+02 -0.17344762406E+03  0.11786824697E+03  0.22777679105E+03  0.80512057593E+02 0.  0.
        254    2    1    2    0    0  0.37723642315E+02  0.17344762406E+03 -0.12219209193E+04  0.15305975838E+04  0.90450598625E+03 0.  0.
         23    2    4    4    0    0  0.14846425858E+03 -0.92571335691E+00  0.92706207375E+02  0.19702509081E+03  0.90454145851E+02 0.  0.
         23    2    4    4    0    0 -0.11074061627E+03  0.17437333741E+03 -0.13146271266E+04  0.13335724930E+04  0.86611587584E+02 0.  0.
          1    1    3    3  502    0 -0.35215870572E+01 -0.29717101867E+02 -0.10844919585E+02  0.31829546016E+02  0.00000000000E+00 0. -1.
         -2    1    3    3    0  502 -0.34202055258E+02 -0.14373052219E+03  0.12871316656E+03  0.19594724504E+03  0.00000000000E+00 0.  1.
         13    1    5    5    0    0  0.12250650153E+03 -0.12450809158E+02  0.27885812415E+02  0.12625562998E+03  0.00000000000E+00 0.  1.
        -13    1    5    5    0    0  0.25957757052E+02  0.11525095802E+02  0.64820394961E+02  0.70769460838E+02  0.00000000000E+00 0. -1.
          1    1    6    6  503    0  0.10158937179E+02  0.71138584445E+00 -0.31234442751E+02  0.32852708996E+02  0.00000000000E+00 0. -1.
         -1    1    6    6    0  503 -0.12089955345E+03  0.17366195157E+03 -0.12833926839E+04  0.13007197840E+04  0.00000000000E+00 0.  1.
<mgrwt>
<rscale>  0 0.13685570E+04</rscale>
<asrwt>0</asrwt>
<pdfrwt beam="1">  1        1 0.22018670E+00 0.13685570E+04</pdfrwt>
<pdfrwt beam="2">  1       -2 0.50332438E-01 0.13685570E+04</pdfrwt>
<totfact> 0.23386583E+01</totfact>
</mgrwt>
</event>
<event>
12    5  0.5221187E-008  0.1480942E+04  0.7818608E-02  0.8897226E-01
         -2   -1    0    0    0  501 -0.00000000000E+00  0.00000000000E+00  0.31378891708E+03  0.31378891708E+03  0.00000000000E+00 0.  1.
          1   -1    0    0  501    0  0.00000000000E+00 -0.00000000000E+00 -0.17473443856E+04  0.17473443856E+04  0.00000000000E+00 0. -1.
        -24    2    1    2    0    0 -0.45147039351E+03 -0.55511011574E+02 -0.37124640929E+03  0.59235368139E+03  0.78434678719E+02 0.  0.
        254    2    1    2    0    0  0.45147039351E+03  0.55511011574E+02 -0.10623090592E+04  0.14687796213E+04  0.90659034297E+03 0.  0.
         23    2    4    4    0    0  0.12804156280E+02  0.40758048960E+03 -0.28928414681E+03  0.50852471512E+03  0.92877695766E+02 0.  0.
         23    2    4    4    0    0  0.43866623723E+03 -0.35206947803E+03 -0.77302491244E+03  0.96025490618E+03  0.90227404673E+02 0.  0.
          1    1    3    3  502    0 -0.10802241812E+02  0.11405828525E+02 -0.99746027575E+01  0.18608440361E+02  0.00000000000E+00 0. -1.
         -2    1    3    3    0  502 -0.44066815170E+03 -0.66916840100E+02 -0.36127180653E+03  0.57374524103E+03  0.00000000000E+00 0.  1.
         13    1    5    5    0    0  0.39525900133E+02  0.24679472377E+03 -0.13488609634E+03  0.28401442120E+03  0.00000000000E+00 0. -1.
        -13    1    5    5    0    0 -0.26721743853E+02  0.16078576583E+03 -0.15439805047E+03  0.22451029392E+03  0.00000000000E+00 0.  1.
          4    1    6    6  503    0  0.23681519578E+03 -0.24426658610E+03 -0.48390455574E+03  0.59153294169E+03  0.00000000000E+00 0. -1.
         -4    1    6    6    0  503  0.20185104145E+03 -0.10780289192E+03 -0.28912035669E+03  0.36872196449E+03  0.00000000000E+00 0.  1.
<mgrwt>
<rscale>  0 0.14809420E+04</rscale>
<asrwt>0</asrwt>
<pdfrwt beam="1">  1        1 0.26882221E+00 0.14809420E+04</pdfrwt>
<pdfrwt beam="2">  1       -2 0.48275218E-01 0.14809420E+04</pdfrwt>
<totfact> 0.15295523E+01</totfact>
</mgrwt>
</event>
<event>
12    5  0.5221187E-008  0.1775712E+04  0.7818608E-02  0.8719323E-01
          1   -1    0    0  501    0  0.00000000000E+00  0.00000000000E+00  0.32675109829E+04  0.32675109829E+04  0.00000000000E+00 0. -1.
         -2   -1    0    0    0  501 -0.00000000000E+00 -0.00000000000E+00 -0.24125026161E+03  0.24125026161E+03  0.00000000000E+00 0.  1.
        -24    2    1    2    0    0 -0.25003103184E+03 -0.59229375945E+03  0.10129794335E+04  0.12028864483E+04  0.86493124616E+02 0.  0.
        254    2    1    2    0    0  0.25003103184E+03  0.59229375945E+03  0.20132812878E+04  0.23058747962E+04  0.92218740902E+03 0.  0.
         23    2    4    4    0    0  0.46700404711E+03  0.25702083009E+02  0.11700006873E+04  0.12633050139E+04  0.91019628668E+02 0.  0.
         23    2    4    4    0    0 -0.21697301527E+03  0.56659167644E+03  0.84328060046E+03  0.10425697822E+04  0.87898592047E+02 0.  0.
          3    1    3    3  502    0 -0.38967372065E+02 -0.15289831553E+03  0.30383015815E+03  0.34235816914E+03  0.00000000000E+00 0. -1.
         -4    1    3    3    0  502 -0.21106365977E+03 -0.43939544392E+03  0.70914927533E+03  0.86052827920E+03  0.00000000000E+00 0.  1.
         13    1    5    5    0    0 -0.38631178388E+01 -0.14057218637E+01  0.18592681574E+02  0.19041731579E+02  0.00000000000E+00 0.  1.
        -13    1    5    5    0    0  0.47086716494E+03  0.27107804872E+02  0.11514080058E+04  0.12442632824E+04  0.00000000000E+00 0. -1.
          3    1    6    6  503    0 -0.12224998470E+03  0.39565182009E+03  0.51913158440E+03  0.66406552645E+03  0.00000000000E+00 0. -1.
         -3    1    6    6    0  503 -0.94723030573E+02  0.17093985635E+03  0.32414901606E+03  0.37850425576E+03  0.00000000000E+00 0.  1.
<mgrwt>
<rscale>  0 0.17757116E+04</rscale>
<asrwt>0</asrwt>
<pdfrwt beam="1">  1        1 0.50269397E+00 0.17757116E+04</pdfrwt>
<pdfrwt beam="2">  1       -2 0.37115427E-01 0.17757116E+04</pdfrwt>
<totfact> 0.21592058E+00</totfact>
</mgrwt>
</event>
<event>
12    5  0.5221187E-008  0.1681304E+04  0.7818608E-02  0.8772100E-01
         -2   -1    0    0    0  501 -0.00000000000E+00  0.00000000000E+00  0.17444758121E+04  0.17444758121E+04  0.00000000000E+00 0.  1.
          1   -1    0    0  501    0  0.00000000000E+00 -0.00000000000E+00 -0.40510513796E+03  0.40510513796E+03  0.00000000000E+00 0. -1.
        -24    2    1    2    0    0 -0.23192024460E+03 -0.44608301162E+03  0.89835983562E+03  0.10327534681E+04  0.82172248934E+02 0.  0.
        254    2    1    2    0    0  0.23192024460E+03  0.44608301162E+03  0.44101083853E+03  0.11168274820E+04  0.89444732191E+03 0.  0.
         23    2    4    4    0    0  0.55994828185E+02 -0.21285499386E+03  0.34994174349E+03  0.42363263090E+03  0.92534928141E+02 0.  0.
         23    2    4    4    0    0  0.17592541641E+03  0.65893800549E+03  0.91069095040E+02  0.69319485107E+03  0.84121782366E+02 0.  0.
          1    1    3    3  502    0 -0.17684408124E+02 -0.38952603781E+02  0.38486097207E+02  0.57543229925E+02  0.00000000000E+00 0. -1.
         -2    1    3    3    0  502 -0.21423583647E+03 -0.40713040784E+03  0.85987373841E+03  0.97521023817E+03  0.00000000000E+00 0.  1.
         13    1    5    5    0    0  0.15069336215E+02 -0.14795419947E+03  0.29128064017E+03  0.32705036519E+03  0.00000000000E+00 0. -1.
        -13    1    5    5    0    0  0.40925491969E+02 -0.64900794394E+02  0.58661103328E+02  0.96582265709E+02  0.00000000000E+00 0.  1.
          2    1    6    6  503    0  0.14872621723E+03  0.50483316648E+03  0.36819763487E+02  0.52757151994E+03  0.00000000000E+00 0. -1.
         -2    1    6    6    0  503  0.27199199186E+02  0.15410483900E+03  0.54249331553E+02  0.16562333113E+03  0.00000000000E+00 0.  1.
<mgrwt>
<rscale>  0 0.16813044E+04</rscale>
<asrwt>0</asrwt>
<pdfrwt beam="1">  1        1 0.62323868E-01 0.16813044E+04</pdfrwt>
<pdfrwt beam="2">  1       -2 0.26838089E+00 0.16813044E+04</pdfrwt>
<totfact> 0.24396299E+00</totfact>
</mgrwt>
</event>
<event>
12    5  0.5231441E-008  0.1524855E+04  0.7818608E-02  0.8868091E-01
         -2   -1    0    0    0  501 -0.00000000000E+00  0.00000000000E+00  0.30269103818E+03  0.30269103818E+03  0.00000000000E+00 0.  1.
          1   -1    0    0  501    0  0.00000000000E+00 -0.00000000000E+00 -0.19204250972E+04  0.19204250972E+04  0.00000000000E+00 0. -1.
        -24    2    1    2    0    0 -0.12460158014E+03  0.88436379993E+02  0.15670326810E+03  0.23278317689E+03  0.79281436222E+02 0.  0.
        254    2    1    2    0    0  0.12460158014E+03 -0.88436379993E+02 -0.17744373272E+04  0.19903329585E+04  0.88851050121E+03 0.  0.
         23    2    4    4    0    0 -0.30948829037E+03  0.11239739926E+03 -0.36941874881E+03  0.50349347700E+03  0.92840143088E+02 0.  0.
         23    2    4    4    0    0  0.43408987051E+03 -0.20083377925E+03 -0.14050185783E+04  0.14868394815E+04  0.88578867710E+02 0.  0.
          1    1    3    3  502    0  0.42814079341E+01 -0.21715551994E+01 -0.50621269821E+01  0.69764772963E+01  0.00000000000E+00 0. -1.
         -2    1    3    3    0  502 -0.12888298807E+03  0.90607935192E+02  0.16176539508E+03  0.22580669959E+03  0.00000000000E+00 0.  1.
         13    1    5    5    0    0 -0.23984984290E+03  0.12630034930E+03 -0.29049316809E+03  0.39732355339E+03  0.00000000000E+00 0.  1.
        -13    1    5    5    0    0 -0.69638447471E+02 -0.13902950044E+02 -0.78925580720E+02  0.10616992360E+03  0.00000000000E+00 0. -1.
          4    1    6    6  503    0  0.19618288595E+03 -0.51222939980E+02 -0.51385554997E+03  0.55241202065E+03  0.00000000000E+00 0. -1.
         -4    1    6    6    0  503  0.23790698456E+03 -0.14961083927E+03 -0.89116302837E+03  0.93442746089E+03  0.00000000000E+00 0.  1.
<mgrwt>
<rscale>  0 0.15248547E+04</rscale>
<asrwt>0</asrwt>
<pdfrwt beam="1">  1        1 0.29545001E+00 0.15248547E+04</pdfrwt>
<pdfrwt beam="2">  1       -2 0.46567853E-01 0.15248547E+04</pdfrwt>
<totfact> 0.12507882E+01</totfact>
</mgrwt>
</event>
<event>
12    5  0.5221187E-008  0.1549509E+04  0.7818608E-02  0.8852182E-01
          1   -1    0    0  501    0  0.00000000000E+00  0.00000000000E+00  0.17334244226E+04  0.17334244226E+04  0.00000000000E+00 0. -1.
         -2   -1    0    0    0  501 -0.00000000000E+00 -0.00000000000E+00 -0.34627658884E+03  0.34627658884E+03  0.00000000000E+00 0.  1.
        -24    2    1    2    0    0 -0.23001846226E+03 -0.42843513543E+03  0.30547063935E+03  0.58044304908E+03  0.84478775214E+02 0.  0.
        254    2    1    2    0    0  0.23001846226E+03  0.42843513543E+03  0.10816771944E+04  0.14992579623E+04  0.91721520186E+03 0.  0.
         23    2    4    4    0    0  0.20576358271E+03  0.47025302333E+02  0.10816996098E+04  0.11061469076E+04  0.94535200972E+02 0.  0.
         23    2    4    4    0    0  0.24254879557E+02  0.38140983310E+03 -0.22415430112E-01  0.39311105477E+03  0.92057269750E+02 0.  0.
          1    1    3    3  502    0 -0.11522911954E+03 -0.22957021289E+03  0.11214938681E+03  0.28028149706E+03  0.00000000000E+00 0. -1.
         -2    1    3    3    0  502 -0.11478934273E+03 -0.19886492254E+03  0.19332125255E+03  0.30016155202E+03  0.00000000000E+00 0.  1.
         13    1    5    5    0    0  0.19850059944E+03  0.33714686284E+02  0.83309071215E+03  0.85707601922E+03  0.00000000000E+00 0. -1.
        -13    1    5    5    0    0  0.72629832666E+01  0.13310616050E+02  0.24860889765E+03  0.24907088833E+03  0.00000000000E+00 0.  1.
          4    1    6    6  503    0 -0.30667574186E+02  0.11443347958E+03  0.18535714564E+02  0.11991286031E+03  0.00000000000E+00 0. -1.
         -4    1    6    6    0  503  0.54922453743E+02  0.26697635352E+03 -0.18558129994E+02  0.27319819446E+03  0.00000000000E+00 0.  1.
<mgrwt>
<rscale>  0 0.15495087E+04</rscale>
<asrwt>0</asrwt>
<pdfrwt beam="1">  1        1 0.26668068E+00 0.15495087E+04</pdfrwt>
<pdfrwt beam="2">  1       -2 0.53273322E-01 0.15495087E+04</pdfrwt>
<totfact> 0.12704431E+01</totfact>
</mgrwt>
</event>
<event>
12    5  0.5221187E-008  0.1575599E+04  0.7818608E-02  0.8835680E-01
         -2   -1    0    0    0  501 -0.00000000000E+00  0.00000000000E+00  0.76305909374E+03  0.76305909374E+03  0.00000000000E+00 0.  1.
          1   -1    0    0  501    0  0.00000000000E+00 -0.00000000000E+00 -0.81334210229E+03  0.81334210229E+03  0.00000000000E+00 0. -1.
        -24    2    1    2    0    0  0.47548726083E+03  0.22597124270E+03 -0.25076916623E+02  0.53320410697E+03  0.80787562123E+02 0.  0.
        254    2    1    2    0    0 -0.47548726083E+03 -0.22597124270E+03 -0.25206091925E+02  0.10431970891E+04  0.90026311811E+03 0.  0.
         23    2    4    4    0    0 -0.52983503750E+03 -0.50468053195E+03 -0.68467354574E+02  0.74195634218E+03  0.10190107340E+03 0.  0.
         23    2    4    4    0    0  0.54347776668E+02  0.27870928924E+03  0.43261262649E+02  0.30124074689E+03  0.90784921668E+02 0.  0.
          1    1    3    3  502    0  0.41885431499E+02  0.31931842089E+02 -0.24681066308E+02  0.58165169518E+02  0.00000000000E+00 0. -1.
         -2    1    3    3    0  502  0.43360182933E+03  0.19403940062E+03 -0.39585031534E+00  0.47503893745E+03  0.00000000000E+00 0.  1.
         13    1    5    5    0    0 -0.47754292298E+03 -0.42922842207E+03 -0.88011991532E+02  0.64809751755E+03  0.00000000000E+00 0.  1.
        -13    1    5    5    0    0 -0.52292114521E+02 -0.75452109878E+02  0.19544636958E+02  0.93858824625E+02  0.00000000000E+00 0. -1.
          1    1    6    6  503    0  0.57729584866E+02  0.76291602928E+02  0.13670447944E+02  0.96643648488E+02  0.00000000000E+00 0. -1.
         -1    1    6    6    0  503 -0.33818081981E+01  0.20241768632E+03  0.29590814705E+02  0.20459709840E+03  0.00000000000E+00 0.  1.
<mgrwt>
<rscale>  0 0.15755990E+04</rscale>
<asrwt>0</asrwt>
<pdfrwt beam="1">  1        1 0.12512955E+00 0.15755990E+04</pdfrwt>
<pdfrwt beam="2">  1       -2 0.11739371E+00 0.15755990E+04</pdfrwt>
<totfact> 0.10163981E+01</totfact>
</mgrwt>
</event>
<event>
12    5  0.5221187E-008  0.1192180E+04  0.7818608E-02  0.9119729E-01
         -2   -1    0    0    0  501 -0.00000000000E+00  0.00000000000E+00  0.22322894852E+03  0.22322894852E+03  0.00000000000E+00 0.  1.
          1   -1    0    0  501    0  0.00000000000E+00 -0.00000000000E+00 -0.15917433537E+04  0.15917433537E+04  0.00000000000E+00 0. -1.
        -24    2    1    2    0    0 -0.13754149639E+03  0.18694951907E+02 -0.60993441079E+03  0.63042018165E+03  0.78373819037E+02 0.  0.
        254    2    1    2    0    0  0.13754149639E+03 -0.18694951907E+02 -0.75857999434E+03  0.11845521205E+04  0.89914011921E+03 0.  0.
         23    2    4    4    0    0 -0.15770988032E+03  0.12766128294E+03 -0.80949932827E+03  0.83984901840E+03  0.94273016873E+02 0.  0.
         23    2    4    4    0    0  0.29525137671E+03 -0.14635623484E+03  0.50919333929E+02  0.34470310213E+03  0.87372347583E+02 0.  0.
          1    1    3    3  502    0 -0.12806632669E+03  0.35041051641E+02 -0.44438670045E+03  0.46379779955E+03  0.00000000000E+00 0. -1.
         -2    1    3    3    0  502 -0.94751696981E+01 -0.16346099733E+02 -0.16554771035E+03  0.16662238211E+03  0.00000000000E+00 0.  1.
         13    1    5    5    0    0 -0.28212558937E+02 -0.14219300799E+02 -0.10836476967E+03  0.11287630532E+03  0.00000000000E+00 0. -1.
        -13    1    5    5    0    0 -0.12949732139E+03  0.14188058374E+03 -0.70113455860E+03  0.72697271307E+03  0.00000000000E+00 0.  1.
          2    1    6    6  503    0  0.10885953520E+03 -0.25447566228E+02 -0.15383419121E+02  0.11284780288E+03  0.00000000000E+00 0. -1.
         -2    1    6    6    0  503  0.18639184151E+03 -0.12090866862E+03  0.66302753050E+02  0.23185529925E+03  0.00000000000E+00 0.  1.
<mgrwt>
<rscale>  0 0.11921798E+04</rscale>
<asrwt>0</asrwt>
<pdfrwt beam="1">  1        1 0.24488359E+00 0.11921798E+04</pdfrwt>
<pdfrwt beam="2">  1       -2 0.34342916E-01 0.11921798E+04</pdfrwt>
<totfact> 0.39030775E+01</totfact>
</mgrwt>
</event>
<event>
12    5  0.5221187E-008  0.4027869E+04  0.7818608E-02  0.7998948E-01
         -2   -1    0    0    0  501 -0.00000000000E+00  0.00000000000E+00  0.15140783878E+04  0.15140783878E+04  0.00000000000E+00 0.  1.
          1   -1    0    0  501    0  0.00000000000E+00 -0.00000000000E+00 -0.26788120915E+04  0.26788120915E+04  0.00000000000E+00 0. -1.
        -24    2    1    2    0    0 -0.14949749995E+04  0.69358819561E+03 -0.15636326109E+04  0.22723211697E+04  0.49816886752E+02 0.  0.
        254    2    1    2    0    0  0.14949749995E+04 -0.69358819561E+03  0.39889890717E+03  0.19205693096E+04  0.90191535106E+03 0.  0.
         23    2    4    4    0    0  0.15692165141E+03  0.38331530342E+02 -0.20633054129E+03  0.27711595366E+03  0.90151254020E+02 0.  0.
         23    2    4    4    0    0  0.13380533481E+04 -0.73191972596E+03  0.60522944846E+03  0.16434533559E+04  0.92428351571E+02 0.  0.
          3    1    3    3  502    0 -0.93915680311E+03  0.43328107042E+03 -0.10141855311E+04  0.14485579997E+04  0.00000000000E+00 0. -1.
         -4    1    3    3    0  502 -0.55581819641E+03  0.26030712520E+03 -0.54944707975E+03  0.82376317005E+03  0.00000000000E+00 0.  1.
         13    1    5    5    0    0  0.15111570698E+02 -0.12250690110E+02  0.25592074163E+01  0.19621124324E+02  0.00000000000E+00 0.  1.
        -13    1    5    5    0    0  0.14181008072E+03  0.50582220452E+02 -0.20888974871E+03  0.25749482933E+03  0.00000000000E+00 0. -1.
          3    1    6    6  503    0  0.41716285307E+03 -0.26806178598E+03  0.22408280516E+03  0.54414618500E+03  0.00000000000E+00 0. -1.
         -3    1    6    6    0  503  0.92089049504E+03 -0.46385793997E+03  0.38114664330E+03  0.10993071709E+04  0.00000000000E+00 0.  1.
<mgrwt>
<rscale>  0 0.40278687E+04</rscale>
<asrwt>0</asrwt>
<pdfrwt beam="1">  1        1 0.41212493E+00 0.40278687E+04</pdfrwt>
<pdfrwt beam="2">  1       -2 0.23293514E+00 0.40278687E+04</pdfrwt>
<totfact> 0.57206993E-02</totfact>
</mgrwt>
</event>
<event>
12    5  0.5221187E-008  0.2513881E+04  0.7818608E-02  0.8398057E-01
         -2   -1    0    0    0  501 -0.00000000000E+00  0.00000000000E+00  0.74507115299E+03  0.74507115299E+03  0.00000000000E+00 0.  1.
          1   -1    0    0  501    0  0.00000000000E+00 -0.00000000000E+00 -0.21204684994E+04  0.21204684994E+04  0.00000000000E+00 0. -1.
        -24    2    1    2    0    0  0.54305236326E+02  0.53413081375E+03 -0.16862606208E+04  0.17714702671E+04  0.79920215582E+02 0.  0.
        254    2    1    2    0    0 -0.54305236326E+02 -0.53413081375E+03  0.31086327438E+03  0.10940693854E+04  0.90116982847E+03 0.  0.
         23    2    4    4    0    0 -0.27657509492E+03 -0.57057546977E+03  0.47791594489E+03  0.79944532420E+03  0.93053888566E+02 0.  0.
         23    2    4    4    0    0  0.22226985859E+03  0.36444656012E+02 -0.16705267051E+03  0.29462406117E+03  0.90358395858E+02 0.  0.
          3    1    3    3  502    0  0.31466104878E+02  0.20228824013E+03 -0.52475568372E+03  0.56327539930E+03  0.00000000000E+00 0. -1.
         -4    1    3    3    0  502  0.22839131448E+02  0.33184257362E+03 -0.11615049371E+04  0.12081948678E+04  0.00000000000E+00 0.  1.
         13    1    5    5    0    0 -0.10985137460E+03 -0.24838355782E+03  0.14908854269E+03  0.30982109330E+03  0.00000000000E+00 0.  1.
        -13    1    5    5    0    0 -0.16672372032E+03 -0.32219191195E+03  0.32882740220E+03  0.48962423090E+03  0.00000000000E+00 0. -1.
          2    1    6    6  503    0  0.66357157984E+02 -0.27590255398E+02 -0.32117020402E+02  0.78714659423E+02  0.00000000000E+00 0. -1.
         -2    1    6    6    0  503  0.15591270061E+03  0.64034911410E+02 -0.13493565011E+03  0.21590940174E+03  0.00000000000E+00 0.  1.
<mgrwt>
<rscale>  0 0.25138814E+04</rscale>
<asrwt>0</asrwt>
<pdfrwt beam="1">  1        1 0.32622592E+00 0.25138814E+04</pdfrwt>
<pdfrwt beam="2">  1       -2 0.11462633E+00 0.25138814E+04</pdfrwt>
<totfact> 0.11438755E+00</totfact>
</mgrwt>
</event>
<event>
12    5  0.5221187E-008  0.2480193E+04  0.7818608E-02  0.8410076E-01
         -2   -1    0    0    0  501 -0.00000000000E+00  0.00000000000E+00  0.89651884103E+03  0.89651884103E+03  0.00000000000E+00 0.  1.
          1   -1    0    0  501    0  0.00000000000E+00 -0.00000000000E+00 -0.17153456687E+04  0.17153456687E+04  0.00000000000E+00 0. -1.
        -24    2    1    2    0    0  0.95295472243E+03 -0.47030729337E+03 -0.50136283657E+03  0.11776935512E+04  0.79282743486E+02 0.  0.
        254    2    1    2    0    0 -0.95295472243E+03  0.47030729337E+03 -0.31746399108E+03  0.14341709585E+04  0.90925865376E+03 0.  0.
         23    2    4    4    0    0 -0.12517931671E+03  0.44303255199E+03  0.13277276646E+03  0.48697666042E+03  0.87005498843E+02 0.  0.
         23    2    4    4    0    0 -0.82777540572E+03  0.27274741386E+02 -0.45023675753E+03  0.94719429811E+03  0.92238097841E+02 0.  0.
          3    1    3    3  502    0  0.15579846933E+03 -0.85508876138E+02 -0.11631603904E+03  0.21240139332E+03  0.00000000000E+00 0. -1.
         -4    1    3    3    0  502  0.79715625310E+03 -0.38479841723E+03 -0.38504679753E+03  0.96529215788E+03  0.00000000000E+00 0.  1.
         13    1    5    5    0    0 -0.10468814375E+03  0.42829442320E+03  0.13630028582E+03  0.46149050727E+03  0.00000000000E+00 0. -1.
        -13    1    5    5    0    0 -0.20491172961E+02  0.14738128786E+02 -0.35275193650E+01  0.25486153149E+02  0.00000000000E+00 0.  1.
          1    1    6    6  503    0 -0.74582527459E+03  0.27811042139E+02 -0.43493191267E+03  0.86382553965E+03  0.00000000000E+00 0. -1.
         -1    1    6    6    0  503 -0.81950131132E+02 -0.53630075307E+00 -0.15304844862E+02  0.83368758461E+02  0.00000000000E+00 0.  1.
<mgrwt>
<rscale>  0 0.24801933E+04</rscale>
<asrwt>0</asrwt>
<pdfrwt beam="1">  1        1 0.26389933E+00 0.24801933E+04</pdfrwt>
<pdfrwt beam="2">  1       -2 0.13792598E+00 0.24801933E+04</pdfrwt>
<totfact> 0.13578659E+00</totfact>
</mgrwt>
</event>
<event>
12    5  0.5221187E-008  0.1754516E+04  0.7818608E-02  0.8730869E-01
          1   -1    0    0  501    0  0.00000000000E+00  0.00000000000E+00  0.36369168094E+04  0.36369168094E+04  0.00000000000E+00 0. -1.
         -2   -1    0    0    0  501 -0.00000000000E+00 -0.00000000000E+00 -0.21160263166E+03  0.21160263166E+03  0.00000000000E+00 0.  1.
        -24    2    1    2    0    0  0.14082393935E+03 -0.61883945926E+03  0.18525701304E+04  0.19598776246E+04  0.79439015274E+02 0.  0.
        254    2    1    2    0    0 -0.14082393935E+03  0.61883945926E+03  0.15727440473E+04  0.18886418164E+04  0.83105379741E+03 0.  0.
         23    2    4    4    0    0 -0.25233615263E+03  0.45347734404E+02  0.10950417468E+04  0.11286080183E+04  0.94391105344E+02 0.  0.
         23    2    4    4    0    0  0.11151221328E+03  0.57349172485E+03  0.47770230052E+03  0.76003379816E+03  0.90134090285E+02 0.  0.
          1    1    3    3  502    0  0.93840611675E+02 -0.53424523266E+03  0.15968062116E+04  0.16864205011E+04  0.00000000000E+00 0. -1.
         -2    1    3    3    0  502  0.46983327673E+02 -0.84594226592E+02  0.25576391883E+03  0.27345712356E+03  0.00000000000E+00 0.  1.
         13    1    5    5    0    0 -0.13128450632E+03  0.67916726049E+02  0.52453167199E+03  0.54496034552E+03  0.00000000000E+00 0.  1.
        -13    1    5    5    0    0 -0.12105164631E+03 -0.22568991645E+02  0.57051007479E+03  0.58364767274E+03  0.00000000000E+00 0. -1.
          3    1    6    6  503    0  0.55604096416E+02  0.47198179078E+03  0.38587799490E+03  0.61217681540E+03  0.00000000000E+00 0. -1.
         -3    1    6    6    0  503  0.55908116863E+02  0.10150993407E+03  0.91824305628E+02  0.14785698276E+03  0.00000000000E+00 0.  1.
<mgrwt>
<rscale>  0 0.17545155E+04</rscale>
<asrwt>0</asrwt>
<pdfrwt beam="1">  1        1 0.55952562E+00 0.17545155E+04</pdfrwt>
<pdfrwt beam="2">  1       -2 0.32554254E-01 0.17545155E+04</pdfrwt>
<totfact> 0.14332567E+00</totfact>
</mgrwt>
</event>
<event>
12    5  0.5221187E-008  0.1511866E+04  0.7818608E-02  0.8876600E-01
          1   -1    0    0  501    0  0.00000000000E+00  0.00000000000E+00  0.25151608372E+04  0.25151608372E+04  0.00000000000E+00 0. -1.
         -2   -1    0    0    0  501 -0.00000000000E+00 -0.00000000000E+00 -0.22719612990E+03  0.22719612990E+03  0.00000000000E+00 0.  1.
        -24    2    1    2    0    0 -0.42323156995E+03 -0.12236439628E+02  0.11905458209E+04  0.12662909508E+04  0.82575591069E+02 0.  0.
        254    2    1    2    0    0  0.42323156995E+03  0.12236439628E+02  0.10974188864E+04  0.14760660163E+04  0.89172191848E+03 0.  0.
         23    2    4    4    0    0  0.65048599248E+03 -0.91009922199E+02  0.98573835651E+03  0.11876462227E+04  0.86073284909E+02 0.  0.
         23    2    4    4    0    0 -0.22725442253E+03  0.10324636183E+03  0.11168052989E+03  0.28841979360E+03  0.91700887621E+02 0.  0.
          3    1    3    3  502    0 -0.40284350122E+03 -0.19500379492E+02  0.11648440420E+04  0.12326900638E+04  0.00000000000E+00 0. -1.
         -4    1    3    3    0  502 -0.20388068726E+02  0.72639398644E+01  0.25701778892E+02  0.33600886996E+02  0.00000000000E+00 0.  1.
         13    1    5    5    0    0  0.62079154409E+03 -0.10176480746E+03  0.91745127078E+03  0.11124095700E+04  0.00000000000E+00 0.  1.
        -13    1    5    5    0    0  0.29694448394E+02  0.10754885261E+02  0.68287085730E+02  0.75236652636E+02  0.00000000000E+00 0. -1.
          4    1    6    6  503    0 -0.19812016458E+02  0.22425884415E+01 -0.15233990088E+02  0.25092222959E+02  0.00000000000E+00 0. -1.
         -4    1    6    6    0  503 -0.20744240607E+03  0.10100377338E+03  0.12691451998E+03  0.26332757064E+03  0.00000000000E+00 0.  1.
<mgrwt>
<rscale>  0 0.15118661E+04</rscale>
<asrwt>0</asrwt>
<pdfrwt beam="1">  1        1 0.38694780E+00 0.15118661E+04</pdfrwt>
<pdfrwt beam="2">  1       -2 0.34953253E-01 0.15118661E+04</pdfrwt>
<totfact> 0.86408558E+00</totfact>
</mgrwt>
</event>
<event>
12    5  0.5221187E-008  0.1465604E+04  0.7818608E-02  0.8907653E-01
         -2   -1    0    0    0  501 -0.00000000000E+00  0.00000000000E+00  0.36192840225E+03  0.36192840225E+03  0.00000000000E+00 0.  1.
          1   -1    0    0  501    0  0.00000000000E+00 -0.00000000000E+00 -0.14837158771E+04  0.14837158771E+04  0.00000000000E+00 0. -1.
        -24    2    1    2    0    0 -0.17027610343E+03 -0.37550079367E+03 -0.74434827537E+03  0.85272405951E+03  0.55580294851E+02 0.  0.
        254    2    1    2    0    0  0.17027610343E+03  0.37550079367E+03 -0.37743919945E+03  0.99292021982E+03  0.82063110848E+03 0.  0.
         23    2    4    4    0    0  0.16399896166E+02 -0.21486954246E+03  0.54268058770E+02  0.23999798507E+03  0.90642891408E+02 0.  0.
         23    2    4    4    0    0  0.15387620727E+03  0.59037033613E+03 -0.43170725822E+03  0.75292223475E+03  0.91135689104E+02 0.  0.
          3    1    3    3  502    0 -0.93711640349E+02 -0.15437143666E+03 -0.35964361450E+03  0.40243750005E+03  0.00000000000E+00 0. -1.
         -2    1    3    3    0  502 -0.76564463085E+02 -0.22112935701E+03 -0.38470466087E+03  0.45028655946E+03  0.00000000000E+00 0.  1.
         13    1    5    5    0    0 -0.56322004478E+01 -0.31404030692E+02  0.44763482220E+02  0.54970029707E+02  0.00000000000E+00 0. -1.
        -13    1    5    5    0    0  0.22032096614E+02 -0.18346551177E+03  0.95045765502E+01  0.18502795536E+03  0.00000000000E+00 0.  1.
          2    1    6    6  503    0  0.57315073198E+02  0.32530047050E+03 -0.27756014588E+03  0.43144530164E+03  0.00000000000E+00 0. -1.
         -2    1    6    6    0  503  0.96561134070E+02  0.26506986563E+03 -0.15414711234E+03  0.32147693311E+03  0.00000000000E+00 0.  1.
<mgrwt>
<rscale>  0 0.14656042E+04</rscale>
<asrwt>0</asrwt>
<pdfrwt beam="1">  1        1 0.22826398E+00 0.14656042E+04</pdfrwt>
<pdfrwt beam="2">  1       -2 0.55681294E-01 0.14656042E+04</pdfrwt>
<totfact> 0.17316688E+01</totfact>
</mgrwt>
</event>
<event>
12    5  0.5221187E-008  0.2611978E+04  0.7818608E-02  0.8364144E-01
         -2   -1    0    0    0  501 -0.00000000000E+00  0.00000000000E+00  0.78538672088E+03  0.78538672088E+03  0.00000000000E+00 0.  1.
          1   -1    0    0  501    0  0.00000000000E+00 -0.00000000000E+00 -0.21716785240E+04  0.21716785240E+04  0.00000000000E+00 0. -1.
        -24    2    1    2    0    0 -0.94725837154E+03 -0.49339111767E+03 -0.13841467066E+03  0.10798460040E+04  0.78584691776E+02 0.  0.
        254    2    1    2    0    0  0.94725837154E+03  0.49339111767E+03 -0.12478771324E+04  0.18772192409E+04  0.90885726229E+03 0.  0.
         23    2    4    4    0    0  0.19614254850E+03  0.49736779816E+03 -0.88627555916E+03  0.10390160855E+04  0.90683147547E+02 0.  0.
         23    2    4    4    0    0  0.75111582304E+03 -0.39766804855E+01 -0.36160157327E+03  0.83820315535E+03  0.87395870805E+02 0.  0.
          1    1    3    3  502    0 -0.95539925677E+02 -0.33674821114E+02 -0.31542487178E+02  0.10609806536E+03  0.00000000000E+00 0. -1.
         -2    1    3    3    0  502 -0.85171844587E+03 -0.45971629656E+03 -0.10687218349E+03  0.97374793862E+03  0.00000000000E+00 0.  1.
         13    1    5    5    0    0  0.95945864840E+02  0.24955732726E+03 -0.52995373160E+03  0.59357849203E+03  0.00000000000E+00 0. -1.
        -13    1    5    5    0    0  0.10019668366E+03  0.24781047090E+03 -0.35632182756E+03  0.44543759350E+03  0.00000000000E+00 0.  1.
          4    1    6    6  503    0  0.85725962224E+02 -0.27547453709E+02 -0.51385527257E+02  0.10367388879E+03  0.00000000000E+00 0. -1.
         -4    1    6    6    0  503  0.66538986082E+03  0.23570773223E+02 -0.31021604601E+03  0.73452926656E+03  0.00000000000E+00 0.  1.
<mgrwt>
<rscale>  0 0.26119782E+04</rscale>
<asrwt>0</asrwt>
<pdfrwt beam="1">  1        1 0.33410439E+00 0.26119782E+04</pdfrwt>
<pdfrwt beam="2">  1       -2 0.12082873E+00 0.26119782E+04</pdfrwt>
<totfact> 0.91936532E-01</totfact>
</mgrwt>
</event>
<event>
12    5  0.5221187E-008  0.1205869E+04  0.7818608E-02  0.9107735E-01
          1   -1    0    0  501    0  0.00000000000E+00  0.00000000000E+00  0.12139304675E+04  0.12139304675E+04  0.00000000000E+00 0. -1.
         -2   -1    0    0    0  501 -0.00000000000E+00 -0.00000000000E+00 -0.29946518108E+03  0.29946518108E+03  0.00000000000E+00 0.  1.
        -24    2    1    2    0    0 -0.66261122355E+02 -0.10479893893E+03 -0.76827106844E+02  0.16619598423E+03  0.79657685715E+02 0.  0.
        254    2    1    2    0    0  0.66261122355E+02  0.10479893893E+03  0.99129239324E+03  0.13471996643E+04  0.90383238086E+03 0.  0.
         23    2    4    4    0    0 -0.23175238719E+03  0.37237435598E+03  0.73496407947E+03  0.86064527329E+03  0.90367352335E+02 0.  0.
         23    2    4    4    0    0  0.29801350955E+03 -0.26757541705E+03  0.25632831377E+03  0.48655439102E+03  0.10306461709E+03 0.  0.
          1    1    3    3  502    0 -0.43932423311E+02 -0.42357001851E+01 -0.18889984195E+02  0.48008650022E+02  0.00000000000E+00 0. -1.
         -2    1    3    3    0  502 -0.22328699044E+02 -0.10056323874E+03 -0.57937122649E+02  0.11818733421E+03  0.00000000000E+00 0.  1.
         13    1    5    5    0    0 -0.15926375123E+03  0.17249518383E+03  0.36700221636E+03  0.43567207589E+03  0.00000000000E+00 0.  1.
        -13    1    5    5    0    0 -0.72488635961E+02  0.19987917215E+03  0.36796186311E+03  0.42497319740E+03  0.00000000000E+00 0. -1.
          3    1    6    6  503    0  0.27758373717E+01 -0.91185101123E-01 -0.79885966280E+01  0.84576157350E+01  0.00000000000E+00 0. -1.
         -3    1    6    6    0  503  0.29523767218E+03 -0.26748423195E+03  0.26431691040E+03  0.47809677528E+03  0.00000000000E+00 0.  1.
<mgrwt>
<rscale>  0 0.12058688E+04</rscale>
<asrwt>0</asrwt>
<pdfrwt beam="1">  1        1 0.18675853E+00 0.12058688E+04</pdfrwt>
<pdfrwt beam="2">  1       -2 0.46071567E-01 0.12058688E+04</pdfrwt>
<totfact> 0.40449965E+01</totfact>
</mgrwt>
</event>
<event>
12    5  0.5221187E-008  0.2658930E+04  0.7818608E-02  0.8348455E-01
         -2   -1    0    0    0  501 -0.00000000000E+00  0.00000000000E+00  0.17200863850E+04  0.17200863850E+04  0.00000000000E+00 0.  1.
          1   -1    0    0  501    0  0.00000000000E+00 -0.00000000000E+00 -0.10275514264E+04  0.10275514264E+04  0.00000000000E+00 0. -1.
        -24    2    1    2    0    0  0.80236127027E+03 -0.84483834358E+03  0.40084030724E+03  0.12346600844E+04  0.78594767013E+02 0.  0.
        254    2    1    2    0    0 -0.80236127027E+03  0.84483834358E+03  0.29169465136E+03  0.15129777269E+04  0.92004369331E+03 0.  0.
         23    2    4    4    0    0 -0.63973967071E+03  0.13451097430E+03  0.39828644538E+03  0.77088929277E+03  0.90984397805E+02 0.  0.
         23    2    4    4    0    0 -0.16262159955E+03  0.71032736928E+03 -0.10659179403E+03  0.74208843411E+03  0.91228708730E+02 0.  0.
          3    1    3    3  502    0  0.17309931996E+03 -0.18486562626E+03  0.53381844886E+02  0.25882097231E+03  0.00000000000E+00 0. -1.
         -4    1    3    3    0  502  0.62926195031E+03 -0.65997271731E+03  0.34745846236E+03  0.97583911213E+03  0.00000000000E+00 0.  1.
         13    1    5    5    0    0 -0.49009154692E+03  0.79114222503E+02  0.33669169224E+03  0.59984171261E+03  0.00000000000E+00 0. -1.
        -13    1    5    5    0    0 -0.14964812380E+03  0.55396751796E+02  0.61594753146E+02  0.17104758017E+03  0.00000000000E+00 0.  1.
          1    1    6    6  503    0 -0.94078763666E+02  0.28850878020E+03 -0.80425498947E+02  0.31393692186E+03  0.00000000000E+00 0. -1.
         -1    1    6    6    0  503 -0.68542835886E+02  0.42181858907E+03 -0.26166295081E+02  0.42815151225E+03  0.00000000000E+00 0.  1.
<mgrwt>
<rscale>  0 0.26589300E+04</rscale>
<asrwt>0</asrwt>
<pdfrwt beam="1">  1        1 0.15808484E+00 0.26589300E+04</pdfrwt>
<pdfrwt beam="2">  1       -2 0.26462867E+00 0.26589300E+04</pdfrwt>
<totfact> 0.57867725E-01</totfact>
</mgrwt>
</event>
<event>
12    5  0.5221187E-008  0.2374157E+04  0.7818608E-02  0.8449243E-01
         -2   -1    0    0    0  501 -0.00000000000E+00  0.00000000000E+00  0.86399615127E+03  0.86399615127E+03  0.00000000000E+00 0.  1.
          1   -1    0    0  501    0  0.00000000000E+00 -0.00000000000E+00 -0.16309738127E+04  0.16309738127E+04  0.00000000000E+00 0. -1.
        -24    2    1    2    0    0 -0.42685295214E+03 -0.32895255416E+03 -0.12265949048E+04  0.13420774148E+04  0.78889170941E+02 0.  0.
        254    2    1    2    0    0  0.42685295214E+03  0.32895255416E+03  0.45961724337E+03  0.11528925491E+04  0.90967026652E+03 0.  0.
         23    2    4    4    0    0  0.91397921991E+02 -0.11729223285E+03 -0.21354453975E+03  0.27348048179E+03  0.84138311317E+02 0.  0.
         23    2    4    4    0    0  0.33545503015E+03  0.44624478701E+03  0.67316178312E+03  0.87941206734E+03  0.92489516975E+02 0.  0.
          3    1    3    3  502    0 -0.23266618578E+03 -0.21186069353E+03 -0.63987130358E+03  0.71305945938E+03  0.00000000000E+00 0. -1.
         -4    1    3    3    0  502 -0.19418676635E+03 -0.11709186063E+03 -0.58672360123E+03  0.62901795547E+03  0.00000000000E+00 0.  1.
         13    1    5    5    0    0  0.10241836804E+02 -0.29748181559E+02 -0.32016991670E+01  0.31624364100E+02  0.00000000000E+00 0.  1.
        -13    1    5    5    0    0  0.81156085187E+02 -0.87544051292E+02 -0.21034284058E+03  0.24185611769E+03  0.00000000000E+00 0. -1.
          3    1    6    6  503    0  0.79027202027E+02  0.17810176330E+03  0.22916576990E+03  0.30080306987E+03  0.00000000000E+00 0.  1.
         -3    1    6    6    0  503  0.25642782812E+03  0.26814302371E+03  0.44399601322E+03  0.57860899747E+03  0.00000000000E+00 0. -1.
<mgrwt>
<rscale>  0 0.23741568E+04</rscale>
<asrwt>0</asrwt>
<pdfrwt beam="1">  1        1 0.25091905E+00 0.23741568E+04</pdfrwt>
<pdfrwt beam="2">  1       -2 0.13292249E+00 0.23741568E+04</pdfrwt>
<totfact> 0.17202215E+00</totfact>
</mgrwt>
</event>
<event>
12    5  0.5221187E-008  0.2201432E+04  0.7818608E-02  0.8517832E-01
         -2   -1    0    0    0  501 -0.00000000000E+00  0.00000000000E+00  0.44261362995E+03  0.44261362995E+03  0.00000000000E+00 0.  1.
          1   -1    0    0  501    0  0.00000000000E+00 -0.00000000000E+00 -0.27373215503E+04  0.27373215503E+04  0.00000000000E+00 0. -1.
        -24    2    1    2    0    0 -0.30910147276E+03  0.80745022871E+03 -0.52410332471E+03  0.10141204450E+04  0.78970815020E+02 0.  0.
        254    2    1    2    0    0  0.30910147276E+03 -0.80745022871E+03 -0.17706045956E+04  0.21658147353E+04  0.89899568475E+03 0.  0.
         23    2    4    4    0    0 -0.24127873647E+03 -0.27763859117E+02 -0.20764763261E+03  0.33225784835E+03  0.91057552759E+02 0.  0.
         23    2    4    4    0    0  0.55038020923E+03 -0.77968636959E+03 -0.15629569630E+04  0.18335568869E+04  0.90924032691E+02 0.  0.
          3    1    3    3  502    0 -0.18491024442E+02  0.14015806682E+02 -0.14703460337E+02  0.27469120258E+02  0.00000000000E+00 0. -1.
         -2    1    3    3    0  502 -0.29061044832E+03  0.79343442202E+03 -0.50939986438E+03  0.98665132471E+03  0.00000000000E+00 0.  1.
         13    1    5    5    0    0 -0.70114807199E+01 -0.22569839290E+02 -0.98227404307E+01  0.25593841780E+02  0.00000000000E+00 0.  1.
        -13    1    5    5    0    0 -0.23426725575E+03 -0.51940198265E+01 -0.19782489218E+03  0.30666400657E+03  0.00000000000E+00 0. -1.
          1    1    6    6  503    0  0.47892147426E+03 -0.68662776870E+03 -0.13089530637E+04  0.15537636867E+04  0.00000000000E+00 0. -1.
         -1    1    6    6    0  503  0.71458734972E+02 -0.93058600886E+02 -0.25400389933E+03  0.27979320020E+03  0.00000000000E+00 0.  1.
<mgrwt>
<rscale>  0 0.22014321E+04</rscale>
<asrwt>0</asrwt>
<pdfrwt beam="1">  1        1 0.42112639E+00 0.22014321E+04</pdfrwt>
<pdfrwt beam="2">  1       -2 0.68094405E-01 0.22014321E+04</pdfrwt>
<totfact> 0.14610833E+00</totfact>
</mgrwt>
</event>
<event>
12    5  0.5221187E-008  0.1444316E+04  0.7818608E-02  0.8922351E-01
          1   -1    0    0  501    0  0.00000000000E+00  0.00000000000E+00  0.13103044894E+04  0.13103044894E+04  0.00000000000E+00 0. -1.
         -2   -1    0    0    0  501 -0.00000000000E+00 -0.00000000000E+00 -0.39800839701E+03  0.39800839701E+03  0.00000000000E+00 0.  1.
        -24    2    1    2    0    0 -0.37037028406E+03 -0.58312088907E+02  0.54539583608E+03  0.66667408514E+03  0.80145310251E+02 0.  0.
        254    2    1    2    0    0  0.37037028406E+03  0.58312088907E+02  0.36690025629E+03  0.10416388013E+04  0.89990063184E+03 0.  0.
         23    2    4    4    0    0 -0.15096220931E+03 -0.27201860261E+02  0.46337901310E+03  0.49684380067E+03  0.92758410084E+02 0.  0.
         23    2    4    4    0    0  0.52133249336E+03  0.85513949168E+02 -0.96478756811E+02  0.54479500058E+03  0.91614616768E+02 0.  0.
          3    1    3    3  502    0 -0.33598310576E+03 -0.40907921941E+02  0.52023693982E+03  0.62064851486E+03  0.00000000000E+00 0. -1.
         -4    1    3    3    0  502 -0.34387178295E+02 -0.17404166966E+02  0.25158896253E+02  0.46025570280E+02  0.00000000000E+00 0.  1.
         13    1    5    5    0    0 -0.15434109623E+03 -0.16271801423E+02  0.45911181728E+03  0.48463347622E+03  0.00000000000E+00 0. -1.
        -13    1    5    5    0    0  0.33788869270E+01 -0.10930058838E+02  0.42671958278E+01  0.12210324455E+02  0.00000000000E+00 0.  1.
          3    1    6    6  503    0  0.45059780717E+03  0.79162336056E+02 -0.11432695704E+03  0.47156729359E+03  0.00000000000E+00 0. -1.
         -3    1    6    6    0  503  0.70734686195E+02  0.63516131117E+01  0.17848200233E+02  0.73227706995E+02  0.00000000000E+00 0.  1.
<mgrwt>
<rscale>  0 0.14443160E+04</rscale>
<asrwt>0</asrwt>
<pdfrwt beam="1">  1        1 0.20158530E+00 0.14443160E+04</pdfrwt>
<pdfrwt beam="2">  1       -2 0.61232062E-01 0.14443160E+04</pdfrwt>
<totfact> 0.18803870E+01</totfact>
</mgrwt>
</event>
<event>
12    5  0.5221187E-008  0.3073876E+04  0.7818608E-02  0.8222944E-01
         -4   -1    0    0    0  501 -0.00000000000E+00  0.00000000000E+00  0.30029980757E+04  0.30029980757E+04  0.00000000000E+00 0.  1.
          3   -1    0    0  501    0  0.00000000000E+00 -0.00000000000E+00 -0.78660672330E+03  0.78660672330E+03  0.00000000000E+00 0. -1.
        -24    2    1    2    0    0  0.47101553053E+03 -0.11237937443E+04  0.18694878238E+04  0.22329936914E+04  0.80672749577E+02 0.  0.
        254    2    1    2    0    0 -0.47101553053E+03  0.11237937443E+04  0.34690352863E+03  0.15566111077E+04  0.90439375975E+03 0.  0.
         23    2    4    4    0    0 -0.57607873224E+03  0.76002304699E+03 -0.10098430219E+03  0.96329200459E+03  0.90729924127E+02 0.  0.
         23    2    4    4    0    0  0.10506320170E+03  0.36377069732E+03  0.44788783082E+03  0.59331910310E+03  0.89758857656E+02 0.  0.
          1    1    3    3  502    0  0.33941393585E+03 -0.82815089332E+03  0.13073170479E+04  0.15843337987E+04  0.00000000000E+00 0. -1.
         -2    1    3    3    0  502  0.13160159469E+03 -0.29564285099E+03  0.56217077592E+03  0.64865989267E+03  0.00000000000E+00 0.  1.
         13    1    5    5    0    0 -0.46225982882E+01  0.31905962714E+02 -0.65447462791E+01  0.32896695510E+02  0.00000000000E+00 0. -1.
        -13    1    5    5    0    0 -0.57145613395E+03  0.72811708427E+03 -0.94439555911E+02  0.93039530908E+03  0.00000000000E+00 0.  1.
          1    1    6    6  503    0  0.68114310681E+00  0.25454780509E+02  0.44052008711E+01  0.25842128422E+02  0.00000000000E+00 0. -1.
         -1    1    6    6    0  503  0.10438205860E+03  0.33831591681E+03  0.44348262995E+03  0.56747697468E+03  0.00000000000E+00 0.  1.
<mgrwt>
<rscale>  0 0.30738760E+04</rscale>
<asrwt>0</asrwt>
<pdfrwt beam="1">  1        3 0.12101642E+00 0.30738760E+04</pdfrwt>
<pdfrwt beam="2">  1       -4 0.46199970E+00 0.30738760E+04</pdfrwt>
<totfact> 0.25566559E-03</totfact>
</mgrwt>
</event>
<event>
12    5  0.7185089E-008  0.1798385E+04  0.7818608E-02  0.8707159E-01
          1   -1    0    0  501    0  0.00000000000E+00  0.00000000000E+00  0.72144325266E+03  0.72144325266E+03  0.00000000000E+00 0. -1.
         -2   -1    0    0    0  501 -0.00000000000E+00 -0.00000000000E+00 -0.11207351466E+04  0.11207351466E+04  0.00000000000E+00 0.  1.
        -24    2    1    2    0    0 -0.40763444241E+02 -0.54688087040E+03  0.23786834648E+03  0.60321385629E+03  0.80902789621E+02 0.  0.
        254    2    1    2    0    0  0.40763444241E+02  0.54688087040E+03 -0.63716024043E+03  0.12389645430E+04  0.91012066342E+03 0.  0.
         23    2    4    4    0    0  0.24428693563E+03  0.60938507636E+03 -0.73391851148E+03  0.98885044942E+03  0.90346840608E+02 0.  0.
         23    2    4    4    0    0 -0.20352349139E+03 -0.62504205958E+02  0.96758271053E+02  0.25011409356E+03  0.88692217649E+02 0.  0.
          3    1    3    3  502    0 -0.46372919251E+02 -0.42001519911E+03  0.14838191086E+03  0.44786203969E+03  0.00000000000E+00 0. -1.
         -4    1    3    3    0  502  0.56094750104E+01 -0.12686567129E+03  0.89486435621E+02  0.15535181661E+03  0.00000000000E+00 0.  1.
         13    1    5    5    0    0  0.24205499126E+03  0.57829347291E+03 -0.72009362500E+03  0.95475064198E+03  0.00000000000E+00 0.  1.
        -13    1    5    5    0    0  0.22319443704E+01  0.31091603454E+02 -0.13824886486E+02  0.34099807439E+02  0.00000000000E+00 0. -1.
          1    1    6    6  503    0 -0.14100700031E+02  0.85795290685E+01 -0.12006523093E+02  0.20410650582E+02  0.00000000000E+00 0. -1.
         -1    1    6    6    0  503 -0.18942279136E+03 -0.71083735027E+02  0.10876479415E+03  0.22970344298E+03  0.00000000000E+00 0.  1.
<mgrwt>
<rscale>  0 0.17983846E+04</rscale>
<asrwt>0</asrwt>
<pdfrwt beam="1">  1        1 0.11099127E+00 0.17983846E+04</pdfrwt>
<pdfrwt beam="2">  1       -2 0.17242079E+00 0.17983846E+04</pdfrwt>
<totfact> 0.44022226E+00</totfact>
</mgrwt>
</event>
<event>
12    5  0.5221187E-008  0.1774960E+04  0.7818608E-02  0.8719730E-01
         -2   -1    0    0    0  501 -0.00000000000E+00  0.00000000000E+00  0.10416495590E+04  0.10416495590E+04  0.00000000000E+00 0.  1.
          1   -1    0    0  501    0  0.00000000000E+00 -0.00000000000E+00 -0.75612850193E+03  0.75612850193E+03  0.00000000000E+00 0. -1.
        -24    2    1    2    0    0 -0.29553861899E+03  0.21846387951E+03 -0.43897084945E+03  0.57804802236E+03  0.79840888796E+02 0.  0.
        254    2    1    2    0    0  0.29553861899E+03 -0.21846387951E+03  0.72449190653E+03  0.12197300386E+04  0.90982597369E+03 0.  0.
         23    2    4    4    0    0  0.53741126681E+03 -0.19440565748E+03  0.16433777807E+03  0.60195568086E+03  0.93484261038E+02 0.  0.
         23    2    4    4    0    0 -0.24187264782E+03 -0.24058222034E+02  0.56015412846E+03  0.61777435771E+03  0.93762111793E+02 0.  0.
          3    1    3    3  502    0 -0.29163687337E+03  0.20180004418E+03 -0.43348558663E+03  0.56007595696E+03  0.00000000000E+00 0. -1.
         -4    1    3    3    0  502 -0.39017456192E+01  0.16663835329E+02 -0.54852628152E+01  0.17972065404E+02  0.00000000000E+00 0.  1.
         13    1    5    5    0    0  0.14129170982E+03 -0.24372210988E+02  0.86758497649E+01  0.14364060116E+03  0.00000000000E+00 0. -1.
        -13    1    5    5    0    0  0.39611955700E+03 -0.17003344649E+03  0.15566192831E+03  0.45831507971E+03  0.00000000000E+00 0.  1.
          4    1    6    6  503    0 -0.14193894137E+03 -0.59098127655E+02  0.35620070277E+03  0.38796674139E+03  0.00000000000E+00 0. -1.
         -4    1    6    6    0  503 -0.99933706453E+02  0.35039905620E+02  0.20395342568E+03  0.22980761632E+03  0.00000000000E+00 0.  1.
<mgrwt>
<rscale>  0 0.17749602E+04</rscale>
<asrwt>0</asrwt>
<pdfrwt beam="1">  1        1 0.11632746E+00 0.17749602E+04</pdfrwt>
<pdfrwt beam="2">  1       -2 0.16025378E+00 0.17749602E+04</pdfrwt>
<totfact> 0.50208763E+00</totfact>
</mgrwt>
</event>
<event>
12    5  0.5221187E-008  0.1901254E+04  0.7818608E-02  0.8654233E-01
         -2   -1    0    0    0  501 -0.00000000000E+00  0.00000000000E+00  0.10483203416E+04  0.10483203416E+04  0.00000000000E+00 0.  1.
          1   -1    0    0  501    0  0.00000000000E+00 -0.00000000000E+00 -0.86203735404E+03  0.86203735404E+03  0.00000000000E+00 0. -1.
        -24    2    1    2    0    0 -0.58000424433E+03 -0.39138926898E+03  0.24592652689E+02  0.70464398586E+03  0.79547878232E+02 0.  0.
        254    2    1    2    0    0  0.58000424433E+03  0.39138926898E+03  0.16169033483E+03  0.12057137098E+04  0.96850983588E+03 0.  0.
         23    2    4    4    0    0 -0.16499791676E+03  0.19560082615E+03  0.31389753069E+03  0.41564214528E+03  0.93502606561E+02 0.  0.
         23    2    4    4    0    0  0.74500216109E+03  0.19578844283E+03 -0.15220719586E+03  0.79007156447E+03  0.87662489912E+02 0.  0.
          3    1    3    3  502    0 -0.32541904067E+02 -0.78114931117E+01 -0.11008837019E+02  0.35230518552E+02  0.00000000000E+00 0. -1.
         -4    1    3    3    0  502 -0.54746234026E+03 -0.38357777586E+03  0.35601489707E+02  0.66941346731E+03  0.00000000000E+00 0.  1.
         13    1    5    5    0    0 -0.52774265288E+02  0.32676175463E+02  0.13637319860E+03  0.14983492522E+03  0.00000000000E+00 0.  1.
        -13    1    5    5    0    0 -0.11222365147E+03  0.16292465069E+03  0.17752433209E+03  0.26580722006E+03  0.00000000000E+00 0. -1.
          4    1    6    6  503    0  0.24760671840E+03  0.45646748993E+02 -0.12667716196E+02  0.25209756786E+03  0.00000000000E+00 0. -1.
         -4    1    6    6    0  503  0.49739544269E+03  0.15014169383E+03 -0.13953947966E+03  0.53797399660E+03  0.00000000000E+00 0.  1.
<mgrwt>
<rscale>  0 0.19012536E+04</rscale>
<asrwt>0</asrwt>
<pdfrwt beam="1">  1        1 0.13262113E+00 0.19012536E+04</pdfrwt>
<pdfrwt beam="2">  1       -2 0.16128005E+00 0.19012536E+04</pdfrwt>
<totfact> 0.39519414E+00</totfact>
</mgrwt>
</event>
<event>
12    5  0.5221187E-008  0.1450942E+04  0.7818608E-02  0.8917748E-01
          1   -1    0    0  501    0  0.00000000000E+00  0.00000000000E+00  0.21028483775E+04  0.21028483775E+04  0.00000000000E+00 0. -1.
         -2   -1    0    0    0  501 -0.00000000000E+00 -0.00000000000E+00 -0.25028336613E+03  0.25028336613E+03  0.00000000000E+00 0.  1.
        -24    2    1    2    0    0  0.27917676073E+03  0.27873454848E+02  0.10856085249E+04  0.11240571336E+04  0.79006184647E+02 0.  0.
        254    2    1    2    0    0 -0.27917676073E+03 -0.27873454848E+02  0.76695648655E+03  0.12290746100E+04  0.91852357157E+03 0.  0.
         23    2    4    4    0    0  0.19887918518E+03  0.14938821669E+03  0.64559452014E+03  0.69725973062E+03  0.86654935975E+02 0.  0.
         23    2    4    4    0    0 -0.47805594591E+03 -0.17726167153E+03  0.12136196641E+03  0.53181487940E+03  0.90217245826E+02 0.  0.
          1    1    3    3  502    0  0.23843515525E+03  0.48742867102E+02  0.96001081209E+03  0.99037768032E+03  0.00000000000E+00 0. -1.
         -2    1    3    3    0  502  0.40741605488E+02 -0.20869412254E+02  0.12559771278E+03  0.13367945332E+03  0.00000000000E+00 0.  1.
         13    1    5    5    0    0  0.12395997387E+03  0.60070152522E+02  0.43826246547E+03  0.45940013821E+03  0.00000000000E+00 0.  1.
        -13    1    5    5    0    0  0.74919211312E+02  0.89318064164E+02  0.20733205467E+03  0.23785959242E+03  0.00000000000E+00 0. -1.
          1    1    6    6  503    0 -0.48053864039E+03 -0.17968621082E+03  0.12356398142E+03  0.52770500924E+03  0.00000000000E+00 0. -1.
         -1    1    6    6    0  503  0.24826944812E+01  0.24245392891E+01 -0.22020150097E+01  0.41098701627E+01  0.00000000000E+00 0.  1.
<mgrwt>
<rscale>  0 0.14509417E+04</rscale>
<asrwt>0</asrwt>
<pdfrwt beam="1">  1        1 0.32351512E+00 0.14509417E+04</pdfrwt>
<pdfrwt beam="2">  1       -2 0.38505135E-01 0.14509417E+04</pdfrwt>
<totfact> 0.13797220E+01</totfact>
</mgrwt>
</event>
<event>
12    5  0.5221187E-008  0.1362366E+04  0.7818608E-02  0.8981519E-01
          1   -1    0    0  501    0  0.00000000000E+00  0.00000000000E+00  0.21093317264E+04  0.21093317264E+04  0.00000000000E+00 0. -1.
         -2   -1    0    0    0  501 -0.00000000000E+00 -0.00000000000E+00 -0.21997990650E+03  0.21997990650E+03  0.00000000000E+00 0.  1.
        -24    2    1    2    0    0 -0.48853086335E+02  0.33118540367E+03  0.24439550313E+03  0.42093973773E+03  0.73421421962E+02 0.  0.
        254    2    1    2    0    0  0.48853086335E+02 -0.33118540367E+03  0.16449563168E+04  0.19083718952E+04  0.90770678665E+03 0.  0.
         23    2    4    4    0    0 -0.28431020350E+03 -0.23257827062E+03  0.14528727082E+04  0.15014212715E+04  0.92205121933E+02 0.  0.
         23    2    4    4    0    0  0.33316328984E+03 -0.98607133049E+02  0.19208360859E+03  0.40695062368E+03  0.89395486674E+02 0.  0.
          3    1    3    3  502    0 -0.29517082302E+01 -0.32401658321E+01  0.70060469685E+01  0.82641363869E+01  0.00000000000E+00 0. -1.
         -4    1    3    3    0  502 -0.45901378104E+02  0.33442556950E+03  0.23738945616E+03  0.41267560134E+03  0.00000000000E+00 0.  1.
         13    1    5    5    0    0 -0.90045909752E+01 -0.44129402383E+02  0.16484935454E+03  0.17089118323E+03  0.00000000000E+00 0. -1.
        -13    1    5    5    0    0 -0.27530561253E+03 -0.18844886824E+03  0.12880233537E+04  0.13305300883E+04  0.00000000000E+00 0.  1.
          3    1    6    6  503    0  0.39903153147E+02 -0.29258883549E+02 -0.20194393018E+00  0.49481154786E+02  0.00000000000E+00 0. -1.
         -3    1    6    6    0  503  0.29326013669E+03 -0.69348249500E+02  0.19228555252E+03  0.35746946889E+03  0.00000000000E+00 0.  1.
<mgrwt>
<rscale>  0 0.13623665E+04</rscale>
<asrwt>0</asrwt>
<pdfrwt beam="1">  1        1 0.32451256E+00 0.13623665E+04</pdfrwt>
<pdfrwt beam="2">  1       -2 0.33843064E-01 0.13623665E+04</pdfrwt>
<totfact> 0.17640035E+01</totfact>
</mgrwt>
</event>
<event>
12    5  0.5221187E-008  0.1252560E+04  0.7818608E-02  0.9068056E-01
          1   -1    0    0  501    0  0.00000000000E+00  0.00000000000E+00  0.33361863366E+03  0.33361863366E+03  0.00000000000E+00 0. -1.
         -2   -1    0    0    0  501 -0.00000000000E+00 -0.00000000000E+00 -0.11756727713E+04  0.11756727713E+04  0.00000000000E+00 0.  1.
        -24    2    1    2    0    0  0.37108711647E+02  0.68998776201E+01 -0.54961247917E+03  0.55682140662E+03  0.80941564212E+02 0.  0.
        254    2    1    2    0    0 -0.37108711647E+02 -0.68998776201E+01 -0.29244165850E+03  0.95246999836E+03  0.90567781764E+03 0.  0.
         23    2    4    4    0    0  0.41688630208E+03  0.46128621285E+02 -0.20932219664E+03  0.47899409559E+03  0.98476002355E+02 0.  0.
         23    2    4    4    0    0 -0.45399501373E+03 -0.53028498905E+02 -0.83119461859E+02  0.47347590277E+03  0.91362417769E+02 0.  0.
          3    1    3    3  502    0  0.52971768005E+02  0.30005422501E+02 -0.35086903683E+03  0.35611151988E+03  0.00000000000E+00 0. -1.
         -4    1    3    3    0  502 -0.15863056358E+02 -0.23105544881E+02 -0.19874344235E+03  0.20070988675E+03  0.00000000000E+00 0.  1.
         13    1    5    5    0    0  0.22905564953E+03  0.90462581486E+01 -0.16509158644E+03  0.28249523409E+03  0.00000000000E+00 0. -1.
        -13    1    5    5    0    0  0.18783065255E+03  0.37082363136E+02 -0.44230610196E+02  0.19649886150E+03  0.00000000000E+00 0.  1.
          2    1    6    6  503    0 -0.45793974578E+03 -0.49508198580E+02 -0.80553023484E+02  0.46759882601E+03  0.00000000000E+00 0.  1.
         -2    1    6    6    0  503  0.39447320531E+01 -0.35203003249E+01 -0.25664383759E+01  0.58770767636E+01  0.00000000000E+00 0. -1.
<mgrwt>
<rscale>  0 0.12525595E+04</rscale>
<asrwt>0</asrwt>
<pdfrwt beam="1">  1        1 0.51325943E-01 0.12525595E+04</pdfrwt>
<pdfrwt beam="2">  1       -2 0.18087274E+00 0.12525595E+04</pdfrwt>
<totfact> 0.11731131E+01</totfact>
</mgrwt>
</event>
<event>
12    5  0.5221187E-008  0.1305255E+04  0.7818608E-02  0.9025408E-01
         -2   -1    0    0    0  501 -0.00000000000E+00  0.00000000000E+00  0.38948492840E+03  0.38948492840E+03  0.00000000000E+00 0.  1.
          1   -1    0    0  501    0  0.00000000000E+00 -0.00000000000E+00 -0.10935538124E+04  0.10935538124E+04  0.00000000000E+00 0. -1.
        -24    2    1    2    0    0 -0.22011989150E+03  0.17377883443E+03  0.31049088158E+02  0.29407401265E+03  0.82847022346E+02 0.  0.
        254    2    1    2    0    0  0.22011989150E+03 -0.17377883443E+03 -0.73511797211E+03  0.11889647281E+04  0.89139600731E+03 0.  0.
         23    2    4    4    0    0  0.35759680545E+02  0.67626226419E+02 -0.84264241963E+03  0.85090612989E+03  0.90238202884E+02 0.  0.
         23    2    4    4    0    0  0.18436021095E+03 -0.24140506085E+03  0.10752444752E+03  0.33805859823E+03  0.10225956306E+03 0.  0.
          3    1    3    3  502    0 -0.10904076595E+03  0.41451772564E+02 -0.80671569190E+01  0.11693253229E+03  0.00000000000E+00 0. -1.
         -4    1    3    3    0  502 -0.11107912555E+03  0.13232706186E+03  0.39116245077E+02  0.17714148036E+03  0.00000000000E+00 0.  1.
         13    1    5    5    0    0  0.18841018716E+02 -0.15929730755E+02 -0.35590963501E+03  0.35676379945E+03  0.00000000000E+00 0. -1.
        -13    1    5    5    0    0  0.16918661828E+02  0.83555957174E+02 -0.48673278463E+03  0.49414233044E+03  0.00000000000E+00 0.  1.
          4    1    6    6  503    0  0.34580478263E+02 -0.94440253447E+02 -0.35494952552E+01  0.10063483425E+03  0.00000000000E+00 0.  1.
         -4    1    6    6    0  503  0.14977973269E+03 -0.14696480740E+03  0.11107394277E+03  0.23742376398E+03  0.00000000000E+00 0. -1.
<mgrwt>
<rscale>  0 0.13052551E+04</rscale>
<asrwt>0</asrwt>
<pdfrwt beam="1">  1        1 0.16823905E+00 0.13052551E+04</pdfrwt>
<pdfrwt beam="2">  1       -2 0.59920758E-01 0.13052551E+04</pdfrwt>
<totfact> 0.28678390E+01</totfact>
</mgrwt>
</event>
<event>
12    5  0.5221187E-008  0.1998396E+04  0.7818608E-02  0.8607371E-01
          1   -1    0    0  501    0  0.00000000000E+00  0.00000000000E+00  0.14567464517E+04  0.14567464517E+04  0.00000000000E+00 0. -1.
         -2   -1    0    0    0  501 -0.00000000000E+00 -0.00000000000E+00 -0.68536078450E+03  0.68536078450E+03  0.00000000000E+00 0.  1.
        -24    2    1    2    0    0 -0.37523229120E+03  0.37822362569E+03 -0.32290185033E+03  0.62817491909E+03  0.80534096094E+02 0.  0.
        254    2    1    2    0    0  0.37523229120E+03 -0.37822362569E+03  0.10942875175E+04  0.15139323171E+04  0.90037409248E+03 0.  0.
         23    2    4    4    0    0  0.39962622476E+02  0.12339304827E+03 -0.89287683694E+02  0.18238950632E+03  0.92036873032E+02 0.  0.
         23    2    4    4    0    0  0.33526966873E+03 -0.50161667396E+03  0.11835752012E+04  0.13315428108E+04  0.90171845299E+02 0.  0.
          3    1    3    3  502    0 -0.11833374389E+02  0.38060064570E+02 -0.13475133831E+02  0.42073465465E+02  0.00000000000E+00 0. -1.
         -4    1    3    3    0  502 -0.36339891682E+03  0.34016356112E+03 -0.30942671650E+03  0.58610145362E+03  0.00000000000E+00 0.  1.
         13    1    5    5    0    0  0.70202810457E+01  0.10911968751E+03 -0.96421725183E+02  0.14578593771E+03  0.00000000000E+00 0. -1.
        -13    1    5    5    0    0  0.32942341430E+02  0.14273360766E+02  0.71340414895E+01  0.36603568602E+02  0.00000000000E+00 0.  1.
          4    1    6    6  503    0  0.11435958771E+03 -0.10656824409E+03  0.33996007142E+03  0.37417610307E+03  0.00000000000E+00 0.  1.
         -4    1    6    6    0  503  0.22091008101E+03 -0.39504842987E+03  0.84361512980E+03  0.95736670772E+03  0.00000000000E+00 0. -1.
<mgrwt>
<rscale>  0 0.19983962E+04</rscale>
<asrwt>0</asrwt>
<pdfrwt beam="1">  1        1 0.22411484E+00 0.19983962E+04</pdfrwt>
<pdfrwt beam="2">  1       -2 0.10544012E+00 0.19983962E+04</pdfrwt>
<totfact> 0.41546191E+00</totfact>
</mgrwt>
</event>
<event>
12    5  0.5221187E-008  0.1204786E+04  0.7818608E-02  0.9108678E-01
         -2   -1    0    0    0  501 -0.00000000000E+00  0.00000000000E+00  0.36040112287E+03  0.36040112287E+03  0.00000000000E+00 0.  1.
          1   -1    0    0  501    0  0.00000000000E+00 -0.00000000000E+00 -0.10068698762E+04  0.10068698762E+04  0.00000000000E+00 0. -1.
        -24    2    1    2    0    0  0.20813309379E+02  0.24507398470E+03 -0.17035689364E+03  0.30984880243E+03  0.80562754000E+02 0.  0.
        254    2    1    2    0    0 -0.20813309379E+02 -0.24507398470E+03 -0.47611185968E+03  0.10574221966E+04  0.91157267795E+03 0.  0.
         23    2    4    4    0    0  0.21855628304E+03  0.15006088564E+03 -0.51356438908E+03  0.58499546934E+03  0.90477616944E+02 0.  0.
         23    2    4    4    0    0 -0.23936959242E+03 -0.39513487034E+03  0.37452529392E+02  0.47242672729E+03  0.91405432909E+02 0.  0.
          3    1    3    3  502    0  0.28532263261E+02  0.17131942548E+03 -0.75333337444E+02  0.18931335749E+03  0.00000000000E+00 0. -1.
         -4    1    3    3    0  502 -0.77189538818E+01  0.73754559221E+02 -0.95023556194E+02  0.12053544494E+03  0.00000000000E+00 0.  1.
         13    1    5    5    0    0  0.30889682043E+01 -0.94717822018E+01 -0.35675865073E+02  0.37040838697E+02  0.00000000000E+00 0. -1.
        -13    1    5    5    0    0  0.21546731484E+03  0.15953266784E+03 -0.47788852400E+03  0.54795463065E+03  0.00000000000E+00 0.  1.
          3    1    6    6  503    0 -0.97595506328E+02 -0.88435676442E+02  0.26647023109E+02  0.13437192997E+03  0.00000000000E+00 0. -1.
         -3    1    6    6    0  503 -0.14177408610E+03 -0.30669919390E+03  0.10805506284E+02  0.33805479732E+03  0.00000000000E+00 0.  1.
<mgrwt>
<rscale>  0 0.12047855E+04</rscale>
<asrwt>0</asrwt>
<pdfrwt beam="1">  1        1 0.15490306E+00 0.12047855E+04</pdfrwt>
<pdfrwt beam="2">  1       -2 0.55446327E-01 0.12047855E+04</pdfrwt>
<totfact> 0.39628532E+01</totfact>
</mgrwt>
</event>
<event>
12    5  0.5221187E-008  0.2537065E+04  0.7818608E-02  0.8389899E-01
         -2   -1    0    0    0  501 -0.00000000000E+00  0.00000000000E+00  0.13779063353E+04  0.13779063353E+04  0.00000000000E+00 0.  1.
          1   -1    0    0  501    0  0.00000000000E+00 -0.00000000000E+00 -0.11678407961E+04  0.11678407961E+04  0.00000000000E+00 0. -1.
        -24    2    1    2    0    0  0.58896177154E+03 -0.65856007811E+03 -0.57868198039E+03  0.10592710822E+04  0.81271436287E+02 0.  0.
        254    2    1    2    0    0 -0.58896177154E+03  0.65856007811E+03  0.78874751962E+03  0.14864760492E+04  0.89828227772E+03 0.  0.
         23    2    4    4    0    0  0.53169911067E+02 -0.69888869844E+02  0.42595436806E+03  0.44590834673E+03  0.98415631067E+02 0.  0.
         23    2    4    4    0    0 -0.64213168261E+03  0.72844894796E+03  0.36279315156E+03  0.10405677025E+04  0.90505829248E+02 0.  0.
          1    1    3    3  502    0  0.50942092402E+03 -0.60198265853E+03 -0.53035837514E+03  0.95035404196E+03  0.00000000000E+00 0. -1.
         -2    1    3    3    0  502  0.79540847521E+02 -0.56577419585E+02 -0.48323605249E+02  0.10891704024E+03  0.00000000000E+00 0.  1.
         13    1    5    5    0    0 -0.24797679519E+02  0.26231648444E+01  0.96848342726E+02  0.10000703671E+03  0.00000000000E+00 0.  1.
        -13    1    5    5    0    0  0.77967590587E+02 -0.72512034688E+02  0.32910602534E+03  0.34590131002E+03  0.00000000000E+00 0. -1.
          3    1    6    6  503    0 -0.52657119782E+03  0.58430487966E+03  0.25602282383E+03  0.82718625780E+03  0.00000000000E+00 0. -1.
         -3    1    6    6    0  503 -0.11556048479E+03  0.14414406830E+03  0.10677032773E+03  0.21338144472E+03  0.00000000000E+00 0.  1.
<mgrwt>
<rscale>  0 0.25370654E+04</rscale>
<asrwt>0</asrwt>
<pdfrwt beam="1">  1        1 0.17966781E+00 0.25370654E+04</pdfrwt>
<pdfrwt beam="2">  1       -2 0.21198559E+00 0.25370654E+04</pdfrwt>
<totfact> 0.97479655E-01</totfact>
</mgrwt>
</event>
<event>
12    5  0.5221187E-008  0.1747879E+04  0.7818608E-02  0.8734518E-01
          1   -1    0    0  501    0  0.00000000000E+00  0.00000000000E+00  0.10332476271E+04  0.10332476271E+04  0.00000000000E+00 0. -1.
         -2   -1    0    0    0  501 -0.00000000000E+00 -0.00000000000E+00 -0.73919412618E+03  0.73919412618E+03  0.00000000000E+00 0.  1.
        -24    2    1    2    0    0  0.26915081903E+03 -0.43432440041E+03  0.50135844544E+03  0.72027347662E+03  0.79710363979E+02 0.  0.
        254    2    1    2    0    0 -0.26915081903E+03  0.43432440041E+03 -0.20730494456E+03  0.10521682766E+04  0.89610428753E+03 0.  0.
         23    2    4    4    0    0  0.85312489677E+02  0.59342487167E+03 -0.89040312454E+01  0.60674123958E+03  0.92867382959E+02 0.  0.
         23    2    4    4    0    0 -0.35446330871E+03 -0.15910047126E+03 -0.19840091331E+03  0.44542703705E+03  0.89917327345E+02 0.  0.
          1    1    3    3  502    0  0.15110777932E+03 -0.31154528595E+03  0.32007608875E+03  0.47153231995E+03  0.00000000000E+00 0. -1.
         -2    1    3    3    0  502  0.11804303971E+03 -0.12277911446E+03  0.18128235669E+03  0.24874115667E+03  0.00000000000E+00 0.  1.
         13    1    5    5    0    0  0.75949692124E+02  0.48903970997E+03  0.27834429767E+02  0.49568432408E+03  0.00000000000E+00 0. -1.
        -13    1    5    5    0    0  0.93627975533E+01  0.10438516171E+03 -0.36738461013E+02  0.11105691550E+03  0.00000000000E+00 0.  1.
          2    1    6    6  503    0 -0.28908331200E+03 -0.16247701736E+03 -0.18050519564E+03  0.37755803276E+03  0.00000000000E+00 0. -1.
         -2    1    6    6    0  503 -0.65379996707E+02  0.33765460918E+01 -0.17895717671E+02  0.67869004294E+02  0.00000000000E+00 0.  1.
<mgrwt>
<rscale>  0 0.17478794E+04</rscale>
<asrwt>0</asrwt>
<pdfrwt beam="1">  1        1 0.15896117E+00 0.17478794E+04</pdfrwt>
<pdfrwt beam="2">  1       -2 0.11372217E+00 0.17478794E+04</pdfrwt>
<totfact> 0.71783477E+00</totfact>
</mgrwt>
</event>
<event>
12    5  0.5221187E-008  0.1306987E+04  0.7818608E-02  0.9024043E-01
          1   -1    0    0  501    0  0.00000000000E+00  0.00000000000E+00  0.19448370653E+04  0.19448370653E+04  0.00000000000E+00 0. -1.
         -2   -1    0    0    0  501 -0.00000000000E+00 -0.00000000000E+00 -0.21958330956E+03  0.21958330956E+03  0.00000000000E+00 0.  1.
        -24    2    1    2    0    0 -0.10547595238E+03  0.27111829075E+03  0.17496970596E+03  0.34858245261E+03  0.79151905553E+02 0.  0.
        254    2    1    2    0    0  0.10547595238E+03 -0.27111829075E+03  0.15502840497E+04  0.18158379222E+04  0.89958680555E+03 0.  0.
         23    2    4    4    0    0 -0.23727511361E+03 -0.43955559140E+03  0.59067513651E+03  0.77891043478E+03  0.91081013651E+02 0.  0.
         23    2    4    4    0    0  0.34275106598E+03  0.16843730064E+03  0.95960891323E+03  0.10369274874E+04  0.92303468820E+02 0.  0.
          1    1    3    3  502    0 -0.70367984746E+01  0.98430093113E+00 -0.56209359423E+01  0.90598179873E+01  0.00000000000E+00 0. -1.
         -2    1    3    3    0  502 -0.98439153902E+02  0.27013398982E+03  0.18059064190E+03  0.33952263462E+03  0.00000000000E+00 0.  1.
         13    1    5    5    0    0 -0.23233960694E+03 -0.44399110531E+03  0.58290896056E+03  0.76869542138E+03  0.00000000000E+00 0. -1.
        -13    1    5    5    0    0 -0.49355066668E+01  0.44355139183E+01  0.77661759544E+01  0.10215013399E+02  0.00000000000E+00 0.  1.
          1    1    6    6  503    0  0.31456380243E+03  0.13694793806E+03  0.90518574369E+03  0.96802187688E+03  0.00000000000E+00 0. -1.
         -1    1    6    6    0  503  0.28187263550E+02  0.31489362584E+02  0.54423169541E+02  0.68905610550E+02  0.00000000000E+00 0.  1.
<mgrwt>
<rscale>  0 0.13069870E+04</rscale>
<asrwt>0</asrwt>
<pdfrwt beam="1">  1        1 0.29920569E+00 0.13069870E+04</pdfrwt>
<pdfrwt beam="2">  1       -2 0.33782049E-01 0.13069870E+04</pdfrwt>
<totfact> 0.22976553E+01</totfact>
</mgrwt>
</event>
<event>
12    5  0.5221187E-008  0.2009771E+04  0.7818608E-02  0.8602066E-01
         -2   -1    0    0    0  501 -0.00000000000E+00  0.00000000000E+00  0.11368600312E+04  0.11368600312E+04  0.00000000000E+00 0.  1.
          1   -1    0    0  501    0  0.00000000000E+00 -0.00000000000E+00 -0.88823167448E+03  0.88823167448E+03  0.00000000000E+00 0. -1.
        -24    2    1    2    0    0  0.27128908198E+03 -0.11885525746E+03 -0.65681520361E+03  0.72512827863E+03  0.81734145547E+02 0.  0.
        254    2    1    2    0    0 -0.27128908198E+03  0.11885525746E+03  0.90544356033E+03  0.12999634270E+04  0.88450694315E+03 0.  0.
         23    2    4    4    0    0 -0.18629443198E+03  0.40350870923E+03  0.87759109046E+03  0.98750447499E+03  0.86452716842E+02 0.  0.
         23    2    4    4    0    0 -0.84994650008E+02 -0.28465345178E+03  0.27852469872E+02  0.31245895206E+03  0.92753212914E+02 0.  0.
          3    1    3    3  502    0  0.15063560976E+03 -0.26249518381E+02 -0.28544659236E+03  0.32382075479E+03  0.00000000000E+00 0. -1.
         -4    1    3    3    0  502  0.12065347223E+03 -0.92605739077E+02 -0.37136861126E+03  0.40130752385E+03  0.00000000000E+00 0.  1.
         13    1    5    5    0    0 -0.16542899050E+03  0.28016063545E+03  0.67656936244E+03  0.75073486315E+03  0.00000000000E+00 0. -1.
        -13    1    5    5    0    0 -0.20865441480E+02  0.12334807378E+03  0.20102172803E+03  0.23676961184E+03  0.00000000000E+00 0.  1.
          1    1    6    6  503    0 -0.19824373255E+02 -0.20090572615E+03 -0.31492687187E+01  0.20190600404E+03  0.00000000000E+00 0. -1.
         -1    1    6    6    0  503 -0.65170276753E+02 -0.83747725626E+02  0.31001738590E+02  0.11055294802E+03  0.00000000000E+00 0.  1.
<mgrwt>
<rscale>  0 0.20097712E+04</rscale>
<asrwt>0</asrwt>
<pdfrwt beam="1">  1        1 0.13665103E+00 0.20097712E+04</pdfrwt>
<pdfrwt beam="2">  1       -2 0.17490154E+00 0.20097712E+04</pdfrwt>
<totfact> 0.29735705E+00</totfact>
</mgrwt>
</event>
<event>
12    5  0.5221187E-008  0.1765526E+04  0.7818608E-02  0.8724850E-01
          1   -1    0    0  501    0  0.00000000000E+00  0.00000000000E+00  0.18424933784E+04  0.18424933784E+04  0.00000000000E+00 0. -1.
         -2   -1    0    0    0  501 -0.00000000000E+00 -0.00000000000E+00 -0.42294367946E+03  0.42294367946E+03  0.00000000000E+00 0.  1.
        -24    2    1    2    0    0 -0.63037068301E+03 -0.32906223988E+02  0.50718070161E+03  0.81365385476E+03  0.79688855616E+02 0.  0.
        254    2    1    2    0    0  0.63037068301E+03  0.32906223988E+02  0.91236899730E+03  0.14517832031E+04  0.93637987158E+03 0.  0.
         23    2    4    4    0    0 -0.18210855298E+03  0.15302547510E+03  0.55086176717E+02  0.26058860280E+03  0.91058288732E+02 0.  0.
         23    2    4    4    0    0  0.81247923599E+03 -0.12011925111E+03  0.85728282058E+03  0.11911946003E+04  0.97260463861E+02 0.  0.
          1    1    3    3  502    0 -0.16872073765E+03 -0.81513366196E+01  0.18277609884E+03  0.24887794983E+03  0.00000000000E+00 0. -1.
         -2    1    3    3    0  502 -0.46164994536E+03 -0.24754887369E+02  0.32440460277E+03  0.56477590494E+03  0.00000000000E+00 0.  1.
         13    1    5    5    0    0 -0.75239587868E+02  0.99080347326E+02  0.65181714088E+02  0.14045129640E+03  0.00000000000E+00 0.  1.
        -13    1    5    5    0    0 -0.10686896512E+03  0.53945127773E+02 -0.10095537371E+02  0.12013730640E+03  0.00000000000E+00 0. -1.
          2    1    6    6  503    0  0.63322281285E+03 -0.63727372167E+02  0.70081102963E+03  0.94666171779E+03  0.00000000000E+00 0. -1.
         -2    1    6    6    0  503  0.17925642314E+03 -0.56391878944E+02  0.15647179096E+03  0.24453288248E+03  0.00000000000E+00 0.  1.
<mgrwt>
<rscale>  0 0.17655265E+04</rscale>
<asrwt>0</asrwt>
<pdfrwt beam="1">  1        1 0.28346052E+00 0.17655265E+04</pdfrwt>
<pdfrwt beam="2">  1       -2 0.65068259E-01 0.17655265E+04</pdfrwt>
<totfact> 0.68988362E+00</totfact>
</mgrwt>
</event>
<event>
12    5  0.5221187E-008  0.3250021E+04  0.7818608E-02  0.8175730E-01
         -4   -1    0    0    0  501 -0.00000000000E+00  0.00000000000E+00  0.21140294644E+04  0.21140294644E+04  0.00000000000E+00 0.  1.
          3   -1    0    0  501    0  0.00000000000E+00 -0.00000000000E+00 -0.12491116424E+04  0.12491116424E+04  0.00000000000E+00 0. -1.
        -24    2    1    2    0    0  0.76035487671E+03 -0.80800316775E+03  0.14442271562E+04  0.18229925015E+04  0.80628309684E+02 0.  0.
        254    2    1    2    0    0 -0.76035487671E+03  0.80800316775E+03 -0.57930933419E+03  0.15401486053E+04  0.89746853105E+03 0.  0.
         23    2    4    4    0    0 -0.44738774990E+03  0.12196593501E+03 -0.61973710269E+03  0.77921567590E+03  0.89841555326E+02 0.  0.
         23    2    4    4    0    0 -0.31296712681E+03  0.68603723274E+03  0.40427768495E+02  0.76093292944E+03  0.93749727826E+02 0.  0.
          3    1    3    3  502    0  0.16681881595E+03 -0.16091146224E+03  0.25303280959E+03  0.34314227190E+03  0.00000000000E+00 0. -1.
         -4    1    3    3    0  502  0.59353606076E+03 -0.64709170551E+03  0.11911943466E+04  0.14798502296E+04  0.00000000000E+00 0.  1.
         13    1    5    5    0    0 -0.38297897456E+03  0.94534683454E+02 -0.46776109283E+03  0.61189062854E+03  0.00000000000E+00 0.  1.
        -13    1    5    5    0    0 -0.64408775335E+02  0.27431251552E+02 -0.15197600985E+03  0.16732504735E+03  0.00000000000E+00 0. -1.
          1    1    6    6  503    0 -0.14460409353E+03  0.24766559228E+03  0.50660850152E+02  0.29123034046E+03  0.00000000000E+00 0. -1.
         -1    1    6    6    0  503 -0.16836303329E+03  0.43837164046E+03 -0.10233081657E+02  0.46970258898E+03  0.00000000000E+00 0.  1.
<mgrwt>
<rscale>  0 0.32500208E+04</rscale>
<asrwt>0</asrwt>
<pdfrwt beam="1">  1        3 0.19217102E+00 0.32500208E+04</pdfrwt>
<pdfrwt beam="2">  1       -4 0.32523530E+00 0.32500208E+04</pdfrwt>
<totfact> 0.67038081E-03</totfact>
</mgrwt>
</event>
<event>
12    5  0.5221187E-008  0.1552509E+04  0.7818608E-02  0.8850267E-01
          1   -1    0    0  501    0  0.00000000000E+00  0.00000000000E+00  0.14440182753E+04  0.14440182753E+04  0.00000000000E+00 0. -1.
         -2   -1    0    0    0  501 -0.00000000000E+00 -0.00000000000E+00 -0.41728785073E+03  0.41728785073E+03  0.00000000000E+00 0.  1.
        -24    2    1    2    0    0 -0.42550789314E+03 -0.64950228869E+02  0.66117375103E+01  0.43782566947E+03  0.79825449696E+02 0.  0.
        254    2    1    2    0    0  0.42550789314E+03  0.64950228869E+02  0.10201186870E+04  0.14234804565E+04  0.89463901946E+03 0.  0.
         23    2    4    4    0    0  0.70490644675E+02  0.43293003430E+03  0.31509627234E+03  0.54772435449E+03  0.91208344328E+02 0.  0.
         23    2    4    4    0    0  0.35501724846E+03 -0.36797980543E+03  0.70502241471E+03  0.87575610205E+03  0.91900822266E+02 0.  0.
          3    1    3    3  502    0 -0.91939055948E+02  0.40448705762E+01 -0.26022531984E+02  0.95636411254E+02  0.00000000000E+00 0. -1.
         -4    1    3    3    0  502 -0.33356883719E+03 -0.68995099446E+02  0.32634269494E+02  0.34218925821E+03  0.00000000000E+00 0.  1.
         13    1    5    5    0    0  0.90081450893E+02  0.31095598956E+03  0.24186722494E+03  0.40411390689E+03  0.00000000000E+00 0. -1.
        -13    1    5    5    0    0 -0.19590806218E+02  0.12197404474E+03  0.73229047396E+02  0.14361044760E+03  0.00000000000E+00 0.  1.
          1    1    6    6  503    0  0.35507176875E+03 -0.34782338743E+03  0.69101581204E+03  0.85121085654E+03  0.00000000000E+00 0. -1.
         -1    1    6    6    0  503 -0.54520282396E-01 -0.20156418001E+02  0.14006602673E+02  0.24545245518E+02  0.00000000000E+00 0.  1.
<mgrwt>
<rscale>  0 0.15525093E+04</rscale>
<asrwt>0</asrwt>
<pdfrwt beam="1">  1        1 0.22215665E+00 0.15525093E+04</pdfrwt>
<pdfrwt beam="2">  1       -2 0.64198132E-01 0.15525093E+04</pdfrwt>
<totfact> 0.13560383E+01</totfact>
</mgrwt>
</event>
<event>
12    5  0.5221187E-008  0.1985628E+04  0.7818608E-02  0.8613370E-01
          1   -1    0    0  501    0  0.00000000000E+00  0.00000000000E+00  0.22331186597E+04  0.22331186597E+04  0.00000000000E+00 0. -1.
         -2   -1    0    0    0  501 -0.00000000000E+00 -0.00000000000E+00 -0.44139165009E+03  0.44139165009E+03  0.00000000000E+00 0.  1.
        -24    2    1    2    0    0 -0.50379884613E+03  0.19134404096E+03 -0.56936604996E+02  0.54783898427E+03  0.80373853483E+02 0.  0.
        254    2    1    2    0    0  0.50379884613E+03 -0.19134404096E+03  0.18486636147E+04  0.21266713256E+04  0.90263389449E+03 0.  0.
         23    2    4    4    0    0  0.15994632182E+02  0.30535334001E+03  0.83561951847E+03  0.89432013612E+03  0.89733136087E+02 0.  0.
         23    2    4    4    0    0  0.48780421395E+03 -0.49669738096E+03  0.10130440962E+04  0.12323511894E+04  0.88146888307E+02 0.  0.
          1    1    3    3  502    0 -0.11877848538E+03  0.67806895906E+02 -0.42523250713E+02  0.14322824642E+03  0.00000000000E+00 0. -1.
         -2    1    3    3    0  502 -0.38502036075E+03  0.12353714505E+03 -0.14413354283E+02  0.40461073785E+03  0.00000000000E+00 0.  1.
         13    1    5    5    0    0 -0.25050063621E+02  0.59886288285E+02  0.24394588932E+03  0.25243508102E+03  0.00000000000E+00 0. -1.
        -13    1    5    5    0    0  0.41044695803E+02  0.24546705172E+03  0.59167362915E+03  0.64188505510E+03  0.00000000000E+00 0.  1.
          3    1    6    6  503    0  0.23279296310E+03 -0.27455227928E+03  0.58422858927E+03  0.68621757646E+03  0.00000000000E+00 0. -1.
         -3    1    6    6    0  503  0.25501125085E+03 -0.22214510168E+03  0.42881550692E+03  0.54613361299E+03  0.00000000000E+00 0.  1.
<mgrwt>
<rscale>  0 0.19856283E+04</rscale>
<asrwt>0</asrwt>
<pdfrwt beam="1">  1        1 0.34355671E+00 0.19856283E+04</pdfrwt>
<pdfrwt beam="2">  1       -2 0.67906409E-01 0.19856283E+04</pdfrwt>
<totfact> 0.33512462E+00</totfact>
</mgrwt>
</event>
<event>
12    5  0.5221187E-008  0.1844638E+04  0.7818608E-02  0.8682915E-01
          1   -1    0    0  501    0  0.00000000000E+00  0.00000000000E+00  0.62251379678E+03  0.62251379678E+03  0.00000000000E+00 0. -1.
         -2   -1    0    0    0  501 -0.00000000000E+00 -0.00000000000E+00 -0.13665111093E+04  0.13665111093E+04  0.00000000000E+00 0.  1.
        -24    2    1    2    0    0 -0.34620611840E+03  0.27562168891E+03  0.27843043358E+03  0.52883729780E+03  0.79494587146E+02 0.  0.
        254    2    1    2    0    0  0.34620611840E+03 -0.27562168891E+03 -0.10224277461E+04  0.14601876083E+04  0.94390855678E+03 0.  0.
         23    2    4    4    0    0  0.18849232012E+03  0.13566812699E+03  0.87284536109E+02  0.26265610790E+03  0.86223229736E+02 0.  0.
         23    2    4    4    0    0  0.15771379828E+03 -0.41128981590E+03 -0.11097122822E+04  0.11975315004E+04  0.92668172976E+02 0.  0.
          1    1    3    3  502    0 -0.26998782791E+03  0.17155168711E+03  0.21186315826E+03  0.38367878023E+03  0.00000000000E+00 0. -1.
         -2    1    3    3    0  502 -0.76218290485E+02  0.10407000180E+03  0.66567275316E+02  0.14515851756E+03  0.00000000000E+00 0.  1.
         13    1    5    5    0    0  0.53023899216E+02  0.89084163523E+02  0.47131124563E+02  0.11388092457E+03  0.00000000000E+00 0.  1.
        -13    1    5    5    0    0  0.13546842091E+03  0.46583963467E+02  0.40153411546E+02  0.14877518333E+03  0.00000000000E+00 0. -1.
          2    1    6    6  503    0  0.22942970425E+02 -0.15128007222E+03 -0.46222916752E+03  0.48689613210E+03  0.00000000000E+00 0. -1.
         -2    1    6    6    0  503  0.13477082785E+03 -0.26000974367E+03 -0.64748311470E+03  0.71063536829E+03  0.00000000000E+00 0.  1.
<mgrwt>
<rscale>  0 0.18446377E+04</rscale>
<asrwt>0</asrwt>
<pdfrwt beam="1">  1        1 0.95771354E-01 0.18446377E+04</pdfrwt>
<pdfrwt beam="2">  1       -2 0.21023248E+00 0.18446377E+04</pdfrwt>
<totfact> 0.30465127E+00</totfact>
</mgrwt>
</event>
<event>
12    5  0.5221187E-008  0.1269714E+04  0.7818608E-02  0.9053933E-01
          3   -1    0    0  501    0  0.00000000000E+00  0.00000000000E+00  0.23389995200E+04  0.23389995200E+04  0.00000000000E+00 0. -1.
         -4   -1    0    0    0  501 -0.00000000000E+00 -0.00000000000E+00 -0.17231442359E+03  0.17231442359E+03  0.00000000000E+00 0.  1.
        -24    2    1    2    0    0 -0.28079783796E+03  0.10159556298E+03  0.38547213304E+03  0.49409705400E+03  0.79837642799E+02 0.  0.
        254    2    1    2    0    0  0.28079783796E+03 -0.10159556298E+03  0.17812129634E+04  0.20172168896E+04  0.89848498849E+03 0.  0.
         23    2    4    4    0    0 -0.27970514413E+03  0.49276056337E+02  0.29568686188E+03  0.41993242160E+03  0.90826323486E+02 0.  0.
         23    2    4    4    0    0  0.56050298209E+03 -0.15087161931E+03  0.14855261015E+04  0.15972844680E+04  0.87201118220E+02 0.  0.
          3    1    3    3  502    0 -0.32268346420E+02  0.11123181368E+02  0.96513681519E+02  0.10237119744E+03  0.00000000000E+00 0. -1.
         -4    1    3    3    0  502 -0.24852949154E+03  0.90472381608E+02  0.28895845152E+03  0.39172585656E+03  0.00000000000E+00 0.  1.
         13    1    5    5    0    0 -0.17870888348E+03  0.27301600711E+02  0.12293621407E+03  0.21862194576E+03  0.00000000000E+00 0. -1.
        -13    1    5    5    0    0 -0.10099626066E+03  0.21974455625E+02  0.17275064781E+03  0.20131047584E+03  0.00000000000E+00 0.  1.
          1    1    6    6  503    0  0.48544193699E+03 -0.10267715764E+03  0.12141336658E+04  0.13116085663E+04  0.00000000000E+00 0. -1.
         -1    1    6    6    0  503  0.75061045104E+02 -0.48194461670E+02  0.27139243571E+03  0.28567590166E+03  0.00000000000E+00 0.  1.
<mgrwt>
<rscale>  0 0.12697139E+04</rscale>
<asrwt>0</asrwt>
<pdfrwt beam="1">  1        3 0.35984606E+00 0.12697139E+04</pdfrwt>
<pdfrwt beam="2">  1       -4 0.26509913E-01 0.12697139E+04</pdfrwt>
<totfact> 0.56826788E-01</totfact>
</mgrwt>
</event>
<event>
12    5  0.5221187E-008  0.2028950E+04  0.7818608E-02  0.8593204E-01
          1   -1    0    0  501    0  0.00000000000E+00  0.00000000000E+00  0.36288736882E+04  0.36288736882E+04  0.00000000000E+00 0. -1.
         -2   -1    0    0    0  501 -0.00000000000E+00 -0.00000000000E+00 -0.28360305072E+03  0.28360305072E+03  0.00000000000E+00 0.  1.
        -24    2    1    2    0    0 -0.28747830880E+03  0.96569409026E+02  0.28077442454E+04  0.28251367178E+04  0.77461591920E+02 0.  0.
        254    2    1    2    0    0  0.28747830880E+03 -0.96569409026E+02  0.53752639214E+03  0.10873400211E+04  0.89521185789E+03 0.  0.
         23    2    4    4    0    0  0.27554834224E+03  0.17717005383E+03  0.68608188022E+03  0.76570873333E+03  0.91024178416E+02 0.  0.
         23    2    4    4    0    0  0.11929966563E+02 -0.27373946286E+03 -0.14855548808E+03  0.32163128780E+03  0.79387244725E+02 0.  0.
          1    1    3    3  502    0 -0.17545377638E+03  0.30137046264E+02  0.18568900518E+04  0.18654042280E+04  0.00000000000E+00 0. -1.
         -2    1    3    3    0  502 -0.11202453242E+03  0.66432362762E+02  0.95085419356E+03  0.95973248986E+03  0.00000000000E+00 0.  1.
         13    1    5    5    0    0  0.37994534841E+02  0.45512186257E+02  0.20336120136E+03  0.21182710402E+03  0.00000000000E+00 0. -1.
        -13    1    5    5    0    0  0.23755380739E+03  0.13165786757E+03  0.48272067885E+03  0.55388162931E+03  0.00000000000E+00 0.  1.
          1    1    6    6  503    0  0.33314008254E+02 -0.96110122658E+02 -0.82303440849E+02  0.13084660943E+03  0.00000000000E+00 0. -1.
         -1    1    6    6    0  503 -0.21384041691E+02 -0.17762934020E+03 -0.66252047227E+02  0.19078467837E+03  0.00000000000E+00 0.  1.
<mgrwt>
<rscale>  0 0.20289501E+04</rscale>
<asrwt>0</asrwt>
<pdfrwt beam="1">  1        1 0.55828823E+00 0.20289501E+04</pdfrwt>
<pdfrwt beam="2">  1       -2 0.43631241E-01 0.20289501E+04</pdfrwt>
<totfact> 0.80245875E-01</totfact>
</mgrwt>
</event>
<event>
12    5  0.5221187E-008  0.1334087E+04  0.7818608E-02  0.9002962E-01
          1   -1    0    0  501    0  0.00000000000E+00  0.00000000000E+00  0.52494247711E+03  0.52494247711E+03  0.00000000000E+00 0. -1.
         -2   -1    0    0    0  501 -0.00000000000E+00 -0.00000000000E+00 -0.84761057542E+03  0.84761057542E+03  0.00000000000E+00 0.  1.
        -24    2    1    2    0    0 -0.50087104692E+02 -0.27027012078E+02  0.27548490471E+03  0.29242259124E+03  0.79874036496E+02 0.  0.
        254    2    1    2    0    0  0.50087104692E+02  0.27027012078E+02 -0.59815300302E+03  0.10801304613E+04  0.89758321115E+03 0.  0.
         23    2    4    4    0    0  0.16229804592E+02  0.28532971369E+03 -0.71874657609E+03  0.77893122452E+03  0.91982388642E+02 0.  0.
         23    2    4    4    0    0  0.33857300100E+02 -0.25830270161E+03  0.12059357307E+03  0.30119923677E+03  0.91167800965E+02 0.  0.
          3    1    3    3  502    0 -0.36896503817E+02  0.15114179463E+02  0.20791425804E+03  0.21170292655E+03  0.00000000000E+00 0. -1.
         -4    1    3    3    0  502 -0.13190600875E+02 -0.42141191541E+02  0.67570646678E+02  0.80719664695E+02  0.00000000000E+00 0.  1.
         13    1    5    5    0    0  0.50408244051E+02  0.13032363967E+03 -0.37886851642E+03  0.40381505032E+03  0.00000000000E+00 0. -1.
        -13    1    5    5    0    0 -0.34178439459E+02  0.15500607402E+03 -0.33987805967E+03  0.37511617420E+03  0.00000000000E+00 0.  1.
          1    1    6    6  503    0  0.14831381099E+01  0.52297163402E+01  0.14124454645E+02  0.15134392973E+02  0.00000000000E+00 0. -1.
         -1    1    6    6    0  503  0.32374161990E+02 -0.26353241795E+03  0.10646911842E+03  0.28606484379E+03  0.00000000000E+00 0.  1.
<mgrwt>
<rscale>  0 0.13340866E+04</rscale>
<asrwt>0</asrwt>
<pdfrwt beam="1">  1        1 0.80760382E-01 0.13340866E+04</pdfrwt>
<pdfrwt beam="2">  1       -2 0.13040163E+00 0.13340866E+04</pdfrwt>
<totfact> 0.15291635E+01</totfact>
</mgrwt>
</event>
<event>
12    5  0.5221187E-008  0.1287823E+04  0.7818608E-02  0.9039278E-01
          1   -1    0    0  501    0  0.00000000000E+00  0.00000000000E+00  0.13660978002E+04  0.13660978002E+04  0.00000000000E+00 0. -1.
         -2   -1    0    0    0  501 -0.00000000000E+00 -0.00000000000E+00 -0.30350820126E+03  0.30350820126E+03  0.00000000000E+00 0.  1.
        -24    2    1    2    0    0 -0.13930532734E+03 -0.20775775678E+03  0.13916501243E+02  0.26313674951E+03  0.80486149162E+02 0.  0.
        254    2    1    2    0    0  0.13930532734E+03  0.20775775678E+03  0.10486730977E+04  0.14064692519E+04  0.90325590565E+03 0.  0.
         23    2    4    4    0    0 -0.17687595440E+02 -0.26211271842E+03  0.44692989473E+02  0.28291553538E+03  0.95014781281E+02 0.  0.
         23    2    4    4    0    0  0.15699292278E+03  0.46987047521E+03  0.10039801082E+04  0.11235537165E+04  0.94719876638E+02 0.  0.
          1    1    3    3  502    0 -0.42228056302E+02 -0.16541937156E+02  0.17627492138E+02  0.48657711650E+02  0.00000000000E+00 0. -1.
         -2    1    3    3    0  502 -0.97077271038E+02 -0.19121581963E+03 -0.37109908958E+01  0.21447903786E+03  0.00000000000E+00 0.  1.
         13    1    5    5    0    0 -0.15031706570E+02  0.41692734719E+00  0.10073568356E+02  0.18099801387E+02  0.00000000000E+00 0. -1.
        -13    1    5    5    0    0 -0.26558888699E+01 -0.26252964577E+03  0.34619421116E+02  0.26481573399E+03  0.00000000000E+00 0.  1.
          2    1    6    6  503    0  0.47238748933E+02  0.11866885720E+03  0.17567206184E+03  0.21719684708E+03  0.00000000000E+00 0. -1.
         -2    1    6    6    0  503  0.10975417385E+03  0.35120161800E+03  0.82830804634E+03  0.90635686945E+03  0.00000000000E+00 0.  1.
<mgrwt>
<rscale>  0 0.12878228E+04</rscale>
<asrwt>0</asrwt>
<pdfrwt beam="1">  1        1 0.21016889E+00 0.12878228E+04</pdfrwt>
<pdfrwt beam="2">  1       -2 0.46693570E-01 0.12878228E+04</pdfrwt>
<totfact> 0.30446924E+01</totfact>
</mgrwt>
</event>
<event>
12    5  0.5221187E-008  0.1910863E+04  0.7818608E-02  0.8649468E-01
         -2   -1    0    0    0  501 -0.00000000000E+00  0.00000000000E+00  0.54397905383E+03  0.54397905383E+03  0.00000000000E+00 0.  1.
          1   -1    0    0  501    0  0.00000000000E+00 -0.00000000000E+00 -0.16780963861E+04  0.16780963861E+04  0.00000000000E+00 0. -1.
        -24    2    1    2    0    0 -0.50486921710E+03  0.24215528542E+03  0.12056794592E+03  0.57835238404E+03  0.80142010903E+02 0.  0.
        254    2    1    2    0    0  0.50486921710E+03 -0.24215528542E+03 -0.12546852782E+04  0.16437230559E+04  0.90225175454E+03 0.  0.
         23    2    4    4    0    0  0.42075238734E+03 -0.56402719357E+03 -0.92282233266E+03  0.11640442286E+04  0.90767074715E+02 0.  0.
         23    2    4    4    0    0  0.84116829758E+02  0.32187190815E+03 -0.33186294556E+03  0.47967882736E+03  0.96341042533E+02 0.  0.
          1    1    3    3  502    0 -0.19883318937E+03  0.13249671594E+03  0.72750303042E+02  0.24976513673E+03  0.00000000000E+00 0. -1.
         -2    1    3    3    0  502 -0.30603602773E+03  0.10965856947E+03  0.47817642878E+02  0.32858724731E+03  0.00000000000E+00 0.  1.
         13    1    5    5    0    0  0.22456883962E+03 -0.34974661842E+03 -0.48682854377E+03  0.64012177892E+03  0.00000000000E+00 0. -1.
        -13    1    5    5    0    0  0.19618354772E+03 -0.21428057515E+03 -0.43599378889E+03  0.52392244964E+03  0.00000000000E+00 0.  1.
          2    1    6    6  503    0  0.47179761488E+02  0.61432470023E+02 -0.11556930393E+03  0.13912635364E+03  0.00000000000E+00 0. -1.
         -2    1    6    6    0  503  0.36937068270E+02  0.26043943813E+03 -0.21629364163E+03  0.34055247372E+03  0.00000000000E+00 0.  1.
<mgrwt>
<rscale>  0 0.19108629E+04</rscale>
<asrwt>0</asrwt>
<pdfrwt beam="1">  1        1 0.25816867E+00 0.19108629E+04</pdfrwt>
<pdfrwt beam="2">  1       -2 0.83689086E-01 0.19108629E+04</pdfrwt>
<totfact> 0.50529201E+00</totfact>
</mgrwt>
</event>
<event>
12    5  0.5221187E-008  0.2202904E+04  0.7818608E-02  0.8517220E-01
         -2   -1    0    0    0  501 -0.00000000000E+00  0.00000000000E+00  0.13584239461E+04  0.13584239461E+04  0.00000000000E+00 0.  1.
          1   -1    0    0  501    0  0.00000000000E+00 -0.00000000000E+00 -0.89309120059E+03  0.89309120059E+03  0.00000000000E+00 0. -1.
        -24    2    1    2    0    0  0.22674523368E+03  0.30439937022E+03 -0.66039787181E+03  0.76597009949E+03  0.80699855257E+02 0.  0.
        254    2    1    2    0    0 -0.22674523368E+03 -0.30439937022E+03  0.11257306173E+04  0.14855450472E+04  0.89190934902E+03 0.  0.
         23    2    4    4    0    0 -0.75463680081E+02 -0.52526289757E+03  0.10670191351E+04  0.11951939547E+04  0.91448763227E+02 0.  0.
         23    2    4    4    0    0 -0.15128155360E+03  0.22086352735E+03  0.58711482219E+02  0.29035109242E+03  0.95864031581E+02 0.  0.
          1    1    3    3  502    0  0.19665138369E+03  0.21001849551E+03 -0.51731344858E+03  0.59193981049E+03  0.00000000000E+00 0. -1.
         -2    1    3    3    0  502  0.30093849991E+02  0.94380874715E+02 -0.14308442322E+03  0.17403028900E+03  0.00000000000E+00 0.  1.
         13    1    5    5    0    0 -0.82774264301E+02 -0.49727386543E+03  0.10393959173E+04  0.11551955457E+04  0.00000000000E+00 0.  1.
        -13    1    5    5    0    0  0.73105842199E+01 -0.27989032136E+02  0.27623217809E+02  0.39998409014E+02  0.00000000000E+00 0. -1.
          1    1    6    6  503    0 -0.24247266795E+01  0.20375332362E+02  0.33618700799E+02  0.39385917683E+02  0.00000000000E+00 0. -1.
         -1    1    6    6    0  503 -0.14885682692E+03  0.20048819499E+03  0.25092781420E+02  0.25096517473E+03  0.00000000000E+00 0.  1.
<mgrwt>
<rscale>  0 0.22029040E+04</rscale>
<asrwt>0</asrwt>
<pdfrwt beam="1">  1        1 0.13739865E+00 0.22029040E+04</pdfrwt>
<pdfrwt beam="2">  1       -2 0.20898830E+00 0.22029040E+04</pdfrwt>
<totfact> 0.17118226E+00</totfact>
</mgrwt>
</event>
<event>
12    5  0.5221187E-008  0.1343659E+04  0.7818608E-02  0.8995642E-01
         -2   -1    0    0    0  501 -0.00000000000E+00  0.00000000000E+00  0.39601517940E+03  0.39601517940E+03  0.00000000000E+00 0.  1.
          1   -1    0    0  501    0  0.00000000000E+00 -0.00000000000E+00 -0.11397417553E+04  0.11397417553E+04  0.00000000000E+00 0. -1.
        -24    2    1    2    0    0  0.10576106585E+03 -0.17477047525E+03 -0.55014798796E+03  0.59182300557E+03  0.76560689664E+02 0.  0.
        254    2    1    2    0    0 -0.10576106585E+03  0.17477047525E+03 -0.19357858796E+03  0.94393392915E+03  0.90100414583E+03 0.  0.
         23    2    4    4    0    0  0.18473171611E+03  0.40974728932E+02  0.28930785841E+03  0.35762622248E+03  0.91611913618E+02 0.  0.
         23    2    4    4    0    0 -0.29049278197E+03  0.13379574632E+03 -0.48288644637E+03  0.58630770667E+03  0.91049704600E+02 0.  0.
          3    1    3    3  502    0  0.10575651162E+03 -0.14367370351E+03 -0.39255667187E+03  0.43119289588E+03  0.00000000000E+00 0. -1.
         -4    1    3    3    0  502  0.45542376222E-02 -0.31096771746E+02 -0.15759131608E+03  0.16063010969E+03  0.00000000000E+00 0.  1.
         13    1    5    5    0    0  0.11976971109E+03  0.44707361758E+02  0.25211988484E+03  0.28267997492E+03  0.00000000000E+00 0.  1.
        -13    1    5    5    0    0  0.64962005022E+02 -0.37326328253E+01  0.37187973567E+02  0.74946247554E+02  0.00000000000E+00 0. -1.
          2    1    6    6  503    0 -0.18881487636E+03  0.51668232096E+02 -0.23312626737E+03  0.30441504608E+03  0.00000000000E+00 0. -1.
         -2    1    6    6    0  503 -0.10167790560E+03  0.82127514223E+02 -0.24976017900E+03  0.28189266059E+03  0.00000000000E+00 0.  1.
<mgrwt>
<rscale>  0 0.13436592E+04</rscale>
<asrwt>0</asrwt>
<pdfrwt beam="1">  1        1 0.17534489E+00 0.13436592E+04</pdfrwt>
<pdfrwt beam="2">  1       -2 0.60925412E-01 0.13436592E+04</pdfrwt>
<totfact> 0.25490436E+01</totfact>
</mgrwt>
</event>
<event>
12    5  0.5221187E-008  0.2145066E+04  0.7818608E-02  0.8541647E-01
          1   -1    0    0  501    0  0.00000000000E+00  0.00000000000E+00  0.14790287438E+04  0.14790287438E+04  0.00000000000E+00 0. -1.
         -2   -1    0    0    0  501 -0.00000000000E+00 -0.00000000000E+00 -0.77775809559E+03  0.77775809559E+03  0.00000000000E+00 0.  1.
        -24    2    1    2    0    0  0.24936778546E+03 -0.23277370019E+03  0.11555090316E+04  0.12074530501E+04  0.79836445126E+02 0.  0.
        254    2    1    2    0    0 -0.24936778546E+03  0.23277370019E+03 -0.45423838339E+03  0.10493337894E+04  0.88227036936E+03 0.  0.
         23    2    4    4    0    0  0.11967564065E+03 -0.25171208772E+03 -0.17206354791E+02  0.29433722748E+03  0.93043596043E+02 0.  0.
         23    2    4    4    0    0 -0.36904342611E+03  0.48448578791E+03 -0.43703202860E+03  0.75499656189E+03  0.90018250366E+02 0.  0.
          1    1    3    3  502    0  0.10548753095E+03 -0.13598427065E+03  0.47566808338E+03  0.50584529907E+03  0.00000000000E+00 0. -1.
         -2    1    3    3    0  502  0.14388025451E+03 -0.96789429533E+02  0.67984094826E+03  0.70160775098E+03  0.00000000000E+00 0.  1.
         13    1    5    5    0    0  0.11859571525E+03 -0.23042185411E+03 -0.41018454581E+02  0.26237699622E+03  0.00000000000E+00 0. -1.
        -13    1    5    5    0    0  0.10799254066E+01 -0.21290233613E+02  0.23812099791E+02  0.31960231267E+02  0.00000000000E+00 0.  1.
          1    1    6    6  503    0 -0.28995525553E+03  0.39807312590E+03 -0.30866487698E+03  0.58121447853E+03  0.00000000000E+00 0. -1.
         -1    1    6    6    0  503 -0.79088170585E+02  0.86412662016E+02 -0.12836715162E+03  0.17378208336E+03  0.00000000000E+00 0.  1.
<mgrwt>
<rscale>  0 0.21450656E+04</rscale>
<asrwt>0</asrwt>
<pdfrwt beam="1">  1        1 0.22754288E+00 0.21450656E+04</pdfrwt>
<pdfrwt beam="2">  1       -2 0.11965509E+00 0.21450656E+04</pdfrwt>
<totfact> 0.29094829E+00</totfact>
</mgrwt>
</event>
<event>
12    5  0.5221187E-008  0.1528632E+04  0.7818608E-02  0.8865633E-01
          3   -1    0    0  501    0  0.00000000000E+00  0.00000000000E+00  0.94702444439E+03  0.94702444439E+03  0.00000000000E+00 0. -1.
         -4   -1    0    0    0  501 -0.00000000000E+00 -0.00000000000E+00 -0.61685743921E+03  0.61685743921E+03  0.00000000000E+00 0.  1.
        -24    2    1    2    0    0  0.22005348641E+03  0.19069719462E+03  0.49339765247E+03  0.57963405339E+03  0.88008155680E+02 0.  0.
        254    2    1    2    0    0 -0.22005348641E+03 -0.19069719462E+03 -0.16323064730E+03  0.98424783021E+03  0.92591068151E+03 0.  0.
         23    2    4    4    0    0 -0.71539162574E+02 -0.55346093887E+03 -0.13202432879E+03  0.58063569448E+03  0.90942419533E+02 0.  0.
         23    2    4    4    0    0 -0.14851432384E+03  0.36276374425E+03 -0.31206318511E+02  0.40361213573E+03  0.90966385396E+02 0.  0.
          1    1    3    3  502    0  0.22137927314E+03  0.18890622054E+03  0.44828177804E+03  0.53446318419E+03  0.00000000000E+00 0. -1.
         -2    1    3    3    0  502 -0.13257867235E+01  0.17909740843E+01  0.45115874427E+02  0.45170869196E+02  0.00000000000E+00 0.  1.
         13    1    5    5    0    0  0.18811823674E+02 -0.11015563571E+03 -0.41772609307E+02  0.11930255520E+03  0.00000000000E+00 0.  1.
        -13    1    5    5    0    0 -0.90350986248E+02 -0.44330530316E+03 -0.90251719479E+02  0.46133313928E+03  0.00000000000E+00 0. -1.
          3    1    6    6  503    0 -0.58543394855E+01  0.11399723307E+03 -0.24592349209E+02  0.11676654520E+03  0.00000000000E+00 0. -1.
         -3    1    6    6    0  503 -0.14265998435E+03  0.24876651117E+03 -0.66139693022E+01  0.28684559053E+03  0.00000000000E+00 0.  1.
<mgrwt>
<rscale>  0 0.15286322E+04</rscale>
<asrwt>0</asrwt>
<pdfrwt beam="1">  1        3 0.14569607E+00 0.15286322E+04</pdfrwt>
<pdfrwt beam="2">  1       -4 0.94901144E-01 0.15286322E+04</pdfrwt>
<totfact> 0.71995346E-01</totfact>
</mgrwt>
</event>
<event>
12    5  0.5221187E-008  0.2636195E+04  0.7818608E-02  0.8356009E-01
         -2   -1    0    0    0  501 -0.00000000000E+00  0.00000000000E+00  0.77972353864E+03  0.77972353864E+03  0.00000000000E+00 0.  1.
          1   -1    0    0  501    0  0.00000000000E+00 -0.00000000000E+00 -0.22282020338E+04  0.22282020338E+04  0.00000000000E+00 0. -1.
        -24    2    1    2    0    0  0.79016248281E+03  0.42774079238E+03  0.19920708594E+03  0.92376277564E+03  0.79594395888E+02 0.  0.
        254    2    1    2    0    0 -0.79016248281E+03 -0.42774079238E+03 -0.16476855811E+04  0.20841627968E+04  0.90639277064E+03 0.  0.
         23    2    4    4    0    0 -0.33984768329E+03 -0.16752463662E+03 -0.39603832718E+02  0.39152950517E+03  0.90365580471E+02 0.  0.
         23    2    4    4    0    0 -0.45031479952E+03 -0.26021615576E+03 -0.16080817483E+04  0.16926332916E+04  0.92653570330E+02 0.  0.
          3    1    3    3  502    0  0.38219461878E+03  0.21346729302E+03  0.13737884912E+03  0.45881800313E+03  0.00000000000E+00 0. -1.
         -4    1    3    3    0  502  0.40796786404E+03  0.21427349936E+03  0.61828236817E+02  0.46494477251E+03  0.00000000000E+00 0.  1.
         13    1    5    5    0    0 -0.30410513017E+03 -0.15154223666E+03 -0.63507671697E+02  0.34565619342E+03  0.00000000000E+00 0. -1.
        -13    1    5    5    0    0 -0.35742553129E+02 -0.15982399964E+02  0.23903838979E+02  0.45873311748E+02  0.00000000000E+00 0.  1.
          1    1    6    6  503    0 -0.34157585578E+03 -0.21660692411E+03 -0.13482063106E+04  0.14075698494E+04  0.00000000000E+00 0. -1.
         -1    1    6    6    0  503 -0.10873894374E+03 -0.43609231654E+02 -0.25987543769E+03  0.28506344221E+03  0.00000000000E+00 0.  1.
<mgrwt>
<rscale>  0 0.26361954E+04</rscale>
<asrwt>0</asrwt>
<pdfrwt beam="1">  1        1 0.34280031E+00 0.26361954E+04</pdfrwt>
<pdfrwt beam="2">  1       -2 0.11995747E+00 0.26361954E+04</pdfrwt>
<totfact> 0.85479022E-01</totfact>
</mgrwt>
</event>
<event>
12    5  0.5221187E-008  0.2354299E+04  0.7818608E-02  0.8456814E-01
         -2   -1    0    0    0  501 -0.00000000000E+00  0.00000000000E+00  0.25348577320E+04  0.25348577320E+04  0.00000000000E+00 0.  1.
          1   -1    0    0  501    0  0.00000000000E+00 -0.00000000000E+00 -0.54665018215E+03  0.54665018215E+03  0.00000000000E+00 0. -1.
        -24    2    1    2    0    0  0.80170603413E+03 -0.17036662586E+03  0.10097326093E+03  0.82971299794E+03  0.80440705859E+02 0.  0.
        254    2    1    2    0    0 -0.80170603413E+03  0.17036662586E+03  0.18872342889E+04  0.22517949162E+04  0.91496979788E+03 0.  0.
         23    2    4    4    0    0 -0.59302165096E+03 -0.27025645720E+03  0.68268976535E+03  0.94927907823E+03  0.10174586716E+03 0.  0.
         23    2    4    4    0    0 -0.20868438318E+03  0.44062308306E+03  0.12045445236E+04  0.13025158380E+04  0.89006324741E+02 0.  0.
          3    1    3    3  502    0  0.78545836645E+03 -0.15521061240E+03  0.10367083015E+03  0.80733067615E+03  0.00000000000E+00 0. -1.
         -4    1    3    3    0  502  0.16247667685E+02 -0.15156013463E+02 -0.26975692158E+01  0.22382321795E+02  0.00000000000E+00 0.  1.
         13    1    5    5    0    0 -0.49141426966E+03 -0.18476348612E+03  0.57197132771E+03  0.77638697178E+03  0.00000000000E+00 0. -1.
        -13    1    5    5    0    0 -0.10160738130E+03 -0.85492971080E+02  0.11071843764E+03  0.17289210645E+03  0.00000000000E+00 0.  1.
          3    1    6    6  503    0 -0.31918173179E+02  0.16453418014E+03  0.39144447437E+03  0.42581573800E+03  0.00000000000E+00 0. -1.
         -3    1    6    6    0  503 -0.17676621000E+03  0.27608890291E+03  0.81310004918E+03  0.87670009997E+03  0.00000000000E+00 0.  1.
<mgrwt>
<rscale>  0 0.23542986E+04</rscale>
<asrwt>0</asrwt>
<pdfrwt beam="1">  1        1 0.84100029E-01 0.23542986E+04</pdfrwt>
<pdfrwt beam="2">  1       -2 0.38997811E+00 0.23542986E+04</pdfrwt>
<totfact> 0.26632853E-01</totfact>
</mgrwt>
</event>
<event>
12    5  0.5221187E-008  0.2339544E+04  0.7818608E-02  0.8462491E-01
          1   -1    0    0  501    0  0.00000000000E+00  0.00000000000E+00  0.62795072941E+03  0.62795072941E+03  0.00000000000E+00 0. -1.
         -2   -1    0    0    0  501 -0.00000000000E+00 -0.00000000000E+00 -0.21790977189E+04  0.21790977189E+04  0.00000000000E+00 0.  1.
        -24    2    1    2    0    0  0.36524357388E+03 -0.86663239775E+03 -0.10453200497E+04  0.14083488704E+04  0.79359646371E+02 0.  0.
        254    2    1    2    0    0 -0.36524357388E+03  0.86663239775E+03 -0.50582693981E+03  0.13986995779E+04  0.90335211022E+03 0.  0.
         23    2    4    4    0    0 -0.16559779442E+02  0.76720039306E+01 -0.45635458783E+03  0.46578700554E+03  0.91460039136E+02 0.  0.
         23    2    4    4    0    0 -0.34868379444E+03  0.85896039382E+03 -0.49472351976E+02  0.93291257234E+03  0.92114099686E+02 0.  0.
          3    1    3    3  502    0  0.93093846313E+02 -0.21595951992E+03 -0.31449395250E+03  0.39269762493E+03  0.00000000000E+00 0. -1.
         -4    1    3    3    0  502  0.27214972757E+03 -0.65067287783E+03 -0.73082609717E+03  0.10156512455E+04  0.00000000000E+00 0.  1.
         13    1    5    5    0    0 -0.20457214192E+02  0.28242951055E+02 -0.43307713732E+03  0.43447896240E+03  0.00000000000E+00 0.  1.
        -13    1    5    5    0    0  0.38974347498E+01 -0.20570947124E+02 -0.23277450505E+02  0.31308043140E+02  0.00000000000E+00 0. -1.
          3    1    6    6  503    0  0.13240497046E+01  0.34716176774E+02 -0.11619826676E+02  0.36633132672E+02  0.00000000000E+00 0. -1.
         -3    1    6    6    0  503 -0.35000784414E+03  0.82424421705E+03 -0.37852525299E+02  0.89627943967E+03  0.00000000000E+00 0.  1.
<mgrwt>
<rscale>  0 0.23395435E+04</rscale>
<asrwt>0</asrwt>
<pdfrwt beam="1">  1        1 0.96607805E-01 0.23395435E+04</pdfrwt>
<pdfrwt beam="2">  1       -2 0.33524580E+00 0.23395435E+04</pdfrwt>
<totfact> 0.48745200E-01</totfact>
</mgrwt>
</event>
<event>
12    5  0.5221187E-008  0.1150745E+04  0.7818608E-02  0.9157097E-01
         -2   -1    0    0    0  501 -0.00000000000E+00  0.00000000000E+00  0.33897243751E+03  0.33897243751E+03  0.00000000000E+00 0.  1.
          1   -1    0    0  501    0  0.00000000000E+00 -0.00000000000E+00 -0.97663760233E+03  0.97663760233E+03  0.00000000000E+00 0. -1.
        -24    2    1    2    0    0  0.22089738498E+02 -0.15338123293E+03 -0.24827416895E+02  0.17723837120E+03  0.82360672859E+02 0.  0.
        254    2    1    2    0    0 -0.22089738498E+02  0.15338123293E+03 -0.61283774793E+03  0.11383716686E+04  0.94673448839E+03 0.  0.
         23    2    4    4    0    0 -0.29030840973E+03  0.43200105878E+03 -0.20156457950E+03  0.56558937427E+03  0.91428513239E+02 0.  0.
         23    2    4    4    0    0  0.26821867123E+03 -0.27861982585E+03 -0.41127316843E+03  0.57278229436E+03  0.96766082455E+02 0.  0.
          3    1    3    3  502    0  0.47945853061E+02 -0.58729173763E+02 -0.22528236301E+02  0.79091352925E+02  0.00000000000E+00 0. -1.
         -4    1    3    3    0  502 -0.25856114563E+02 -0.94652059167E+02 -0.22991805935E+01  0.98147018275E+02  0.00000000000E+00 0.  1.
         13    1    5    5    0    0 -0.11164999936E+03  0.23911096999E+03 -0.78686547385E+02  0.27537492817E+03  0.00000000000E+00 0.  1.
        -13    1    5    5    0    0 -0.17865841036E+03  0.19289008880E+03 -0.12287803212E+03  0.29021444610E+03  0.00000000000E+00 0. -1.
          1    1    6    6  503    0  0.14701906126E+02 -0.62439163534E+01  0.26518493425E+01  0.16191505184E+02  0.00000000000E+00 0. -1.
         -1    1    6    6    0  503  0.25351676510E+03 -0.27237590950E+03 -0.41392501777E+03  0.55659078918E+03  0.00000000000E+00 0.  1.
<mgrwt>
<rscale>  0 0.11507445E+04</rscale>
<asrwt>0</asrwt>
<pdfrwt beam="1">  1        1 0.15025194E+00 0.11507445E+04</pdfrwt>
<pdfrwt beam="2">  1       -2 0.52149606E-01 0.11507445E+04</pdfrwt>
<totfact> 0.47699706E+01</totfact>
</mgrwt>
</event>
<event>
12    5  0.5221187E-008  0.2907835E+04  0.7818608E-02  0.8270550E-01
          1   -1    0    0  501    0  0.00000000000E+00  0.00000000000E+00  0.86603769108E+03  0.86603769108E+03  0.00000000000E+00 0. -1.
         -2   -1    0    0    0  501 -0.00000000000E+00 -0.00000000000E+00 -0.24408594456E+04  0.24408594456E+04  0.00000000000E+00 0.  1.
        -24    2    1    2    0    0 -0.74411476601E+02  0.93191512391E+03  0.33430034111E+03  0.99598079519E+03  0.78855312418E+02 0.  0.
        254    2    1    2    0    0  0.74411476601E+02 -0.93191512391E+03 -0.19091220956E+04  0.23109163415E+04  0.90641287246E+03 0.  0.
         23    2    4    4    0    0  0.20014737733E+03 -0.34907745280E+03 -0.13224255766E+03  0.43443901201E+03  0.96618426809E+02 0.  0.
         23    2    4    4    0    0 -0.12573590073E+03 -0.58283767111E+03 -0.17768795380E+04  0.18764773295E+04  0.91416672436E+02 0.  0.
          1    1    3    3  502    0 -0.78781412672E+02  0.88065914893E+03  0.29809105030E+03  0.93307305279E+03  0.00000000000E+00 0. -1.
         -2    1    3    3    0  502  0.43699360710E+01  0.51255974973E+02  0.36209290811E+02  0.62907742391E+02  0.00000000000E+00 0.  1.
         13    1    5    5    0    0 -0.25078134424E+01  0.39199326694E+01 -0.73071154009E+01  0.86630788913E+01  0.00000000000E+00 0. -1.
        -13    1    5    5    0    0  0.20265519077E+03 -0.35299738547E+03 -0.12493544226E+03  0.42577593312E+03  0.00000000000E+00 0.  1.
          3    1    6    6  503    0 -0.13979993318E+02 -0.20200228519E+03 -0.50394992325E+03  0.54310762154E+03  0.00000000000E+00 0. -1.
         -3    1    6    6    0  503 -0.11175590741E+03 -0.38083538592E+03 -0.12729296147E+04  0.13333697079E+04  0.00000000000E+00 0.  1.
<mgrwt>
<rscale>  0 0.29078351E+04</rscale>
<asrwt>0</asrwt>
<pdfrwt beam="1">  1        1 0.13323657E+00 0.29078351E+04</pdfrwt>
<pdfrwt beam="2">  1       -2 0.37551684E+00 0.29078351E+04</pdfrwt>
<totfact> 0.15628200E-01</totfact>
</mgrwt>
</event>
<event>
12    5  0.5221187E-008  0.2367432E+04  0.7818608E-02  0.8451798E-01
          1   -1    0    0  501    0  0.00000000000E+00  0.00000000000E+00  0.10308082938E+04  0.10308082938E+04  0.00000000000E+00 0. -1.
         -2   -1    0    0    0  501 -0.00000000000E+00 -0.00000000000E+00 -0.13593056017E+04  0.13593056017E+04  0.00000000000E+00 0.  1.
        -24    2    1    2    0    0 -0.21184801260E+03 -0.41017364489E+03 -0.10505218480E+04  0.11502237350E+04  0.79350413045E+02 0.  0.
        254    2    1    2    0    0  0.21184801260E+03  0.41017364489E+03  0.72202454008E+03  0.12398901605E+04  0.89603915882E+03 0.  0.
         23    2    4    4    0    0  0.25076616486E+03 -0.27155474007E+02 -0.11361576219E+03  0.29148214419E+03  0.91827064404E+02 0.  0.
         23    2    4    4    0    0 -0.38918152255E+02  0.43732911889E+03  0.83564030227E+03  0.94840801628E+03  0.91715155479E+02 0.  0.
          3    1    3    3  502    0 -0.60379743311E+02 -0.88002022297E+02 -0.32483191590E+03  0.34191496445E+03  0.00000000000E+00 0. -1.
         -4    1    3    3    0  502 -0.15146826929E+03 -0.32217162259E+03 -0.72568993209E+03  0.80830877054E+03  0.00000000000E+00 0.  1.
         13    1    5    5    0    0  0.16490390624E+02  0.20510537803E+02 -0.25613651969E+02  0.36724301369E+02  0.00000000000E+00 0.  1.
        -13    1    5    5    0    0  0.23427577423E+03 -0.47666011810E+02 -0.88002110224E+02  0.25475784282E+03  0.00000000000E+00 0. -1.
          2    1    6    6  503    0 -0.17893367455E+02  0.20201736730E+02  0.26439167531E+02  0.37779787526E+02  0.00000000000E+00 0.  1.
         -2    1    6    6    0  503 -0.21024784800E+02  0.41712738216E+03  0.80920113474E+03  0.91062822875E+03  0.00000000000E+00 0. -1.
<mgrwt>
<rscale>  0 0.23674319E+04</rscale>
<asrwt>0</asrwt>
<pdfrwt beam="1">  1        1 0.15858589E+00 0.23674319E+04</pdfrwt>
<pdfrwt beam="2">  1       -2 0.20912394E+00 0.23674319E+04</pdfrwt>
<totfact> 0.13089147E+00</totfact>
</mgrwt>
</event>
<event>
12    5  0.5221187E-008  0.1262477E+04  0.7818608E-02  0.9059863E-01
         -2   -1    0    0    0  501 -0.00000000000E+00  0.00000000000E+00  0.13583582053E+04  0.13583582053E+04  0.00000000000E+00 0.  1.
          1   -1    0    0  501    0  0.00000000000E+00 -0.00000000000E+00 -0.29334069017E+03  0.29334069017E+03  0.00000000000E+00 0. -1.
        -24    2    1    2    0    0 -0.19646761781E+03 -0.23479430266E+03  0.31235237051E+03  0.44386072752E+03  0.75633674130E+02 0.  0.
        254    2    1    2    0    0  0.19646761781E+03  0.23479430266E+03  0.75266514466E+03  0.12078381680E+04  0.89366678950E+03 0.  0.
         23    2    4    4    0    0 -0.30079509934E+03  0.23182901969E+03  0.14331288775E+03  0.41620792812E+03  0.92022114059E+02 0.  0.
         23    2    4    4    0    0  0.49726271714E+03  0.29652829721E+01  0.60935225691E+03  0.79163023987E+03  0.89940318607E+02 0.  0.
          1    1    3    3  502    0 -0.12224084832E+03 -0.13878727054E+03  0.13505057184E+03  0.22900521482E+03  0.00000000000E+00 0. -1.
         -2    1    3    3    0  502 -0.74226769489E+02 -0.96007032128E+02  0.17730179867E+03  0.21485551270E+03  0.00000000000E+00 0.  1.
         13    1    5    5    0    0 -0.11076206478E+01 -0.72832879035E+01  0.27242652048E+01  0.78545991044E+01  0.00000000000E+00 0. -1.
        -13    1    5    5    0    0 -0.29968747869E+03  0.23911230760E+03  0.14058862254E+03  0.40835332901E+03  0.00000000000E+00 0.  1.
          3    1    6    6  503    0  0.28227120574E+03  0.17007451924E+02  0.27914165315E+03  0.39734915318E+03  0.00000000000E+00 0. -1.
         -3    1    6    6    0  503  0.21499151141E+03 -0.14042168952E+02  0.33021060376E+03  0.39428108669E+03  0.00000000000E+00 0.  1.
<mgrwt>
<rscale>  0 0.12624765E+04</rscale>
<asrwt>0</asrwt>
<pdfrwt beam="1">  1        1 0.45129338E-01 0.12624765E+04</pdfrwt>
<pdfrwt beam="2">  1       -2 0.20897818E+00 0.12624765E+04</pdfrwt>
<totfact> 0.90220488E+00</totfact>
</mgrwt>
</event>
<event>
12    5  0.5221187E-008  0.1780975E+04  0.7818608E-02  0.8716482E-01
         -2   -1    0    0    0  501 -0.00000000000E+00  0.00000000000E+00  0.47156461898E+03  0.47156461898E+03  0.00000000000E+00 0.  1.
          1   -1    0    0  501    0  0.00000000000E+00 -0.00000000000E+00 -0.16815686019E+04  0.16815686019E+04  0.00000000000E+00 0. -1.
        -24    2    1    2    0    0 -0.28291876710E+03  0.56203918238E+03 -0.67987209409E+03  0.92986177969E+03  0.80534425573E+02 0.  0.
        254    2    1    2    0    0  0.28291876710E+03 -0.56203918238E+03 -0.53013188888E+03  0.12232714412E+04  0.90521938115E+03 0.  0.
         23    2    4    4    0    0 -0.20040662384E+03  0.12841923607E+03 -0.10903765282E+03  0.27744061421E+03  0.91813776788E+02 0.  0.
         23    2    4    4    0    0  0.48332539094E+03 -0.69045841845E+03 -0.42109423606E+03  0.94583082702E+03  0.83302680404E+02 0.  0.
          1    1    3    3  502    0 -0.27724077429E+03  0.54256237709E+03 -0.63202168723E+03  0.87788825775E+03  0.00000000000E+00 0. -1.
         -2    1    3    3    0  502 -0.56779928072E+01  0.19476805290E+02 -0.47850406856E+02  0.51973521940E+02  0.00000000000E+00 0.  1.
         13    1    5    5    0    0 -0.17942515007E+03  0.13407320313E+03 -0.11888938763E+03  0.25358173192E+03  0.00000000000E+00 0. -1.
        -13    1    5    5    0    0 -0.20981473769E+02 -0.56539670558E+01  0.98517348123E+01  0.23858882283E+02  0.00000000000E+00 0.  1.
          3    1    6    6  503    0  0.43691402658E+03 -0.62210262212E+03 -0.40605489983E+03  0.86185040509E+03  0.00000000000E+00 0. -1.
         -3    1    6    6    0  503  0.46411364358E+02 -0.68355796335E+02 -0.15039336225E+02  0.83980421934E+02  0.00000000000E+00 0.  1.
<mgrwt>
<rscale>  0 0.17809753E+04</rscale>
<asrwt>0</asrwt>
<pdfrwt beam="1">  1        1 0.25870286E+00 0.17809753E+04</pdfrwt>
<pdfrwt beam="2">  1       -2 0.72548402E-01 0.17809753E+04</pdfrwt>
<totfact> 0.69949443E+00</totfact>
</mgrwt>
</event>
<event>
12    5  0.5221187E-008  0.2390272E+04  0.7818608E-02  0.8443155E-01
         -4   -1    0    0    0  501 -0.00000000000E+00  0.00000000000E+00  0.13842369740E+04  0.13842369740E+04  0.00000000000E+00 0.  1.
          3   -1    0    0  501    0  0.00000000000E+00 -0.00000000000E+00 -0.10318677673E+04  0.10318677673E+04  0.00000000000E+00 0. -1.
        -24    2    1    2    0    0 -0.93853432586E+03  0.22067599690E+03  0.50222357397E+03  0.10899924312E+04  0.79438059478E+02 0.  0.
        254    2    1    2    0    0  0.93853432586E+03 -0.22067599690E+03 -0.14985436728E+03  0.13261123102E+04  0.89809406604E+03 0.  0.
         23    2    4    4    0    0  0.84294533152E+03 -0.20612407759E+03 -0.46204405859E+03  0.98731581292E+03  0.90905638359E+02 0.  0.
         23    2    4    4    0    0  0.95588994343E+02 -0.14551919312E+02  0.31218969131E+03  0.33879649728E+03  0.89284091611E+02 0.  0.
          1    1    3    3  502    0 -0.32725440889E+02 -0.12222861366E+01  0.31066585207E+02  0.45139574446E+02  0.00000000000E+00 0. -1.
         -2    1    3    3    0  502 -0.90580888497E+03  0.22189828304E+03  0.47115698877E+03  0.10448528567E+04  0.00000000000E+00 0.  1.
         13    1    5    5    0    0  0.61686533507E+03 -0.19036067692E+03 -0.35383282705E+03  0.73617776279E+03  0.00000000000E+00 0. -1.
        -13    1    5    5    0    0  0.22607999645E+03 -0.15763400671E+02 -0.10821123153E+03  0.25113805014E+03  0.00000000000E+00 0.  1.
          1    1    6    6  503    0  0.53024699241E+02 -0.11908496697E+02  0.28036744515E+03  0.28558595085E+03  0.00000000000E+00 0. -1.
         -1    1    6    6    0  503  0.42564295103E+02 -0.26434226149E+01  0.31822246156E+02  0.53210546428E+02  0.00000000000E+00 0.  1.
<mgrwt>
<rscale>  0 0.23902715E+04</rscale>
<asrwt>0</asrwt>
<pdfrwt beam="1">  1        3 0.15874889E+00 0.23902715E+04</pdfrwt>
<pdfrwt beam="2">  1       -4 0.21295954E+00 0.23902715E+04</pdfrwt>
<totfact> 0.61976339E-02</totfact>
</mgrwt>
</event>
<event>
12    5  0.5221187E-008  0.1689088E+04  0.7818608E-02  0.8767612E-01
         -2   -1    0    0    0  501 -0.00000000000E+00  0.00000000000E+00  0.36197119157E+03  0.36197119157E+03  0.00000000000E+00 0.  1.
          1   -1    0    0  501    0  0.00000000000E+00 -0.00000000000E+00 -0.19704734454E+04  0.19704734454E+04  0.00000000000E+00 0. -1.
        -24    2    1    2    0    0 -0.12324027319E+02  0.58426477989E+03 -0.39633930399E+03  0.71051764136E+03  0.78950998225E+02 0.  0.
        254    2    1    2    0    0  0.12324027319E+02 -0.58426477989E+03 -0.12121629498E+04  0.16219269956E+04  0.90542307650E+03 0.  0.
         23    2    4    4    0    0 -0.11638776603E+03 -0.38829860391E+03 -0.33385553232E+02  0.41663662089E+03  0.90274918008E+02 0.  0.
         23    2    4    4    0    0  0.12871179335E+03 -0.19596617598E+03 -0.11787773966E+04  0.12052903747E+04  0.90770417917E+02 0.  0.
          1    1    3    3  502    0  0.22825723585E+02  0.11108048433E+03 -0.99215079983E+02  0.15067687199E+03  0.00000000000E+00 0. -1.
         -2    1    3    3    0  502 -0.35149750904E+02  0.47318429557E+03 -0.29712422401E+03  0.55984076938E+03  0.00000000000E+00 0.  1.
         13    1    5    5    0    0 -0.11847269895E+03 -0.38062492491E+03 -0.17674931590E+02  0.39902821588E+03  0.00000000000E+00 0.  1.
        -13    1    5    5    0    0  0.20849329240E+01 -0.76736790014E+01 -0.15710621641E+02  0.17608405012E+02  0.00000000000E+00 0. -1.
          4    1    6    6  503    0  0.71270645424E+01 -0.29372435177E+02 -0.55127484818E+02  0.62869504369E+02  0.00000000000E+00 0. -1.
         -4    1    6    6    0  503  0.12158472881E+03 -0.16659374081E+03 -0.11236499118E+04  0.11424208703E+04  0.00000000000E+00 0.  1.
<mgrwt>
<rscale>  0 0.16890881E+04</rscale>
<asrwt>0</asrwt>
<pdfrwt beam="1">  1        1 0.30314976E+00 0.16890881E+04</pdfrwt>
<pdfrwt beam="2">  1       -2 0.55687877E-01 0.16890881E+04</pdfrwt>
<totfact> 0.79079686E+00</totfact>
</mgrwt>
</event>
<event>
12    5  0.5221187E-008  0.1832274E+04  0.7818608E-02  0.8689322E-01
         -2   -1    0    0    0  501 -0.00000000000E+00  0.00000000000E+00  0.56006850705E+03  0.56006850705E+03  0.00000000000E+00 0.  1.
          1   -1    0    0  501    0  0.00000000000E+00 -0.00000000000E+00 -0.14985796400E+04  0.14985796400E+04  0.00000000000E+00 0. -1.
        -24    2    1    2    0    0 -0.64984568271E+03  0.50170542538E+02 -0.64295136083E+03  0.91909970703E+03  0.80878454398E+02 0.  0.
        254    2    1    2    0    0  0.64984568271E+03 -0.50170542538E+02 -0.29555977209E+03  0.11395484400E+04  0.88679116683E+03 0.  0.
         23    2    4    4    0    0  0.50599523652E+03 -0.19444537220E+03  0.20824378261E+03  0.58727170991E+03  0.87649336081E+02 0.  0.
         23    2    4    4    0    0  0.14385044619E+03  0.14427482966E+03 -0.50380355470E+03  0.55227673010E+03  0.98404204862E+02 0.  0.
          1    1    3    3  502    0 -0.45819296967E+03  0.69430493106E+00 -0.42998836232E+03  0.62835600677E+03  0.00000000000E+00 0. -1.
         -2    1    3    3    0  502 -0.19165271304E+03  0.49476237607E+02 -0.21296299851E+03  0.29074370026E+03  0.00000000000E+00 0.  1.
         13    1    5    5    0    0  0.41349773585E+03 -0.12251732703E+03  0.17551485362E+03  0.46561393538E+03  0.00000000000E+00 0. -1.
        -13    1    5    5    0    0  0.92497500674E+02 -0.71928045165E+02  0.32728928983E+02  0.12165777453E+03  0.00000000000E+00 0.  1.
          3    1    6    6  503    0  0.50089182507E+02  0.40250474704E+02 -0.28751741177E+03  0.29461040204E+03  0.00000000000E+00 0. -1.
         -3    1    6    6    0  503  0.93761263682E+02  0.10402435496E+03 -0.21628614293E+03  0.25766632806E+03  0.00000000000E+00 0.  1.
<mgrwt>
<rscale>  0 0.18322743E+04</rscale>
<asrwt>0</asrwt>
<pdfrwt beam="1">  1        1 0.23055071E+00 0.18322743E+04</pdfrwt>
<pdfrwt beam="2">  1       -2 0.86164388E-01 0.18322743E+04</pdfrwt>
<totfact> 0.63245135E+00</totfact>
</mgrwt>
</event>
<event>
12    5  0.5221187E-008  0.1296311E+04  0.7818608E-02  0.9032496E-01
          1   -1    0    0  501    0  0.00000000000E+00  0.00000000000E+00  0.64033444236E+03  0.64033444236E+03  0.00000000000E+00 0. -1.
         -2   -1    0    0    0  501 -0.00000000000E+00 -0.00000000000E+00 -0.65607197885E+03  0.65607197885E+03  0.00000000000E+00 0.  1.
        -24    2    1    2    0    0 -0.21395235855E+03 -0.15774182112E+03  0.18872592016E+03  0.33578369126E+03  0.80468133556E+02 0.  0.
        254    2    1    2    0    0  0.21395235855E+03  0.15774182112E+03 -0.20446345665E+03  0.96062272995E+03  0.90018477566E+03 0.  0.
         23    2    4    4    0    0 -0.22832863919E+03 -0.19819666713E+03 -0.21905461240E+03  0.38519500300E+03  0.94733208455E+02 0.  0.
         23    2    4    4    0    0  0.44228099773E+03  0.35593848824E+03  0.14591155759E+02  0.57542772695E+03  0.92733374514E+02 0.  0.
          3    1    3    3  502    0 -0.17272982959E+03 -0.15976692746E+03  0.17100816260E+03  0.29086914036E+03  0.00000000000E+00 0. -1.
         -4    1    3    3    0  502 -0.41222528957E+02  0.20251063400E+01  0.17717757561E+02  0.44914550898E+02  0.00000000000E+00 0.  1.
         13    1    5    5    0    0 -0.19164322265E+03 -0.18731277676E+03 -0.15225711318E+03  0.30821328595E+03  0.00000000000E+00 0. -1.
        -13    1    5    5    0    0 -0.36685416540E+02 -0.10883890371E+02 -0.66797499230E+02  0.76981717048E+02  0.00000000000E+00 0.  1.
          4    1    6    6  503    0  0.16166277871E+03  0.17889282329E+03 -0.19367148457E+02  0.24189374255E+03  0.00000000000E+00 0. -1.
         -4    1    6    6    0  503  0.28061821902E+03  0.17704566496E+03  0.33958304216E+02  0.33353398440E+03  0.00000000000E+00 0.  1.
<mgrwt>
<rscale>  0 0.12963109E+04</rscale>
<asrwt>0</asrwt>
<pdfrwt beam="1">  1        1 0.98512992E-01 0.12963109E+04</pdfrwt>
<pdfrwt beam="2">  1       -2 0.10093415E+00 0.12963109E+04</pdfrwt>
<totfact> 0.21645746E+01</totfact>
</mgrwt>
</event>
<event>
12    5  0.5221187E-008  0.2319425E+04  0.7818608E-02  0.8470301E-01
          3   -1    0    0  501    0  0.00000000000E+00  0.00000000000E+00  0.83344898985E+03  0.83344898985E+03  0.00000000000E+00 0. -1.
         -4   -1    0    0    0  501 -0.00000000000E+00 -0.00000000000E+00 -0.16136958250E+04  0.16136958250E+04  0.00000000000E+00 0.  1.
        -24    2    1    2    0    0  0.73422103107E+02 -0.15294025252E+03  0.69066318696E+03  0.71582588108E+03  0.81299004505E+02 0.  0.
        254    2    1    2    0    0 -0.73422103107E+02  0.15294025252E+03 -0.14709100221E+04  0.17313189338E+04  0.89727778934E+03 0.  0.
         23    2    4    4    0    0  0.30141094505E+03  0.26157481239E+03 -0.11393822084E+04  0.12108304686E+04  0.92998207269E+02 0.  0.
         23    2    4    4    0    0 -0.37483304816E+03 -0.10863455986E+03 -0.33152781377E+03  0.52048846525E+03  0.93253791159E+02 0.  0.
          1    1    3    3  502    0  0.18052128419E+02 -0.36660920622E+02  0.33651044882E+03  0.33898257271E+03  0.00000000000E+00 0. -1.
         -2    1    3    3    0  502  0.55369974688E+02 -0.11627933190E+03  0.35415273815E+03  0.37684330837E+03  0.00000000000E+00 0.  1.
         13    1    5    5    0    0  0.40928261525E+02  0.71368058365E+02 -0.31587578959E+03  0.32641390411E+03  0.00000000000E+00 0.  1.
        -13    1    5    5    0    0  0.26048268353E+03  0.19020675402E+03 -0.82350641879E+03  0.88441656445E+03  0.00000000000E+00 0. -1.
          4    1    6    6  503    0 -0.33755755511E+03 -0.94914956051E+02 -0.32877435913E+03  0.48067299811E+03  0.00000000000E+00 0. -1.
         -4    1    6    6    0  503 -0.37275493050E+02 -0.13719603810E+02 -0.27534546399E+01  0.39815467136E+02  0.00000000000E+00 0.  1.
<mgrwt>
<rscale>  0 0.23194251E+04</rscale>
<asrwt>0</asrwt>
<pdfrwt beam="1">  1        3 0.12822292E+00 0.23194251E+04</pdfrwt>
<pdfrwt beam="2">  1       -4 0.24826090E+00 0.23194251E+04</pdfrwt>
<totfact> 0.64306718E-02</totfact>
</mgrwt>
</event>
<event>
12    5  0.5221187E-008  0.1605637E+04  0.7818608E-02  0.8817093E-01
         -2   -1    0    0    0  501 -0.00000000000E+00  0.00000000000E+00  0.42312904674E+03  0.42312904674E+03  0.00000000000E+00 0.  1.
          1   -1    0    0  501    0  0.00000000000E+00 -0.00000000000E+00 -0.15232166374E+04  0.15232166374E+04  0.00000000000E+00 0. -1.
        -24    2    1    2    0    0 -0.27099964244E+03 -0.21556375546E+03  0.16172759236E+03  0.39057732321E+03  0.80537521702E+02 0.  0.
        254    2    1    2    0    0  0.27099964244E+03  0.21556375546E+03 -0.12618151830E+04  0.15557683609E+04  0.84162289531E+03 0.  0.
         23    2    4    4    0    0  0.32000271030E+03  0.48827802593E+03 -0.65220602579E+03  0.88006153880E+03  0.91205519526E+02 0.  0.
         23    2    4    4    0    0 -0.49003067858E+02 -0.27271427047E+03 -0.60960915721E+03  0.67570682212E+03  0.90454468811E+02 0.  0.
          1    1    3    3  502    0 -0.78087820161E+01 -0.13748810113E+02 -0.83172484141E+01  0.17865706739E+02  0.00000000000E+00 0. -1.
         -2    1    3    3    0  502 -0.26319086043E+03 -0.20181494535E+03  0.17004484077E+03  0.37271161647E+03  0.00000000000E+00 0.  1.
         13    1    5    5    0    0  0.20436665752E+03  0.24645813156E+03 -0.31316834366E+03  0.44786354260E+03  0.00000000000E+00 0. -1.
        -13    1    5    5    0    0  0.11563605278E+03  0.24181989437E+03 -0.33903768214E+03  0.43219799620E+03  0.00000000000E+00 0.  1.
          3    1    6    6  503    0 -0.61176707156E+02 -0.12293582246E+03 -0.34635300320E+03  0.37258047287E+03  0.00000000000E+00 0. -1.
         -3    1    6    6    0  503  0.12173639298E+02 -0.14977844801E+03 -0.26325615401E+03  0.30312634925E+03  0.00000000000E+00 0.  1.
<mgrwt>
<rscale>  0 0.16056366E+04</rscale>
<asrwt>0</asrwt>
<pdfrwt beam="1">  1        1 0.23434102E+00 0.16056366E+04</pdfrwt>
<pdfrwt beam="2">  1       -2 0.65096776E-01 0.16056366E+04</pdfrwt>
<totfact> 0.11545071E+01</totfact>
</mgrwt>
</event>
<event>
12    5  0.5221187E-008  0.1458104E+04  0.7818608E-02  0.8912801E-01
         -2   -1    0    0    0  501 -0.00000000000E+00  0.00000000000E+00  0.38936523402E+03  0.38936523402E+03  0.00000000000E+00 0.  1.
          1   -1    0    0  501    0  0.00000000000E+00 -0.00000000000E+00 -0.13650861091E+04  0.13650861091E+04  0.00000000000E+00 0. -1.
        -24    2    1    2    0    0  0.10918779183E+03 -0.20520180901E+03  0.16320216921E+03  0.29474492916E+03  0.78802721572E+02 0.  0.
        254    2    1    2    0    0 -0.10918779183E+03  0.20520180901E+03 -0.11389230442E+04  0.14597064139E+04  0.88293111725E+03 0.  0.
         23    2    4    4    0    0 -0.30512228667E+03 -0.19598496873E+03 -0.21786616731E+03  0.43248293610E+03  0.89811499097E+02 0.  0.
         23    2    4    4    0    0  0.19593449484E+03  0.40118677773E+03 -0.92105687694E+03  0.10272234778E+04  0.86609156104E+02 0.  0.
          3    1    3    3  502    0  0.10026299744E+03 -0.14662758768E+03  0.85794097370E+02  0.19726364406E+03  0.00000000000E+00 0. -1.
         -4    1    3    3    0  502  0.89247943927E+01 -0.58574221325E+02  0.77408071841E+02  0.97481285101E+02  0.00000000000E+00 0.  1.
         13    1    5    5    0    0 -0.23647086540E+03 -0.18718815211E+03 -0.15551588726E+03  0.33932737240E+03  0.00000000000E+00 0. -1.
        -13    1    5    5    0    0 -0.68651421275E+02 -0.87968166180E+01 -0.62350280052E+02  0.93155563700E+02  0.00000000000E+00 0.  1.
          4    1    6    6  503    0  0.19644540892E+03  0.38871892571E+03 -0.91496373743E+03  0.10133369838E+04  0.00000000000E+00 0. -1.
         -4    1    6    6    0  503 -0.51091407618E+00  0.12467852027E+02 -0.60931395004E+01  0.13886494026E+02  0.00000000000E+00 0.  1.
<mgrwt>
<rscale>  0 0.14581043E+04</rscale>
<asrwt>0</asrwt>
<pdfrwt beam="1">  1        1 0.21001325E+00 0.14581043E+04</pdfrwt>
<pdfrwt beam="2">  1       -2 0.59902343E-01 0.14581043E+04</pdfrwt>
<totfact> 0.17993020E+01</totfact>
</mgrwt>
</event>
<event>
12    5  0.5221187E-008  0.1988944E+04  0.7818608E-02  0.8611807E-01
         -2   -1    0    0    0  501 -0.00000000000E+00  0.00000000000E+00  0.69666892515E+03  0.69666892515E+03  0.00000000000E+00 0.  1.
          1   -1    0    0  501    0  0.00000000000E+00 -0.00000000000E+00 -0.14195765164E+04  0.14195765164E+04  0.00000000000E+00 0. -1.
        -24    2    1    2    0    0  0.69001501728E+03  0.22672884168E+03  0.39211529596E+02  0.73231557323E+03  0.84981545205E+02 0.  0.
        254    2    1    2    0    0 -0.69001501728E+03 -0.22672884168E+03 -0.76211912087E+03  0.13839298683E+04  0.89828148950E+03 0.  0.
         23    2    4    4    0    0 -0.30922546400E+03 -0.55173017009E+03 -0.34480503481E+03  0.72570534430E+03  0.87927052377E+02 0.  0.
         23    2    4    4    0    0 -0.38078955328E+03  0.32500132841E+03 -0.41731408606E+03  0.65822452404E+03  0.92097395592E+02 0.  0.
          1    1    3    3  502    0  0.14737316452E+03  0.85451264265E+02  0.15991443518E+02  0.17110375347E+03  0.00000000000E+00 0. -1.
         -2    1    3    3    0  502  0.54264185275E+03  0.14127757741E+03  0.23220086078E+02  0.56121181976E+03  0.00000000000E+00 0.  1.
         13    1    5    5    0    0  0.45935744318E+01 -0.15821604763E+02 -0.16153843633E+02  0.23073161193E+02  0.00000000000E+00 0. -1.
        -13    1    5    5    0    0 -0.31381903843E+03 -0.53590856533E+03 -0.32865119118E+03  0.70263218311E+03  0.00000000000E+00 0.  1.
          1    1    6    6  503    0 -0.16851878556E+03  0.13509011146E+03 -0.12252426176E+03  0.24831454654E+03  0.00000000000E+00 0. -1.
         -1    1    6    6    0  503 -0.21227076772E+03  0.18991121695E+03 -0.29478982430E+03  0.40990997751E+03  0.00000000000E+00 0.  1.
<mgrwt>
<rscale>  0 0.19889443E+04</rscale>
<asrwt>0</asrwt>
<pdfrwt beam="1">  1        1 0.21839639E+00 0.19889443E+04</pdfrwt>
<pdfrwt beam="2">  1       -2 0.10717983E+00 0.19889443E+04</pdfrwt>
<totfact> 0.42435804E+00</totfact>
</mgrwt>
</event>
<event>
12    5  0.5221187E-008  0.2072841E+04  0.7818608E-02  0.8573303E-01
          1   -1    0    0  501    0  0.00000000000E+00  0.00000000000E+00  0.21828687073E+04  0.21828687073E+04  0.00000000000E+00 0. -1.
         -2   -1    0    0    0  501 -0.00000000000E+00 -0.00000000000E+00 -0.49208964547E+03  0.49208964547E+03  0.00000000000E+00 0.  1.
        -24    2    1    2    0    0  0.25286616726E+03  0.66669635548E+03  0.12579602807E+04  0.14480705517E+04  0.77581736954E+02 0.  0.
        254    2    1    2    0    0 -0.25286616726E+03 -0.66669635548E+03  0.43281878114E+03  0.12268878011E+04  0.89972009546E+03 0.  0.
         23    2    4    4    0    0  0.17963197407E+03 -0.20323582798E+03 -0.18124692712E+03  0.33960798052E+03  0.94396419222E+02 0.  0.
         23    2    4    4    0    0 -0.43249814132E+03 -0.46346052750E+03  0.61406570826E+03  0.88727982056E+03  0.91315295037E+02 0.  0.
          1    1    3    3  502    0  0.18124000201E+03  0.54480151083E+03  0.10474281501E+04  0.11944715795E+04  0.00000000000E+00 0. -1.
         -2    1    3    3    0  502  0.71626165251E+02  0.12189484465E+03  0.21053213064E+03  0.25359897227E+03  0.00000000000E+00 0.  1.
         13    1    5    5    0    0  0.81219503070E+01 -0.58877581011E+02 -0.61205380664E+02  0.85314912206E+02  0.00000000000E+00 0. -1.
        -13    1    5    5    0    0  0.17151002376E+03 -0.14435824697E+03 -0.12004154646E+03  0.25429306832E+03  0.00000000000E+00 0.  1.
          3    1    6    6  503    0  0.42376901043E+01 -0.92550741762E+01  0.12478361741E+02  0.16103537722E+02  0.00000000000E+00 0. -1.
         -3    1    6    6    0  503 -0.43673583143E+03 -0.45420545333E+03  0.60158734652E+03  0.87117628284E+03  0.00000000000E+00 0.  1.
<mgrwt>
<rscale>  0 0.20728406E+04</rscale>
<asrwt>0</asrwt>
<pdfrwt beam="1">  1        1 0.33582595E+00 0.20728406E+04</pdfrwt>
<pdfrwt beam="2">  1       -2 0.75706100E-01 0.20728406E+04</pdfrwt>
<totfact> 0.28341681E+00</totfact>
</mgrwt>
</event>
<event>
12    5  0.5221187E-008  0.2202882E+04  0.7818608E-02  0.8517230E-01
         -2   -1    0    0    0  501 -0.00000000000E+00  0.00000000000E+00  0.56540233769E+03  0.56540233769E+03  0.00000000000E+00 0.  1.
          1   -1    0    0  501    0  0.00000000000E+00 -0.00000000000E+00 -0.21456791399E+04  0.21456791399E+04  0.00000000000E+00 0. -1.
        -24    2    1    2    0    0  0.73383045872E+03  0.23855498678E+03 -0.46857821426E+02  0.77711457775E+03  0.79345999661E+02 0.  0.
        254    2    1    2    0    0 -0.73383045872E+03 -0.23855498678E+03 -0.15334189808E+04  0.19339668999E+04  0.89075169110E+03 0.  0.
         23    2    4    4    0    0  0.13297024124E+03 -0.93109679676E+02 -0.29131044888E+02  0.18897580037E+03  0.92264499371E+02 0.  0.
         23    2    4    4    0    0 -0.86680069996E+03 -0.14544530710E+03 -0.15042879359E+04  0.17449910995E+04  0.98050763978E+02 0.  0.
          1    1    3    3  502    0  0.45005018543E+03  0.18353791220E+03 -0.44152747057E+02  0.48803770314E+03  0.00000000000E+00 0. -1.
         -2    1    3    3    0  502  0.28378027329E+03  0.55017074583E+02 -0.27050743687E+01  0.28907687461E+03  0.00000000000E+00 0.  1.
         13    1    5    5    0    0 -0.95492999830E+01 -0.14595595498E+02  0.11964496738E+02  0.21151116289E+02  0.00000000000E+00 0.  1.
        -13    1    5    5    0    0  0.14251954123E+03 -0.78514084178E+02 -0.41095541626E+02  0.16782468408E+03  0.00000000000E+00 0. -1.
          3    1    6    6  503    0 -0.80634439791E+03 -0.11047037782E+03 -0.13663865340E+04  0.15904110012E+04  0.00000000000E+00 0. -1.
         -3    1    6    6    0  503 -0.60456302049E+02 -0.34974929289E+02 -0.13790140196E+03  0.15458009833E+03  0.00000000000E+00 0.  1.
<mgrwt>
<rscale>  0 0.22028818E+04</rscale>
<asrwt>0</asrwt>
<pdfrwt beam="1">  1        1 0.33010449E+00 0.22028818E+04</pdfrwt>
<pdfrwt beam="2">  1       -2 0.86984974E-01 0.22028818E+04</pdfrwt>
<totfact> 0.21712873E+00</totfact>
</mgrwt>
</event>
<event>
12    5  0.5221187E-008  0.2608118E+04  0.7818608E-02  0.8365449E-01
          1   -1    0    0  501    0  0.00000000000E+00  0.00000000000E+00  0.83552556064E+03  0.83552556064E+03  0.00000000000E+00 0. -1.
         -2   -1    0    0    0  501 -0.00000000000E+00 -0.00000000000E+00 -0.20353290008E+04  0.20353290008E+04  0.00000000000E+00 0.  1.
        -24    2    1    2    0    0  0.45737146091E+03 -0.10473918415E+04 -0.47431487045E+03  0.12400892070E+04  0.81414508133E+02 0.  0.
        254    2    1    2    0    0 -0.45737146091E+03  0.10473918415E+04 -0.72548856972E+03  0.16307653544E+04  0.90930943773E+03 0.  0.
         23    2    4    4    0    0 -0.50756907340E+02  0.84504130195E+03 -0.79240034654E+03  0.11633211995E+04  0.93524532962E+02 0.  0.
         23    2    4    4    0    0 -0.40661455357E+03  0.20235053955E+03  0.66911776823E+02  0.46744415498E+03  0.88009750124E+02 0.  0.
          1    1    3    3  502    0  0.31072017651E+03 -0.78207234316E+03 -0.32443605528E+03  0.90191071176E+03  0.00000000000E+00 0. -1.
         -2    1    3    3    0  502  0.14665128440E+03 -0.26531949833E+03 -0.14987881517E+03  0.33817849525E+03  0.00000000000E+00 0.  1.
         13    1    5    5    0    0 -0.51850089367E+02  0.84746716451E+03 -0.78978066566E+03  0.11595872225E+04  0.00000000000E+00 0.  1.
        -13    1    5    5    0    0  0.10931820267E+01 -0.24258625644E+01 -0.26196808771E+01  0.37339769714E+01  0.00000000000E+00 0. -1.
          4    1    6    6  503    0 -0.38646764422E+02  0.11564005886E+02  0.31996862900E+02  0.51488813037E+02  0.00000000000E+00 0. -1.
         -4    1    6    6    0  503 -0.36796778915E+03  0.19078653366E+03  0.34914913922E+02  0.41595534194E+03  0.00000000000E+00 0.  1.
<mgrwt>
<rscale>  0 0.26081176E+04</rscale>
<asrwt>0</asrwt>
<pdfrwt beam="1">  1        1 0.12854240E+00 0.26081176E+04</pdfrwt>
<pdfrwt beam="2">  1       -2 0.31312754E+00 0.26081176E+04</pdfrwt>
<totfact> 0.41983932E-01</totfact>
</mgrwt>
</event>
<event>
12    5  0.5221187E-008  0.1147821E+04  0.7818608E-02  0.9159796E-01
         -2   -1    0    0    0  501 -0.00000000000E+00  0.00000000000E+00  0.65840803431E+03  0.65840803431E+03  0.00000000000E+00 0.  1.
          1   -1    0    0  501    0  0.00000000000E+00 -0.00000000000E+00 -0.50025715436E+03  0.50025715436E+03  0.00000000000E+00 0. -1.
        -24    2    1    2    0    0  0.14142585948E+02  0.13847438478E+03  0.20166400776E+03  0.25869369143E+03  0.82939049808E+02 0.  0.
        254    2    1    2    0    0 -0.14142585948E+02 -0.13847438478E+03 -0.43513127808E+02  0.89997149724E+03  0.88807664961E+03 0.  0.
         23    2    4    4    0    0 -0.84016146714E+02 -0.48528140051E+03  0.93852539374E+02  0.50871623428E+03  0.86180956567E+02 0.  0.
         23    2    4    4    0    0  0.69873560765E+02  0.34680701573E+03 -0.13736566718E+03  0.39125526297E+03  0.95152160371E+02 0.  0.
          1    1    3    3  502    0  0.27864873127E+02  0.35609817614E+02  0.19922609052E+02  0.49410733816E+02  0.00000000000E+00 0. -1.
         -2    1    3    3    0  502 -0.13722287178E+02  0.10286456717E+03  0.18174139871E+03  0.20928295762E+03  0.00000000000E+00 0.  1.
         13    1    5    5    0    0  0.85062271171E+01 -0.16497466622E+03  0.13345483042E+02  0.16573200751E+03  0.00000000000E+00 0.  1.
        -13    1    5    5    0    0 -0.92522373831E+02 -0.32030673429E+03  0.80507056332E+02  0.34298422677E+03  0.00000000000E+00 0. -1.
          1    1    6    6  503    0  0.11161290607E+02  0.26102025835E+03 -0.84182658473E+02  0.27448655644E+03  0.00000000000E+00 0. -1.
         -1    1    6    6    0  503  0.58712270158E+02  0.85786757385E+02 -0.53183008709E+02  0.11676870653E+03  0.00000000000E+00 0.  1.
<mgrwt>
<rscale>  0 0.11478211E+04</rscale>
<asrwt>0</asrwt>
<pdfrwt beam="1">  1        1 0.76962639E-01 0.11478211E+04</pdfrwt>
<pdfrwt beam="2">  1       -2 0.10129354E+00 0.11478211E+04</pdfrwt>
<totfact> 0.30825291E+01</totfact>
</mgrwt>
</event>
<event>
12    5  0.5221187E-008  0.1823739E+04  0.7818608E-02  0.8693776E-01
         -2   -1    0    0    0  501 -0.00000000000E+00  0.00000000000E+00  0.11265821139E+04  0.11265821139E+04  0.00000000000E+00 0.  1.
          1   -1    0    0  501    0  0.00000000000E+00 -0.00000000000E+00 -0.73807869692E+03  0.73807869692E+03  0.00000000000E+00 0. -1.
        -24    2    1    2    0    0 -0.14202945731E+03 -0.20629098613E+03  0.81160375678E+03  0.85309431413E+03  0.79629850408E+02 0.  0.
        254    2    1    2    0    0  0.14202945731E+03  0.20629098613E+03 -0.42310033980E+03  0.10115664967E+04  0.88403876724E+03 0.  0.
         23    2    4    4    0    0  0.50681887263E+03  0.15661050981E+03 -0.22003753349E+03  0.58150552372E+03  0.91323253001E+02 0.  0.
         23    2    4    4    0    0 -0.36478941531E+03  0.49680476311E+02 -0.20306280631E+03  0.43006097297E+03  0.90434893205E+02 0.  0.
          3    1    3    3  502    0 -0.63827772553E+00  0.22588475884E+01 -0.82775141708E+00  0.24889683186E+01  0.00000000000E+00 0. -1.
         -4    1    3    3    0  502 -0.14139117958E+03 -0.20854983371E+03  0.81243150820E+03  0.85060534581E+03  0.00000000000E+00 0.  1.
         13    1    5    5    0    0  0.32104951832E+02  0.77802574233E+01  0.83741703875E+01  0.34079129498E+02  0.00000000000E+00 0.  1.
        -13    1    5    5    0    0  0.47471392079E+03  0.14883025239E+03 -0.22841170388E+03  0.54742639422E+03  0.00000000000E+00 0. -1.
          3    1    6    6  503    0 -0.34367457554E+03  0.44126712343E+02 -0.15973355999E+03  0.38154185983E+03  0.00000000000E+00 0. -1.
         -3    1    6    6    0  503 -0.21114839776E+02  0.55537639686E+01 -0.43329246319E+02  0.48519113137E+02  0.00000000000E+00 0.  1.
<mgrwt>
<rscale>  0 0.18237393E+04</rscale>
<asrwt>0</asrwt>
<pdfrwt beam="1">  1        1 0.11355057E+00 0.18237393E+04</pdfrwt>
<pdfrwt beam="2">  1       -2 0.17332033E+00 0.18237393E+04</pdfrwt>
<totfact> 0.41794922E+00</totfact>
</mgrwt>
</event>
<event>
12    5  0.5221187E-008  0.1335044E+04  0.7818608E-02  0.9002227E-01
          1   -1    0    0  501    0  0.00000000000E+00  0.00000000000E+00  0.13948760471E+04  0.13948760471E+04  0.00000000000E+00 0. -1.
         -2   -1    0    0    0  501 -0.00000000000E+00 -0.00000000000E+00 -0.31944469045E+03  0.31944469045E+03  0.00000000000E+00 0.  1.
        -24    2    1    2    0    0 -0.46042196369E+02  0.72069140147E+02  0.73444755094E+03  0.74370867299E+03  0.79846981047E+02 0.  0.
        254    2    1    2    0    0  0.46042196369E+02 -0.72069140147E+02  0.34098380568E+03  0.97061206454E+03  0.90471209746E+03 0.  0.
         23    2    4    4    0    0  0.39590615798E+03  0.19892135946E+03  0.22134368544E+03  0.50363194173E+03  0.91327501167E+02 0.  0.
         23    2    4    4    0    0 -0.34986396161E+03 -0.27099049961E+03  0.11964012024E+03  0.46698012282E+03  0.88972098011E+02 0.  0.
          1    1    3    3  502    0 -0.51843004787E+02  0.79499988143E+01  0.30980016588E+03  0.31420859696E+03  0.00000000000E+00 0. -1.
         -2    1    3    3    0  502  0.58008084181E+01  0.64119141333E+02  0.42464738507E+03  0.42950007603E+03  0.00000000000E+00 0.  1.
         13    1    5    5    0    0  0.25982477921E+03  0.15305627980E+03  0.19070766451E+03  0.35679763730E+03  0.00000000000E+00 0.  1.
        -13    1    5    5    0    0  0.13608137876E+03  0.45865079661E+02  0.30636020931E+02  0.14683430443E+03  0.00000000000E+00 0. -1.
          1    1    6    6  503    0 -0.51012404380E+02 -0.51103198643E+01  0.17045537738E+02  0.54027133243E+02  0.00000000000E+00 0. -1.
         -1    1    6    6    0  503 -0.29885155723E+03 -0.26588017974E+03  0.10259458250E+03  0.41295298957E+03  0.00000000000E+00 0.  1.
<mgrwt>
<rscale>  0 0.13350442E+04</rscale>
<asrwt>0</asrwt>
<pdfrwt beam="1">  1        1 0.21459631E+00 0.13350442E+04</pdfrwt>
<pdfrwt beam="2">  1       -2 0.49145338E-01 0.13350442E+04</pdfrwt>
<totfact> 0.26103854E+01</totfact>
</mgrwt>
</event>
<event>
12    5  0.5221187E-008  0.2503390E+04  0.7818608E-02  0.8401779E-01
          1   -1    0    0  501    0  0.00000000000E+00  0.00000000000E+00  0.17760443386E+04  0.17760443386E+04  0.00000000000E+00 0. -1.
         -2   -1    0    0    0  501 -0.00000000000E+00 -0.00000000000E+00 -0.88215185104E+03  0.88215185104E+03  0.00000000000E+00 0.  1.
        -24    2    1    2    0    0  0.69170417464E+03  0.50137510403E+03  0.10924140319E+04  0.13891522533E+04  0.80894409678E+02 0.  0.
        254    2    1    2    0    0 -0.69170417464E+03 -0.50137510403E+03 -0.19852154430E+03  0.12690439364E+04  0.91718594015E+03 0.  0.
         23    2    4    4    0    0 -0.46921409509E+03  0.17354846645E+03  0.51462875205E+02  0.51078490106E+03  0.89285219327E+02 0.  0.
         23    2    4    4    0    0 -0.22249007955E+03 -0.67492357048E+03 -0.24998441951E+03  0.75825903534E+03  0.86260612051E+02 0.  0.
          3    1    3    3  502    0  0.62258049431E+03  0.42851725788E+03  0.93267576416E+03  0.12004655735E+04  0.00000000000E+00 0. -1.
         -4    1    3    3    0  502  0.69123680330E+02  0.72857846151E+02  0.15973826774E+03  0.18868667973E+03  0.00000000000E+00 0.  1.
         13    1    5    5    0    0 -0.26049638012E+03  0.10854646669E+03 -0.14101888158E+02  0.28255895444E+03  0.00000000000E+00 0.  1.
        -13    1    5    5    0    0 -0.20871771497E+03  0.65001999761E+02  0.65564763364E+02  0.22822594662E+03  0.00000000000E+00 0. -1.
          1    1    6    6  503    0 -0.17378662251E+03 -0.40532888542E+03 -0.17254023801E+03  0.47356459881E+03  0.00000000000E+00 0. -1.
         -1    1    6    6    0  503 -0.48703457042E+02 -0.26959468506E+03 -0.77444181498E+02  0.28469443653E+03  0.00000000000E+00 0.  1.
<mgrwt>
<rscale>  0 0.25033903E+04</rscale>
<asrwt>0</asrwt>
<pdfrwt beam="1">  1        1 0.27323759E+00 0.25033903E+04</pdfrwt>
<pdfrwt beam="2">  1       -2 0.13571567E+00 0.25033903E+04</pdfrwt>
<totfact> 0.12845328E+00</totfact>
</mgrwt>
</event>
<event>
12    5  0.5221187E-008  0.1057574E+04  0.7818608E-02  0.9247559E-01
          1   -1    0    0  501    0  0.00000000000E+00  0.00000000000E+00  0.20245283041E+03  0.20245283041E+03  0.00000000000E+00 0. -1.
         -2   -1    0    0    0  501 -0.00000000000E+00 -0.00000000000E+00 -0.13811406662E+04  0.13811406662E+04  0.00000000000E+00 0.  1.
        -24    2    1    2    0    0  0.62907852144E+00  0.98043477094E+02 -0.57915214563E+02  0.14083920892E+03  0.82876966355E+02 0.  0.
        254    2    1    2    0    0 -0.62907852144E+00 -0.98043477094E+02 -0.11207726212E+04  0.14427542877E+04  0.90321412022E+03 0.  0.
         23    2    4    4    0    0  0.32474225131E+03  0.97555116400E+02 -0.12689585144E+03  0.37515131178E+03  0.98292517973E+02 0.  0.
         23    2    4    4    0    0 -0.32537132984E+03 -0.19559859349E+03 -0.99387676976E+03  0.10676029759E+04  0.88655335903E+02 0.  0.
          3    1    3    3  502    0  0.42791096436E+01 -0.72324954130E+01 -0.30995751678E+02  0.32114737914E+02  0.00000000000E+00 0. -1.
         -4    1    3    3    0  502 -0.36500311222E+01  0.10527597251E+03 -0.26919462885E+02  0.10872447101E+03  0.00000000000E+00 0.  1.
         13    1    5    5    0    0  0.67986760291E+00 -0.10750199442E+02 -0.78355831832E+01  0.13320111554E+02  0.00000000000E+00 0. -1.
        -13    1    5    5    0    0  0.32406238371E+03  0.10830531584E+03 -0.11906026826E+03  0.36183120022E+03  0.00000000000E+00 0.  1.
          1    1    6    6  503    0  0.12363017729E+01  0.50416125084E+01 -0.58199375382E+01  0.77985878021E+01  0.00000000000E+00 0. -1.
         -1    1    6    6    0  503 -0.32660763161E+03 -0.20064020600E+03 -0.98805683222E+03  0.10598043881E+04  0.00000000000E+00 0.  1.
<mgrwt>
<rscale>  0 0.10575743E+04</rscale>
<asrwt>0</asrwt>
<pdfrwt beam="1">  1        1 0.31146589E-01 0.10575743E+04</pdfrwt>
<pdfrwt beam="2">  1       -2 0.21248318E+00 0.10575743E+04</pdfrwt>
<totfact> 0.14086937E+01</totfact>
</mgrwt>
</event>
<event>
12    5  0.5221187E-008  0.1449849E+04  0.7818608E-02  0.8918505E-01
         -2   -1    0    0    0  501 -0.00000000000E+00  0.00000000000E+00  0.28643155133E+03  0.28643155133E+03  0.00000000000E+00 0.  1.
          1   -1    0    0  501    0  0.00000000000E+00 -0.00000000000E+00 -0.18346974924E+04  0.18346974924E+04  0.00000000000E+00 0. -1.
        -24    2    1    2    0    0 -0.19934196475E+03  0.29932489751E+03 -0.84593428256E+03  0.92282439911E+03  0.81654442719E+02 0.  0.
        254    2    1    2    0    0  0.19934196475E+03 -0.29932489751E+03 -0.70233165853E+03  0.11983046446E+04  0.90184901708E+03 0.  0.
         23    2    4    4    0    0  0.53950954686E+03 -0.17370897010E+03 -0.29246263753E+03  0.64360693267E+03  0.86314147071E+02 0.  0.
         23    2    4    4    0    0 -0.34016758212E+03 -0.12561592741E+03 -0.40986902100E+03  0.55469771196E+03  0.90573683481E+02 0.  0.
          3    1    3    3  502    0 -0.17888856500E+03  0.22691505749E+03 -0.72416522216E+03  0.77968380193E+03  0.00000000000E+00 0. -1.
         -2    1    3    3    0  502 -0.20453399751E+02  0.72409840014E+02 -0.12176906039E+03  0.14314059718E+03  0.00000000000E+00 0.  1.
         13    1    5    5    0    0  0.30914359645E+03 -0.13833056979E+03 -0.19649889185E+03  0.39155705110E+03  0.00000000000E+00 0.  1.
        -13    1    5    5    0    0  0.23036595041E+03 -0.35378400304E+02 -0.95963745679E+02  0.25204988157E+03  0.00000000000E+00 0. -1.
          4    1    6    6  503    0 -0.24262864171E+03 -0.12648589621E+03 -0.27200738660E+03  0.38581777834E+03  0.00000000000E+00 0.  1.
         -4    1    6    6    0  503 -0.97538940401E+02  0.86996879828E+00 -0.13786163440E+03  0.16887993362E+03  0.00000000000E+00 0. -1.
<mgrwt>
<rscale>  0 0.14498486E+04</rscale>
<asrwt>0</asrwt>
<pdfrwt beam="1">  1        1 0.28226115E+00 0.14498486E+04</pdfrwt>
<pdfrwt beam="2">  1       -2 0.44066393E-01 0.14498486E+04</pdfrwt>
<totfact> 0.16071075E+01</totfact>
</mgrwt>
</event>
<event>
12    5  0.5221187E-008  0.2323686E+04  0.7818608E-02  0.8468640E-01
          1   -1    0    0  501    0  0.00000000000E+00  0.00000000000E+00  0.11835805452E+04  0.11835805452E+04  0.00000000000E+00 0. -1.
         -2   -1    0    0    0  501 -0.00000000000E+00 -0.00000000000E+00 -0.11405046782E+04  0.11405046782E+04  0.00000000000E+00 0.  1.
        -24    2    1    2    0    0 -0.13697912465E+03 -0.43283453530E+03 -0.85149290586E+03  0.96810117480E+03  0.77914699433E+02 0.  0.
        254    2    1    2    0    0  0.13697912465E+03  0.43283453530E+03  0.89456877284E+03  0.13559840487E+04  0.91232145395E+03 0.  0.
         23    2    4    4    0    0  0.38842309948E+03  0.24104353260E+03  0.72300408028E+02  0.47054813229E+03  0.84933544510E+02 0.  0.
         23    2    4    4    0    0 -0.25144397483E+03  0.19179100270E+03  0.82226836482E+03  0.88543591637E+03  0.88677150500E+02 0.  0.
          1    1    3    3  502    0  0.44179631564E+01 -0.36300330682E+01 -0.29801766586E+02  0.30345359286E+02  0.00000000000E+00 0. -1.
         -4    1    3    3    0  502 -0.14139708780E+03 -0.42920450223E+03 -0.82169113928E+03  0.93775581552E+03  0.00000000000E+00 0.  1.
         13    1    5    5    0    0  0.37613143403E+03  0.22841528229E+03  0.85809601892E+02  0.44834326651E+03  0.00000000000E+00 0.  1.
        -13    1    5    5    0    0  0.12291665450E+02  0.12628250305E+02 -0.13509193864E+02  0.22204865777E+02  0.00000000000E+00 0. -1.
          3    1    6    6  503    0 -0.33472792129E+02 -0.21742347413E+00  0.48413852431E+02  0.58858951682E+02  0.00000000000E+00 0. -1.
         -3    1    6    6    0  503 -0.21797118271E+03  0.19200842618E+03  0.77385451238E+03  0.82657696469E+03  0.00000000000E+00 0.  1.
<mgrwt>
<rscale>  0 0.23236860E+04</rscale>
<asrwt>0</asrwt>
<pdfrwt beam="1">  1        1 0.18208931E+00 0.23236860E+04</pdfrwt>
<pdfrwt beam="2">  1       -2 0.17546226E+00 0.23236860E+04</pdfrwt>
<totfact> 0.16954717E+00</totfact>
</mgrwt>
</event>
<event>
12    5  0.5221187E-008  0.2627029E+04  0.7818608E-02  0.8359078E-01
         -2   -1    0    0    0  501 -0.00000000000E+00  0.00000000000E+00  0.86396016913E+03  0.86396016913E+03  0.00000000000E+00 0.  1.
          1   -1    0    0  501    0  0.00000000000E+00 -0.00000000000E+00 -0.19969905641E+04  0.19969905641E+04  0.00000000000E+00 0. -1.
        -24    2    1    2    0    0 -0.12680668926E+02 -0.72828657210E+02 -0.17573064729E+04  0.17607087371E+04  0.80649888148E+02 0.  0.
        254    2    1    2    0    0  0.12680668926E+02  0.72828657210E+02  0.62427607797E+03  0.11002419961E+04  0.90296567808E+03 0.  0.
         23    2    4    4    0    0  0.39338126086E+03 -0.11285776294E+03  0.12088904435E+03  0.43623032984E+03  0.90537553412E+02 0.  0.
         23    2    4    4    0    0 -0.38070059193E+03  0.18568642015E+03  0.50338703363E+03  0.66401166627E+03  0.90003333226E+02 0.  0.
          3    1    3    3  502    0  0.16458732423E+02 -0.77135243390E+02 -0.11617156460E+04  0.11643899595E+04  0.00000000000E+00 0. -1.
         -4    1    3    3    0  502 -0.29139401348E+02  0.43065861804E+01 -0.59559082694E+03  0.59631877761E+03  0.00000000000E+00 0.  1.
         13    1    5    5    0    0  0.43154370105E+02 -0.24368817425E+02 -0.12576095197E+02  0.51130197460E+02  0.00000000000E+00 0. -1.
        -13    1    5    5    0    0  0.35022689075E+03 -0.88488945516E+02  0.13346513954E+03  0.38510013238E+03  0.00000000000E+00 0.  1.
          3    1    6    6  503    0 -0.88049103852E+02  0.45731788360E+02  0.18247179766E+03  0.20770170461E+03  0.00000000000E+00 0. -1.
         -3    1    6    6    0  503 -0.29265148808E+03  0.13995463179E+03  0.32091523596E+03  0.45630996166E+03  0.00000000000E+00 0.  1.
<mgrwt>
<rscale>  0 0.26270290E+04</rscale>
<asrwt>0</asrwt>
<pdfrwt beam="1">  1        1 0.30722932E+00 0.26270290E+04</pdfrwt>
<pdfrwt beam="2">  1       -2 0.13291695E+00 0.26270290E+04</pdfrwt>
<totfact> 0.94909008E-01</totfact>
</mgrwt>
</event>
<event>
12    5  0.5221187E-008  0.1260286E+04  0.7818608E-02  0.9061666E-01
          1   -1    0    0  501    0  0.00000000000E+00  0.00000000000E+00  0.10087594986E+04  0.10087594986E+04  0.00000000000E+00 0. -1.
         -2   -1    0    0    0  501 -0.00000000000E+00 -0.00000000000E+00 -0.39363212625E+03  0.39363212625E+03  0.00000000000E+00 0.  1.
        -24    2    1    2    0    0  0.20033576549E+03  0.22546409735E+03  0.17581817299E+03  0.35800676187E+03  0.79299013029E+02 0.  0.
        254    2    1    2    0    0 -0.20033576549E+03 -0.22546409735E+03  0.43930919938E+03  0.10443848630E+04  0.89820860119E+03 0.  0.
         23    2    4    4    0    0 -0.36730082716E+03  0.17220740597E+03 -0.82034367037E+01  0.41612286413E+03  0.92334464719E+02 0.  0.
         23    2    4    4    0    0  0.16696506167E+03 -0.39767150331E+03  0.44751263608E+03  0.62826199885E+03  0.91791194481E+02 0.  0.
          1    1    3    3  502    0  0.57351899079E+02  0.65349053943E+02  0.94609878322E+02  0.12849423433E+03  0.00000000000E+00 0. -1.
         -2    1    3    3    0  502  0.14298386641E+03  0.16011504340E+03  0.81208294665E+02  0.22951252755E+03  0.00000000000E+00 0.  1.
         13    1    5    5    0    0 -0.35532768115E+03  0.18267553478E+03 -0.12211950957E+02  0.39972145770E+03  0.00000000000E+00 0.  1.
        -13    1    5    5    0    0 -0.11973146011E+02 -0.10468128817E+02  0.40085142537E+01  0.16401406429E+02  0.00000000000E+00 0. -1.
          1    1    6    6  503    0  0.59092382979E+02 -0.62310350647E+02  0.11760361323E+03  0.14561970804E+03  0.00000000000E+00 0. -1.
         -1    1    6    6    0  503  0.10787267869E+03 -0.33536115267E+03  0.32990902285E+03  0.48264229082E+03  0.00000000000E+00 0.  1.
<mgrwt>
<rscale>  0 0.12602859E+04</rscale>
<asrwt>0</asrwt>
<pdfrwt beam="1">  1        1 0.15519377E+00 0.12602859E+04</pdfrwt>
<pdfrwt beam="2">  1       -2 0.60558789E-01 0.12602859E+04</pdfrwt>
<totfact> 0.32678792E+01</totfact>
</mgrwt>
</event>
<event>
12    5  0.5221187E-008  0.2246586E+04  0.7818608E-02  0.8499285E-01
         -2   -1    0    0    0  501 -0.00000000000E+00  0.00000000000E+00  0.53602298506E+03  0.53602298506E+03  0.00000000000E+00 0.  1.
          1   -1    0    0  501    0  0.00000000000E+00 -0.00000000000E+00 -0.23539788773E+04  0.23539788773E+04  0.00000000000E+00 0. -1.
        -24    2    1    2    0    0  0.81123805802E+02 -0.27239462990E+03  0.38966018330E+03  0.48885551707E+03  0.79779394872E+02 0.  0.
        254    2    1    2    0    0 -0.81123805802E+02  0.27239462990E+03 -0.22076160755E+04  0.24011463453E+04  0.90064150930E+03 0.  0.
         23    2    4    4    0    0  0.21704713075E+03 -0.24161621031E+03 -0.91897133680E+03  0.97917114158E+03  0.93701422568E+02 0.  0.
         23    2    4    4    0    0 -0.29817093655E+03  0.51401084021E+03 -0.12886447387E+04  0.14219752037E+04  0.91077802125E+02 0.  0.
          3    1    3    3  502    0  0.20095073902E+01 -0.67461514490E+02  0.14566660138E+03  0.16054237078E+03  0.00000000000E+00 0. -1.
         -4    1    3    3    0  502  0.79114298412E+02 -0.20493311541E+03  0.24399358192E+03  0.32831314629E+03  0.00000000000E+00 0.  1.
         13    1    5    5    0    0  0.83003435278E+02 -0.16225210346E+03 -0.49879517520E+03  0.53104796596E+03  0.00000000000E+00 0. -1.
        -13    1    5    5    0    0  0.13404369547E+03 -0.79364106844E+02 -0.42017616160E+03  0.44812317562E+03  0.00000000000E+00 0.  1.
          3    1    6    6  503    0 -0.29556303683E+03  0.49560523868E+03 -0.12729924854E+04  0.13976737564E+04  0.00000000000E+00 0. -1.
         -3    1    6    6    0  503 -0.26078997220E+01  0.18405601528E+02 -0.15652253335E+02  0.24301447344E+02  0.00000000000E+00 0.  1.
<mgrwt>
<rscale>  0 0.22465857E+04</rscale>
<asrwt>0</asrwt>
<pdfrwt beam="1">  1        1 0.36215060E+00 0.22465857E+04</pdfrwt>
<pdfrwt beam="2">  1       -2 0.82465074E-01 0.22465857E+04</pdfrwt>
<totfact> 0.17599149E+00</totfact>
</mgrwt>
</event>
<event>
12    5  0.5221187E-008  0.1497248E+04  0.7818608E-02  0.8886285E-01
          1   -1    0    0  501    0  0.00000000000E+00  0.00000000000E+00  0.40603108056E+03  0.40603108056E+03  0.00000000000E+00 0. -1.
         -2   -1    0    0    0  501 -0.00000000000E+00 -0.00000000000E+00 -0.13802834399E+04  0.13802834399E+04  0.00000000000E+00 0.  1.
        -24    2    1    2    0    0  0.46340707845E+03  0.67747301224E+02 -0.23882976478E+03  0.53196129862E+03  0.81285604526E+02 0.  0.
        254    2    1    2    0    0 -0.46340707845E+03 -0.67747301224E+02 -0.73542259453E+03  0.12543532218E+04  0.90178700108E+03 0.  0.
         23    2    4    4    0    0 -0.71944991436E+03 -0.35138833325E+02 -0.63274009634E+03  0.96313997898E+03  0.91845918303E+02 0.  0.
         23    2    4    4    0    0  0.25604283591E+03 -0.32608467900E+02 -0.10268249818E+03  0.29121324282E+03  0.87408302582E+02 0.  0.
          1    1    3    3  502    0  0.41123629553E+03  0.46998827538E+02 -0.18227630770E+03  0.45227075176E+03  0.00000000000E+00 0. -1.
         -2    1    3    3    0  502  0.52170782924E+02  0.20748473687E+02 -0.56553457078E+02  0.79690546859E+02  0.00000000000E+00 0.  1.
         13    1    5    5    0    0 -0.67639182642E+03 -0.29032324379E+02 -0.61951132528E+03  0.91768352979E+03  0.00000000000E+00 0.  1.
        -13    1    5    5    0    0 -0.43058087944E+02 -0.61065089455E+01 -0.13228771062E+02  0.45456449188E+02  0.00000000000E+00 0. -1.
          1    1    6    6  503    0 -0.26714855947E+01  0.72501552595E+00 -0.16145083816E+02  0.16380665867E+02  0.00000000000E+00 0. -1.
         -1    1    6    6    0  503  0.25871432150E+03 -0.33333483426E+02 -0.86537414368E+02  0.27483257695E+03  0.00000000000E+00 0.  1.
<mgrwt>
<rscale>  0 0.14972481E+04</rscale>
<asrwt>0</asrwt>
<pdfrwt beam="1">  1        1 0.62466319E-01 0.14972481E+04</pdfrwt>
<pdfrwt beam="2">  1       -2 0.21235130E+00 0.14972481E+04</pdfrwt>
<totfact> 0.54962351E+00</totfact>
</mgrwt>
</event>
<event>
12    5  0.5221187E-008  0.2062462E+04  0.7818608E-02  0.8577962E-01
         -2   -1    0    0    0  501 -0.00000000000E+00  0.00000000000E+00  0.93392285764E+03  0.93392285764E+03  0.00000000000E+00 0.  1.
          1   -1    0    0  501    0  0.00000000000E+00 -0.00000000000E+00 -0.11386784531E+04  0.11386784531E+04  0.00000000000E+00 0. -1.
        -24    2    1    2    0    0  0.25120164902E+02  0.80479692308E+03  0.48140276728E+02  0.81061725484E+03  0.80335157435E+02 0.  0.
        254    2    1    2    0    0 -0.25120164902E+02 -0.80479692308E+03 -0.25289587218E+03  0.12619840559E+04  0.93825280446E+03 0.  0.
         23    2    4    4    0    0  0.35737490896E+03 -0.41528862073E+03 -0.40597674908E+03  0.68787563206E+03  0.90411837347E+02 0.  0.
         23    2    4    4    0    0 -0.38249507386E+03 -0.38950830235E+03  0.15308087690E+03  0.57410842383E+03  0.90263659981E+02 0.  0.
          1    1    3    3  502    0 -0.52353203712E-01  0.47642795763E+03 -0.82102067780E+01  0.47649869785E+03  0.00000000000E+00 0. -1.
         -2    1    3    3    0  502  0.25172518105E+02  0.32836896545E+03  0.56350483506E+02  0.33411855699E+03  0.00000000000E+00 0.  1.
         13    1    5    5    0    0  0.21000228723E+03 -0.23462950426E+03 -0.17761213872E+03  0.36152183438E+03  0.00000000000E+00 0. -1.
        -13    1    5    5    0    0  0.14737262173E+03 -0.18065911647E+03 -0.22836461036E+03  0.32635379768E+03  0.00000000000E+00 0.  1.
          1    1    6    6  503    0 -0.35206517050E+03 -0.31770959355E+03  0.14396865799E+03  0.49559685693E+03  0.00000000000E+00 0. -1.
         -1    1    6    6    0  503 -0.30429903358E+02 -0.71798708798E+02  0.91122189044E+01  0.78511566898E+02  0.00000000000E+00 0.  1.
<mgrwt>
<rscale>  0 0.20624624E+04</rscale>
<asrwt>0</asrwt>
<pdfrwt beam="1">  1        1 0.17518130E+00 0.20624624E+04</pdfrwt>
<pdfrwt beam="2">  1       -2 0.14368044E+00 0.20624624E+04</pdfrwt>
<totfact> 0.32212324E+00</totfact>
</mgrwt>
</event>
<event>
12    5  0.5221187E-008  0.2457301E+04  0.7818608E-02  0.8418357E-01
          1   -1    0    0  501    0  0.00000000000E+00  0.00000000000E+00  0.19856911793E+04  0.19856911793E+04  0.00000000000E+00 0. -1.
         -2   -1    0    0    0  501 -0.00000000000E+00 -0.00000000000E+00 -0.76022991197E+03  0.76022991197E+03  0.00000000000E+00 0.  1.
        -24    2    1    2    0    0 -0.21559270685E+03  0.31729071043E+03 -0.57604413632E+03  0.69650916313E+03  0.78387225740E+02 0.  0.
        254    2    1    2    0    0  0.21559270685E+03 -0.31729071043E+03  0.18015054037E+04  0.20494119282E+04  0.89861778397E+03 0.  0.
         23    2    4    4    0    0  0.53134065301E+03 -0.29321336868E+03  0.14111403047E+04  0.15386090683E+04  0.87772071042E+02 0.  0.
         23    2    4    4    0    0 -0.31574794615E+03 -0.24077341748E+02  0.39036509900E+03  0.51080285987E+03  0.90874458732E+02 0.  0.
          1    1    3    3  502    0 -0.13067045894E+02  0.71626319837E+02 -0.96198436479E+02  0.12064500223E+03  0.00000000000E+00 0. -1.
         -2    1    3    3    0  502 -0.20252566096E+03  0.24566439059E+03 -0.47984569984E+03  0.57586416090E+03  0.00000000000E+00 0.  1.
         13    1    5    5    0    0  0.32427460976E+03 -0.16458143575E+03  0.94549037634E+03  0.10130119068E+04  0.00000000000E+00 0.  1.
        -13    1    5    5    0    0  0.20706604324E+03 -0.12863193293E+03  0.46564992835E+03  0.52559716153E+03  0.00000000000E+00 0. -1.
          3    1    6    6  503    0 -0.17900942833E+03  0.25193792935E+02  0.25195989685E+03  0.31010142253E+03  0.00000000000E+00 0. -1.
         -3    1    6    6    0  503 -0.13673851782E+03 -0.49271134684E+02  0.13840520215E+03  0.20070143735E+03  0.00000000000E+00 0.  1.
<mgrwt>
<rscale>  0 0.24573008E+04</rscale>
<asrwt>0</asrwt>
<pdfrwt beam="1">  1        1 0.30549095E+00 0.24573008E+04</pdfrwt>
<pdfrwt beam="2">  1       -2 0.11695845E+00 0.24573008E+04</pdfrwt>
<totfact> 0.13508508E+00</totfact>
</mgrwt>
</event>
<event>
12    5  0.5221187E-008  0.2518589E+04  0.7818608E-02  0.8396393E-01
          1   -1    0    0  501    0  0.00000000000E+00  0.00000000000E+00  0.10911162313E+04  0.10911162313E+04  0.00000000000E+00 0. -1.
         -2   -1    0    0    0  501 -0.00000000000E+00 -0.00000000000E+00 -0.14533944211E+04  0.14533944211E+04  0.00000000000E+00 0.  1.
        -24    2    1    2    0    0 -0.38034644130E+03 -0.46376879571E+02 -0.11993379678E+04  0.12615951763E+04  0.79978731288E+02 0.  0.
        254    2    1    2    0    0  0.38034644130E+03  0.46376879571E+02  0.83705977807E+03  0.12829154761E+04  0.89352605801E+03 0.  0.
         23    2    4    4    0    0  0.59499207642E+03  0.22458438933E+03  0.40201816709E+03  0.75780577952E+03  0.90538797581E+02 0.  0.
         23    2    4    4    0    0 -0.21464563513E+03 -0.17820750976E+03  0.43504161098E+03  0.52510969656E+03  0.92996370488E+02 0.  0.
          3    1    3    3  502    0 -0.49642338677E+02  0.21013607090E+02 -0.16891386586E+03  0.17730715595E+03  0.00000000000E+00 0. -1.
         -4    1    3    3    0  502 -0.33070410262E+03 -0.67390486661E+02 -0.10304241020E+04  0.10842880204E+04  0.00000000000E+00 0.  1.
         13    1    5    5    0    0  0.47876241115E+03  0.19245455684E+03  0.28360462413E+03  0.58879859511E+03  0.00000000000E+00 0. -1.
        -13    1    5    5    0    0  0.11622966527E+03  0.32129832489E+02  0.11841354296E+03  0.16900718441E+03  0.00000000000E+00 0.  1.
          4    1    6    6  503    0 -0.22014856176E+03 -0.15653344231E+03  0.38513484441E+03  0.47042210426E+03  0.00000000000E+00 0. -1.
         -4    1    6    6    0  503  0.55029266291E+01 -0.21674067452E+02  0.49906766572E+02  0.54687592296E+02  0.00000000000E+00 0.  1.
<mgrwt>
<rscale>  0 0.25185887E+04</rscale>
<asrwt>0</asrwt>
<pdfrwt beam="1">  1        1 0.16786404E+00 0.25185887E+04</pdfrwt>
<pdfrwt beam="2">  1       -2 0.22359914E+00 0.25185887E+04</pdfrwt>
<totfact> 0.93959887E-01</totfact>
</mgrwt>
</event>
<event>
12    5  0.5221187E-008  0.1498769E+04  0.7818608E-02  0.8885272E-01
          1   -1    0    0  501    0  0.00000000000E+00  0.00000000000E+00  0.10638123489E+04  0.10638123489E+04  0.00000000000E+00 0. -1.
         -2   -1    0    0    0  501 -0.00000000000E+00 -0.00000000000E+00 -0.52789092727E+03  0.52789092727E+03  0.00000000000E+00 0.  1.
        -24    2    1    2    0    0  0.33163886399E+03 -0.32416825731E+03  0.38970868808E+02  0.47227780020E+03  0.80362906846E+02 0.  0.
        254    2    1    2    0    0 -0.33163886399E+03  0.32416825731E+03  0.49695055280E+03  0.11194254759E+04  0.88942911416E+03 0.  0.
         23    2    4    4    0    0  0.22154930684E+03  0.28784415497E+03  0.40184779713E+03  0.54956802334E+03  0.92763178652E+02 0.  0.
         23    2    4    4    0    0 -0.55318817083E+03  0.36324102339E+02  0.95102755679E+02  0.56985745260E+03  0.91413288960E+02 0.  0.
          1    1    3    3  502    0  0.16382276904E+02 -0.47085055889E+02 -0.57570807276E+01  0.50184912705E+02  0.00000000000E+00 0. -1.
         -2    1    3    3    0  502  0.31525658708E+03 -0.27708320142E+03  0.44727949536E+02  0.42209288750E+03  0.00000000000E+00 0.  1.
         13    1    5    5    0    0  0.52367849173E+02  0.31639136846E+02  0.32514921209E+02  0.69286699363E+02  0.00000000000E+00 0. -1.
        -13    1    5    5    0    0  0.16918145767E+03  0.25620501812E+03  0.36933287592E+03  0.48028132398E+03  0.00000000000E+00 0.  1.
          4    1    6    6  503    0 -0.35362228505E+02 -0.15263104537E+02  0.22007673158E+02  0.44359748001E+02  0.00000000000E+00 0. -1.
         -4    1    6    6    0  503 -0.51782594232E+03  0.51587206876E+02  0.73095082521E+02  0.52549770460E+03  0.00000000000E+00 0.  1.
<mgrwt>
<rscale>  0 0.14987687E+04</rscale>
<asrwt>0</asrwt>
<pdfrwt beam="1">  1        1 0.16366344E+00 0.14987687E+04</pdfrwt>
<pdfrwt beam="2">  1       -2 0.81213989E-01 0.14987687E+04</pdfrwt>
<totfact> 0.15308655E+01</totfact>
</mgrwt>
</event>
<event>
12    5  0.5221187E-008  0.1368159E+04  0.7818608E-02  0.8977195E-01
          1   -1    0    0  501    0  0.00000000000E+00  0.00000000000E+00  0.33597591080E+03  0.33597591080E+03  0.00000000000E+00 0. -1.
         -2   -1    0    0    0  501 -0.00000000000E+00 -0.00000000000E+00 -0.13928516729E+04  0.13928516729E+04  0.00000000000E+00 0.  1.
        -24    2    1    2    0    0  0.64922422477E+02 -0.89507191689E+02 -0.76652146689E+03  0.77855534108E+03  0.79792240297E+02 0.  0.
        254    2    1    2    0    0 -0.64922422477E+02  0.89507191689E+02 -0.29035429521E+03  0.95027224262E+03  0.89804524387E+03 0.  0.
         23    2    4    4    0    0  0.12827705172E+03  0.18985186574E+03 -0.54790158115E+03  0.60088072359E+03  0.91448173451E+02 0.  0.
         23    2    4    4    0    0 -0.19319947419E+03 -0.10034467405E+03  0.25754728594E+03  0.34939151903E+03  0.91371432291E+02 0.  0.
          3    1    3    3  502    0 -0.10769488341E+02 -0.12421455144E+02 -0.30511174641E+02  0.34658421848E+02  0.00000000000E+00 0. -1.
         -4    1    3    3    0  502  0.75691910817E+02 -0.77085736545E+02 -0.73601029225E+03  0.74389691923E+03  0.00000000000E+00 0.  1.
         13    1    5    5    0    0  0.93855424957E+02  0.58073504582E+02 -0.23550275165E+03  0.26008252299E+03  0.00000000000E+00 0.  1.
        -13    1    5    5    0    0  0.34421626760E+02  0.13177836116E+03 -0.31239882950E+03  0.34079820060E+03  0.00000000000E+00 0. -1.
          3    1    6    6  503    0  0.54017631547E+01 -0.22616866347E+01 -0.36650897633E+01  0.69084842466E+01  0.00000000000E+00 0. -1.
         -3    1    6    6    0  503 -0.19860123735E+03 -0.98082987419E+02  0.26121237570E+03  0.34248303479E+03  0.00000000000E+00 0.  1.
<mgrwt>
<rscale>  0 0.13681588E+04</rscale>
<asrwt>0</asrwt>
<pdfrwt beam="1">  1        1 0.51688602E-01 0.13681588E+04</pdfrwt>
<pdfrwt beam="2">  1       -2 0.21428487E+00 0.13681588E+04</pdfrwt>
<totfact> 0.69311268E+00</totfact>
</mgrwt>
</event>
<event>
12    5  0.5221187E-008  0.1191245E+04  0.7818608E-02  0.9120554E-01
         -2   -1    0    0    0  501 -0.00000000000E+00  0.00000000000E+00  0.44070373974E+03  0.44070373974E+03  0.00000000000E+00 0.  1.
          1   -1    0    0  501    0  0.00000000000E+00 -0.00000000000E+00 -0.80499976418E+03  0.80499976418E+03  0.00000000000E+00 0. -1.
        -24    2    1    2    0    0  0.20996754046E+03  0.48219070014E+02  0.57306972592E+02  0.23725300920E+03  0.81200089348E+02 0.  0.
        254    2    1    2    0    0 -0.20996754046E+03 -0.48219070014E+02 -0.42160299703E+03  0.10084504947E+04  0.89039983515E+03 0.  0.
         23    2    4    4    0    0  0.49287339973E+02  0.36159298692E+03 -0.34233003701E+03  0.50849805693E+03  0.90563180102E+02 0.  0.
         23    2    4    4    0    0 -0.25925488043E+03 -0.40981205693E+03 -0.79272960020E+02  0.49995243779E+03  0.92245448829E+02 0.  0.
          1    1    3    3  502    0  0.54378030229E+02 -0.73664587682E+01  0.46071780258E+02  0.71650846628E+02  0.00000000000E+00 0. -1.
         -2    1    3    3    0  502  0.15558951023E+03  0.55585528782E+02  0.11235192334E+02  0.16560216258E+03  0.00000000000E+00 0.  1.
         13    1    5    5    0    0  0.58417424892E+02  0.35932016208E+03 -0.32165728780E+03  0.48578491661E+03  0.00000000000E+00 0.  1.
        -13    1    5    5    0    0 -0.91300849190E+01  0.22728248385E+01 -0.20672749207E+02  0.22713140319E+02  0.00000000000E+00 0. -1.
          1    1    6    6  503    0 -0.68265155188E+02 -0.14845150631E+03  0.11380671585E+02  0.16379102791E+03  0.00000000000E+00 0. -1.
         -1    1    6    6    0  503 -0.19098972524E+03 -0.26136055062E+03 -0.90653631605E+02  0.33616140988E+03  0.00000000000E+00 0.  1.
<mgrwt>
<rscale>  0 0.11912454E+04</rscale>
<asrwt>0</asrwt>
<pdfrwt beam="1">  1        1 0.12384612E+00 0.11912454E+04</pdfrwt>
<pdfrwt beam="2">  1       -2 0.67800576E-01 0.11912454E+04</pdfrwt>
<totfact> 0.37857121E+01</totfact>
</mgrwt>
</event>
<event>
12    5  0.5221187E-008  0.1747450E+04  0.7818608E-02  0.8734755E-01
         -2   -1    0    0    0  501 -0.00000000000E+00  0.00000000000E+00  0.79308221845E+03  0.79308221845E+03  0.00000000000E+00 0.  1.
          1   -1    0    0  501    0  0.00000000000E+00 -0.00000000000E+00 -0.96256777425E+03  0.96256777425E+03  0.00000000000E+00 0. -1.
        -24    2    1    2    0    0 -0.44607993197E+03  0.27212646751E+03  0.30832737838E+03  0.61271907612E+03  0.85549833188E+02 0.  0.
        254    2    1    2    0    0  0.44607993197E+03 -0.27212646751E+03 -0.47781293418E+03  0.11429309166E+04  0.89718769495E+03 0.  0.
         23    2    4    4    0    0  0.15472005219E+03  0.24667679629E+03  0.87292375389E+02  0.31726926361E+03  0.90841017455E+02 0.  0.
         23    2    4    4    0    0  0.29135987978E+03 -0.51880326380E+03 -0.56510530957E+03  0.82566165296E+03  0.91245537937E+02 0.  0.
          1    1    3    3  502    0 -0.10103175734E+03  0.29626731623E+02  0.86121365852E+02  0.13602223669E+03  0.00000000000E+00 0. -1.
         -2    1    3    3    0  502 -0.34504817463E+03  0.24249973588E+03  0.22220601253E+03  0.47669683943E+03  0.00000000000E+00 0.  1.
         13    1    5    5    0    0  0.61256051514E+02  0.48696624207E+02  0.55735893710E+02  0.96073695171E+02  0.00000000000E+00 0. -1.
        -13    1    5    5    0    0  0.93464000679E+02  0.19798017209E+03  0.31556481680E+02  0.22119556844E+03  0.00000000000E+00 0.  1.
          4    1    6    6  503    0  0.38391332074E+02 -0.89575420245E+02 -0.51985344279E+02  0.11045418195E+03  0.00000000000E+00 0. -1.
         -4    1    6    6    0  503  0.25296854770E+03 -0.42922784355E+03 -0.51311996529E+03  0.71520747101E+03  0.00000000000E+00 0.  1.
<mgrwt>
<rscale>  0 0.17474500E+04</rscale>
<asrwt>0</asrwt>
<pdfrwt beam="1">  1        1 0.14808735E+00 0.17474500E+04</pdfrwt>
<pdfrwt beam="2">  1       -2 0.12201265E+00 0.17474500E+04</pdfrwt>
<totfact> 0.68543298E+00</totfact>
</mgrwt>
</event>
<event>
12    5  0.5221187E-008  0.1607863E+04  0.7818608E-02  0.8815732E-01
          1   -1    0    0  501    0  0.00000000000E+00  0.00000000000E+00  0.71816618432E+03  0.71816618432E+03  0.00000000000E+00 0. -1.
         -2   -1    0    0    0  501 -0.00000000000E+00 -0.00000000000E+00 -0.89993895091E+03  0.89993895091E+03  0.00000000000E+00 0.  1.
        -24    2    1    2    0    0  0.66732992526E+01  0.15819094533E+03  0.46000423518E+03  0.49291888695E+03  0.79348753088E+02 0.  0.
        254    2    1    2    0    0 -0.66732992526E+01 -0.15819094533E+03 -0.64177700177E+03  0.11251862483E+04  0.91054789287E+03 0.  0.
         23    2    4    4    0    0 -0.37948226134E+03  0.79842567776E+02 -0.83013955665E+02  0.40658494192E+03  0.89656989988E+02 0.  0.
         23    2    4    4    0    0  0.37280896209E+03 -0.23803351311E+03 -0.55876304611E+03  0.71860130637E+03  0.92332119198E+02 0.  0.
          3    1    3    3  502    0  0.13964142977E+02  0.15106145811E+03  0.33794050688E+03  0.37042994966E+03  0.00000000000E+00 0. -1.
         -4    1    3    3    0  502 -0.72908437245E+01  0.71294872171E+01  0.12206372831E+03  0.12248893729E+03  0.00000000000E+00 0.  1.
         13    1    5    5    0    0 -0.35737258222E+03  0.81847788209E+02 -0.54822672979E+02  0.37070169737E+03  0.00000000000E+00 0. -1.
        -13    1    5    5    0    0 -0.22109679123E+02 -0.20052204324E+01 -0.28191282686E+02  0.35883244550E+02  0.00000000000E+00 0.  1.
          4    1    6    6  503    0  0.23992218653E+03 -0.12843349468E+03 -0.27668642803E+03  0.38808916192E+03  0.00000000000E+00 0. -1.
         -4    1    6    6    0  503  0.13288677556E+03 -0.10960001843E+03 -0.28207661808E+03  0.33051214444E+03  0.00000000000E+00 0.  1.
<mgrwt>
<rscale>  0 0.16078628E+04</rscale>
<asrwt>0</asrwt>
<pdfrwt beam="1">  1        1 0.11048711E+00 0.16078628E+04</pdfrwt>
<pdfrwt beam="2">  1       -2 0.13845215E+00 0.16078628E+04</pdfrwt>
<totfact> 0.81285806E+00</totfact>
</mgrwt>
</event>
<event>
12    5  0.5221187E-008  0.2198688E+04  0.7818608E-02  0.8518974E-01
         -2   -1    0    0    0  501 -0.00000000000E+00  0.00000000000E+00  0.39382934010E+03  0.39382934010E+03  0.00000000000E+00 0.  1.
          1   -1    0    0  501    0  0.00000000000E+00 -0.00000000000E+00 -0.30687333020E+04  0.30687333020E+04  0.00000000000E+00 0. -1.
        -24    2    1    2    0    0 -0.58134577647E+03  0.88634818692E+02 -0.21132046235E+04  0.21949415912E+04  0.79471787023E+02 0.  0.
        254    2    1    2    0    0  0.58134577647E+03 -0.88634818692E+02 -0.56169933837E+03  0.12676210509E+04  0.97238775139E+03 0.  0.
         23    2    4    4    0    0  0.43594069427E+03 -0.42071928404E+03 -0.24580333131E+02  0.61285119390E+03  0.89069569466E+02 0.  0.
         23    2    4    4    0    0  0.14540508221E+03  0.33208446535E+03 -0.53711900524E+03  0.65476985701E+03  0.93829685033E+02 0.  0.
          3    1    3    3  502    0 -0.23303538440E+03  0.68988531541E+02 -0.94570100396E+03  0.97642987294E+03  0.00000000000E+00 0. -1.
         -4    1    3    3    0  502 -0.34831039208E+03  0.19646287151E+02 -0.11675036195E+04  0.12185117182E+04  0.00000000000E+00 0.  1.
         13    1    5    5    0    0  0.42570717748E+03 -0.39767716772E+03 -0.38901492780E+02  0.58385533895E+03  0.00000000000E+00 0. -1.
        -13    1    5    5    0    0  0.10233516788E+02 -0.23042116321E+02  0.14321159649E+02  0.28995854946E+02  0.00000000000E+00 0.  1.
          3    1    6    6  503    0  0.81946528543E+02  0.10036310148E+03 -0.23928061818E+03  0.27210880162E+03  0.00000000000E+00 0.  1.
         -3    1    6    6    0  503  0.63458553664E+02  0.23172136387E+03 -0.29783838706E+03  0.38266105539E+03  0.00000000000E+00 0. -1.
<mgrwt>
<rscale>  0 0.21986880E+04</rscale>
<asrwt>0</asrwt>
<pdfrwt beam="1">  1        1 0.47211283E+00 0.21986880E+04</pdfrwt>
<pdfrwt beam="2">  1       -2 0.60589128E-01 0.21986880E+04</pdfrwt>
<totfact> 0.10831578E+00</totfact>
</mgrwt>
</event>
<event>
12    5  0.5221187E-008  0.1573635E+04  0.7818608E-02  0.8836911E-01
         -2   -1    0    0    0  501 -0.00000000000E+00  0.00000000000E+00  0.18818058909E+03  0.18818058909E+03  0.00000000000E+00 0.  1.
          1   -1    0    0  501    0  0.00000000000E+00 -0.00000000000E+00 -0.32898276169E+04  0.32898276169E+04  0.00000000000E+00 0. -1.
        -24    2    1    2    0    0 -0.27791806923E+03  0.35171201593E+03 -0.14968658737E+04  0.15646193328E+04  0.80538297368E+02 0.  0.
        254    2    1    2    0    0  0.27791806923E+03 -0.35171201593E+03 -0.16047811541E+04  0.19133888732E+04  0.94063522800E+03 0.  0.
         23    2    4    4    0    0 -0.13349424399E+03  0.13898692041E+03 -0.35578711972E+02  0.21606682307E+03  0.90999725608E+02 0.  0.
         23    2    4    4    0    0  0.41141231322E+03 -0.49069893634E+03 -0.15692024422E+04  0.16973220502E+04  0.91979888388E+02 0.  0.
          1    1    3    3  502    0 -0.13165978807E+03  0.13311931642E+03 -0.74156848684E+03  0.76483911568E+03  0.00000000000E+00 0. -1.
         -2    1    3    3    0  502 -0.14625828117E+03  0.21859269950E+03 -0.75529738683E+03  0.79978021709E+03  0.00000000000E+00 0.  1.
         13    1    5    5    0    0 -0.11058398007E+03  0.14143259914E+03 -0.74239244850E+01  0.17968614694E+03  0.00000000000E+00 0. -1.
        -13    1    5    5    0    0 -0.22910263914E+02 -0.24456787219E+01 -0.28154787487E+02  0.36380676127E+02  0.00000000000E+00 0.  1.
          3    1    6    6  503    0  0.32655232770E+03 -0.38993475063E+03 -0.11389702362E+04  0.12473727315E+04  0.00000000000E+00 0. -1.
         -3    1    6    6    0  503  0.84859985523E+02 -0.10076418571E+03 -0.43023220598E+03  0.44994931862E+03  0.00000000000E+00 0.  1.
<mgrwt>
<rscale>  0 0.15736349E+04</rscale>
<asrwt>0</asrwt>
<pdfrwt beam="1">  1        1 0.50612727E+00 0.15736349E+04</pdfrwt>
<pdfrwt beam="2">  1       -2 0.28950863E-01 0.15736349E+04</pdfrwt>
<totfact> 0.33908161E+00</totfact>
</mgrwt>
</event>
<event>
12    5  0.5221187E-008  0.1906614E+04  0.7818608E-02  0.8651571E-01
         -4   -1    0    0    0  501 -0.00000000000E+00  0.00000000000E+00  0.26575065054E+04  0.26575065054E+04  0.00000000000E+00 0.  1.
          3   -1    0    0  501    0  0.00000000000E+00 -0.00000000000E+00 -0.34197264992E+03  0.34197264992E+03  0.00000000000E+00 0. -1.
        -24    2    1    2    0    0  0.26858140372E+03  0.34503389325E+02  0.19805242995E+04  0.20001047763E+04  0.67942333502E+02 0.  0.
        254    2    1    2    0    0 -0.26858140372E+03 -0.34503389325E+02  0.33500955594E+03  0.99937437905E+03  0.90177119749E+03 0.  0.
         23    2    4    4    0    0 -0.50421105748E+03  0.23926665463E+03  0.15913851923E+03  0.58736919977E+03  0.90554878566E+02 0.  0.
         23    2    4    4    0    0  0.23562965376E+03 -0.27377004395E+03  0.17587103671E+03  0.41200517928E+03  0.91357952575E+02 0.  0.
          1    1    3    3  502    0  0.48508414618E+00 -0.20547126340E+01  0.13181295115E+01  0.24888985609E+01  0.00000000000E+00 0. -1.
         -2    1    3    3    0  502  0.26809631957E+03  0.36558101959E+02  0.19792061700E+04  0.19976158777E+04  0.00000000000E+00 0.  1.
         13    1    5    5    0    0 -0.38221466570E+03  0.22044089258E+03  0.11187907684E+03  0.45519135057E+03  0.00000000000E+00 0. -1.
        -13    1    5    5    0    0 -0.12199639178E+03  0.18825762048E+02  0.47259442396E+02  0.13217784920E+03  0.00000000000E+00 0.  1.
          3    1    6    6  503    0  0.16540725728E+03 -0.24077368837E+03  0.15907213671E+03  0.33261911317E+03  0.00000000000E+00 0. -1.
         -3    1    6    6    0  503  0.70222396487E+02 -0.32996355590E+02  0.16798899993E+02  0.79386066105E+02  0.00000000000E+00 0.  1.
<mgrwt>
<rscale>  0 0.19066143E+04</rscale>
<asrwt>0</asrwt>
<pdfrwt beam="1">  1        3 0.52611179E-01 0.19066143E+04</pdfrwt>
<pdfrwt beam="2">  1       -4 0.40884714E+00 0.19066143E+04</pdfrwt>
<totfact> 0.45408440E-02</totfact>
</mgrwt>
</event>
<event>
12    5  0.5221187E-008  0.1322576E+04  0.7818608E-02  0.9011851E-01
          1   -1    0    0  501    0  0.00000000000E+00  0.00000000000E+00  0.28605221324E+03  0.28605221324E+03  0.00000000000E+00 0. -1.
         -2   -1    0    0    0  501 -0.00000000000E+00 -0.00000000000E+00 -0.15287486553E+04  0.15287486553E+04  0.00000000000E+00 0.  1.
        -24    2    1    2    0    0 -0.21780859030E+03 -0.13201235754E+02  0.37136104340E+02  0.23495231217E+03  0.78794949784E+02 0.  0.
        254    2    1    2    0    0  0.21780859030E+03  0.13201235754E+02 -0.12798325464E+04  0.15798485563E+04  0.90018623605E+03 0.  0.
         23    2    4    4    0    0  0.31495670681E+03  0.34551477909E+03 -0.10554309850E+04  0.11576799446E+04  0.87807177517E+02 0.  0.
         23    2    4    4    0    0 -0.97148116508E+02 -0.33231354334E+03 -0.22440156141E+03  0.42216861172E+03  0.89443995474E+02 0.  0.
          3    1    3    3  502    0 -0.72264072887E+02 -0.40716977327E+02  0.23461201089E+02  0.86199747270E+02  0.00000000000E+00 0. -1.
         -4    1    3    3    0  502 -0.14554451742E+03  0.27515741574E+02  0.13674903251E+02  0.14875256490E+03  0.00000000000E+00 0.  1.
         13    1    5    5    0    0  0.49330395395E+02  0.14791529234E+02 -0.11198305356E+03  0.12325778488E+03  0.00000000000E+00 0.  1.
        -13    1    5    5    0    0  0.26562631142E+03  0.33072324986E+03 -0.94344793139E+03  0.10344221597E+04  0.00000000000E+00 0. -1.
          2    1    6    6  503    0 -0.24058641819E+02 -0.21394515403E+03 -0.10844572846E+03  0.24106394007E+03  0.00000000000E+00 0. -1.
         -2    1    6    6    0  503 -0.73089474689E+02 -0.11836838931E+03 -0.11595583295E+03  0.18110467165E+03  0.00000000000E+00 0.  1.
<mgrwt>
<rscale>  0 0.13225762E+04</rscale>
<asrwt>0</asrwt>
<pdfrwt beam="1">  1        1 0.44008032E-01 0.13225762E+04</pdfrwt>
<pdfrwt beam="2">  1       -2 0.23519211E+00 0.13225762E+04</pdfrwt>
<totfact> 0.63420667E+00</totfact>
</mgrwt>
</event>
<event>
12    5  0.5221187E-008  0.1162248E+04  0.7818608E-02  0.9146558E-01
          1   -1    0    0  501    0  0.00000000000E+00  0.00000000000E+00  0.30759839445E+03  0.30759839445E+03  0.00000000000E+00 0. -1.
         -2   -1    0    0    0  501 -0.00000000000E+00 -0.00000000000E+00 -0.10978757370E+04  0.10978757370E+04  0.00000000000E+00 0.  1.
        -24    2    1    2    0    0  0.11439425322E+03 -0.12170876875E+03 -0.44773669132E+01  0.19837825943E+03  0.10693370582E+03 0.  0.
        254    2    1    2    0    0 -0.11439425322E+03  0.12170876875E+03 -0.78579997565E+03  0.12070958720E+04  0.90094382345E+03 0.  0.
         23    2    4    4    0    0 -0.26906206720E+03  0.17890080727E+03  0.59706830178E+02  0.34087774568E+03  0.90734982673E+02 0.  0.
         23    2    4    4    0    0  0.15466781398E+03 -0.57192038526E+02 -0.84550680583E+03  0.86621812636E+03  0.90879160367E+02 0.  0.
          1    1    3    3  502    0  0.76569085569E+02 -0.12967268973E+03  0.21049473025E+02  0.15205562023E+03  0.00000000000E+00 0. -1.
         -2    1    3    3    0  502  0.37825167654E+02  0.79639209881E+01 -0.25526839939E+02  0.46322639204E+02  0.00000000000E+00 0.  1.
         13    1    5    5    0    0 -0.17614798936E+03  0.12398619738E+03 -0.41970783990E+01  0.21544908161E+03  0.00000000000E+00 0. -1.
        -13    1    5    5    0    0 -0.92914077835E+02  0.54914609891E+02  0.63903908577E+02  0.12542866407E+03  0.00000000000E+00 0.  1.
          1    1    6    6  503    0  0.88658026470E+02 -0.14785315737E+02 -0.25203521774E+03  0.26758288847E+03  0.00000000000E+00 0. -1.
         -1    1    6    6    0  503  0.66009787505E+02 -0.42406722789E+02 -0.59347158809E+03  0.59863523790E+03  0.00000000000E+00 0.  1.
<mgrwt>
<rscale>  0 0.11622475E+04</rscale>
<asrwt>0</asrwt>
<pdfrwt beam="1">  1        1 0.47322830E-01 0.11622475E+04</pdfrwt>
<pdfrwt beam="2">  1       -2 0.16890396E+00 0.11622475E+04</pdfrwt>
<totfact> 0.15929310E+01</totfact>
</mgrwt>
</event>
<event>
12    5  0.5221187E-008  0.2615966E+04  0.7818608E-02  0.8362798E-01
         -2   -1    0    0    0  501 -0.00000000000E+00  0.00000000000E+00  0.14213589769E+04  0.14213589769E+04  0.00000000000E+00 0.  1.
          1   -1    0    0  501    0  0.00000000000E+00 -0.00000000000E+00 -0.12036504735E+04  0.12036504735E+04  0.00000000000E+00 0. -1.
        -24    2    1    2    0    0 -0.99137469266E+03 -0.39861695115E+03 -0.33758792978E+03  0.11234443903E+04  0.80264766208E+02 0.  0.
        254    2    1    2    0    0  0.99137469266E+03  0.39861695115E+03  0.55529643314E+03  0.15015650602E+04  0.89700849842E+03 0.  0.
         23    2    4    4    0    0  0.37351512025E+03  0.62212759493E+03  0.27462543736E+03  0.78114245272E+03  0.90598626709E+02 0.  0.
         23    2    4    4    0    0  0.61785957242E+03 -0.22351064378E+03  0.28067099577E+03  0.72042260744E+03  0.92331285782E+02 0.  0.
          1    1    3    3  502    0 -0.58895845741E+03 -0.21299652571E+03 -0.16320555511E+03  0.64720602418E+03  0.00000000000E+00 0. -1.
         -4    1    3    3    0  502 -0.40241623525E+03 -0.18562042545E+03 -0.17438237467E+03  0.47623836609E+03  0.00000000000E+00 0.  1.
         13    1    5    5    0    0  0.34947584471E+03  0.54610847243E+03  0.22071078492E+03  0.68489494105E+03  0.00000000000E+00 0. -1.
        -13    1    5    5    0    0  0.24039275541E+02  0.76019122502E+02  0.53914652444E+02  0.96247511670E+02  0.00000000000E+00 0.  1.
          2    1    6    6  503    0  0.43759669064E+03 -0.17229629481E+03  0.24266707055E+03  0.52921090691E+03  0.00000000000E+00 0. -1.
         -2    1    6    6    0  503  0.18026288178E+03 -0.51214348968E+02  0.38003925221E+02  0.19121170053E+03  0.00000000000E+00 0.  1.
<mgrwt>
<rscale>  0 0.26159659E+04</rscale>
<asrwt>0</asrwt>
<pdfrwt beam="1">  1        1 0.18517700E+00 0.26159659E+04</pdfrwt>
<pdfrwt beam="2">  1       -2 0.21867061E+00 0.26159659E+04</pdfrwt>
<totfact> 0.82599660E-01</totfact>
</mgrwt>
</event>
<event>
12    5  0.5221187E-008  0.1637115E+04  0.7818608E-02  0.8798066E-01
          1   -1    0    0  501    0  0.00000000000E+00  0.00000000000E+00  0.79106128020E+03  0.79106128020E+03  0.00000000000E+00 0. -1.
         -2   -1    0    0    0  501 -0.00000000000E+00 -0.00000000000E+00 -0.84700929979E+03  0.84700929979E+03  0.00000000000E+00 0.  1.
        -24    2    1    2    0    0  0.71941607843E+02 -0.54316384955E+03  0.10740303416E+03  0.56387550322E+03  0.78851816693E+02 0.  0.
        254    2    1    2    0    0 -0.71941607843E+02  0.54316384955E+03 -0.16335105375E+03  0.10741950768E+04  0.90940031548E+03 0.  0.
         23    2    4    4    0    0 -0.27679404759E+03  0.71602675632E+03 -0.16698797232E+03  0.79085260979E+03  0.90849364192E+02 0.  0.
         23    2    4    4    0    0  0.20485243974E+03 -0.17286290677E+03  0.36369185742E+01  0.28334246697E+03  0.91780280046E+02 0.  0.
          1    1    3    3  502    0  0.65045388533E+02 -0.26328653288E+03  0.26700145258E+02  0.27251348356E+03  0.00000000000E+00 0. -1.
         -2    1    3    3    0  502  0.68962193105E+01 -0.27987731666E+03  0.80702888903E+02  0.29136201966E+03  0.00000000000E+00 0.  1.
         13    1    5    5    0    0 -0.13179842130E+03  0.23010749623E+03 -0.73943668794E+02  0.27529611300E+03  0.00000000000E+00 0. -1.
        -13    1    5    5    0    0 -0.14499562628E+03  0.48591926008E+03 -0.93044303531E+02  0.51555649679E+03  0.00000000000E+00 0.  1.
          1    1    6    6  503    0  0.12577174786E+03 -0.80613752624E+02  0.43281501383E+02  0.15553262691E+03  0.00000000000E+00 0. -1.
         -1    1    6    6    0  503  0.79080691883E+02 -0.92249154149E+02 -0.39644582808E+02  0.12780984006E+03  0.00000000000E+00 0.  1.
<mgrwt>
<rscale>  0 0.16371149E+04</rscale>
<asrwt>0</asrwt>
<pdfrwt beam="1">  1        1 0.12170174E+00 0.16371149E+04</pdfrwt>
<pdfrwt beam="2">  1       -2 0.13030912E+00 0.16371149E+04</pdfrwt>
<totfact> 0.81413328E+00</totfact>
</mgrwt>
</event>
<event>
12    5  0.5221187E-008  0.1725707E+04  0.7818608E-02  0.8746837E-01
         -2   -1    0    0    0  501 -0.00000000000E+00  0.00000000000E+00  0.37550723146E+03  0.37550723146E+03  0.00000000000E+00 0.  1.
          1   -1    0    0  501    0  0.00000000000E+00 -0.00000000000E+00 -0.19826942008E+04  0.19826942008E+04  0.00000000000E+00 0. -1.
        -24    2    1    2    0    0  0.61917482426E+03  0.36696134760E+02 -0.77701703449E+03  0.99746128384E+03  0.80308602079E+02 0.  0.
        254    2    1    2    0    0 -0.61917482426E+03 -0.36696134760E+02 -0.83016993480E+03  0.13607401484E+04  0.88187729388E+03 0.  0.
         23    2    4    4    0    0  0.11650737687E+02 -0.28006098910E+03 -0.12983500034E+02  0.29600061526E+03  0.94222585687E+02 0.  0.
         23    2    4    4    0    0 -0.63082556195E+03  0.24336485434E+03 -0.81718643477E+03  0.10647395331E+04  0.93323428413E+02 0.  0.
          3    1    3    3  502    0  0.40105869122E+03  0.55218195002E+02 -0.53873581319E+03  0.67389420480E+03  0.00000000000E+00 0. -1.
         -4    1    3    3    0  502  0.21811613304E+03 -0.18522060242E+02 -0.23828122130E+03  0.32356707903E+03  0.00000000000E+00 0.  1.
         13    1    5    5    0    0 -0.34502600139E+02 -0.20079138283E+03 -0.14633276363E+02  0.20425900619E+03  0.00000000000E+00 0. -1.
        -13    1    5    5    0    0  0.46153337827E+02 -0.79269606275E+02  0.16497763287E+01  0.91741609063E+02  0.00000000000E+00 0.  1.
          2    1    6    6  503    0 -0.18117198849E+03  0.11466184371E+03 -0.23943485445E+03  0.32140267165E+03  0.00000000000E+00 0. -1.
         -2    1    6    6    0  503 -0.44965357346E+03  0.12870301063E+03 -0.57775158031E+03  0.74333686147E+03  0.00000000000E+00 0.  1.
<mgrwt>
<rscale>  0 0.17257068E+04</rscale>
<asrwt>0</asrwt>
<pdfrwt beam="1">  1        1 0.30502987E+00 0.17257068E+04</pdfrwt>
<pdfrwt beam="2">  1       -2 0.57770345E-01 0.17257068E+04</pdfrwt>
<totfact> 0.71622011E+00</totfact>
</mgrwt>
</event>
<event>
12    5  0.5221187E-008  0.1032771E+04  0.7818608E-02  0.9273314E-01
         -2   -1    0    0    0  501 -0.00000000000E+00  0.00000000000E+00  0.10809628353E+04  0.10809628353E+04  0.00000000000E+00 0.  1.
          1   -1    0    0  501    0  0.00000000000E+00 -0.00000000000E+00 -0.24668210410E+03  0.24668210410E+03  0.00000000000E+00 0. -1.
        -24    2    1    2    0    0 -0.36787870786E+02  0.29859160393E+02  0.20293808870E+03  0.22368354340E+03  0.81274490735E+02 0.  0.
        254    2    1    2    0    0  0.36787870786E+02 -0.29859160393E+02  0.63134264246E+03  0.11039613960E+04  0.90437399049E+03 0.  0.
         23    2    4    4    0    0 -0.67096934582E+02 -0.37029689626E+03  0.16468986480E+02  0.38796298251E+03  0.92856115997E+02 0.  0.
         23    2    4    4    0    0  0.10388480537E+03  0.34043773586E+03  0.61487365598E+03  0.71599841345E+03  0.88849369427E+02 0.  0.
          3    1    3    3  502    0  0.23984972729E+02 -0.42054750688E+01  0.49201607208E+02  0.54897751222E+02  0.00000000000E+00 0. -1.
         -4    1    3    3    0  502 -0.60772843515E+02  0.34064635462E+02  0.15373648150E+03  0.16878579218E+03  0.00000000000E+00 0.  1.
         13    1    5    5    0    0 -0.57976215971E+02 -0.12744626034E+03 -0.22584154732E+02  0.14182325246E+03  0.00000000000E+00 0.  1.
        -13    1    5    5    0    0 -0.91207186109E+01 -0.24285063592E+03  0.39053141212E+02  0.24613973006E+03  0.00000000000E+00 0. -1.
          4    1    6    6  503    0  0.11301096583E+03  0.33164849444E+03  0.60761189058E+03  0.70139461920E+03  0.00000000000E+00 0. -1.
         -4    1    6    6    0  503 -0.91261604659E+01  0.87892414232E+01  0.72617653987E+01  0.14603794245E+02  0.00000000000E+00 0.  1.
<mgrwt>
<rscale>  0 0.10327714E+04</rscale>
<asrwt>0</asrwt>
<pdfrwt beam="1">  1        1 0.37951094E-01 0.10327714E+04</pdfrwt>
<pdfrwt beam="2">  1       -2 0.16630197E+00 0.10327714E+04</pdfrwt>
<totfact> 0.22347164E+01</totfact>
</mgrwt>
</event>
<event>
12    5  0.5221187E-008  0.1502953E+04  0.7818608E-02  0.8882491E-01
          1   -1    0    0  501    0  0.00000000000E+00  0.00000000000E+00  0.70818448422E+03  0.70818448422E+03  0.00000000000E+00 0. -1.
         -2   -1    0    0    0  501 -0.00000000000E+00 -0.00000000000E+00 -0.79741518813E+03  0.79741518813E+03  0.00000000000E+00 0.  1.
        -24    2    1    2    0    0 -0.11414989439E+03 -0.39479008643E+03 -0.28741813987E+03  0.50813155017E+03  0.81847873616E+02 0.  0.
        254    2    1    2    0    0  0.11414989439E+03  0.39479008643E+03  0.19818743597E+03  0.99746812217E+03  0.88700337330E+03 0.  0.
         23    2    4    4    0    0  0.28981306133E+03 -0.18215781203E+03  0.15868017098E+03  0.38683202728E+03  0.85361242156E+02 0.  0.
         23    2    4    4    0    0 -0.17566316694E+03  0.57694789846E+03  0.39507264986E+02  0.61063609489E+03  0.87115960863E+02 0.  0.
          1    1    3    3  502    0 -0.39986582573E+02 -0.23046528269E+03 -0.20006970123E+03  0.30780035520E+03  0.00000000000E+00 0. -1.
         -2    1    3    3    0  502 -0.74163311821E+02 -0.16432480375E+03 -0.87348438649E+02  0.20033119498E+03  0.00000000000E+00 0.  1.
         13    1    5    5    0    0 -0.22819936434E+01  0.44529504914E+01  0.66945297765E+01  0.83578102393E+01  0.00000000000E+00 0. -1.
        -13    1    5    5    0    0  0.29209505498E+03 -0.18661076252E+03  0.15198564121E+03  0.37847421704E+03  0.00000000000E+00 0.  1.
          2    1    6    6  503    0  0.16027069454E+01  0.60917134108E+01  0.10428784537E+02  0.12183480157E+02  0.00000000000E+00 0. -1.
         -2    1    6    6    0  503 -0.17726587389E+03  0.57085618505E+03  0.29078480449E+02  0.59845261474E+03  0.00000000000E+00 0.  1.
<mgrwt>
<rscale>  0 0.15029532E+04</rscale>
<asrwt>0</asrwt>
<pdfrwt beam="1">  1        1 0.10895146E+00 0.15029532E+04</pdfrwt>
<pdfrwt beam="2">  1       -2 0.12267926E+00 0.15029532E+04</pdfrwt>
<totfact> 0.11387776E+01</totfact>
</mgrwt>
</event>
<event>
12    5  0.5221187E-008  0.1158440E+04  0.7818608E-02  0.9150032E-01
         -2   -1    0    0    0  501 -0.00000000000E+00  0.00000000000E+00  0.18111610761E+03  0.18111610761E+03  0.00000000000E+00 0.  1.
          1   -1    0    0  501    0  0.00000000000E+00 -0.00000000000E+00 -0.18523809153E+04  0.18523809153E+04  0.00000000000E+00 0. -1.
        -24    2    1    2    0    0 -0.49686289855E+02  0.86616822473E+02  0.52577447417E+01  0.12666713173E+03  0.77754209189E+02 0.  0.
        254    2    1    2    0    0  0.49686289855E+02 -0.86616822473E+02 -0.16765225524E+04  0.19068298912E+04  0.90294028803E+03 0.  0.
         23    2    4    4    0    0  0.17778013283E+03 -0.39045257777E+02  0.17606115524E+02  0.20441736617E+03  0.91357410777E+02 0.  0.
         23    2    4    4    0    0 -0.12809384297E+03 -0.47571564696E+02 -0.16941286679E+04  0.17024125250E+04  0.97290160681E+02 0.  0.
          3    1    3    3  502    0 -0.29730612327E+02  0.24883359400E+02 -0.33375715841E+02  0.51156908549E+02  0.00000000000E+00 0. -1.
         -4    1    3    3    0  502 -0.19955677528E+02  0.61733463073E+02  0.38633460583E+02  0.75510223183E+02  0.00000000000E+00 0.  1.
         13    1    5    5    0    0  0.93150467171E+02 -0.32506559019E+01 -0.33776771891E+02  0.99138522368E+02  0.00000000000E+00 0.  1.
        -13    1    5    5    0    0  0.84629665658E+02 -0.35794601875E+02  0.51382887415E+02  0.10527884380E+03  0.00000000000E+00 0. -1.
          1    1    6    6  503    0 -0.10870133294E+03 -0.76407565242E+02 -0.13683315372E+04  0.13747673591E+04  0.00000000000E+00 0.  1.
         -1    1    6    6    0  503 -0.19392510036E+02  0.28836000547E+02 -0.32579713071E+03  0.32764516592E+03  0.00000000000E+00 0. -1.
<mgrwt>
<rscale>  0 0.11584404E+04</rscale>
<asrwt>0</asrwt>
<pdfrwt beam="1">  1        1 0.28498169E+00 0.11584404E+04</pdfrwt>
<pdfrwt beam="2">  1       -2 0.27864016E-01 0.11584404E+04</pdfrwt>
<totfact> 0.38514948E+01</totfact>
</mgrwt>
</event>
<event>
12    5  0.5221187E-008  0.1302669E+04  0.7818608E-02  0.9027451E-01
          1   -1    0    0  501    0  0.00000000000E+00  0.00000000000E+00  0.18462913422E+04  0.18462913422E+04  0.00000000000E+00 0. -1.
         -2   -1    0    0    0  501 -0.00000000000E+00 -0.00000000000E+00 -0.22977785422E+03  0.22977785422E+03  0.00000000000E+00 0.  1.
        -24    2    1    2    0    0 -0.33387839869E+03 -0.81217221859E+02  0.67795597474E+03  0.76385622993E+03  0.76032980201E+02 0.  0.
        254    2    1    2    0    0  0.33387839869E+03  0.81217221859E+02  0.93855751328E+03  0.13122129665E+04  0.85025974945E+03 0.  0.
         23    2    4    4    0    0  0.38233392503E+03  0.23858347848E+03  0.12393851002E+03  0.47593319185E+03  0.89723700374E+02 0.  0.
         23    2    4    4    0    0 -0.48455526341E+02 -0.15736625662E+03  0.81461900325E+03  0.83627977467E+03  0.92992818541E+02 0.  0.
          3    1    3    3  502    0 -0.29750206203E+03 -0.88494260102E+02  0.63700878461E+03  0.70860348761E+03  0.00000000000E+00 0. -1.
         -4    1    3    3    0  502 -0.36376336657E+02  0.72770382428E+01  0.40947190133E+02  0.55252742321E+02  0.00000000000E+00 0.  1.
         13    1    5    5    0    0  0.49838125210E+02  0.11921521109E+00  0.20521830638E+02  0.53898037714E+02  0.00000000000E+00 0.  1.
        -13    1    5    5    0    0  0.33249579982E+03  0.23846426327E+03  0.10341667938E+03  0.42203515414E+03  0.00000000000E+00 0. -1.
          4    1    6    6  503    0 -0.71809187714E+02 -0.81592278517E+02  0.42537706854E+03  0.43904385862E+03  0.00000000000E+00 0.  1.
         -4    1    6    6    0  503  0.23353661373E+02 -0.75773978105E+02  0.38924193471E+03  0.39723591604E+03  0.00000000000E+00 0. -1.
<mgrwt>
<rscale>  0 0.13026694E+04</rscale>
<asrwt>0</asrwt>
<pdfrwt beam="1">  1        1 0.28404481E+00 0.13026694E+04</pdfrwt>
<pdfrwt beam="2">  1       -2 0.35350440E-01 0.13026694E+04</pdfrwt>
<totfact> 0.24573320E+01</totfact>
</mgrwt>
</event>
<event>
12    5  0.5221187E-008  0.1646305E+04  0.7818608E-02  0.8792596E-01
         -2   -1    0    0    0  501 -0.00000000000E+00  0.00000000000E+00  0.84070260131E+03  0.84070260131E+03  0.00000000000E+00 0.  1.
          1   -1    0    0  501    0  0.00000000000E+00 -0.00000000000E+00 -0.80596830812E+03  0.80596830812E+03  0.00000000000E+00 0. -1.
        -24    2    1    2    0    0 -0.41707133539E+02 -0.33417934063E+03  0.49273673638E+03  0.60206738485E+03  0.79248519408E+02 0.  0.
        254    2    1    2    0    0  0.41707133539E+02  0.33417934063E+03 -0.45800244318E+03  0.10446035246E+04  0.87636463240E+03 0.  0.
         23    2    4    4    0    0  0.25551577792E+03 -0.18284726527E+03 -0.18475542160E+02  0.32727121081E+03  0.89686479398E+02 0.  0.
         23    2    4    4    0    0 -0.21380864438E+03  0.51702660590E+03 -0.43952690102E+03  0.71733231377E+03  0.91384375194E+02 0.  0.
          1    1    3    3  502    0  0.23359872189E+02 -0.66842086467E+02  0.98096935970E+02  0.12098163910E+03  0.00000000000E+00 0. -1.
         -2    1    3    3    0  502 -0.65067005728E+02 -0.26733725416E+03  0.39463980041E+03  0.48108574575E+03  0.00000000000E+00 0.  1.
         13    1    5    5    0    0  0.51598429518E+01 -0.36104029497E+02 -0.44312104013E+01  0.36739087507E+02  0.00000000000E+00 0. -1.
        -13    1    5    5    0    0  0.25035593497E+03 -0.14674323577E+03 -0.14044331758E+02  0.29053212331E+03  0.00000000000E+00 0.  1.
          4    1    6    6  503    0 -0.10167396505E+02  0.10842110934E+03 -0.64963515012E+02  0.12680209456E+03  0.00000000000E+00 0. -1.
         -4    1    6    6    0  503 -0.20364124788E+03  0.40860549656E+03 -0.37456338601E+03  0.59053021921E+03  0.00000000000E+00 0.  1.
<mgrwt>
<rscale>  0 0.16463045E+04</rscale>
<asrwt>0</asrwt>
<pdfrwt beam="1">  1        1 0.12399512E+00 0.16463045E+04</pdfrwt>
<pdfrwt beam="2">  1       -2 0.12933886E+00 0.16463045E+04</pdfrwt>
<totfact> 0.80462300E+00</totfact>
</mgrwt>
</event>
<event>
12    5  0.5221187E-008  0.1201316E+04  0.7818608E-02  0.9111705E-01
          1   -1    0    0  501    0  0.00000000000E+00  0.00000000000E+00  0.52579442406E+03  0.52579442406E+03  0.00000000000E+00 0. -1.
         -2   -1    0    0    0  501 -0.00000000000E+00 -0.00000000000E+00 -0.68618088862E+03  0.68618088862E+03  0.00000000000E+00 0.  1.
        -24    2    1    2    0    0  0.16036048644E+03  0.91093240392E+02 -0.23111996542E+03  0.30728399392E+03  0.83627450313E+02 0.  0.
        254    2    1    2    0    0 -0.16036048644E+03 -0.91093240392E+02  0.70733500858E+02  0.90469131875E+03  0.88286447999E+03 0.  0.
         23    2    4    4    0    0 -0.39465942112E+03 -0.17204930760E+03  0.31746809839E+03  0.54271743881E+03  0.91647160220E+02 0.  0.
         23    2    4    4    0    0  0.23429893467E+03  0.80956067210E+02 -0.24673459753E+03  0.36197387994E+03  0.93259061416E+02 0.  0.
          1    1    3    3  502    0  0.17288982952E+02  0.51052068292E+02 -0.63987848896E+02  0.83664015053E+02  0.00000000000E+00 0. -1.
         -2    1    3    3    0  502  0.14307150349E+03  0.40041172100E+02 -0.16713211653E+03  0.22361997887E+03  0.00000000000E+00 0.  1.
         13    1    5    5    0    0 -0.37553947117E+03 -0.15842414453E+03  0.26755708649E+03  0.48756014861E+03  0.00000000000E+00 0. -1.
        -13    1    5    5    0    0 -0.19119949946E+02 -0.13625163068E+02  0.49911011892E+02  0.55157290204E+02  0.00000000000E+00 0.  1.
          3    1    6    6  503    0  0.11284350101E+03  0.63785196572E+02 -0.18152398280E+03  0.22305417134E+03  0.00000000000E+00 0. -1.
         -3    1    6    6    0  503  0.12145543366E+03  0.17170870638E+02 -0.65210614729E+02  0.13891970860E+03  0.00000000000E+00 0.  1.
<mgrwt>
<rscale>  0 0.12013161E+04</rscale>
<asrwt>0</asrwt>
<pdfrwt beam="1">  1        1 0.80891450E-01 0.12013161E+04</pdfrwt>
<pdfrwt beam="2">  1       -2 0.10556629E+00 0.12013161E+04</pdfrwt>
<totfact> 0.25958182E+01</totfact>
</mgrwt>
</event>
<event>
12    5  0.5221187E-008  0.2307835E+04  0.7818608E-02  0.8474838E-01
          1   -1    0    0  501    0  0.00000000000E+00  0.00000000000E+00  0.18242745237E+04  0.18242745237E+04  0.00000000000E+00 0. -1.
         -2   -1    0    0    0  501 -0.00000000000E+00 -0.00000000000E+00 -0.72989299100E+03  0.72989299100E+03  0.00000000000E+00 0.  1.
        -24    2    1    2    0    0 -0.59711105007E+03  0.11127145291E+03 -0.38240002401E+03  0.72216471464E+03  0.79806981919E+02 0.  0.
        254    2    1    2    0    0  0.59711105007E+03 -0.11127145291E+03  0.14767815567E+04  0.18320028001E+04  0.89801311284E+03 0.  0.
         23    2    4    4    0    0 -0.24454920632E+02 -0.35087738283E+03  0.27755604412E+03  0.45734092159E+03  0.91708123987E+02 0.  0.
         23    2    4    4    0    0  0.62156597070E+03  0.23960592992E+03  0.11992255126E+04  0.13746618785E+04  0.88307375024E+02 0.  0.
          1    1    3    3  502    0 -0.24299698346E+02  0.15263705808E+02 -0.40047185382E+01  0.28974019833E+02  0.00000000000E+00 0. -1.
         -4    1    3    3    0  502 -0.57281135173E+03  0.96007747100E+02 -0.37839530547E+03  0.69319069481E+03  0.00000000000E+00 0.  1.
         13    1    5    5    0    0 -0.24471230645E+02 -0.35674921576E+03  0.27377239474E+03  0.45035560194E+03  0.00000000000E+00 0. -1.
        -13    1    5    5    0    0  0.16310013456E-01  0.58718329298E+01  0.37836493821E+01  0.69853196504E+01  0.00000000000E+00 0.  1.
          4    1    6    6  503    0  0.80269656004E+02  0.31542851466E+02  0.10166085276E+03  0.13331578353E+03  0.00000000000E+00 0.  1.
         -4    1    6    6    0  503  0.54129631470E+03  0.20806307846E+03  0.10975646598E+04  0.12413460949E+04  0.00000000000E+00 0. -1.
<mgrwt>
<rscale>  0 0.23078346E+04</rscale>
<asrwt>0</asrwt>
<pdfrwt beam="1">  1        1 0.28065762E+00 0.23078346E+04</pdfrwt>
<pdfrwt beam="2">  1       -2 0.11229123E+00 0.23078346E+04</pdfrwt>
<totfact> 0.19447184E+00</totfact>
</mgrwt>
</event>
<event>
12    5  0.5221187E-008  0.2444389E+04  0.7818608E-02  0.8423069E-01
          1   -1    0    0  501    0  0.00000000000E+00  0.00000000000E+00  0.27983265209E+04  0.27983265209E+04  0.00000000000E+00 0. -1.
         -2   -1    0    0    0  501 -0.00000000000E+00 -0.00000000000E+00 -0.53380465135E+03  0.53380465135E+03  0.00000000000E+00 0.  1.
        -24    2    1    2    0    0 -0.38756709166E+03 -0.84990565929E+03  0.16594366675E+04  0.19059314696E+04  0.79352587632E+02 0.  0.
        254    2    1    2    0    0  0.38756709166E+03  0.84990565929E+03  0.60508520202E+03  0.14261997026E+04  0.89183496780E+03 0.  0.
         23    2    4    4    0    0  0.43082742099E+03  0.75194053865E+03  0.71110889467E+02  0.87435590587E+03  0.91731407806E+02 0.  0.
         23    2    4    4    0    0 -0.43260329332E+02  0.97965120636E+02  0.53397431255E+03  0.55184379674E+03  0.89075184993E+02 0.  0.
          1    1    3    3  502    0 -0.33765587918E+03 -0.76861211227E+03  0.15293560910E+04  0.17446220580E+04  0.00000000000E+00 0. -1.
         -2    1    3    3    0  502 -0.49911212474E+02 -0.81293547018E+02  0.13008057646E+03  0.16130941166E+03  0.00000000000E+00 0.  1.
         13    1    5    5    0    0  0.60223717880E+02  0.81397206230E+02 -0.18700477837E+02  0.10296654432E+03  0.00000000000E+00 0. -1.
        -13    1    5    5    0    0  0.37060370311E+03  0.67054333242E+03  0.89811367304E+02  0.77138936155E+03  0.00000000000E+00 0.  1.
          1    1    6    6  503    0 -0.71263713152E+01  0.92546251440E+02  0.46078627991E+03  0.47004211468E+03  0.00000000000E+00 0. -1.
         -1    1    6    6    0  503 -0.36133958017E+02  0.54188691961E+01  0.73188032639E+02  0.81801682054E+02  0.00000000000E+00 0.  1.
<mgrwt>
<rscale>  0 0.24443893E+04</rscale>
<asrwt>0</asrwt>
<pdfrwt beam="1">  1        1 0.43051176E+00 0.24443893E+04</pdfrwt>
<pdfrwt beam="2">  1       -2 0.82123794E-01 0.24443893E+04</pdfrwt>
<totfact> 0.85448265E-01</totfact>
</mgrwt>
</event>
<event>
12    5  0.5221187E-008  0.1433875E+04  0.7818608E-02  0.8929656E-01
          1   -1    0    0  501    0  0.00000000000E+00  0.00000000000E+00  0.45649588900E+03  0.45649588900E+03  0.00000000000E+00 0. -1.
         -2   -1    0    0    0  501 -0.00000000000E+00 -0.00000000000E+00 -0.11259678748E+04  0.11259678748E+04  0.00000000000E+00 0.  1.
        -24    2    1    2    0    0 -0.23412532621E+02 -0.20097686302E+03 -0.63299208188E+03  0.66931066539E+03  0.79736722609E+02 0.  0.
        254    2    1    2    0    0  0.23412532621E+02  0.20097686302E+03 -0.36479903940E+02  0.91315309843E+03  0.88970666606E+03 0.  0.
         23    2    4    4    0    0  0.21779059013E+03  0.17698240293E+03 -0.39640483900E+03  0.49418147491E+03  0.91230596137E+02 0.  0.
         23    2    4    4    0    0 -0.19437805751E+03  0.23994460093E+02  0.35992493506E+03  0.41897162351E+03  0.87365319640E+02 0.  0.
          1    1    3    3  502    0 -0.26738222542E+02 -0.26907022945E+02 -0.18132293942E+03  0.18524828957E+03  0.00000000000E+00 0. -1.
         -2    1    3    3    0  502  0.33256899205E+01 -0.17406984008E+03 -0.45166914246E+03  0.48406237582E+03  0.00000000000E+00 0.  1.
         13    1    5    5    0    0  0.15652400649E+03  0.92867502013E+02 -0.19045053133E+03  0.26343033695E+03  0.00000000000E+00 0. -1.
        -13    1    5    5    0    0  0.61266583631E+02  0.84114900914E+02 -0.20595430767E+03  0.23075113797E+03  0.00000000000E+00 0.  1.
          2    1    6    6  503    0 -0.15011972335E+03  0.18254906143E+02  0.18760567121E+03  0.24096692887E+03  0.00000000000E+00 0. -1.
         -2    1    6    6    0  503 -0.44258334153E+02  0.57395539502E+01  0.17231926385E+03  0.17800469465E+03  0.00000000000E+00 0.  1.
<mgrwt>
<rscale>  0 0.14338755E+04</rscale>
<asrwt>0</asrwt>
<pdfrwt beam="1">  1        1 0.70230138E-01 0.14338755E+04</pdfrwt>
<pdfrwt beam="2">  1       -2 0.17322582E+00 0.14338755E+04</pdfrwt>
<totfact> 0.86242508E+00</totfact>
</mgrwt>
</event>
<event>
12    5  0.5221187E-008  0.1312965E+04  0.7818608E-02  0.9019346E-01
         -2   -1    0    0    0  501 -0.00000000000E+00  0.00000000000E+00  0.68682167393E+03  0.68682167393E+03  0.00000000000E+00 0.  1.
          1   -1    0    0  501    0  0.00000000000E+00 -0.00000000000E+00 -0.62748369688E+03  0.62748369688E+03  0.00000000000E+00 0. -1.
        -24    2    1    2    0    0  0.32807692408E+03 -0.81570548340E+02 -0.15230544361E+03  0.37944837829E+03  0.80597153575E+02 0.  0.
        254    2    1    2    0    0 -0.32807692408E+03  0.81570548340E+02  0.21164342067E+03  0.93485699252E+03  0.84550365847E+03 0.  0.
         23    2    4    4    0    0 -0.38461039089E+03  0.22884804797E+03  0.44565342129E+03  0.63821707512E+03  0.91746832221E+02 0.  0.
         23    2    4    4    0    0  0.56533466818E+02 -0.14727749963E+03 -0.23401000062E+03  0.29663991740E+03  0.91366653859E+02 0.  0.
          3    1    3    3  502    0  0.33060984048E+03 -0.86158881474E+02 -0.14682512611E+03  0.37186534813E+03  0.00000000000E+00 0. -1.
         -4    1    3    3    0  502 -0.25329164087E+01  0.45883331338E+01 -0.54803175010E+01  0.75830301590E+01  0.00000000000E+00 0.  1.
         13    1    5    5    0    0 -0.32950573764E+03  0.22713729344E+03  0.40759091200E+03  0.57122301490E+03  0.00000000000E+00 0.  1.
        -13    1    5    5    0    0 -0.55104653249E+02  0.17107545343E+01  0.38062509294E+02  0.66994060218E+02  0.00000000000E+00 0. -1.
          2    1    6    6  503    0  0.39972259486E+02 -0.28032755945E+02 -0.23609392594E+02  0.54231175102E+02  0.00000000000E+00 0. -1.
         -2    1    6    6    0  503  0.16561207332E+02 -0.11924474369E+03 -0.21040060803E+03  0.24240874230E+03  0.00000000000E+00 0.  1.
<mgrwt>
<rscale>  0 0.13129652E+04</rscale>
<asrwt>0</asrwt>
<pdfrwt beam="1">  1        1 0.96535954E-01 0.13129652E+04</pdfrwt>
<pdfrwt beam="2">  1       -2 0.10566487E+00 0.13129652E+04</pdfrwt>
<totfact> 0.19957029E+01</totfact>
</mgrwt>
</event>
<event>
12    5  0.5221187E-008  0.1590975E+04  0.7818608E-02  0.8826112E-01
         -2   -1    0    0    0  501 -0.00000000000E+00  0.00000000000E+00  0.10212596106E+04  0.10212596106E+04  0.00000000000E+00 0.  1.
          1   -1    0    0  501    0  0.00000000000E+00 -0.00000000000E+00 -0.61962716392E+03  0.61962716392E+03  0.00000000000E+00 0. -1.
        -24    2    1    2    0    0  0.20524096451E+03  0.47424359488E+03  0.36769957245E+03  0.63915858246E+03  0.79308745783E+02 0.  0.
        254    2    1    2    0    0 -0.20524096451E+03 -0.47424359488E+03  0.33932874196E+02  0.10017281920E+04  0.85748299688E+03 0.  0.
         23    2    4    4    0    0 -0.38845953117E+03 -0.45116195145E+02 -0.22491288534E+03  0.46023040023E+03  0.91049090565E+02 0.  0.
         23    2    4    4    0    0  0.18321856665E+03 -0.42912739973E+03  0.25884575953E+03  0.54149779179E+03  0.92191989435E+02 0.  0.
          3    1    3    3  502    0  0.51364033253E+02  0.14937203664E+03  0.71544342891E+02  0.17340375498E+03  0.00000000000E+00 0. -1.
         -2    1    3    3    0  502  0.15387693126E+03  0.32487155824E+03  0.29615522956E+03  0.46575482748E+03  0.00000000000E+00 0.  1.
         13    1    5    5    0    0 -0.25716927886E+03  0.67124356912E+01 -0.17214205751E+03  0.30953833809E+03  0.00000000000E+00 0. -1.
        -13    1    5    5    0    0 -0.13129025230E+03 -0.51828630836E+02 -0.52770827825E+02  0.15069206215E+03  0.00000000000E+00 0.  1.
          3    1    6    6  503    0  0.10240494643E+03 -0.12999927600E+03  0.81260689835E+02  0.18436345767E+03  0.00000000000E+00 0. -1.
         -3    1    6    6    0  503  0.80813620220E+02 -0.29912812373E+03  0.17758506970E+03  0.35713433411E+03  0.00000000000E+00 0.  1.
<mgrwt>
<rscale>  0 0.15909748E+04</rscale>
<asrwt>0</asrwt>
<pdfrwt beam="1">  1        1 0.95327256E-01 0.15909748E+04</pdfrwt>
<pdfrwt beam="2">  1       -2 0.15711686E+00 0.15909748E+04</pdfrwt>
<totfact> 0.72638885E+00</totfact>
</mgrwt>
</event>
<event>
12    5  0.5221187E-008  0.1126644E+04  0.7818608E-02  0.9179605E-01
         -2   -1    0    0    0  501 -0.00000000000E+00  0.00000000000E+00  0.17401333873E+03  0.17401333873E+03  0.00000000000E+00 0.  1.
          1   -1    0    0  501    0  0.00000000000E+00 -0.00000000000E+00 -0.18236062165E+04  0.18236062165E+04  0.00000000000E+00 0. -1.
        -24    2    1    2    0    0  0.15133164293E+03 -0.24957613303E+02 -0.96241821569E+02  0.19790567122E+03  0.79875014055E+02 0.  0.
        254    2    1    2    0    0 -0.15133164293E+03  0.24957613303E+02 -0.15533510562E+04  0.17997138840E+04  0.89584954756E+03 0.  0.
         23    2    4    4    0    0 -0.52076958396E+02 -0.42586729814E+03 -0.74216094460E+03  0.86181518775E+03  0.88586595646E+02 0.  0.
         23    2    4    4    0    0 -0.99254684534E+02  0.45082491144E+03 -0.81119011163E+03  0.93789869628E+03  0.92357858891E+02 0.  0.
          1    1    3    3  502    0 -0.65144614951E+01  0.48140558619E+01  0.35048476604E+01  0.88259446823E+01  0.00000000000E+00 0. -1.
         -4    1    3    3    0  502  0.15784610443E+03 -0.29771669165E+02 -0.99746669229E+02  0.18907972654E+03  0.00000000000E+00 0.  1.
         13    1    5    5    0    0 -0.47573870133E+01 -0.22918687169E+03 -0.31940632373E+03  0.39315347452E+03  0.00000000000E+00 0.  1.
        -13    1    5    5    0    0 -0.47319571383E+02 -0.19668042645E+03 -0.42275462087E+03  0.46866171323E+03  0.00000000000E+00 0. -1.
          2    1    6    6  503    0  0.45723073034E+01  0.10665707809E+02 -0.33340887780E+01  0.12073916727E+02  0.00000000000E+00 0. -1.
         -2    1    6    6    0  503 -0.10382699184E+03  0.44015920363E+03 -0.80785602285E+03  0.92582477955E+03  0.00000000000E+00 0.  1.
<mgrwt>
<rscale>  0 0.11266442E+04</rscale>
<asrwt>0</asrwt>
<pdfrwt beam="1">  1        1 0.28055480E+00 0.11266442E+04</pdfrwt>
<pdfrwt beam="2">  1       -2 0.26771283E-01 0.11266442E+04</pdfrwt>
<totfact> 0.43461097E+01</totfact>
</mgrwt>
</event>
<event>
12    5  0.5221187E-008  0.3848683E+04  0.7818608E-02  0.8035788E-01
         -2   -1    0    0    0  501 -0.00000000000E+00  0.00000000000E+00  0.17328907716E+04  0.17328907716E+04  0.00000000000E+00 0.  1.
          1   -1    0    0  501    0  0.00000000000E+00 -0.00000000000E+00 -0.21369441597E+04  0.21369441597E+04  0.00000000000E+00 0. -1.
        -24    2    1    2    0    0 -0.40552056690E+03 -0.24072968599E+03  0.15751996240E+04  0.16461804134E+04  0.79109961350E+02 0.  0.
        254    2    1    2    0    0  0.40552056690E+03  0.24072968599E+03 -0.19792530121E+04  0.22236545179E+04  0.89710602339E+03 0.  0.
         23    2    4    4    0    0  0.63550953364E+03  0.27483173025E+03 -0.17418170082E+04  0.18764994579E+04  0.88988080156E+02 0.  0.
         23    2    4    4    0    0 -0.22998896674E+03 -0.34102044252E+02 -0.23743600397E+03  0.34715506000E+03  0.10041367167E+03 0.  0.
          3    1    3    3  502    0 -0.73035195617E-01 -0.11335315933E+02  0.24012676591E+02  0.26553782376E+02  0.00000000000E+00 0. -1.
         -4    1    3    3    0  502 -0.40544753170E+03 -0.22939437006E+03  0.15511869474E+04  0.16196266310E+04  0.00000000000E+00 0.  1.
         13    1    5    5    0    0  0.63783907880E+03  0.27340659683E+03 -0.17232921780E+04  0.18577744181E+04  0.00000000000E+00 0.  1.
        -13    1    5    5    0    0 -0.23295451580E+01  0.14251334109E+01 -0.18524830150E+02  0.18725039866E+02  0.00000000000E+00 0. -1.
          3    1    6    6  503    0 -0.44384520884E+02  0.29881926541E+02 -0.76191467065E+02  0.93102389236E+02  0.00000000000E+00 0. -1.
         -3    1    6    6    0  503 -0.18560444586E+03 -0.63983970794E+02 -0.16124453690E+03  0.25405267076E+03  0.00000000000E+00 0.  1.
<mgrwt>
<rscale>  0 0.38486833E+04</rscale>
<asrwt>0</asrwt>
<pdfrwt beam="1">  1        1 0.32876064E+00 0.38486833E+04</pdfrwt>
<pdfrwt beam="2">  1       -2 0.26659858E+00 0.38486833E+04</pdfrwt>
<totfact> 0.85213747E-02</totfact>
</mgrwt>
</event>
<event>
12    5  0.5221187E-008  0.3514870E+04  0.7818608E-02  0.8110275E-01
         -2   -1    0    0    0  501 -0.00000000000E+00  0.00000000000E+00  0.11831559030E+04  0.11831559030E+04  0.00000000000E+00 0.  1.
          1   -1    0    0  501    0  0.00000000000E+00 -0.00000000000E+00 -0.26104576950E+04  0.26104576950E+04  0.00000000000E+00 0. -1.
        -24    2    1    2    0    0  0.11298059847E+04 -0.81918019307E+03 -0.15845999674E+04  0.21130139234E+04  0.79705907869E+02 0.  0.
        254    2    1    2    0    0 -0.11298059847E+04  0.81918019307E+03  0.15729817543E+03  0.16805996746E+04  0.92312230964E+03 0.  0.
         23    2    4    4    0    0 -0.99795296523E+03  0.75075676826E+03  0.45791477884E+03  0.13333022989E+04  0.91995812971E+02 0.  0.
         23    2    4    4    0    0 -0.13185301950E+03  0.68423424810E+02 -0.30061660341E+03  0.34729737577E+03  0.90433075550E+02 0.  0.
          3    1    3    3  502    0  0.92379925060E+03 -0.67056752004E+03 -0.13410658362E+04  0.17611142585E+04  0.00000000000E+00 0. -1.
         -4    1    3    3    0  502  0.20600673414E+03 -0.14861267303E+03 -0.24353413126E+03  0.35189966494E+03  0.00000000000E+00 0.  1.
         13    1    5    5    0    0 -0.59981575200E+03  0.41180224993E+03  0.23156852858E+03  0.76353389763E+03  0.00000000000E+00 0.  1.
        -13    1    5    5    0    0 -0.39813721323E+03  0.33895451833E+03  0.22634625026E+03  0.56976840125E+03  0.00000000000E+00 0. -1.
          4    1    6    6  503    0 -0.36445381374E+02  0.46554755898E+02 -0.19287107276E+03  0.20172967513E+03  0.00000000000E+00 0.  1.
         -4    1    6    6    0  503 -0.95407638131E+02  0.21868668913E+02 -0.10774553065E+03  0.14556770063E+03  0.00000000000E+00 0. -1.
<mgrwt>
<rscale>  0 0.35148704E+04</rscale>
<asrwt>0</asrwt>
<pdfrwt beam="1">  1        1 0.40160887E+00 0.35148704E+04</pdfrwt>
<pdfrwt beam="2">  1       -2 0.18202399E+00 0.35148704E+04</pdfrwt>
<totfact> 0.14283326E-01</totfact>
</mgrwt>
</event>
<event>
12    5  0.5221187E-008  0.2041088E+04  0.7818608E-02  0.8587648E-01
          1   -1    0    0  501    0  0.00000000000E+00  0.00000000000E+00  0.12312880388E+04  0.12312880388E+04  0.00000000000E+00 0. -1.
         -2   -1    0    0    0  501 -0.00000000000E+00 -0.00000000000E+00 -0.84587012098E+03  0.84587012098E+03  0.00000000000E+00 0.  1.
        -24    2    1    2    0    0  0.47356752710E+03  0.28032598715E+03 -0.45939563950E+03  0.72140896822E+03  0.80855946196E+02 0.  0.
        254    2    1    2    0    0 -0.47356752710E+03 -0.28032598715E+03  0.84481355734E+03  0.13557491916E+04  0.90636475111E+03 0.  0.
         23    2    4    4    0    0 -0.64129227985E+03 -0.32794558889E+03  0.31713852606E+03  0.79246163972E+03  0.92814375156E+02 0.  0.
         23    2    4    4    0    0  0.16772475275E+03  0.47619601742E+02  0.52767503128E+03  0.56328755188E+03  0.91938611643E+02 0.  0.
          1    1    3    3  502    0  0.73510605166E+02  0.13851275821E+02 -0.49592645207E+02  0.89750194275E+02  0.00000000000E+00 0. -1.
         -2    1    3    3    0  502  0.40005692194E+03  0.26647471133E+03 -0.40980299429E+03  0.63165877394E+03  0.00000000000E+00 0.  1.
         13    1    5    5    0    0 -0.35919617398E+02 -0.27920794946E+02  0.45248677741E+02  0.64165664820E+02  0.00000000000E+00 0. -1.
        -13    1    5    5    0    0 -0.60537266246E+03 -0.30002479395E+03  0.27188984832E+03  0.72829597490E+03  0.00000000000E+00 0.  1.
          1    1    6    6  503    0  0.70540635846E+02  0.68758878453E+01  0.98401238435E+02  0.12126855679E+03  0.00000000000E+00 0. -1.
         -1    1    6    6    0  503  0.97184116904E+02  0.40743713896E+02  0.42927379285E+03  0.44201899509E+03  0.00000000000E+00 0.  1.
<mgrwt>
<rscale>  0 0.20410877E+04</rscale>
<asrwt>0</asrwt>
<pdfrwt beam="1">  1        1 0.18942893E+00 0.20410877E+04</pdfrwt>
<pdfrwt beam="2">  1       -2 0.13013387E+00 0.20410877E+04</pdfrwt>
<totfact> 0.35614850E+00</totfact>
</mgrwt>
</event>
<event>
12    5  0.1012365E-007  0.1947018E+04  0.7818608E-02  0.8631800E-01
         -4   -1    0    0    0  501 -0.00000000000E+00  0.00000000000E+00  0.78351196425E+03  0.78351196425E+03  0.00000000000E+00 0.  1.
          1   -1    0    0  501    0  0.00000000000E+00 -0.00000000000E+00 -0.12095795656E+04  0.12095795656E+04  0.00000000000E+00 0. -1.
        -24    2    1    2    0    0  0.32484605357E+03 -0.62283029067E+03  0.98477114237E+02  0.71446583794E+03  0.85563789393E+02 0.  0.
        254    2    1    2    0    0 -0.32484605357E+03  0.62283029067E+03 -0.52454471560E+03  0.12786256919E+04  0.93074914553E+03 0.  0.
         23    2    4    4    0    0 -0.42700405005E+03  0.78488400897E+03 -0.56602457723E+03  0.10615291089E+04  0.89915853431E+02 0.  0.
         23    2    4    4    0    0  0.10215799649E+03 -0.16205371830E+03  0.41479861626E+02  0.21709658304E+03  0.93341756932E+02 0.  0.
          3    1    3    3  502    0  0.62633216453E+01  0.14851322028E+01 -0.10826070828E+01  0.65273925719E+01  0.00000000000E+00 0. -1.
         -2    1    3    3    0  502  0.31858273192E+03 -0.62431542287E+03  0.99559721320E+02  0.70793844537E+03  0.00000000000E+00 0.  1.
         13    1    5    5    0    0 -0.39542341739E+03  0.73039595414E+03 -0.55121467924E+03  0.99683276002E+03  0.00000000000E+00 0. -1.
        -13    1    5    5    0    0 -0.31580632662E+02  0.54488054827E+02 -0.14809897988E+02  0.64696348866E+02  0.00000000000E+00 0.  1.
          1    1    6    6  503    0  0.11203093064E+03 -0.12670538138E+03  0.55205992259E+02  0.17791257592E+03  0.00000000000E+00 0. -1.
         -1    1    6    6    0  503 -0.98729341514E+01 -0.35348336921E+02 -0.13726130633E+02  0.39184007120E+02  0.00000000000E+00 0.  1.
<mgrwt>
<rscale>  0 0.19470183E+04</rscale>
<asrwt>0</asrwt>
<pdfrwt beam="1">  1        1 0.18608916E+00 0.19470183E+04</pdfrwt>
<pdfrwt beam="2">  1       -4 0.12054030E+00 0.19470183E+04</pdfrwt>
<totfact> 0.24982747E+00</totfact>
</mgrwt>
</event>
<event>
12    5  0.5221187E-008  0.2551323E+04  0.7818608E-02  0.8384926E-01
         -2   -1    0    0    0  501 -0.00000000000E+00  0.00000000000E+00  0.11662655083E+04  0.11662655083E+04  0.00000000000E+00 0.  1.
          1   -1    0    0  501    0  0.00000000000E+00 -0.00000000000E+00 -0.13953185351E+04  0.13953185351E+04  0.00000000000E+00 0. -1.
        -24    2    1    2    0    0  0.55977233662E+03 -0.18946929637E+03 -0.10625645866E+04  0.12184819716E+04  0.80069541002E+02 0.  0.
        254    2    1    2    0    0 -0.55977233662E+03  0.18946929637E+03  0.83351155986E+03  0.13431020718E+04  0.87174421230E+03 0.  0.
         23    2    4    4    0    0 -0.37902235243E+03  0.17563812553E+03 -0.55861273828E+02  0.43074947122E+03  0.88982752588E+02 0.  0.
         23    2    4    4    0    0 -0.18074998419E+03  0.13831170843E+02  0.88937283369E+03  0.91235260056E+03  0.92419545400E+02 0.  0.
          3    1    3    3  502    0  0.55715209247E+03 -0.19218638939E+03 -0.10621186082E+04  0.12146810282E+04  0.00000000000E+00 0. -1.
         -4    1    3    3    0  502  0.26202441489E+01  0.27170930201E+01 -0.44597834551E+00  0.38009433782E+01  0.00000000000E+00 0.  1.
         13    1    5    5    0    0 -0.28420602847E+03  0.16626008508E+03 -0.62868162652E+02  0.33521319841E+03  0.00000000000E+00 0. -1.
        -13    1    5    5    0    0 -0.94816323956E+02  0.93780404510E+01  0.70068888233E+01  0.95536272809E+02  0.00000000000E+00 0.  1.
          3    1    6    6  503    0 -0.12483147407E+03 -0.14401879299E+02  0.40776320102E+03  0.42668623033E+03  0.00000000000E+00 0. -1.
         -3    1    6    6    0  503 -0.55918510123E+02  0.28233050142E+02  0.48160963267E+03  0.48566637023E+03  0.00000000000E+00 0.  1.
<mgrwt>
<rscale>  0 0.25513227E+04</rscale>
<asrwt>0</asrwt>
<pdfrwt beam="1">  1        1 0.21466439E+00 0.25513227E+04</pdfrwt>
<pdfrwt beam="2">  1       -2 0.17942546E+00 0.25513227E+04</pdfrwt>
<totfact> 0.11000010E+00</totfact>
</mgrwt>
</event>
<event>
12    5  0.5221187E-008  0.1197041E+04  0.7818608E-02  0.9115451E-01
         -2   -1    0    0    0  501 -0.00000000000E+00  0.00000000000E+00  0.28787905100E+03  0.28787905100E+03  0.00000000000E+00 0.  1.
          1   -1    0    0  501    0  0.00000000000E+00 -0.00000000000E+00 -0.12443652816E+04  0.12443652816E+04  0.00000000000E+00 0. -1.
        -24    2    1    2    0    0  0.37299054272E+02  0.22797983309E+03 -0.23970921754E+03  0.34226459014E+03  0.79489099545E+02 0.  0.
        254    2    1    2    0    0 -0.37299054272E+02 -0.22797983309E+03 -0.71677701310E+03  0.11899797425E+04  0.92136663566E+03 0.  0.
         23    2    4    4    0    0 -0.15932674360E+03  0.20270212972E+03  0.67759188007E+02  0.28183587918E+03  0.91471255661E+02 0.  0.
         23    2    4    4    0    0  0.12202768933E+03 -0.43068196281E+03 -0.78453620111E+03  0.90814386332E+03  0.94077178808E+02 0.  0.
          3    1    3    3  502    0  0.29940247305E+02  0.23327990139E+03 -0.22956977111E+03  0.32866123989E+03  0.00000000000E+00 0. -1.
         -4    1    3    3    0  502  0.73588069668E+01 -0.53000683040E+01 -0.10139446433E+02  0.13603350248E+02  0.00000000000E+00 0.  1.
         13    1    5    5    0    0 -0.66474585800E+01  0.70820328152E+02  0.26506177762E+02  0.75909716405E+02  0.00000000000E+00 0.  1.
        -13    1    5    5    0    0 -0.15267928502E+03  0.13188180157E+03  0.41253010246E+02  0.20592616278E+03  0.00000000000E+00 0. -1.
          2    1    6    6  503    0  0.92127369140E+02 -0.16197283923E+03 -0.34512637310E+03  0.39221788104E+03  0.00000000000E+00 0. -1.
         -2    1    6    6    0  503  0.29900320193E+02 -0.26870912358E+03 -0.43940982801E+03  0.51592598228E+03  0.00000000000E+00 0.  1.
<mgrwt>
<rscale>  0 0.11970408E+04</rscale>
<asrwt>0</asrwt>
<pdfrwt beam="1">  1        1 0.19144082E+00 0.11970408E+04</pdfrwt>
<pdfrwt beam="2">  1       -2 0.44289084E-01 0.11970408E+04</pdfrwt>
<totfact> 0.41631434E+01</totfact>
</mgrwt>
</event>
<event>
12    5  0.5221187E-008  0.3858098E+04  0.7818608E-02  0.8033801E-01
         -2   -1    0    0    0  501 -0.00000000000E+00  0.00000000000E+00  0.94727910832E+03  0.94727910832E+03  0.00000000000E+00 0.  1.
          1   -1    0    0  501    0  0.00000000000E+00 -0.00000000000E+00 -0.39283347271E+04  0.39283347271E+04  0.00000000000E+00 0. -1.
        -24    2    1    2    0    0  0.15027001960E+04 -0.88987349612E+03 -0.75210792534E+03  0.19031537672E+04  0.79656839486E+02 0.  0.
        254    2    1    2    0    0 -0.15027001960E+04  0.88987349612E+03 -0.22289476935E+04  0.29724600683E+04  0.90406212123E+03 0.  0.
         23    2    4    4    0    0 -0.11532641281E+04  0.10537583310E+04 -0.16992730598E+04  0.23100706953E+04  0.92048445349E+02 0.  0.
         23    2    4    4    0    0 -0.34943606789E+03 -0.16388483486E+03 -0.52967463366E+03  0.66238937294E+03  0.96128347576E+02 0.  0.
          1    1    3    3  502    0  0.40598385479E+03 -0.27099052989E+03 -0.18391546488E+03  0.52161638765E+03  0.00000000000E+00 0. -1.
         -2    1    3    3    0  502  0.10967163412E+04 -0.61888296623E+03 -0.56819246046E+03  0.13815373795E+04  0.00000000000E+00 0.  1.
         13    1    5    5    0    0 -0.10300144586E+03  0.11154823644E+03 -0.20248604823E+03  0.25308675712E+03  0.00000000000E+00 0. -1.
        -13    1    5    5    0    0 -0.10502626822E+04  0.94221009453E+03 -0.14967870116E+04  0.20569839382E+04  0.00000000000E+00 0.  1.
          1    1    6    6  503    0 -0.13078955689E+03 -0.13392139517E+02 -0.15553330977E+03  0.20365624969E+03  0.00000000000E+00 0. -1.
         -1    1    6    6    0  503 -0.21864651101E+03 -0.15049269534E+03 -0.37414132389E+03  0.45873312325E+03  0.00000000000E+00 0.  1.
<mgrwt>
<rscale>  0 0.38580977E+04</rscale>
<asrwt>0</asrwt>
<pdfrwt beam="1">  1        1 0.60435917E+00 0.38580977E+04</pdfrwt>
<pdfrwt beam="2">  1       -2 0.14573525E+00 0.38580977E+04</pdfrwt>
<totfact> 0.24936152E-02</totfact>
</mgrwt>
</event>
<event>
12    5  0.5221187E-008  0.2422999E+04  0.7818608E-02  0.8430943E-01
         -4   -1    0    0    0  501 -0.00000000000E+00  0.00000000000E+00  0.17002127449E+04  0.17002127449E+04  0.00000000000E+00 0.  1.
          3   -1    0    0  501    0  0.00000000000E+00 -0.00000000000E+00 -0.86326313782E+03  0.86326313782E+03  0.00000000000E+00 0. -1.
        -24    2    1    2    0    0  0.29032055332E+03  0.68971709666E+03  0.11280081105E+04  0.13560062067E+04  0.79717238781E+02 0.  0.
        254    2    1    2    0    0 -0.29032055332E+03 -0.68971709666E+03 -0.29105850337E+03  0.12074696761E+04  0.90181609495E+03 0.  0.
         23    2    4    4    0    0 -0.23633385999E+03 -0.31145743681E+03  0.29774047113E+03  0.49965468953E+03  0.90255151065E+02 0.  0.
         23    2    4    4    0    0 -0.53986693324E+02 -0.37825965986E+03 -0.58879897450E+03  0.70781498653E+03  0.91229871471E+02 0.  0.
          3    1    3    3  502    0  0.89268359946E+02  0.13957116767E+03  0.21855058950E+03  0.27425045324E+03  0.00000000000E+00 0. -1.
         -4    1    3    3    0  502  0.20105219337E+03  0.55014592899E+03  0.90945752098E+03  0.10817557534E+04  0.00000000000E+00 0.  1.
         13    1    5    5    0    0 -0.14655311549E+03 -0.23984303386E+03  0.24668437692E+03  0.37397283106E+03  0.00000000000E+00 0.  1.
        -13    1    5    5    0    0 -0.89780744499E+02 -0.71614402949E+02  0.51056094214E+02  0.12568185847E+03  0.00000000000E+00 0. -1.
          1    1    6    6  503    0 -0.30405579480E+02 -0.96053028832E+02 -0.22707989814E+03  0.24842697871E+03  0.00000000000E+00 0. -1.
         -1    1    6    6    0  503 -0.23581113844E+02 -0.28220663102E+03 -0.36171907637E+03  0.45938800782E+03  0.00000000000E+00 0.  1.
<mgrwt>
<rscale>  0 0.24229990E+04</rscale>
<asrwt>0</asrwt>
<pdfrwt beam="1">  1        3 0.13280971E+00 0.24229990E+04</pdfrwt>
<pdfrwt beam="2">  1       -4 0.26157119E+00 0.24229990E+04</pdfrwt>
<totfact> 0.48254499E-02</totfact>
</mgrwt>
</event>
<event>
12    5  0.5221187E-008  0.1510583E+04  0.7818608E-02  0.8877446E-01
         -2   -1    0    0    0  501 -0.00000000000E+00  0.00000000000E+00  0.45714634987E+03  0.45714634987E+03  0.00000000000E+00 0.  1.
          1   -1    0    0  501    0  0.00000000000E+00 -0.00000000000E+00 -0.12478830400E+04  0.12478830400E+04  0.00000000000E+00 0. -1.
        -24    2    1    2    0    0 -0.14512654826E+03 -0.20139621053E+03  0.22148001820E+03  0.34216415553E+03  0.80004763852E+02 0.  0.
        254    2    1    2    0    0  0.14512654826E+03  0.20139621053E+03 -0.10122167083E+04  0.13628652343E+04  0.87817813324E+03 0.  0.
         23    2    4    4    0    0  0.12428309012E+03  0.28726452187E+03  0.16754186235E+02  0.32611155765E+03  0.90004740222E+02 0.  0.
         23    2    4    4    0    0  0.20843458142E+02 -0.85868311338E+02 -0.10289708945E+04  0.10367536767E+04  0.90935513536E+02 0.  0.
          1    1    3    3  502    0 -0.48927829424E+02 -0.23658089758E+02  0.23374225647E+02  0.59160731299E+02  0.00000000000E+00 0. -1.
         -2    1    3    3    0  502 -0.96198718835E+02 -0.17773812077E+03  0.19810579255E+03  0.28300342423E+03  0.00000000000E+00 0.  1.
         13    1    5    5    0    0  0.19678620980E+02  0.12467538337E+03 -0.24127648120E+02  0.12850425186E+03  0.00000000000E+00 0. -1.
        -13    1    5    5    0    0  0.10460446914E+03  0.16258913850E+03  0.40881834355E+02  0.19760730579E+03  0.00000000000E+00 0.  1.
          3    1    6    6  503    0  0.20713219170E+02 -0.51497861909E+02 -0.21474939051E+03  0.22180705118E+03  0.00000000000E+00 0. -1.
         -3    1    6    6    0  503  0.13023897281E+00 -0.34370449429E+02 -0.81422150404E+03  0.81494662549E+03  0.00000000000E+00 0.  1.
<mgrwt>
<rscale>  0 0.15105829E+04</rscale>
<asrwt>0</asrwt>
<pdfrwt beam="1">  1        1 0.19198200E+00 0.15105829E+04</pdfrwt>
<pdfrwt beam="2">  1       -2 0.70330209E-01 0.15105829E+04</pdfrwt>
<totfact> 0.15381987E+01</totfact>
</mgrwt>
</event>
<event>
12    5  0.5221187E-008  0.1610811E+04  0.7818608E-02  0.8813934E-01
          1   -1    0    0  501    0  0.00000000000E+00  0.00000000000E+00  0.57593592228E+03  0.57593592228E+03  0.00000000000E+00 0. -1.
         -2   -1    0    0    0  501 -0.00000000000E+00 -0.00000000000E+00 -0.11263020893E+04  0.11263020893E+04  0.00000000000E+00 0.  1.
        -24    2    1    2    0    0  0.15030789680E+03 -0.48480739019E+03  0.32724978297E+02  0.51537383459E+03  0.83117962911E+02 0.  0.
        254    2    1    2    0    0 -0.15030789680E+03  0.48480739019E+03 -0.58309114534E+03  0.11868641770E+04  0.90056683344E+03 0.  0.
         23    2    4    4    0    0  0.32229310530E+03  0.37453012883E+03 -0.45298748594E+03  0.67619388151E+03  0.88852911314E+02 0.  0.
         23    2    4    4    0    0 -0.47260100210E+03  0.11027726136E+03 -0.13010365939E+03  0.51067029550E+03  0.91347725541E+02 0.  0.
          3    1    3    3  502    0 -0.28862366601E+01 -0.12404777581E+02  0.13238723394E+02  0.18370429118E+02  0.00000000000E+00 0. -1.
         -4    1    3    3    0  502  0.15319413346E+03 -0.47240261260E+03  0.19486254903E+02  0.49700340547E+03  0.00000000000E+00 0.  1.
         13    1    5    5    0    0  0.27103322579E+03  0.34106895697E+03 -0.36141841501E+03  0.56604797818E+03  0.00000000000E+00 0. -1.
        -13    1    5    5    0    0  0.51259879512E+02  0.33461171854E+02 -0.91569070933E+02  0.11014590333E+03  0.00000000000E+00 0.  1.
          3    1    6    6  503    0 -0.33422729286E+03  0.41895105668E+02 -0.11340852214E+03  0.35542168767E+03  0.00000000000E+00 0. -1.
         -3    1    6    6    0  503 -0.13837370924E+03  0.68382155691E+02 -0.16695137250E+02  0.15524860783E+03  0.00000000000E+00 0.  1.
<mgrwt>
<rscale>  0 0.16108108E+04</rscale>
<asrwt>0</asrwt>
<pdfrwt beam="1">  1        1 0.88605527E-01 0.16108108E+04</pdfrwt>
<pdfrwt beam="2">  1       -2 0.17327724E+00 0.16108108E+04</pdfrwt>
<totfact> 0.61522012E+00</totfact>
</mgrwt>
</event>
<event>
12    5  0.5221187E-008  0.2192275E+04  0.7818608E-02  0.8521650E-01
         -2   -1    0    0    0  501 -0.00000000000E+00  0.00000000000E+00  0.71637030817E+03  0.71637030817E+03  0.00000000000E+00 0.  1.
          1   -1    0    0  501    0  0.00000000000E+00 -0.00000000000E+00 -0.16772292775E+04  0.16772292775E+04  0.00000000000E+00 0. -1.
        -24    2    1    2    0    0 -0.73377554776E+03 -0.89288504853E+02 -0.97704887630E+03  0.12276914775E+04  0.78758273747E+02 0.  0.
        254    2    1    2    0    0  0.73377554776E+03  0.89288504853E+02  0.16189907011E+02  0.11659081081E+04  0.90148799875E+03 0.  0.
         23    2    4    4    0    0  0.99731089540E+01  0.69357110253E+02 -0.33651473734E+03  0.35513046601E+03  0.89250253754E+02 0.  0.
         23    2    4    4    0    0  0.72380243881E+03  0.19931394600E+02  0.35270464436E+03  0.81077764211E+03  0.93126730184E+02 0.  0.
          3    1    3    3  502    0 -0.40935901374E+03 -0.43026708823E+02 -0.60702512488E+03  0.73342048106E+03  0.00000000000E+00 0. -1.
         -4    1    3    3    0  502 -0.32441653402E+03 -0.46261796030E+02 -0.37002375142E+03  0.49427099645E+03  0.00000000000E+00 0.  1.
         13    1    5    5    0    0 -0.17144653000E+02  0.47925490681E+01 -0.85059731914E+01  0.19729653646E+02  0.00000000000E+00 0. -1.
        -13    1    5    5    0    0  0.27117761954E+02  0.64564561185E+02 -0.32800876415E+03  0.33540081237E+03  0.00000000000E+00 0.  1.
          4    1    6    6  503    0  0.34492514220E+03 -0.37017360257E+02  0.16850276351E+03  0.38566412848E+03  0.00000000000E+00 0. -1.
         -4    1    6    6    0  503  0.37887729660E+03  0.56948754858E+02  0.18420188085E+03  0.42511351363E+03  0.00000000000E+00 0.  1.
<mgrwt>
<rscale>  0 0.21922748E+04</rscale>
<asrwt>0</asrwt>
<pdfrwt beam="1">  1        1 0.25803527E+00 0.21922748E+04</pdfrwt>
<pdfrwt beam="2">  1       -2 0.11021082E+00 0.21922748E+04</pdfrwt>
<totfact> 0.25881012E+00</totfact>
</mgrwt>
</event>
<event>
12    5  0.5221187E-008  0.1291036E+04  0.7818608E-02  0.9036704E-01
          1   -1    0    0  501    0  0.00000000000E+00  0.00000000000E+00  0.48311410643E+03  0.48311410643E+03  0.00000000000E+00 0. -1.
         -2   -1    0    0    0  501 -0.00000000000E+00 -0.00000000000E+00 -0.86251531541E+03  0.86251531541E+03  0.00000000000E+00 0.  1.
        -24    2    1    2    0    0  0.22337724176E+03  0.20953543144E+03  0.16969555291E+02  0.31826338652E+03  0.84859461593E+02 0.  0.
        254    2    1    2    0    0 -0.22337724176E+03 -0.20953543144E+03 -0.39637076427E+03  0.10273660353E+04  0.89697753516E+03 0.  0.
         23    2    4    4    0    0 -0.22067919150E+02  0.22693773838E+03  0.15546930826E+03  0.29101061724E+03  0.92351195865E+02 0.  0.
         23    2    4    4    0    0 -0.20130932261E+03 -0.43647316983E+03 -0.55184007253E+03  0.73635541808E+03  0.81593901369E+02 0.  0.
          3    1    3    3  502    0  0.22251176595E+03  0.18928669511E+03  0.30764027665E+02  0.29374710949E+03  0.00000000000E+00 0. -1.
         -4    1    3    3    0  502  0.86547581319E+00  0.20248736330E+02 -0.13794472373E+02  0.24516277030E+02  0.00000000000E+00 0.  1.
         13    1    5    5    0    0 -0.17597648058E+02 -0.58053183798E+00  0.53849908857E+01  0.18412288321E+02  0.00000000000E+00 0.  1.
        -13    1    5    5    0    0 -0.44702710921E+01  0.22751827022E+03  0.15008431737E+03  0.27259832892E+03  0.00000000000E+00 0. -1.
          3    1    6    6  503    0 -0.18817252269E+03 -0.43478417997E+03 -0.53060426829E+03  0.71132768186E+03  0.00000000000E+00 0. -1.
         -3    1    6    6    0  503 -0.13136799922E+02 -0.16889898573E+01 -0.21235804235E+02  0.25027736223E+02  0.00000000000E+00 0.  1.
<mgrwt>
<rscale>  0 0.12910357E+04</rscale>
<asrwt>0</asrwt>
<pdfrwt beam="1">  1        1 0.74325248E-01 0.12910357E+04</pdfrwt>
<pdfrwt beam="2">  1       -2 0.13269466E+00 0.12910357E+04</pdfrwt>
<totfact> 0.16459455E+01</totfact>
</mgrwt>
</event>
<event>
12    5  0.5221187E-008  0.2318096E+04  0.7818608E-02  0.8470820E-01
          1   -1    0    0  501    0  0.00000000000E+00  0.00000000000E+00  0.14897132517E+04  0.14897132517E+04  0.00000000000E+00 0. -1.
         -2   -1    0    0    0  501 -0.00000000000E+00 -0.00000000000E+00 -0.90177945817E+03  0.90177945817E+03  0.00000000000E+00 0.  1.
        -24    2    1    2    0    0  0.75105142266E+03 -0.40809012347E+03  0.76203556452E+03  0.11478467408E+04  0.78981963265E+02 0.  0.
        254    2    1    2    0    0 -0.75105142266E+03  0.40809012347E+03 -0.17410177101E+03  0.12436459690E+04  0.88641304208E+03 0.  0.
         23    2    4    4    0    0 -0.91819994541E+03  0.43572991473E+03 -0.63998645355E+02  0.10224120695E+04  0.90988542247E+02 0.  0.
         23    2    4    4    0    0  0.16714852276E+03 -0.27639791251E+02 -0.11010312566E+03  0.22123389954E+03  0.90106344421E+02 0.  0.
          1    1    3    3  502    0  0.34363063149E+03 -0.22407038586E+03  0.39397005043E+03  0.56877231768E+03  0.00000000000E+00 0. -1.
         -2    1    3    3    0  502  0.40742079117E+03 -0.18401973761E+03  0.36806551409E+03  0.57907442317E+03  0.00000000000E+00 0.  1.
         13    1    5    5    0    0 -0.34262620714E+02  0.35859709341E+02  0.46259172343E+01  0.49812097351E+02  0.00000000000E+00 0.  1.
        -13    1    5    5    0    0 -0.88393732470E+03  0.39987020538E+03 -0.68624562590E+02  0.97259997211E+03  0.00000000000E+00 0. -1.
          3    1    6    6  503    0  0.75228356898E+02 -0.23385862447E+02 -0.13720389380E+01  0.78791412824E+02  0.00000000000E+00 0. -1.
         -3    1    6    6    0  503  0.91920165857E+02 -0.42539288041E+01 -0.10873108672E+03  0.14244248671E+03  0.00000000000E+00 0.  1.
<mgrwt>
<rscale>  0 0.23180965E+04</rscale>
<asrwt>0</asrwt>
<pdfrwt beam="1">  1        1 0.22918665E+00 0.23180965E+04</pdfrwt>
<pdfrwt beam="2">  1       -2 0.13873530E+00 0.23180965E+04</pdfrwt>
<totfact> 0.19376719E+00</totfact>
</mgrwt>
</event>
<event>
12    5  0.5221187E-008  0.2167475E+04  0.7818608E-02  0.8532089E-01
         -4   -1    0    0    0  501 -0.00000000000E+00  0.00000000000E+00  0.11858184085E+04  0.11858184085E+04  0.00000000000E+00 0.  1.
          3   -1    0    0  501    0  0.00000000000E+00 -0.00000000000E+00 -0.99044456871E+03  0.99044456871E+03  0.00000000000E+00 0. -1.
        -24    2    1    2    0    0  0.11412815584E+03 -0.86177613857E+03 -0.11639654340E+03  0.88108724550E+03  0.84161926646E+02 0.  0.
        254    2    1    2    0    0 -0.11412815584E+03  0.86177613857E+03  0.31177038320E+03  0.12951757317E+04  0.90807271471E+03 0.  0.
         23    2    4    4    0    0 -0.14047030070E+03  0.77962389074E+03 -0.15458885292E+03  0.81200579082E+03  0.88940286081E+02 0.  0.
         23    2    4    4    0    0  0.26342144853E+02  0.82152247833E+02  0.46635923612E+03  0.48316994089E+03  0.92300348008E+02 0.  0.
          3    1    3    3  502    0  0.10269575992E+03 -0.69229886741E+03 -0.12525342965E+03  0.71099406647E+03  0.00000000000E+00 0. -1.
         -4    1    3    3    0  502  0.11432395928E+02 -0.16947727117E+03  0.88568862441E+01  0.17009317903E+03  0.00000000000E+00 0.  1.
         13    1    5    5    0    0 -0.13226807822E+03  0.58823182249E+03 -0.14547523950E+03  0.62022138532E+03  0.00000000000E+00 0. -1.
        -13    1    5    5    0    0 -0.82022224798E+01  0.19139206825E+03 -0.91136134285E+01  0.19178440550E+03  0.00000000000E+00 0.  1.
          3    1    6    6  503    0  0.52998644473E+02  0.80996505047E+02  0.40220555051E+03  0.41368900760E+03  0.00000000000E+00 0. -1.
         -3    1    6    6    0  503 -0.26656499620E+02  0.11557427862E+01  0.64153685612E+02  0.69480933291E+02  0.00000000000E+00 0.  1.
<mgrwt>
<rscale>  0 0.21674754E+04</rscale>
<asrwt>0</asrwt>
<pdfrwt beam="1">  1        3 0.15237609E+00 0.21674754E+04</pdfrwt>
<pdfrwt beam="2">  1       -4 0.18243360E+00 0.21674754E+04</pdfrwt>
<totfact> 0.11244588E-01</totfact>
</mgrwt>
</event>
<event>
12    5  0.5221187E-008  0.2177040E+04  0.7818608E-02  0.8528046E-01
         -2   -1    0    0    0  501 -0.00000000000E+00  0.00000000000E+00  0.14885792497E+04  0.14885792497E+04  0.00000000000E+00 0.  1.
          1   -1    0    0  501    0  0.00000000000E+00 -0.00000000000E+00 -0.79597738886E+03  0.79597738886E+03  0.00000000000E+00 0. -1.
        -24    2    1    2    0    0  0.41254655092E+03  0.29177513626E+03 -0.53059016300E+03  0.73707883796E+03  0.80199161370E+02 0.  0.
        254    2    1    2    0    0 -0.41254655092E+03 -0.29177513626E+03  0.12231920239E+04  0.15474778006E+04  0.80197345924E+03 0.  0.
         23    2    4    4    0    0 -0.27058429514E+03 -0.42732337718E+03  0.29314475673E+03  0.59198851763E+03  0.93249274279E+02 0.  0.
         23    2    4    4    0    0 -0.14196225579E+03  0.13554824092E+03  0.93004726712E+03  0.95548928297E+03  0.97186640558E+02 0.  0.
          3    1    3    3  502    0  0.20475808072E+03  0.18523325130E+03 -0.25483545436E+03  0.37573705940E+03  0.00000000000E+00 0. -1.
         -4    1    3    3    0  502  0.20778847021E+03  0.10654188496E+03 -0.27575470863E+03  0.36134177856E+03  0.00000000000E+00 0.  1.
         13    1    5    5    0    0 -0.60545563286E+01  0.41109895362E+01  0.90033058775E+01  0.11602474048E+02  0.00000000000E+00 0.  1.
        -13    1    5    5    0    0 -0.26452973881E+03 -0.43143436671E+03  0.28414145085E+03  0.58038604358E+03  0.00000000000E+00 0. -1.
          3    1    6    6  503    0 -0.13580726079E+03  0.14658599887E+03  0.91080384924E+03  0.93246700689E+03  0.00000000000E+00 0. -1.
         -3    1    6    6    0  503 -0.61549949952E+01 -0.11037757954E+02  0.19243417881E+02  0.23022276078E+02  0.00000000000E+00 0.  1.
<mgrwt>
<rscale>  0 0.21770397E+04</rscale>
<asrwt>0</asrwt>
<pdfrwt beam="1">  1        1 0.12245806E+00 0.21770397E+04</pdfrwt>
<pdfrwt beam="2">  1       -2 0.22901219E+00 0.21770397E+04</pdfrwt>
<totfact> 0.15471443E+00</totfact>
</mgrwt>
</event>
<event>
12    5  0.5221187E-008  0.1745274E+04  0.7818608E-02  0.8735956E-01
          1   -1    0    0  501    0  0.00000000000E+00  0.00000000000E+00  0.19189333794E+04  0.19189333794E+04  0.00000000000E+00 0. -1.
         -2   -1    0    0    0  501 -0.00000000000E+00 -0.00000000000E+00 -0.39683273406E+03  0.39683273406E+03  0.00000000000E+00 0.  1.
        -24    2    1    2    0    0 -0.34998764266E+03 -0.50037114108E+03  0.31664365444E+03  0.69228645742E+03  0.78324366504E+02 0.  0.
        254    2    1    2    0    0  0.34998764266E+03  0.50037114108E+03  0.12054569909E+04  0.16234796560E+04  0.89983165525E+03 0.  0.
         23    2    4    4    0    0  0.44187907903E+03  0.64437157811E+03  0.60400982675E+03  0.99167775593E+03  0.90139057245E+02 0.  0.
         23    2    4    4    0    0 -0.91891436363E+02 -0.14400043703E+03  0.60144716410E+03  0.63180190006E+03  0.90855862624E+02 0.  0.
          3    1    3    3  502    0 -0.20080302441E+02 -0.37587960719E+02  0.46302464504E+02  0.62928463800E+02  0.00000000000E+00 0. -1.
         -4    1    3    3    0  502 -0.32990734022E+03 -0.46278318036E+03  0.27034118993E+03  0.62935799362E+03  0.00000000000E+00 0.  1.
         13    1    5    5    0    0  0.29480405825E+03  0.49971974416E+03  0.44887866517E+03  0.73356752348E+03  0.00000000000E+00 0. -1.
        -13    1    5    5    0    0  0.14707502078E+03  0.14465183395E+03  0.15513116158E+03  0.25811023245E+03  0.00000000000E+00 0.  1.
          3    1    6    6  503    0 -0.45493577176E+02 -0.13664683443E+03  0.49326592115E+03  0.51386116013E+03  0.00000000000E+00 0. -1.
         -3    1    6    6    0  503 -0.46397859186E+02 -0.73536025963E+01  0.10818124295E+03  0.11794073993E+03  0.00000000000E+00 0.  1.
<mgrwt>
<rscale>  0 0.17452743E+04</rscale>
<asrwt>0</asrwt>
<pdfrwt beam="1">  1        1 0.29522052E+00 0.17452743E+04</pdfrwt>
<pdfrwt beam="2">  1       -2 0.61051191E-01 0.17452743E+04</pdfrwt>
<totfact> 0.70285427E+00</totfact>
</mgrwt>
</event>
<event>
12    5  0.5221187E-008  0.2286535E+04  0.7818608E-02  0.8483249E-01
         -2   -1    0    0    0  501 -0.00000000000E+00  0.00000000000E+00  0.14567864114E+04  0.14567864114E+04  0.00000000000E+00 0.  1.
          1   -1    0    0  501    0  0.00000000000E+00 -0.00000000000E+00 -0.89722192558E+03  0.89722192558E+03  0.00000000000E+00 0. -1.
        -24    2    1    2    0    0 -0.33946370558E+03 -0.89197839503E+03  0.11609158018E+03  0.96470588783E+03  0.79492958301E+02 0.  0.
        254    2    1    2    0    0  0.33946370558E+03  0.89197839503E+03  0.44347290563E+03  0.13893024491E+04  0.90699063532E+03 0.  0.
         23    2    4    4    0    0  0.46632658645E+03  0.82270920866E+02  0.24500801654E+03  0.54108244253E+03  0.92262082108E+02 0.  0.
         23    2    4    4    0    0 -0.12686288087E+03  0.80970747417E+03  0.19846488909E+03  0.84822000662E+03  0.91479413857E+02 0.  0.
          1    1    3    3  502    0 -0.29731349512E+03 -0.79049091621E+03  0.76955692862E+02  0.84805269981E+03  0.00000000000E+00 0. -1.
         -2    1    3    3    0  502 -0.42150210459E+02 -0.10148747883E+03  0.39135887322E+02  0.11665318803E+03  0.00000000000E+00 0.  1.
         13    1    5    5    0    0  0.55825736286E+01  0.13556616269E+02  0.16959085953E+02  0.22417795818E+02  0.00000000000E+00 0. -1.
        -13    1    5    5    0    0  0.46074401282E+03  0.68714304597E+02  0.22804893059E+03  0.51866464671E+03  0.00000000000E+00 0.  1.
          2    1    6    6  503    0 -0.34531723188E+02  0.11365121435E+03  0.57871660852E+02  0.13212935919E+03  0.00000000000E+00 0. -1.
         -2    1    6    6    0  503 -0.92331157679E+02  0.69605625982E+03  0.14059322824E+03  0.71609064743E+03  0.00000000000E+00 0.  1.
<mgrwt>
<rscale>  0 0.22865351E+04</rscale>
<asrwt>0</asrwt>
<pdfrwt beam="1">  1        1 0.13803414E+00 0.22865351E+04</pdfrwt>
<pdfrwt beam="2">  1       -2 0.22412099E+00 0.22865351E+04</pdfrwt>
<totfact> 0.13505235E+00</totfact>
</mgrwt>
</event>
<event>
12    5  0.5221187E-008  0.2287412E+04  0.7818608E-02  0.8482901E-01
         -2   -1    0    0    0  501 -0.00000000000E+00  0.00000000000E+00  0.11198331404E+04  0.11198331404E+04  0.00000000000E+00 0.  1.
          1   -1    0    0  501    0  0.00000000000E+00 -0.00000000000E+00 -0.11680875336E+04  0.11680875336E+04  0.00000000000E+00 0. -1.
        -24    2    1    2    0    0  0.20818762970E+03 -0.86876822523E+03 -0.38343133041E+03  0.97534612133E+03  0.78613948693E+02 0.  0.
        254    2    1    2    0    0 -0.20818762970E+03  0.86876822523E+03  0.33517693723E+03  0.13125745526E+04  0.90133681747E+03 0.  0.
         23    2    4    4    0    0 -0.18077362270E+03  0.94731301865E+03  0.51252201561E+03  0.10960749512E+04  0.92846239882E+02 0.  0.
         23    2    4    4    0    0 -0.27414007002E+02 -0.78544793415E+02 -0.17734507838E+03  0.21649960137E+03  0.92195380644E+02 0.  0.
          3    1    3    3  502    0  0.18728496238E+03 -0.63842594770E+03 -0.29346213105E+03  0.72717492407E+03  0.00000000000E+00 0. -1.
         -4    1    3    3    0  502  0.20902667317E+02 -0.23034227753E+03 -0.89969199353E+02  0.24817119726E+03  0.00000000000E+00 0.  1.
         13    1    5    5    0    0 -0.30009963297E+02  0.91842318275E+02  0.24335959305E+02  0.99638588100E+02  0.00000000000E+00 0. -1.
        -13    1    5    5    0    0 -0.15076365940E+03  0.85547070037E+03  0.48818605631E+03  0.99643636313E+03  0.00000000000E+00 0.  1.
          4    1    6    6  503    0 -0.25058827865E+02  0.36117997691E+00 -0.10974291267E+03  0.11256812242E+03  0.00000000000E+00 0. -1.
         -4    1    6    6    0  503 -0.23551791375E+01 -0.78905973392E+02 -0.67602165715E+02  0.10393147894E+03  0.00000000000E+00 0.  1.
<mgrwt>
<rscale>  0 0.22874118E+04</rscale>
<asrwt>0</asrwt>
<pdfrwt beam="1">  1        1 0.17970577E+00 0.22874118E+04</pdfrwt>
<pdfrwt beam="2">  1       -2 0.17228202E+00 0.22874118E+04</pdfrwt>
<totfact> 0.18383811E+00</totfact>
</mgrwt>
</event>
<event>
12    5  0.5221187E-008  0.1306939E+04  0.7818608E-02  0.9024080E-01
          1   -1    0    0  501    0  0.00000000000E+00  0.00000000000E+00  0.78633074984E+03  0.78633074984E+03  0.00000000000E+00 0. -1.
         -2   -1    0    0    0  501 -0.00000000000E+00 -0.00000000000E+00 -0.54305718441E+03  0.54305718441E+03  0.00000000000E+00 0.  1.
        -24    2    1    2    0    0  0.14726240764E+02  0.27278269778E+02 -0.28918865861E+03  0.30003063657E+03  0.73670458395E+02 0.  0.
        254    2    1    2    0    0 -0.14726240764E+02 -0.27278269778E+02  0.53246222405E+03  0.10293572977E+04  0.88039733081E+03 0.  0.
         23    2    4    4    0    0  0.26509308603E+03 -0.15292608163E+03 -0.88179200094E+02  0.33125818208E+03  0.91080630033E+02 0.  0.
         23    2    4    4    0    0 -0.27981932679E+03  0.12564781185E+03  0.62064142414E+03  0.69809911560E+03  0.89779561038E+02 0.  0.
          1    1    3    3  502    0 -0.13694057654E+02 -0.17997802544E+02 -0.13395154228E+03  0.13584720752E+03  0.00000000000E+00 0. -1.
         -2    1    3    3    0  502  0.28420298418E+02  0.45276072322E+02 -0.15523711633E+03  0.16418342905E+03  0.00000000000E+00 0.  1.
         13    1    5    5    0    0  0.25806940299E+03 -0.14367740096E+03 -0.10265501685E+03  0.31269963990E+03  0.00000000000E+00 0.  1.
        -13    1    5    5    0    0  0.70236830341E+01 -0.92486806640E+01  0.14475816753E+02  0.18558542186E+02  0.00000000000E+00 0. -1.
          4    1    6    6  503    0  0.29566851646E+01 -0.60247639134E+01  0.22893826118E+02  0.23857222003E+02  0.00000000000E+00 0. -1.
         -4    1    6    6    0  503 -0.28277601196E+03  0.13167257576E+03  0.59774759802E+03  0.67424189360E+03  0.00000000000E+00 0.  1.
<mgrwt>
<rscale>  0 0.13069393E+04</rscale>
<asrwt>0</asrwt>
<pdfrwt beam="1">  1        1 0.12097396E+00 0.13069393E+04</pdfrwt>
<pdfrwt beam="2">  1       -2 0.83547259E-01 0.13069393E+04</pdfrwt>
<totfact> 0.24506389E+01</totfact>
</mgrwt>
</event>
<event>
12    5  0.5221187E-008  0.1383701E+04  0.7818608E-02  0.8965702E-01
          1   -1    0    0  501    0  0.00000000000E+00  0.00000000000E+00  0.12207254105E+04  0.12207254105E+04  0.00000000000E+00 0. -1.
         -2   -1    0    0    0  501 -0.00000000000E+00 -0.00000000000E+00 -0.39210884073E+03  0.39210884073E+03  0.00000000000E+00 0.  1.
        -24    2    1    2    0    0 -0.73910619892E+02 -0.99638367725E+02  0.69336838445E+03  0.70945860294E+03  0.84742012406E+02 0.  0.
        254    2    1    2    0    0  0.73910619892E+02  0.99638367725E+02  0.13524818532E+03  0.90337564830E+03  0.88453654885E+03 0.  0.
         23    2    4    4    0    0  0.35936189451E+03  0.14113417669E+02 -0.21967483298E+03  0.43115833974E+03  0.91106102429E+02 0.  0.
         23    2    4    4    0    0 -0.28545127462E+03  0.85524950056E+02  0.35492301830E+03  0.47221730856E+03  0.90674639894E+02 0.  0.
          3    1    3    3  502    0 -0.54102885790E+02 -0.39744785821E+02  0.53164928664E+03  0.53587100522E+03  0.00000000000E+00 0. -1.
         -4    1    3    3    0  502 -0.19807734102E+02 -0.59893581904E+02  0.16171909781E+03  0.17358759771E+03  0.00000000000E+00 0.  1.
         13    1    5    5    0    0  0.11803480213E+03  0.17065744913E+02 -0.12255107124E+03  0.17100356494E+03  0.00000000000E+00 0. -1.
        -13    1    5    5    0    0  0.24132709238E+03 -0.29523272441E+01 -0.97123761740E+02  0.26015477479E+03  0.00000000000E+00 0.  1.
          1    1    6    6  503    0 -0.10723934404E+03  0.32183317549E+02  0.20385704193E+03  0.23258060191E+03  0.00000000000E+00 0. -1.
         -1    1    6    6    0  503 -0.17821193058E+03  0.53341632507E+02  0.15106597637E+03  0.23963670665E+03  0.00000000000E+00 0.  1.
<mgrwt>
<rscale>  0 0.13837012E+04</rscale>
<asrwt>0</asrwt>
<pdfrwt beam="1">  1        1 0.18780391E+00 0.13837012E+04</pdfrwt>
<pdfrwt beam="2">  1       -2 0.60324438E-01 0.13837012E+04</pdfrwt>
<totfact> 0.22625819E+01</totfact>
</mgrwt>
</event>
<event>
12    5  0.5221187E-008  0.1273836E+04  0.7818608E-02  0.9050575E-01
         -2   -1    0    0    0  501 -0.00000000000E+00  0.00000000000E+00  0.11476464957E+04  0.11476464957E+04  0.00000000000E+00 0.  1.
          1   -1    0    0  501    0  0.00000000000E+00 -0.00000000000E+00 -0.35347506178E+03  0.35347506178E+03  0.00000000000E+00 0. -1.
        -24    2    1    2    0    0  0.13379102532E+03  0.24284864685E+03  0.40558133663E+02  0.29178173790E+03  0.81339514567E+02 0.  0.
        254    2    1    2    0    0 -0.13379102532E+03 -0.24284864685E+03  0.75361330030E+03  0.12093398196E+04  0.90426450179E+03 0.  0.
         23    2    4    4    0    0 -0.46008641773E+03  0.39598479628E+02  0.22647505314E+03  0.52219132417E+03  0.90251193739E+02 0.  0.
         23    2    4    4    0    0  0.32629539241E+03 -0.28244712648E+03  0.52713824716E+03  0.68714849546E+03  0.89739962268E+02 0.  0.
          3    1    3    3  502    0  0.92474813788E+01  0.47410290647E+02 -0.19954975104E+02  0.52263300723E+02  0.00000000000E+00 0. -1.
         -4    1    3    3    0  502  0.12454354394E+03  0.19543835620E+03  0.60513108766E+02  0.23951843717E+03  0.00000000000E+00 0.  1.
         13    1    5    5    0    0 -0.37138846377E+03  0.48471866930E+02  0.14564378824E+03  0.40185946046E+03  0.00000000000E+00 0. -1.
        -13    1    5    5    0    0 -0.88697953959E+02 -0.88733873020E+01  0.80831264895E+02  0.12033186371E+03  0.00000000000E+00 0.  1.
          2    1    6    6  503    0  0.31914037860E+03 -0.25039614340E+03  0.46658976177E+03  0.61826759228E+03  0.00000000000E+00 0. -1.
         -2    1    6    6    0  503  0.71550138115E+01 -0.32050983078E+02  0.60548485391E+02  0.68880903174E+02  0.00000000000E+00 0.  1.
<mgrwt>
<rscale>  0 0.12738358E+04</rscale>
<asrwt>0</asrwt>
<pdfrwt beam="1">  1        1 0.54380779E-01 0.12738358E+04</pdfrwt>
<pdfrwt beam="2">  1       -2 0.17656100E+00 0.12738358E+04</pdfrwt>
<totfact> 0.11631145E+01</totfact>
</mgrwt>
</event>
<event>
12    5  0.5221187E-008  0.2010411E+04  0.7818608E-02  0.8601769E-01
          1   -1    0    0  501    0  0.00000000000E+00  0.00000000000E+00  0.39184285274E+04  0.39184285274E+04  0.00000000000E+00 0. -1.
         -2   -1    0    0    0  501 -0.00000000000E+00 -0.00000000000E+00 -0.25786814402E+03  0.25786814402E+03  0.00000000000E+00 0.  1.
        -24    2    1    2    0    0 -0.51582883558E+03  0.30672332646E+03  0.36834132335E+03  0.70894376618E+03  0.82263883395E+02 0.  0.
        254    2    1    2    0    0  0.51582883558E+03 -0.30672332646E+03  0.32922190601E+04  0.34673529053E+04  0.90756335519E+03 0.  0.
         23    2    4    4    0    0  0.55072614085E+03 -0.16980114814E+01  0.93896607378E+03  0.10923346344E+04  0.90749657974E+02 0.  0.
         23    2    4    4    0    0 -0.34897305268E+02 -0.30502531498E+03  0.23532529863E+04  0.23750182708E+04  0.93026365547E+02 0.  0.
          1    1    3    3  502    0 -0.23274521894E+03  0.94961333505E+02  0.17163198961E+03  0.30437728506E+03  0.00000000000E+00 0. -1.
         -2    1    3    3    0  502 -0.28308361664E+03  0.21176199296E+03  0.19670933374E+03  0.40456648112E+03  0.00000000000E+00 0.  1.
         13    1    5    5    0    0  0.49547912470E+03 -0.20602840128E+02  0.87474559131E+03  0.10055366177E+04  0.00000000000E+00 0. -1.
        -13    1    5    5    0    0  0.55247016145E+02  0.18904828647E+02  0.64220482472E+02  0.86798016729E+02  0.00000000000E+00 0.  1.
          2    1    6    6  503    0 -0.62569375899E+02 -0.17680773463E+03  0.15149045138E+04  0.15264703036E+04  0.00000000000E+00 0. -1.
         -2    1    6    6    0  503  0.27672070631E+02 -0.12821758035E+03  0.83834847252E+03  0.84854796728E+03  0.00000000000E+00 0.  1.
<mgrwt>
<rscale>  0 0.20104108E+04</rscale>
<asrwt>0</asrwt>
<pdfrwt beam="1">  1        1 0.60283511E+00 0.20104108E+04</pdfrwt>
<pdfrwt beam="2">  1       -2 0.39672025E-01 0.20104108E+04</pdfrwt>
<totfact> 0.55726371E-01</totfact>
</mgrwt>
</event>
<event>
12    5  0.5221187E-008  0.1174941E+04  0.7818608E-02  0.9135078E-01
          1   -1    0    0  501    0  0.00000000000E+00  0.00000000000E+00  0.86653369570E+03  0.86653369570E+03  0.00000000000E+00 0. -1.
         -2   -1    0    0    0  501 -0.00000000000E+00 -0.00000000000E+00 -0.39827830891E+03  0.39827830891E+03  0.00000000000E+00 0.  1.
        -24    2    1    2    0    0 -0.22506149399E+03  0.40996919748E+02  0.12679107472E+03  0.27321948291E+03  0.78990415315E+02 0.  0.
        254    2    1    2    0    0  0.22506149399E+03 -0.40996919748E+02  0.34146431208E+03  0.99159252169E+03  0.90239926261E+03 0.  0.
         23    2    4    4    0    0  0.18749206248E+03  0.75247388300E+02 -0.27693636555E+03  0.35461619649E+03  0.90793465162E+02 0.  0.
         23    2    4    4    0    0  0.37569431507E+02 -0.11624430805E+03  0.61840067763E+03  0.63697632520E+03  0.91625539236E+02 0.  0.
          3    1    3    3  502    0 -0.20431814359E+03  0.53575619213E+02  0.91028674607E+02  0.23000537032E+03  0.00000000000E+00 0. -1.
         -4    1    3    3    0  502 -0.20743350395E+02 -0.12578699464E+02  0.35762400109E+02  0.43214112595E+02  0.00000000000E+00 0.  1.
         13    1    5    5    0    0  0.13991488472E+03  0.79756152118E+02 -0.25599018177E+03  0.30243708756E+03  0.00000000000E+00 0. -1.
        -13    1    5    5    0    0  0.47577177761E+02 -0.45087638181E+01 -0.20946183774E+02  0.52179108938E+02  0.00000000000E+00 0.  1.
          4    1    6    6  503    0  0.62519400053E+02 -0.99498459405E+02  0.54754032818E+03  0.56000806226E+03  0.00000000000E+00 0. -1.
         -4    1    6    6    0  503 -0.24949968546E+02 -0.16745848644E+02  0.70860349445E+02  0.76968262944E+02  0.00000000000E+00 0.  1.
<mgrwt>
<rscale>  0 0.11749410E+04</rscale>
<asrwt>0</asrwt>
<pdfrwt beam="1">  1        1 0.13331288E+00 0.11749410E+04</pdfrwt>
<pdfrwt beam="2">  1       -2 0.61273586E-01 0.11749410E+04</pdfrwt>
<totfact> 0.41752147E+01</totfact>
</mgrwt>
</event>
<event>
12    5  0.5221187E-008  0.1431334E+04  0.7818608E-02  0.8931445E-01
         -2   -1    0    0    0  501 -0.00000000000E+00  0.00000000000E+00  0.49155067847E+03  0.49155067847E+03  0.00000000000E+00 0.  1.
          1   -1    0    0  501    0  0.00000000000E+00 -0.00000000000E+00 -0.10419656764E+04  0.10419656764E+04  0.00000000000E+00 0. -1.
        -24    2    1    2    0    0 -0.64196851781E+01  0.11525888677E+03 -0.60288510919E+03  0.61882619103E+03  0.78419235471E+02 0.  0.
        254    2    1    2    0    0  0.64196851781E+01 -0.11525888677E+03  0.52470111234E+02  0.91469016387E+03  0.90585824496E+03 0.  0.
         23    2    4    4    0    0 -0.26876619966E+03  0.69319078910E+02 -0.30213950940E+03  0.42059804429E+03  0.92596041724E+02 0.  0.
         23    2    4    4    0    0  0.27518588484E+03 -0.18457796568E+03  0.35460962063E+03  0.49409211957E+03  0.92643094460E+02 0.  0.
          3    1    3    3  502    0  0.26674465150E+02  0.70136886444E+02 -0.23444060499E+03  0.24615667206E+03  0.00000000000E+00 0. -1.
         -4    1    3    3    0  502 -0.33094150328E+02  0.45122000327E+02 -0.36844450420E+03  0.37266951898E+03  0.00000000000E+00 0.  1.
         13    1    5    5    0    0 -0.19686940390E+03  0.15960670881E+02 -0.24365299891E+03  0.31365441028E+03  0.00000000000E+00 0.  1.
        -13    1    5    5    0    0 -0.71896795759E+02  0.53358408029E+02 -0.58486510488E+02  0.10694363402E+03  0.00000000000E+00 0. -1.
          2    1    6    6  503    0  0.27604204368E+03 -0.18195666762E+03  0.32248202727E+03  0.46184639945E+03  0.00000000000E+00 0. -1.
         -2    1    6    6    0  503 -0.85615883718E+00 -0.26212980604E+01  0.32127593358E+02  0.32245720126E+02  0.00000000000E+00 0.  1.
<mgrwt>
<rscale>  0 0.14313336E+04</rscale>
<asrwt>0</asrwt>
<pdfrwt beam="1">  1        1 0.16030241E+00 0.14313336E+04</pdfrwt>
<pdfrwt beam="2">  1       -2 0.75623182E-01 0.14313336E+04</pdfrwt>
<totfact> 0.18768298E+01</totfact>
</mgrwt>
</event>
<event>
12    5  0.5221187E-008  0.1859166E+04  0.7818608E-02  0.8675453E-01
          1   -1    0    0  501    0  0.00000000000E+00  0.00000000000E+00  0.11100692516E+04  0.11100692516E+04  0.00000000000E+00 0. -1.
         -2   -1    0    0    0  501 -0.00000000000E+00 -0.00000000000E+00 -0.77844213049E+03  0.77844213049E+03  0.00000000000E+00 0.  1.
        -24    2    1    2    0    0  0.31510848976E+03  0.35557676189E+03  0.66137396930E+03  0.81935658833E+03  0.90562120384E+02 0.  0.
        254    2    1    2    0    0 -0.31510848976E+03 -0.35557676189E+03 -0.32974684820E+03  0.10691547938E+04  0.89923900894E+03 0.  0.
         23    2    4    4    0    0  0.11048532589E+03  0.23543756792E+03 -0.34547763945E+02  0.27816695084E+03  0.92441597362E+02 0.  0.
         23    2    4    4    0    0 -0.42559381565E+03 -0.59101432981E+03 -0.29519908425E+03  0.79098784291E+03  0.89951288672E+02 0.  0.
          3    1    3    3  502    0  0.10647100431E+03  0.10306863975E+03  0.14147058126E+03  0.20487348443E+03  0.00000000000E+00 0. -1.
         -4    1    3    3    0  502  0.20863748545E+03  0.25250812214E+03  0.51990338804E+03  0.61448310390E+03  0.00000000000E+00 0.  1.
         13    1    5    5    0    0  0.28927926546E+02  0.15125721989E+03  0.60738675984E+01  0.15411834210E+03  0.00000000000E+00 0.  1.
        -13    1    5    5    0    0  0.81557399346E+02  0.84180348026E+02 -0.40621631543E+02  0.12404860874E+03  0.00000000000E+00 0. -1.
          3    1    6    6  503    0 -0.22466563463E+02 -0.79165057285E+02 -0.31813944756E+02  0.88226865805E+02  0.00000000000E+00 0. -1.
         -3    1    6    6    0  503 -0.40312725219E+03 -0.51184927253E+03 -0.26338513950E+03  0.70276097711E+03  0.00000000000E+00 0.  1.
<mgrwt>
<rscale>  0 0.18591661E+04</rscale>
<asrwt>0</asrwt>
<pdfrwt beam="1">  1        1 0.17077988E+00 0.18591661E+04</pdfrwt>
<pdfrwt beam="2">  1       -2 0.11976033E+00 0.18591661E+04</pdfrwt>
<totfact> 0.54742529E+00</totfact>
</mgrwt>
</event>
<event>
12    5  0.5221187E-008  0.1794617E+04  0.7818608E-02  0.8709167E-01
         -2   -1    0    0    0  501 -0.00000000000E+00  0.00000000000E+00  0.64090571741E+03  0.64090571741E+03  0.00000000000E+00 0.  1.
          1   -1    0    0  501    0  0.00000000000E+00 -0.00000000000E+00 -0.12562886933E+04  0.12562886933E+04  0.00000000000E+00 0. -1.
        -24    2    1    2    0    0 -0.19061602908E+02 -0.18110458367E+03  0.44900708856E+03  0.49028123169E+03  0.74873931678E+02 0.  0.
        254    2    1    2    0    0  0.19061602908E+02  0.18110458367E+03 -0.10643900644E+04  0.14069131790E+04  0.90184048981E+03 0.  0.
         23    2    4    4    0    0 -0.10494984726E+03  0.34714951646E+03 -0.62114959128E+02  0.37924971707E+03  0.91895715537E+02 0.  0.
         23    2    4    4    0    0  0.12401145017E+03 -0.16604493279E+03 -0.10022751053E+04  0.10276634619E+04  0.92666308900E+02 0.  0.
          1    1    3    3  502    0  0.20888116597E+02 -0.15181807773E+02  0.48988915235E+02  0.55377924466E+02  0.00000000000E+00 0. -1.
         -2    1    3    3    0  502 -0.39949719505E+02 -0.16592277590E+03  0.40001817332E+03  0.43490330723E+03  0.00000000000E+00 0.  1.
         13    1    5    5    0    0 -0.98135526735E+02  0.32256778757E+03 -0.30376831130E+02  0.33853110796E+03  0.00000000000E+00 0. -1.
        -13    1    5    5    0    0 -0.68143205247E+01  0.24581728889E+02 -0.31738127998E+02  0.40718609114E+02  0.00000000000E+00 0.  1.
          1    1    6    6  503    0  0.10752895353E+03 -0.10075059483E+03 -0.82443612534E+03  0.83750109431E+03  0.00000000000E+00 0. -1.
         -1    1    6    6    0  503  0.16482496632E+02 -0.65294337961E+02 -0.17783897993E+03  0.19016236759E+03  0.00000000000E+00 0.  1.
<mgrwt>
<rscale>  0 0.17946171E+04</rscale>
<asrwt>0</asrwt>
<pdfrwt beam="1">  1        1 0.19327518E+00 0.17946171E+04</pdfrwt>
<pdfrwt beam="2">  1       -2 0.98600880E-01 0.17946171E+04</pdfrwt>
<totfact> 0.68776329E+00</totfact>
</mgrwt>
</event>
<event>
12    5  0.5221187E-008  0.1812752E+04  0.7818608E-02  0.8699547E-01
          1   -1    0    0  501    0  0.00000000000E+00  0.00000000000E+00  0.32945928142E+04  0.32945928142E+04  0.00000000000E+00 0. -1.
         -2   -1    0    0    0  501 -0.00000000000E+00 -0.00000000000E+00 -0.24935335909E+03  0.24935335909E+03  0.00000000000E+00 0.  1.
        -24    2    1    2    0    0  0.55298166789E+03 -0.28350065341E+03  0.17431982436E+04  0.18523794094E+04  0.80050075114E+02 0.  0.
        254    2    1    2    0    0 -0.55298166789E+03  0.28350065341E+03  0.13020412116E+04  0.16915667639E+04  0.88313388259E+03 0.  0.
         23    2    4    4    0    0 -0.57041181260E+03  0.48845039774E+03  0.63308431321E+03  0.98590602696E+03  0.85214548914E+02 0.  0.
         23    2    4    4    0    0  0.17430144712E+02 -0.20494974433E+03  0.66895689834E+03  0.70566073692E+03  0.90252624083E+02 0.  0.
          1    1    3    3  502    0  0.49054187852E+03 -0.26309969528E+03  0.14832840227E+04  0.15842929894E+04  0.00000000000E+00 0. -1.
         -2    1    3    3    0  502  0.62439789374E+02 -0.20400958132E+02  0.25991422090E+03  0.26808642005E+03  0.00000000000E+00 0.  1.
         13    1    5    5    0    0 -0.93060535667E+02  0.79047550110E+02  0.64419408614E+02  0.13805302852E+03  0.00000000000E+00 0. -1.
        -13    1    5    5    0    0 -0.47735127694E+03  0.40940284763E+03  0.56866490460E+03  0.84785299844E+03  0.00000000000E+00 0.  1.
          1    1    6    6  503    0 -0.13069998113E+02 -0.18453787534E+03  0.59502259739E+03  0.62311872359E+03  0.00000000000E+00 0. -1.
         -1    1    6    6    0  503  0.30500142826E+02 -0.20411868993E+02  0.73934300951E+02  0.82542013335E+02  0.00000000000E+00 0.  1.
<mgrwt>
<rscale>  0 0.18127524E+04</rscale>
<asrwt>0</asrwt>
<pdfrwt beam="1">  1        1 0.50686040E+00 0.18127524E+04</pdfrwt>
<pdfrwt beam="2">  1       -2 0.38362058E-01 0.18127524E+04</pdfrwt>
<totfact> 0.19249682E+00</totfact>
</mgrwt>
</event>
<event>
12    5  0.5221187E-008  0.1700442E+04  0.7818608E-02  0.8761112E-01
         -2   -1    0    0    0  501 -0.00000000000E+00  0.00000000000E+00  0.46630827126E+03  0.46630827126E+03  0.00000000000E+00 0.  1.
          1   -1    0    0  501    0  0.00000000000E+00 -0.00000000000E+00 -0.15502103261E+04  0.15502103261E+04  0.00000000000E+00 0. -1.
        -24    2    1    2    0    0  0.81739615023E+01  0.13527271304E+03  0.31069527488E+03  0.34738769239E+03  0.76033771790E+02 0.  0.
        254    2    1    2    0    0 -0.81739615023E+01 -0.13527271304E+03 -0.13945973298E+04  0.16691309050E+04  0.90704506246E+03 0.  0.
         23    2    4    4    0    0 -0.25146427165E+03  0.37045553900E+02 -0.13218018906E+04  0.13491499273E+04  0.91862045607E+02 0.  0.
         23    2    4    4    0    0  0.24329031015E+03 -0.17231826694E+03 -0.72795439185E+02  0.31998097771E+03  0.90580847835E+02 0.  0.
          1    1    3    3  502    0  0.33844353344E+02  0.47429424829E+02  0.16847730019E+03  0.17826831258E+03  0.00000000000E+00 0. -1.
         -2    1    3    3    0  502 -0.25670391842E+02  0.87843288214E+02  0.14221797470E+03  0.16911937981E+03  0.00000000000E+00 0.  1.
         13    1    5    5    0    0 -0.56711722645E+02 -0.30133823142E+02 -0.30499487882E+03  0.31168276001E+03  0.00000000000E+00 0.  1.
        -13    1    5    5    0    0 -0.19475254901E+03  0.67179377042E+02 -0.10168070117E+04  0.10374671673E+04  0.00000000000E+00 0. -1.
          2    1    6    6  503    0  0.84755506559E+02 -0.10447361090E+03 -0.59276699565E+02  0.14701006217E+03  0.00000000000E+00 0. -1.
         -2    1    6    6    0  503  0.15853480359E+03 -0.67844656043E+02 -0.13518739620E+02  0.17297091554E+03  0.00000000000E+00 0.  1.
<mgrwt>
<rscale>  0 0.17004422E+04</rscale>
<asrwt>0</asrwt>
<pdfrwt beam="1">  1        1 0.23849390E+00 0.17004422E+04</pdfrwt>
<pdfrwt beam="2">  1       -2 0.71739734E-01 0.17004422E+04</pdfrwt>
<totfact> 0.88827890E+00</totfact>
</mgrwt>
</event>
<event>
12    5  0.5221187E-008  0.2104127E+04  0.7818608E-02  0.8559427E-01
         -2   -1    0    0    0  501 -0.00000000000E+00  0.00000000000E+00  0.63546983990E+03  0.63546983990E+03  0.00000000000E+00 0.  1.
          1   -1    0    0  501    0  0.00000000000E+00 -0.00000000000E+00 -0.17417634033E+04  0.17417634033E+04  0.00000000000E+00 0. -1.
        -24    2    1    2    0    0 -0.36580514615E+03  0.45238243581E+03  0.26092326359E+03  0.64244692235E+03  0.78700860067E+02 0.  0.
        254    2    1    2    0    0  0.36580514615E+03 -0.45238243581E+03 -0.13672168270E+04  0.17347863209E+04  0.89539848884E+03 0.  0.
         23    2    4    4    0    0  0.25748293270E+03 -0.35753512952E+02  0.22261646078E+02  0.27740586205E+03  0.94247849287E+02 0.  0.
         23    2    4    4    0    0  0.10832221345E+03 -0.41662892286E+03 -0.13894784731E+04  0.14573804588E+04  0.89409245998E+02 0.  0.
          3    1    3    3  502    0 -0.27051031039E+02  0.52568599044E+02  0.51906790266E+01  0.59347780367E+02  0.00000000000E+00 0. -1.
         -2    1    3    3    0  502 -0.33875411511E+03  0.39981383677E+03  0.25573258456E+03  0.58309914199E+03  0.00000000000E+00 0.  1.
         13    1    5    5    0    0  0.14516882960E+03  0.25752432482E+02  0.23801058223E+02  0.14934412355E+03  0.00000000000E+00 0. -1.
        -13    1    5    5    0    0  0.11231410310E+03 -0.61505945434E+02 -0.15394121449E+01  0.12806173850E+03  0.00000000000E+00 0.  1.
          1    1    6    6  503    0  0.50857983094E+02 -0.12868243363E+03 -0.58051955399E+03  0.59678191639E+03  0.00000000000E+00 0. -1.
         -1    1    6    6    0  503  0.57464230358E+02 -0.28794648923E+03 -0.80895891909E+03  0.86059854241E+03  0.00000000000E+00 0.  1.
<mgrwt>
<rscale>  0 0.21041275E+04</rscale>
<asrwt>0</asrwt>
<pdfrwt beam="1">  1        1 0.26796360E+00 0.21041275E+04</pdfrwt>
<pdfrwt beam="2">  1       -2 0.97764592E-01 0.21041275E+04</pdfrwt>
<totfact> 0.31395031E+00</totfact>
</mgrwt>
</event>
<event>
12    5  0.5221187E-008  0.1643757E+04  0.7818608E-02  0.8794108E-01
         -2   -1    0    0    0  501 -0.00000000000E+00  0.00000000000E+00  0.19587763726E+04  0.19587763726E+04  0.00000000000E+00 0.  1.
          1   -1    0    0  501    0  0.00000000000E+00 -0.00000000000E+00 -0.34485023159E+03  0.34485023159E+03  0.00000000000E+00 0. -1.
        -24    2    1    2    0    0 -0.17299356888E+03  0.21785952130E+03 -0.13621635521E+03  0.31938685038E+03  0.77868600058E+02 0.  0.
        254    2    1    2    0    0  0.17299356888E+03 -0.21785952130E+03  0.17501424962E+04  0.19842397538E+04  0.89264724146E+03 0.  0.
         23    2    4    4    0    0 -0.75070756704E+02 -0.15198920642E+03  0.16931861240E+04  0.17039744727E+04  0.88957382024E+02 0.  0.
         23    2    4    4    0    0  0.24806432558E+03 -0.65870314881E+02  0.56956372269E+02  0.28026528114E+03  0.97107113351E+02 0.  0.
          1    1    3    3  502    0 -0.10342994912E+03  0.18027245500E+03 -0.81562226914E+02  0.22326734931E+03  0.00000000000E+00 0. -1.
         -2    1    3    3    0  502 -0.69563619755E+02  0.37587066294E+02 -0.54654128294E+02  0.96119501068E+02  0.00000000000E+00 0.  1.
         13    1    5    5    0    0 -0.10717601318E+01 -0.13644968400E+02  0.25644051121E+02  0.29068044143E+02  0.00000000000E+00 0. -1.
        -13    1    5    5    0    0 -0.73998996572E+02 -0.13834423802E+03  0.16675420729E+04  0.16749064286E+04  0.00000000000E+00 0.  1.
          3    1    6    6  503    0  0.29349621224E+02  0.20283069024E+02 -0.76291421307E+01  0.36482968145E+02  0.00000000000E+00 0. -1.
         -3    1    6    6    0  503  0.21871470436E+03 -0.86153383905E+02  0.64585514399E+02  0.24378231300E+03  0.00000000000E+00 0.  1.
<mgrwt>
<rscale>  0 0.16437573E+04</rscale>
<asrwt>0</asrwt>
<pdfrwt beam="1">  1        1 0.53053883E-01 0.16437573E+04</pdfrwt>
<pdfrwt beam="2">  1       -2 0.30135020E+00 0.16437573E+04</pdfrwt>
<totfact> 0.19080501E+00</totfact>
</mgrwt>
</event>
<event>
12    5  0.5221187E-008  0.1741753E+04  0.7818608E-02  0.8737903E-01
         -2   -1    0    0    0  501 -0.00000000000E+00  0.00000000000E+00  0.48753772759E+03  0.48753772759E+03  0.00000000000E+00 0.  1.
          1   -1    0    0  501    0  0.00000000000E+00 -0.00000000000E+00 -0.15556241646E+04  0.15556241646E+04  0.00000000000E+00 0. -1.
        -24    2    1    2    0    0  0.23167116996E+03  0.46758845268E+03  0.47240471694E+02  0.53024459745E+03  0.81346044145E+02 0.  0.
        254    2    1    2    0    0 -0.23167116996E+03 -0.46758845268E+03 -0.11153269087E+04  0.15129172948E+04  0.87900747174E+03 0.  0.
         23    2    4    4    0    0 -0.29371155726E+02 -0.69268010786E+03 -0.85203454469E+03  0.11015350143E+04  0.82146976815E+02 0.  0.
         23    2    4    4    0    0 -0.20230001423E+03  0.22509165518E+03 -0.26329236406E+03  0.41138228046E+03  0.91219311094E+02 0.  0.
          1    1    3    3  502    0  0.14714967071E+03  0.27806936934E+03 -0.10730902704E+02  0.31478683586E+03  0.00000000000E+00 0. -1.
         -2    1    3    3    0  502  0.84521499250E+02  0.18951908334E+03  0.57971374397E+02  0.21545776160E+03  0.00000000000E+00 0.  1.
         13    1    5    5    0    0 -0.43723077410E+02 -0.65367672663E+03 -0.78269224182E+03  0.10206919789E+04  0.00000000000E+00 0.  1.
        -13    1    5    5    0    0  0.14351921684E+02 -0.39003381225E+02 -0.69342302873E+02  0.80843035388E+02  0.00000000000E+00 0. -1.
          4    1    6    6  503    0 -0.13323550975E+02  0.70811253568E+02 -0.63942490570E+02  0.96334795078E+02  0.00000000000E+00 0.  1.
         -4    1    6    6    0  503 -0.18897646326E+03  0.15428040161E+03 -0.19934987349E+03  0.31504748538E+03  0.00000000000E+00 0. -1.
<mgrwt>
<rscale>  0 0.17417525E+04</rscale>
<asrwt>0</asrwt>
<pdfrwt beam="1">  1        1 0.23932679E+00 0.17417525E+04</pdfrwt>
<pdfrwt beam="2">  1       -2 0.75005806E-01 0.17417525E+04</pdfrwt>
<totfact> 0.79544485E+00</totfact>
</mgrwt>
</event>
<event>
12    5  0.5221187E-008  0.1616022E+04  0.7818608E-02  0.8810765E-01
          1   -1    0    0  501    0  0.00000000000E+00  0.00000000000E+00  0.25950684905E+04  0.25950684905E+04  0.00000000000E+00 0. -1.
         -2   -1    0    0    0  501 -0.00000000000E+00 -0.00000000000E+00 -0.25158541226E+03  0.25158541226E+03  0.00000000000E+00 0.  1.
        -24    2    1    2    0    0 -0.46421859763E+03  0.12771661310E+03  0.32883370634E+03  0.58772787868E+03  0.74040619296E+02 0.  0.
        254    2    1    2    0    0  0.46421859763E+03 -0.12771661310E+03  0.20146493719E+04  0.22589260241E+04  0.90117936667E+03 0.  0.
         23    2    4    4    0    0 -0.54786791986E+02 -0.37297498610E+03  0.11769312781E+04  0.12392756066E+04  0.92330184512E+02 0.  0.
         23    2    4    4    0    0  0.51900538962E+03  0.24525837300E+03  0.83771809382E+03  0.10196504175E+04  0.91635719836E+02 0.  0.
          3    1    3    3  502    0 -0.18554866650E+03  0.18325999071E+02  0.14730692081E+03  0.23762045114E+03  0.00000000000E+00 0. -1.
         -4    1    3    3    0  502 -0.27866993113E+03  0.10939061403E+03  0.18152678553E+03  0.35010742754E+03  0.00000000000E+00 0.  1.
         13    1    5    5    0    0 -0.97822494557E+01  0.22231294276E+01  0.37358720615E+02  0.38682149822E+02  0.00000000000E+00 0. -1.
        -13    1    5    5    0    0 -0.45004542530E+02 -0.37519811553E+03  0.11395725575E+04  0.12005934568E+04  0.00000000000E+00 0.  1.
          2    1    6    6  503    0  0.43615647461E+03  0.20984788259E+03  0.75797874002E+03  0.89933329444E+03  0.00000000000E+00 0.  1.
         -2    1    6    6    0  503  0.82848915001E+02  0.35410490411E+02  0.79739353807E+02  0.12031712303E+03  0.00000000000E+00 0. -1.
<mgrwt>
<rscale>  0 0.16160215E+04</rscale>
<asrwt>0</asrwt>
<pdfrwt beam="1">  1        1 0.39924129E+00 0.16160215E+04</pdfrwt>
<pdfrwt beam="2">  1       -2 0.38705450E-01 0.16160215E+04</pdfrwt>
<totfact> 0.61875749E+00</totfact>
</mgrwt>
</event>
<event>
12    5  0.5221187E-008  0.3071811E+04  0.7818608E-02  0.8223517E-01
          1   -1    0    0  501    0  0.00000000000E+00  0.00000000000E+00  0.22542672980E+04  0.22542672980E+04  0.00000000000E+00 0. -1.
         -2   -1    0    0    0  501 -0.00000000000E+00 -0.00000000000E+00 -0.10464621375E+04  0.10464621375E+04  0.00000000000E+00 0.  1.
        -24    2    1    2    0    0  0.24713290217E+03  0.71578971626E+03  0.18145812216E+04  0.19678595363E+04  0.79602483659E+02 0.  0.
        254    2    1    2    0    0 -0.24713290217E+03 -0.71578971626E+03 -0.60677606106E+03  0.13328698992E+04  0.91374799084E+03 0.  0.
         23    2    4    4    0    0 -0.34380489678E+03 -0.20943279187E+03  0.12766107045E+03  0.43100935871E+03  0.86068676196E+02 0.  0.
         23    2    4    4    0    0  0.96671994610E+02 -0.50635692439E+03 -0.73443713152E+03  0.90186054052E+03  0.90618568688E+02 0.  0.
          3    1    3    3  502    0  0.16565696545E+03  0.55860629103E+03  0.13334547481E+04  0.14551923529E+04  0.00000000000E+00 0. -1.
         -4    1    3    3    0  502  0.81475936727E+02  0.15718342523E+03  0.48112647346E+03  0.51266718336E+03  0.00000000000E+00 0.  1.
         13    1    5    5    0    0 -0.17911075898E+02  0.91356118741E+00  0.23169184928E+02  0.29299357742E+02  0.00000000000E+00 0.  1.
        -13    1    5    5    0    0 -0.32589382088E+03 -0.21034635306E+03  0.10449188553E+03  0.40171000097E+03  0.00000000000E+00 0. -1.
          3    1    6    6  503    0  0.84283445777E+02 -0.46506238599E+03 -0.70807516654E+03  0.85132670789E+03  0.00000000000E+00 0. -1.
         -3    1    6    6    0  503  0.12388548833E+02 -0.41294538394E+02 -0.26361964975E+02  0.50533832634E+02  0.00000000000E+00 0.  1.
<mgrwt>
<rscale>  0 0.30718108E+04</rscale>
<asrwt>0</asrwt>
<pdfrwt beam="1">  1        1 0.34681035E+00 0.30718108E+04</pdfrwt>
<pdfrwt beam="2">  1       -2 0.16099418E+00 0.30718108E+04</pdfrwt>
<totfact> 0.36852249E-01</totfact>
</mgrwt>
</event>
<event>
12    5  0.5221187E-008  0.1809985E+04  0.7818608E-02  0.8701008E-01
         -2   -1    0    0    0  501 -0.00000000000E+00  0.00000000000E+00  0.60954969759E+03  0.60954969759E+03  0.00000000000E+00 0.  1.
          1   -1    0    0  501    0  0.00000000000E+00 -0.00000000000E+00 -0.13436330114E+04  0.13436330114E+04  0.00000000000E+00 0. -1.
        -24    2    1    2    0    0  0.38111749240E+03 -0.41878777310E+03 -0.67887214007E+03  0.88790237366E+03  0.82882450962E+02 0.  0.
        254    2    1    2    0    0 -0.38111749240E+03  0.41878777310E+03 -0.55211173752E+02  0.10652803353E+04  0.90063320905E+03 0.  0.
         23    2    4    4    0    0 -0.47162201826E+03  0.17874461038E+03  0.31724499847E+03  0.60406866832E+03  0.99386131555E+02 0.  0.
         23    2    4    4    0    0  0.90504525855E+02  0.24004316271E+03 -0.37245617222E+03  0.46121166702E+03  0.90447843575E+02 0.  0.
          1    1    3    3  502    0  0.33263099736E+03 -0.34011850727E+03 -0.60470045434E+03  0.76940666677E+03  0.00000000000E+00 0. -1.
         -2    1    3    3    0  502  0.48486495046E+02 -0.78669265825E+02 -0.74171685727E+02  0.11849570689E+03  0.00000000000E+00 0.  1.
         13    1    5    5    0    0 -0.22849931894E+03  0.11212080880E+03  0.10814424124E+03  0.27654690640E+03  0.00000000000E+00 0.  1.
        -13    1    5    5    0    0 -0.24312269931E+03  0.66623801579E+02  0.20910075723E+03  0.32752176192E+03  0.00000000000E+00 0. -1.
          1    1    6    6  503    0  0.38404785505E+02  0.20565945708E+03 -0.27634953364E+03  0.34661189330E+03  0.00000000000E+00 0. -1.
         -1    1    6    6    0  503  0.52099740351E+02  0.34383705637E+02 -0.96106638577E+02  0.11459977372E+03  0.00000000000E+00 0.  1.
<mgrwt>
<rscale>  0 0.18099846E+04</rscale>
<asrwt>0</asrwt>
<pdfrwt beam="1">  1        1 0.20671277E+00 0.18099846E+04</pdfrwt>
<pdfrwt beam="2">  1       -2 0.93776877E-01 0.18099846E+04</pdfrwt>
<totfact> 0.66914837E+00</totfact>
</mgrwt>
</event>
<event>
12    5  0.5221187E-008  0.2213723E+04  0.7818608E-02  0.8512738E-01
          1   -1    0    0  501    0  0.00000000000E+00  0.00000000000E+00  0.24282514598E+04  0.24282514598E+04  0.00000000000E+00 0. -1.
         -2   -1    0    0    0  501 -0.00000000000E+00 -0.00000000000E+00 -0.50453687623E+03  0.50453687623E+03  0.00000000000E+00 0.  1.
        -24    2    1    2    0    0  0.41740929441E+02  0.70383268687E+03  0.15883245267E+04  0.17395832903E+04  0.79072532651E+02 0.  0.
        254    2    1    2    0    0 -0.41740929441E+02 -0.70383268687E+03  0.33539005693E+03  0.11932050458E+04  0.90229099228E+03 0.  0.
         23    2    4    4    0    0 -0.40744858444E+03 -0.35715502881E+03 -0.50796475228E+02  0.55182463336E+03  0.91411599497E+02 0.  0.
         23    2    4    4    0    0  0.36570765499E+03 -0.34667765806E+03  0.38618653216E+03  0.64138041245E+03  0.91111515906E+02 0.  0.
          1    1    3    3  502    0  0.88321059286E+01  0.51812727538E+03  0.10947194012E+04  0.12111748209E+04  0.00000000000E+00 0. -1.
         -2    1    3    3    0  502  0.32908823512E+02  0.18570541149E+03  0.49360512551E+03  0.52840846932E+03  0.00000000000E+00 0.  1.
         13    1    5    5    0    0 -0.19569268030E+01 -0.20646067747E+01 -0.11003664636E+02  0.11365421201E+02  0.00000000000E+00 0. -1.
        -13    1    5    5    0    0 -0.40549165763E+03 -0.35509042204E+03 -0.39792810592E+02  0.54045921216E+03  0.00000000000E+00 0.  1.
          3    1    6    6  503    0  0.12196060486E+03 -0.17555985899E+03  0.14742568061E+03  0.25967284134E+03  0.00000000000E+00 0. -1.
         -3    1    6    6    0  503  0.24374705014E+03 -0.17111779907E+03  0.23876085154E+03  0.38170757110E+03  0.00000000000E+00 0.  1.
<mgrwt>
<rscale>  0 0.22137230E+04</rscale>
<asrwt>0</asrwt>
<pdfrwt beam="1">  1        1 0.37357714E+00 0.22137230E+04</pdfrwt>
<pdfrwt beam="2">  1       -2 0.77621059E-01 0.22137230E+04</pdfrwt>
<totfact> 0.17978330E+00</totfact>
</mgrwt>
</event>
<event>
12    5  0.5581882E-008  0.1523466E+04  0.7818608E-02  0.8868996E-01
          1   -1    0    0  501    0  0.00000000000E+00  0.00000000000E+00  0.13028614737E+04  0.13028614737E+04  0.00000000000E+00 0. -1.
         -2   -1    0    0    0  501 -0.00000000000E+00 -0.00000000000E+00 -0.44535625541E+03  0.44535625541E+03  0.00000000000E+00 0.  1.
        -24    2    1    2    0    0 -0.10324054928E+03  0.29548391457E+03 -0.16311292893E+03  0.36212664293E+03  0.80997056414E+02 0.  0.
        254    2    1    2    0    0  0.10324054928E+03 -0.29548391457E+03  0.10206181472E+04  0.13860910862E+04  0.88409147830E+03 0.  0.
         23    2    4    4    0    0 -0.23918492176E+03 -0.47594058955E+03  0.59491892755E+03  0.80360943748E+03  0.90170538760E+02 0.  0.
         23    2    4    4    0    0  0.34242547104E+03  0.18045667498E+03  0.42569921969E+03  0.58248164873E+03  0.90803252708E+02 0.  0.
          1    1    3    3  502    0 -0.20105128314E+02  0.43164809227E+02 -0.61303415106E+02  0.77624259377E+02  0.00000000000E+00 0. -1.
         -2    1    3    3    0  502 -0.83135420967E+02  0.25231910534E+03 -0.10180951382E+03  0.28450238355E+03  0.00000000000E+00 0.  1.
         13    1    5    5    0    0 -0.16633280236E+03 -0.32070709630E+03  0.33810208242E+03  0.49480567993E+03  0.00000000000E+00 0. -1.
        -13    1    5    5    0    0 -0.72852119404E+02 -0.15523349325E+03  0.25681684514E+03  0.30880375754E+03  0.00000000000E+00 0.  1.
          4    1    6    6  503    0  0.11807477671E+02  0.11908361444E+02 -0.12231650363E+01  0.16814331206E+02  0.00000000000E+00 0. -1.
         -4    1    6    6    0  503  0.33061799337E+03  0.16854831354E+03  0.42692238472E+03  0.56566731752E+03  0.00000000000E+00 0.  1.
<mgrwt>
<rscale>  0 0.15234665E+04</rscale>
<asrwt>0</asrwt>
<pdfrwt beam="1">  1        1 0.20044023E+00 0.15234665E+04</pdfrwt>
<pdfrwt beam="2">  1       -2 0.68516347E-01 0.15234665E+04</pdfrwt>
<totfact> 0.14852844E+01</totfact>
</mgrwt>
</event>
<event>
12    5  0.5221187E-008  0.1139792E+04  0.7818608E-02  0.9167252E-01
         -2   -1    0    0    0  501 -0.00000000000E+00  0.00000000000E+00  0.17194484655E+03  0.17194484655E+03  0.00000000000E+00 0.  1.
          1   -1    0    0  501    0  0.00000000000E+00 -0.00000000000E+00 -0.18888714015E+04  0.18888714015E+04  0.00000000000E+00 0. -1.
        -24    2    1    2    0    0  0.37832281813E+02  0.21002579544E+03 -0.41117830240E+03  0.47034830022E+03  0.81349928478E+02 0.  0.
        254    2    1    2    0    0 -0.37832281813E+02 -0.21002579544E+03 -0.13057482526E+04  0.15904679478E+04  0.88264810527E+03 0.  0.
         23    2    4    4    0    0  0.38901360481E+03 -0.17549168957E+03 -0.86555758612E+03  0.96933243960E+03  0.91030356116E+02 0.  0.
         23    2    4    4    0    0 -0.42684588662E+03 -0.34534105865E+02 -0.44019066644E+03  0.62113550824E+03  0.93013339767E+02 0.  0.
          3    1    3    3  502    0  0.52088687715E+02  0.16462217126E+03 -0.36620722488E+03  0.40487210599E+03  0.00000000000E+00 0. -1.
         -4    1    3    3    0  502 -0.14256405902E+02  0.45403624174E+02 -0.44971077522E+02  0.65476194230E+02  0.00000000000E+00 0.  1.
         13    1    5    5    0    0  0.33135467645E+03 -0.13061978483E+03 -0.64255314336E+03  0.73466454374E+03  0.00000000000E+00 0.  1.
        -13    1    5    5    0    0  0.57658928365E+02 -0.44871904736E+02 -0.22300444276E+03  0.23466789585E+03  0.00000000000E+00 0. -1.
          1    1    6    6  503    0 -0.77856043379E+02 -0.33989518484E+02 -0.12335010917E+03  0.14977349662E+03  0.00000000000E+00 0. -1.
         -1    1    6    6    0  503 -0.34898984324E+03 -0.54458738092E+00 -0.31684055727E+03  0.47136201162E+03  0.00000000000E+00 0.  1.
<mgrwt>
<rscale>  0 0.11397924E+04</rscale>
<asrwt>0</asrwt>
<pdfrwt beam="1">  1        1 0.29059560E+00 0.11397924E+04</pdfrwt>
<pdfrwt beam="2">  1       -2 0.26453054E-01 0.11397924E+04</pdfrwt>
<totfact> 0.40092951E+01</totfact>
</mgrwt>
</event>
<event>
12    5  0.5221187E-008  0.1310913E+04  0.7818608E-02  0.9020956E-01
          1   -1    0    0  501    0  0.00000000000E+00  0.00000000000E+00  0.15431637287E+03  0.15431637287E+03  0.00000000000E+00 0. -1.
         -2   -1    0    0    0  501 -0.00000000000E+00 -0.00000000000E+00 -0.27840419421E+04  0.27840419421E+04  0.00000000000E+00 0.  1.
        -24    2    1    2    0    0 -0.28076288923E+01 -0.27700493426E+03 -0.25652731852E+03  0.38649860877E+03  0.82675831121E+02 0.  0.
        254    2    1    2    0    0  0.28076288923E+01  0.27700493426E+03 -0.23731982507E+04  0.25518597062E+04  0.89620221298E+03 0.  0.
         23    2    4    4    0    0 -0.41839189443E+03  0.17162377629E+03 -0.15426167055E+04  0.16101193461E+04  0.91167487081E+02 0.  0.
         23    2    4    4    0    0  0.42119952333E+03  0.10538115796E+03 -0.83058154520E+03  0.94174036008E+03  0.92168192321E+02 0.  0.
          1    1    3    3  502    0 -0.30351571544E+02 -0.84450763414E+02 -0.49737230217E+02  0.10260088404E+03  0.00000000000E+00 0. -1.
         -2    1    3    3    0  502  0.27543942652E+02 -0.19255417084E+03 -0.20679008830E+03  0.28389772473E+03  0.00000000000E+00 0.  1.
         13    1    5    5    0    0 -0.26797156940E+03  0.15435515210E+03 -0.10754548072E+04  0.11190341002E+04  0.00000000000E+00 0.  1.
        -13    1    5    5    0    0 -0.15042032503E+03  0.17268624192E+02 -0.46716189828E+03  0.49108524593E+03  0.00000000000E+00 0. -1.
          4    1    6    6  503    0  0.13276929861E+03  0.27925233699E+02 -0.35636829207E+03  0.38132120964E+03  0.00000000000E+00 0. -1.
         -4    1    6    6    0  503  0.28843022472E+03  0.77455924266E+02 -0.47421325313E+03  0.56041915044E+03  0.00000000000E+00 0.  1.
<mgrwt>
<rscale>  0 0.13109130E+04</rscale>
<asrwt>0</asrwt>
<pdfrwt beam="1">  1        1 0.23740981E-01 0.13109130E+04</pdfrwt>
<pdfrwt beam="2">  1       -2 0.42831413E+00 0.13109130E+04</pdfrwt>
<totfact> 0.87734875E-01</totfact>
</mgrwt>
</event>
<event>
12    5  0.5221187E-008  0.3451754E+04  0.7818608E-02  0.8125320E-01
         -2   -1    0    0    0  501 -0.00000000000E+00  0.00000000000E+00  0.16228924449E+04  0.16228924449E+04  0.00000000000E+00 0.  1.
          1   -1    0    0  501    0  0.00000000000E+00 -0.00000000000E+00 -0.18353968021E+04  0.18353968021E+04  0.00000000000E+00 0. -1.
        -24    2    1    2    0    0 -0.15377960687E+04  0.14372890338E+03 -0.40440656804E+03  0.15993851950E+04  0.94939891747E+02 0.  0.
        254    2    1    2    0    0  0.15377960687E+04 -0.14372890338E+03  0.19190221085E+03  0.18589040519E+04  0.10164758084E+04 0.  0.
         23    2    4    4    0    0  0.13459529378E+04 -0.32808025295E+03 -0.17110347544E+03  0.13990314186E+04  0.93736587260E+02 0.  0.
         23    2    4    4    0    0  0.19184313091E+03  0.18435134957E+03  0.36300568629E+03  0.45987263332E+03  0.94448417835E+02 0.  0.
          3    1    3    3  502    0 -0.11871380677E+04  0.93078040097E+02 -0.34828738968E+03  0.12406709552E+04  0.00000000000E+00 0. -1.
         -4    1    3    3    0  502 -0.35065800104E+03  0.50650863279E+02 -0.56119178364E+02  0.35871423978E+03  0.00000000000E+00 0.  1.
         13    1    5    5    0    0  0.11466442617E+04 -0.31282319550E+03 -0.15196009879E+03  0.11982250566E+04  0.00000000000E+00 0. -1.
        -13    1    5    5    0    0  0.19930867609E+03 -0.15257057450E+02 -0.19143376654E+02  0.20080636204E+03  0.00000000000E+00 0.  1.
          4    1    6    6  503    0  0.12039730909E+03  0.13233059724E+03  0.16644715666E+03  0.24435947897E+03  0.00000000000E+00 0. -1.
         -4    1    6    6    0  503  0.71445821823E+02  0.52020752335E+02  0.19655852963E+03  0.21551315435E+03  0.00000000000E+00 0.  1.
<mgrwt>
<rscale>  0 0.34517541E+04</rscale>
<asrwt>0</asrwt>
<pdfrwt beam="1">  1        1 0.28236874E+00 0.34517541E+04</pdfrwt>
<pdfrwt beam="2">  1       -2 0.24967576E+00 0.34517541E+04</pdfrwt>
<totfact> 0.17915772E-01</totfact>
</mgrwt>
</event>
<event>
12    5  0.5221187E-008  0.1145421E+04  0.7818608E-02  0.9162018E-01
         -2   -1    0    0    0  501 -0.00000000000E+00  0.00000000000E+00  0.32847715895E+03  0.32847715895E+03  0.00000000000E+00 0.  1.
          1   -1    0    0  501    0  0.00000000000E+00 -0.00000000000E+00 -0.99853880354E+03  0.99853880354E+03  0.00000000000E+00 0. -1.
        -24    2    1    2    0    0 -0.20523636890E+03 -0.36947888522E+02 -0.91255148660E+02  0.24124989522E+03  0.79918059306E+02 0.  0.
        254    2    1    2    0    0  0.20523636890E+03  0.36947888522E+02 -0.57880649593E+03  0.10857660673E+04  0.89464176043E+03 0.  0.
         23    2    4    4    0    0  0.25514877445E+03  0.40866859748E+03 -0.15874615881E+03  0.51531345931E+03  0.90756260079E+02 0.  0.
         23    2    4    4    0    0 -0.49912405552E+02 -0.37172070896E+03 -0.42006033712E+03  0.57045260795E+03  0.91093124874E+02 0.  0.
          1    1    3    3  502    0 -0.14542369378E+03 -0.21733806199E+02 -0.10152587347E+03  0.17868383258E+03  0.00000000000E+00 0. -1.
         -2    1    3    3    0  502 -0.59812675122E+02 -0.15214082323E+02  0.10270724806E+02  0.62566062639E+02  0.00000000000E+00 0.  1.
         13    1    5    5    0    0  0.17456341022E+03  0.20662685001E+03 -0.11236180096E+03  0.29290307893E+03  0.00000000000E+00 0. -1.
        -13    1    5    5    0    0  0.80585364227E+02  0.20204174747E+03 -0.46384357848E+02  0.22241038038E+03  0.00000000000E+00 0.  1.
          4    1    6    6  503    0 -0.21220221335E+02 -0.57505685415E+02 -0.28530039521E+02  0.67610389761E+02  0.00000000000E+00 0. -1.
         -4    1    6    6    0  503 -0.28692184217E+02 -0.31421502354E+03 -0.39153029760E+03  0.50284221819E+03  0.00000000000E+00 0.  1.
<mgrwt>
<rscale>  0 0.11454208E+04</rscale>
<asrwt>0</asrwt>
<pdfrwt beam="1">  1        1 0.15362135E+00 0.11454208E+04</pdfrwt>
<pdfrwt beam="2">  1       -2 0.50534948E-01 0.11454208E+04</pdfrwt>
<totfact> 0.48920465E+01</totfact>
</mgrwt>
</event>
<event>
12    5  0.5221187E-008  0.1619498E+04  0.7818608E-02  0.8808659E-01
          1   -1    0    0  501    0  0.00000000000E+00  0.00000000000E+00  0.93590466376E+03  0.93590466376E+03  0.00000000000E+00 0. -1.
         -4   -1    0    0    0  501 -0.00000000000E+00 -0.00000000000E+00 -0.70059826361E+03  0.70059826361E+03  0.00000000000E+00 0.  1.
        -24    2    1    2    0    0  0.53192804035E+03  0.13526919888E+03  0.13450043591E+03  0.57051532762E+03  0.78435805046E+02 0.  0.
        254    2    1    2    0    0 -0.53192804035E+03 -0.13526919888E+03  0.10080596424E+03  0.10659875997E+04  0.90825245616E+03 0.  0.
         23    2    4    4    0    0 -0.28538954383E+03  0.37882635350E+03  0.40498305695E+02  0.48565088730E+03  0.96229276939E+02 0.  0.
         23    2    4    4    0    0 -0.24653849652E+03 -0.51409555238E+03  0.60307658542E+02  0.58033671244E+03  0.89878912358E+02 0.  0.
          1    1    3    3  502    0  0.38167313254E+03  0.11831515436E+03  0.12633602698E+03  0.41908668264E+03  0.00000000000E+00 0. -1.
         -2    1    3    3    0  502  0.15025490781E+03  0.16954044515E+02  0.81644089292E+01  0.15142864498E+03  0.00000000000E+00 0.  1.
         13    1    5    5    0    0 -0.18462574098E+03  0.18007156418E+03  0.49602921605E+02  0.26262688798E+03  0.00000000000E+00 0. -1.
        -13    1    5    5    0    0 -0.10076380285E+03  0.19875478932E+03 -0.91046159105E+01  0.22302399932E+03  0.00000000000E+00 0.  1.
          4    1    6    6  503    0 -0.30136237586E+02 -0.59550161255E+02 -0.21892624974E+02  0.70240312852E+02  0.00000000000E+00 0. -1.
         -4    1    6    6    0  503 -0.21640225893E+03 -0.45454539113E+03  0.82200283516E+02  0.51009639959E+03  0.00000000000E+00 0.  1.
<mgrwt>
<rscale>  0 0.16194977E+04</rscale>
<asrwt>0</asrwt>
<pdfrwt beam="1">  1        1 0.14398533E+00 0.16194977E+04</pdfrwt>
<pdfrwt beam="2">  1       -4 0.10778435E+00 0.16194977E+04</pdfrwt>
<totfact> 0.54508339E+00</totfact>
</mgrwt>
</event>
<event>
12    5  0.5221187E-008  0.1634219E+04  0.7818608E-02  0.8799798E-01
         -2   -1    0    0    0  501 -0.00000000000E+00  0.00000000000E+00  0.50499943427E+03  0.50499943427E+03  0.00000000000E+00 0.  1.
          1   -1    0    0  501    0  0.00000000000E+00 -0.00000000000E+00 -0.13221156384E+04  0.13221156384E+04  0.00000000000E+00 0. -1.
        -24    2    1    2    0    0  0.39406291939E+03  0.10331031642E+03  0.15424559970E+03  0.44272157842E+03  0.79070127465E+02 0.  0.
        254    2    1    2    0    0 -0.39406291939E+03 -0.10331031642E+03 -0.97136180384E+03  0.13843934943E+04  0.89835571301E+03 0.  0.
         23    2    4    4    0    0 -0.30301743368E+03 -0.15213750013E+03 -0.11236605988E+04  0.11777744608E+04  0.97847612196E+02 0.  0.
         23    2    4    4    0    0 -0.91045485709E+02  0.48827183717E+02  0.15229879497E+03  0.20661903344E+03  0.93931505322E+02 0.  0.
          3    1    3    3  502    0 -0.73943470025E+00 -0.37577843553E+01 -0.25901660109E+01  0.46234907700E+01  0.00000000000E+00 0. -1.
         -4    1    3    3    0  502  0.39480235409E+03  0.10706810077E+03  0.15683576571E+03  0.43809808765E+03  0.00000000000E+00 0.  1.
         13    1    5    5    0    0 -0.24304690524E+02 -0.13179068279E+02 -0.22473667372E+03  0.22643095711E+03  0.00000000000E+00 0. -1.
        -13    1    5    5    0    0 -0.27871274316E+03 -0.13895843185E+03 -0.89892392509E+03  0.95134350373E+03  0.00000000000E+00 0.  1.
          1    1    6    6  503    0  0.93992357697E+01  0.35524785770E+01 -0.74866405172E+01  0.12530583519E+02  0.00000000000E+00 0. -1.
         -1    1    6    6    0  503 -0.10044472148E+03  0.45274705140E+02  0.15978543548E+03  0.19408844992E+03  0.00000000000E+00 0.  1.
<mgrwt>
<rscale>  0 0.16342187E+04</rscale>
<asrwt>0</asrwt>
<pdfrwt beam="1">  1        1 0.20340240E+00 0.16342187E+04</pdfrwt>
<pdfrwt beam="2">  1       -2 0.77692221E-01 0.16342187E+04</pdfrwt>
<totfact> 0.10807879E+01</totfact>
</mgrwt>
</event>
<event>
12    5  0.5221187E-008  0.1134088E+04  0.7818608E-02  0.9172590E-01
         -2   -1    0    0    0  501 -0.00000000000E+00  0.00000000000E+00  0.40704712334E+03  0.40704712334E+03  0.00000000000E+00 0.  1.
          1   -1    0    0  501    0  0.00000000000E+00 -0.00000000000E+00 -0.78993065459E+03  0.78993065459E+03  0.00000000000E+00 0. -1.
        -24    2    1    2    0    0 -0.15635169041E+03 -0.29872347573E+00  0.10288776045E+03  0.20451508372E+03  0.82429290229E+02 0.  0.
        254    2    1    2    0    0  0.15635169041E+03  0.29872347573E+00 -0.48577129171E+03  0.99246269421E+03  0.85121237728E+03 0.  0.
         23    2    4    4    0    0 -0.26152801127E+02  0.40229286367E+03 -0.19325215840E+03  0.45493365043E+03  0.84230115751E+02 0.  0.
         23    2    4    4    0    0  0.18250449153E+03 -0.40199414019E+03 -0.29251913331E+03  0.53752904379E+03  0.91993757313E+02 0.  0.
          3    1    3    3  502    0 -0.64473196576E+02  0.32110369485E+02  0.15581176863E+02  0.73692889600E+02  0.00000000000E+00 0. -1.
         -4    1    3    3    0  502 -0.91878493831E+02 -0.32409092961E+02  0.87306583591E+02  0.13082219412E+03  0.00000000000E+00 0.  1.
         13    1    5    5    0    0 -0.52787274910E+02  0.32870693736E+03 -0.16647686833E+03  0.37222210406E+03  0.00000000000E+00 0. -1.
        -13    1    5    5    0    0  0.26634473783E+02  0.73585926308E+02 -0.26775290073E+02  0.82711546370E+02  0.00000000000E+00 0.  1.
          4    1    6    6  503    0  0.61259227674E+01 -0.55348664877E+02 -0.94379314974E+01  0.56480759417E+02  0.00000000000E+00 0.  1.
         -4    1    6    6    0  503  0.17637856877E+03 -0.34664547532E+03 -0.28308120181E+03  0.48104828437E+03  0.00000000000E+00 0. -1.
<mgrwt>
<rscale>  0 0.11340882E+04</rscale>
<asrwt>0</asrwt>
<pdfrwt beam="1">  1        1 0.12152779E+00 0.11340882E+04</pdfrwt>
<pdfrwt beam="2">  1       -2 0.62622636E-01 0.11340882E+04</pdfrwt>
<totfact> 0.46486954E+01</totfact>
</mgrwt>
</event>
<event>
12    5  0.5221187E-008  0.1824696E+04  0.7818608E-02  0.8693275E-01
         -2   -1    0    0    0  501 -0.00000000000E+00  0.00000000000E+00  0.23702213491E+03  0.23702213491E+03  0.00000000000E+00 0.  1.
          1   -1    0    0  501    0  0.00000000000E+00 -0.00000000000E+00 -0.35118208954E+04  0.35118208954E+04  0.00000000000E+00 0. -1.
        -24    2    1    2    0    0  0.11697616117E+03 -0.24002473348E+03  0.57054662547E+02  0.28416549749E+03  0.78736906718E+02 0.  0.
        254    2    1    2    0    0 -0.11697616117E+03  0.24002473348E+03 -0.33318534230E+04  0.34646775328E+04  0.91183763843E+03 0.  0.
         23    2    4    4    0    0  0.34739175032E+03 -0.67867621698E+02 -0.97753609159E+03  0.10436046473E+04  0.90811933318E+02 0.  0.
         23    2    4    4    0    0 -0.46436791148E+03  0.30789235518E+03 -0.23543173314E+04  0.24210728855E+04  0.91370456276E+02 0.  0.
          3    1    3    3  502    0  0.10271026479E+01 -0.28080375956E+02 -0.15275072607E+02  0.31982656188E+02  0.00000000000E+00 0. -1.
         -4    1    3    3    0  502  0.11594905852E+03 -0.21194435753E+03  0.72329735154E+02  0.25218284130E+03  0.00000000000E+00 0.  1.
         13    1    5    5    0    0  0.11082992115E+03 -0.14776367159E+02 -0.43892302805E+03  0.45294043427E+03  0.00000000000E+00 0. -1.
        -13    1    5    5    0    0  0.23656182917E+03 -0.53091254539E+02 -0.53861306354E+03  0.59066421302E+03  0.00000000000E+00 0.  1.
          3    1    6    6  503    0 -0.26655228167E+03  0.12687842782E+03 -0.11526026908E+04  0.11898072185E+04  0.00000000000E+00 0. -1.
         -3    1    6    6    0  503 -0.19781562981E+03  0.18101392736E+03 -0.12017146406E+04  0.12312656670E+04  0.00000000000E+00 0.  1.
<mgrwt>
<rscale>  0 0.18246965E+04</rscale>
<asrwt>0</asrwt>
<pdfrwt beam="1">  1        1 0.54028010E+00 0.18246965E+04</pdfrwt>
<pdfrwt beam="2">  1       -2 0.36464947E-01 0.18246965E+04</pdfrwt>
<totfact> 0.14414401E+00</totfact>
</mgrwt>
</event>
<event>
12    5  0.5221187E-008  0.1116391E+04  0.7818608E-02  0.9189362E-01
          1   -1    0    0  501    0  0.00000000000E+00  0.00000000000E+00  0.74296660574E+03  0.74296660574E+03  0.00000000000E+00 0. -1.
         -2   -1    0    0    0  501 -0.00000000000E+00 -0.00000000000E+00 -0.41937567339E+03  0.41937567339E+03  0.00000000000E+00 0.  1.
        -24    2    1    2    0    0 -0.11663394377E+03 -0.14027254681E+03  0.53869223117E+02  0.20604811590E+03  0.79209018662E+02 0.  0.
        254    2    1    2    0    0  0.11663394377E+03  0.14027254681E+03  0.26972170924E+03  0.95629416323E+03  0.89914896539E+03 0.  0.
         23    2    4    4    0    0 -0.91032396215E+02 -0.12351724859E+03 -0.26446961877E+03  0.31905135858E+03  0.91138259252E+02 0.  0.
         23    2    4    4    0    0  0.20766633998E+03  0.26378979540E+03  0.53419132801E+03  0.63724280465E+03  0.89485486168E+02 0.  0.
          1    1    3    3  502    0 -0.45428103532E+02 -0.27395885454E+02  0.49438921231E+02  0.72515198840E+02  0.00000000000E+00 0. -1.
         -2    1    3    3    0  502 -0.71205840236E+02 -0.11287666136E+03  0.44303018863E+01  0.13353291706E+03  0.00000000000E+00 0.  1.
         13    1    5    5    0    0 -0.98121281232E+02 -0.61590070746E+02 -0.18039905110E+03  0.21439435693E+03  0.00000000000E+00 0. -1.
        -13    1    5    5    0    0  0.70888850167E+01 -0.61927177840E+02 -0.84070567676E+02  0.10465700165E+03  0.00000000000E+00 0.  1.
          4    1    6    6  503    0  0.41969769829E+02  0.26570809053E+02  0.36848167848E+02  0.61848661643E+02  0.00000000000E+00 0. -1.
         -4    1    6    6    0  503  0.16569657015E+03  0.23721898634E+03  0.49734316017E+03  0.57539414301E+03  0.00000000000E+00 0.  1.
<mgrwt>
<rscale>  0 0.11163908E+04</rscale>
<asrwt>0</asrwt>
<pdfrwt beam="1">  1        1 0.11430255E+00 0.11163908E+04</pdfrwt>
<pdfrwt beam="2">  1       -2 0.64519334E-01 0.11163908E+04</pdfrwt>
<totfact> 0.48088525E+01</totfact>
</mgrwt>
</event>
<event>
12    5  0.5221187E-008  0.3607499E+04  0.7818608E-02  0.8088776E-01
          1   -1    0    0  501    0  0.00000000000E+00  0.00000000000E+00  0.18366004969E+04  0.18366004969E+04  0.00000000000E+00 0. -1.
         -2   -1    0    0    0  501 -0.00000000000E+00 -0.00000000000E+00 -0.17714858912E+04  0.17714858912E+04  0.00000000000E+00 0.  1.
        -24    2    1    2    0    0 -0.29294264003E+03 -0.75924851884E+03  0.15065989168E+04  0.17141732643E+04  0.79221085460E+02 0.  0.
        254    2    1    2    0    0  0.29294264003E+03  0.75924851884E+03 -0.14414843111E+04  0.18939131238E+04  0.92019356521E+03 0.  0.
         23    2    4    4    0    0 -0.23720714932E+03  0.39535895452E+03 -0.10109225032E+04  0.11148176284E+04  0.90984078196E+02 0.  0.
         23    2    4    4    0    0  0.53014978935E+03  0.36388956432E+03 -0.43056180789E+03  0.77909549535E+03  0.90177082949E+02 0.  0.
          3    1    3    3  502    0 -0.27502527757E+03 -0.64683095305E+03  0.12668532505E+04  0.14487740829E+04  0.00000000000E+00 0. -1.
         -4    1    3    3    0  502 -0.17917362465E+02 -0.11241756580E+03  0.23974566627E+03  0.26539918137E+03  0.00000000000E+00 0.  1.
         13    1    5    5    0    0 -0.22840166057E+02  0.31401119016E+02 -0.16234603532E+03  0.16692494914E+03  0.00000000000E+00 0. -1.
        -13    1    5    5    0    0 -0.21436698326E+03  0.36395783550E+03 -0.84857646789E+03  0.94789267926E+03  0.00000000000E+00 0.  1.
          2    1    6    6  503    0  0.23432426905E+03  0.21093032667E+03 -0.23106040993E+03  0.39088154064E+03  0.00000000000E+00 0. -1.
         -2    1    6    6    0  503  0.29582552030E+03  0.15295923765E+03 -0.19950139796E+03  0.38821395471E+03  0.00000000000E+00 0.  1.
<mgrwt>
<rscale>  0 0.36074988E+04</rscale>
<asrwt>0</asrwt>
<pdfrwt beam="1">  1        1 0.28255393E+00 0.36074988E+04</pdfrwt>
<pdfrwt beam="2">  1       -2 0.27253629E+00 0.36074988E+04</pdfrwt>
<totfact> 0.12786183E-01</totfact>
</mgrwt>
</event>
<event>
12    5  0.5221187E-008  0.1400483E+04  0.7818608E-02  0.8953469E-01
         -2   -1    0    0    0  501 -0.00000000000E+00  0.00000000000E+00  0.14062034476E+03  0.14062034476E+03  0.00000000000E+00 0.  1.
          1   -1    0    0  501    0  0.00000000000E+00 -0.00000000000E+00 -0.34869648700E+04  0.34869648700E+04  0.00000000000E+00 0. -1.
        -24    2    1    2    0    0 -0.34577834402E+03 -0.18685599037E+03 -0.17698348872E+04  0.18147061860E+04  0.79782134940E+02 0.  0.
        254    2    1    2    0    0  0.34577834402E+03  0.18685599037E+03 -0.15765096380E+04  0.18128790288E+04  0.80415788869E+03 0.  0.
         23    2    4    4    0    0  0.28285735211E+03 -0.64943076027E+02 -0.14942661155E+04  0.15251236473E+04  0.94578172779E+02 0.  0.
         23    2    4    4    0    0  0.62920991903E+02  0.25179906639E+03 -0.82243522503E+02  0.28775538151E+03  0.93152249211E+02 0.  0.
          3    1    3    3  502    0 -0.32043207419E+03 -0.14444854616E+03 -0.15681543094E+04  0.16070625485E+04  0.00000000000E+00 0. -1.
         -4    1    3    3    0  502 -0.25346269824E+02 -0.42407444207E+02 -0.20168057786E+03  0.20764363752E+03  0.00000000000E+00 0.  1.
         13    1    5    5    0    0  0.24887359574E+03 -0.44308375945E+02 -0.14027393755E+04  0.14253347166E+04  0.00000000000E+00 0.  1.
        -13    1    5    5    0    0  0.33983756377E+02 -0.20634700082E+02 -0.91526740011E+02  0.99788930658E+02  0.00000000000E+00 0. -1.
          4    1    6    6  503    0 -0.20855301250E+02  0.67310058809E+02 -0.39120658313E+02  0.80597850554E+02  0.00000000000E+00 0. -1.
         -4    1    6    6    0  503  0.83776293154E+02  0.18448900758E+03 -0.43122864191E+02  0.20715753095E+03  0.00000000000E+00 0.  1.
<mgrwt>
<rscale>  0 0.14004831E+04</rscale>
<asrwt>0</asrwt>
<pdfrwt beam="1">  1        1 0.53645607E+00 0.14004831E+04</pdfrwt>
<pdfrwt beam="2">  1       -2 0.21633902E-01 0.14004831E+04</pdfrwt>
<totfact> 0.41340403E+00</totfact>
</mgrwt>
</event>
<event>
12    5  0.5221187E-008  0.1457183E+04  0.7818608E-02  0.8913435E-01
          1   -1    0    0  501    0  0.00000000000E+00  0.00000000000E+00  0.59690848625E+03  0.59690848625E+03  0.00000000000E+00 0. -1.
         -2   -1    0    0    0  501 -0.00000000000E+00 -0.00000000000E+00 -0.88932547471E+03  0.88932547471E+03  0.00000000000E+00 0.  1.
        -24    2    1    2    0    0 -0.13589515007E+03  0.39406211801E+03  0.75702910324E+02  0.43231524149E+03  0.86099318980E+02 0.  0.
        254    2    1    2    0    0  0.13589515007E+03 -0.39406211801E+03 -0.36811989878E+03  0.10539187195E+04  0.89525413304E+03 0.  0.
         23    2    4    4    0    0  0.22531352177E+03 -0.41884565678E+03  0.16015571348E+03  0.51021151789E+03  0.92022133933E+02 0.  0.
         23    2    4    4    0    0 -0.89418371696E+02  0.24783538769E+02 -0.52827561226E+03  0.54370720159E+03  0.89064749226E+02 0.  0.
          3    1    3    3  502    0 -0.14095085062E+03  0.32765654666E+03  0.46906804500E+02  0.35975853453E+03  0.00000000000E+00 0. -1.
         -4    1    3    3    0  502  0.50557005418E+01  0.66405571346E+02  0.28796105824E+02  0.72556706956E+02  0.00000000000E+00 0.  1.
         13    1    5    5    0    0  0.73967855999E+02 -0.77159921952E+02  0.95918286748E+01  0.10731682279E+03  0.00000000000E+00 0.  1.
        -13    1    5    5    0    0  0.15134566577E+03 -0.34168573483E+03  0.15056388480E+03  0.40289469510E+03  0.00000000000E+00 0. -1.
          1    1    6    6  503    0 -0.64229530182E+02  0.47288786531E+02 -0.22821632235E+03  0.24175266631E+03  0.00000000000E+00 0. -1.
         -1    1    6    6    0  503 -0.25188841514E+02 -0.22505247762E+02 -0.30005928991E+03  0.30195453528E+03  0.00000000000E+00 0.  1.
<mgrwt>
<rscale>  0 0.14571835E+04</rscale>
<asrwt>0</asrwt>
<pdfrwt beam="1">  1        1 0.91832075E-01 0.14571835E+04</pdfrwt>
<pdfrwt beam="2">  1       -2 0.13681930E+00 0.14571835E+04</pdfrwt>
<totfact> 0.11167150E+01</totfact>
</mgrwt>
</event>
<event>
12    5  0.5221187E-008  0.3306374E+04  0.7818608E-02  0.8161275E-01
          3   -1    0    0  501    0  0.00000000000E+00  0.00000000000E+00  0.25273479946E+04  0.25273479946E+04  0.00000000000E+00 0. -1.
         -2   -1    0    0    0  501 -0.00000000000E+00 -0.00000000000E+00 -0.10813816743E+04  0.10813816743E+04  0.00000000000E+00 0.  1.
        -24    2    1    2    0    0  0.76739273555E+03  0.12701197209E+04  0.27096020306E+03  0.15106045504E+04  0.80068471961E+02 0.  0.
        254    2    1    2    0    0 -0.76739273555E+03 -0.12701197209E+04  0.11750061172E+04  0.20981251185E+04  0.90520380109E+03 0.  0.
         23    2    4    4    0    0 -0.75732758012E+03 -0.11715083118E+04  0.62391943815E+03  0.15308933507E+04  0.91554342348E+02 0.  0.
         23    2    4    4    0    0 -0.10065155432E+02 -0.98611409058E+02  0.55108667904E+03  0.56723176782E+03  0.90718428425E+02 0.  0.
          1    1    3    3  502    0  0.22326356253E+03  0.37779437129E+03  0.11718362480E+03  0.45421053186E+03  0.00000000000E+00 0. -1.
         -2    1    3    3    0  502  0.54412917303E+03  0.89232534958E+03  0.15377657826E+03  0.10563940186E+04  0.00000000000E+00 0.  1.
         13    1    5    5    0    0 -0.28699681023E+03 -0.39147824816E+03  0.18099292077E+03  0.51805484771E+03  0.00000000000E+00 0.  1.
        -13    1    5    5    0    0 -0.47033076989E+03 -0.78003006364E+03  0.44292651739E+03  0.10128385030E+04  0.00000000000E+00 0. -1.
          3    1    6    6  503    0 -0.18491136641E+02 -0.39905126344E+02  0.43160671183E+03  0.43384178561E+03  0.00000000000E+00 0. -1.
         -3    1    6    6    0  503  0.84259812089E+01 -0.58706282714E+02  0.11947996721E+03  0.13338998221E+03  0.00000000000E+00 0.  1.
<mgrwt>
<rscale>  0 0.33063743E+04</rscale>
<asrwt>0</asrwt>
<pdfrwt beam="1">  1        3 0.38882277E+00 0.33063743E+04</pdfrwt>
<pdfrwt beam="2">  1       -2 0.16636641E+00 0.33063743E+04</pdfrwt>
<totfact> 0.98260872E-03</totfact>
</mgrwt>
</event>
<event>
12    5  0.5221187E-008  0.2236688E+04  0.7818608E-02  0.8503311E-01
         -2   -1    0    0    0  501 -0.00000000000E+00  0.00000000000E+00  0.91697494470E+03  0.91697494470E+03  0.00000000000E+00 0.  1.
          1   -1    0    0  501    0  0.00000000000E+00 -0.00000000000E+00 -0.13639337897E+04  0.13639337897E+04  0.00000000000E+00 0. -1.
        -24    2    1    2    0    0 -0.49234575664E+03 -0.38565498657E+03  0.52231692480E+03  0.81895697192E+03  0.82106267515E+02 0.  0.
        254    2    1    2    0    0  0.49234575664E+03  0.38565498657E+03 -0.96927576980E+03  0.14619517625E+04  0.89814994580E+03 0.  0.
         23    2    4    4    0    0  0.69169206241E+03  0.22164621325E+03 -0.41056986260E+03  0.83922613403E+03  0.90376650294E+02 0.  0.
         23    2    4    4    0    0 -0.19934630576E+03  0.16400877333E+03 -0.55870590720E+03  0.62272562845E+03  0.94852992790E+02 0.  0.
          1    1    3    3  502    0 -0.44055033930E+03 -0.36191829626E+03  0.44682077239E+03  0.72437439026E+03  0.00000000000E+00 0. -1.
         -2    1    3    3    0  502 -0.51795417348E+02 -0.23736690319E+02  0.75496152402E+02  0.94582581658E+02  0.00000000000E+00 0.  1.
         13    1    5    5    0    0  0.98343891794E+02  0.56370696604E+02 -0.38916987589E+02  0.11984868965E+03  0.00000000000E+00 0.  1.
        -13    1    5    5    0    0  0.59334817061E+03  0.16527551664E+03 -0.37165287501E+03  0.71937744437E+03  0.00000000000E+00 0. -1.
          1    1    6    6  503    0 -0.12656023358E+03  0.15711617238E+03 -0.41922802069E+03  0.46524737257E+03  0.00000000000E+00 0. -1.
         -1    1    6    6    0  503 -0.72786072184E+02  0.68926009463E+01 -0.13947788650E+03  0.15747825588E+03  0.00000000000E+00 0.  1.
<mgrwt>
<rscale>  0 0.22366878E+04</rscale>
<asrwt>0</asrwt>
<pdfrwt beam="1">  1        1 0.20983597E+00 0.22366878E+04</pdfrwt>
<pdfrwt beam="2">  1       -2 0.14107307E+00 0.22366878E+04</pdfrwt>
<totfact> 0.22879088E+00</totfact>
</mgrwt>
</event>
<event>
12    5  0.5221187E-008  0.1432777E+04  0.7818608E-02  0.8930429E-01
         -2   -1    0    0    0  501 -0.00000000000E+00  0.00000000000E+00  0.73415912237E+03  0.73415912237E+03  0.00000000000E+00 0.  1.
          1   -1    0    0  501    0  0.00000000000E+00 -0.00000000000E+00 -0.69904780767E+03  0.69904780767E+03  0.00000000000E+00 0. -1.
        -24    2    1    2    0    0 -0.17290562353E+03  0.38605044059E+03  0.85037127922E+02  0.43909499994E+03  0.81497291461E+02 0.  0.
        254    2    1    2    0    0  0.17290562353E+03 -0.38605044059E+03 -0.49925813227E+02  0.99411193010E+03  0.89823974829E+03 0.  0.
         23    2    4    4    0    0 -0.24536793426E+03  0.44025633521E+02  0.20462569238E+03  0.33566449863E+03  0.93033876018E+02 0.  0.
         23    2    4    4    0    0  0.41827355780E+03 -0.43007607411E+03 -0.25455150561E+03  0.65844743147E+03  0.94012511485E+02 0.  0.
          1    1    3    3  502    0 -0.10813478946E+03  0.17619673101E+03  0.72640413312E+02  0.21912336789E+03  0.00000000000E+00 0. -1.
         -2    1    3    3    0  502 -0.64770834070E+02  0.20985370958E+03  0.12396714609E+02  0.21997163205E+03  0.00000000000E+00 0.  1.
         13    1    5    5    0    0 -0.22166877563E+03  0.63929683305E+02  0.15769937081E+03  0.27945150215E+03  0.00000000000E+00 0.  1.
        -13    1    5    5    0    0 -0.23699158633E+02 -0.19904049784E+02  0.46926321572E+02  0.56212996487E+02  0.00000000000E+00 0. -1.
          1    1    6    6  503    0  0.45493091594E+02 -0.83557114799E+02 -0.16467304474E+02  0.96553534026E+02  0.00000000000E+00 0. -1.
         -1    1    6    6    0  503  0.37278046621E+03 -0.34651895932E+03 -0.23808420114E+03  0.56189389744E+03  0.00000000000E+00 0.  1.
<mgrwt>
<rscale>  0 0.14327768E+04</rscale>
<asrwt>0</asrwt>
<pdfrwt beam="1">  1        1 0.10754582E+00 0.14327768E+04</pdfrwt>
<pdfrwt beam="2">  1       -2 0.11294756E+00 0.14327768E+04</pdfrwt>
<totfact> 0.14322618E+01</totfact>
</mgrwt>
</event>
<event>
12    5  0.5221187E-008  0.1452818E+04  0.7818608E-02  0.8916449E-01
          1   -1    0    0  501    0  0.00000000000E+00  0.00000000000E+00  0.52966836344E+03  0.52966836344E+03  0.00000000000E+00 0. -1.
         -2   -1    0    0    0  501 -0.00000000000E+00 -0.00000000000E+00 -0.99622768647E+03  0.99622768647E+03  0.00000000000E+00 0.  1.
        -24    2    1    2    0    0 -0.16939907764E+03 -0.10212470178E+03  0.27785262195E+03  0.34977722801E+03  0.77566278043E+02 0.  0.
        254    2    1    2    0    0  0.16939907764E+03  0.10212470178E+03 -0.74441194498E+03  0.11761188219E+04  0.88880866175E+03 0.  0.
         23    2    4    4    0    0  0.93580291664E+02  0.47226214293E+03 -0.56572224963E+03  0.74858625286E+03  0.92471139333E+02 0.  0.
         23    2    4    4    0    0  0.75818785979E+02 -0.37013744115E+03 -0.17868969535E+03  0.42753256905E+03  0.90021534800E+02 0.  0.
          3    1    3    3  502    0 -0.11036520591E+03 -0.82837887879E+02  0.13074284875E+03  0.19009546771E+03  0.00000000000E+00 0. -1.
         -4    1    3    3    0  502 -0.59033871735E+02 -0.19286813899E+02  0.14710977320E+03  0.15968176030E+03  0.00000000000E+00 0.  1.
         13    1    5    5    0    0  0.58796108711E+02  0.27942678397E+03 -0.26441388959E+03  0.38916707853E+03  0.00000000000E+00 0.  1.
        -13    1    5    5    0    0  0.34784182953E+02  0.19283535896E+03 -0.30130836003E+03  0.35941917433E+03  0.00000000000E+00 0. -1.
          2    1    6    6  503    0  0.53903694315E+02 -0.15467260553E+03 -0.34621502241E+02  0.16741526686E+03  0.00000000000E+00 0. -1.
         -2    1    6    6    0  503  0.21915091664E+02 -0.21546483562E+03 -0.14406819311E+03  0.26011730219E+03  0.00000000000E+00 0.  1.
<mgrwt>
<rscale>  0 0.14528183E+04</rscale>
<asrwt>0</asrwt>
<pdfrwt beam="1">  1        1 0.81487441E-01 0.14528183E+04</pdfrwt>
<pdfrwt beam="2">  1       -2 0.15326580E+00 0.14528183E+04</pdfrwt>
<totfact> 0.98211282E+00</totfact>
</mgrwt>
</event>
<event>
12    5  0.5221187E-008  0.1396346E+04  0.7818608E-02  0.8956467E-01
         -2   -1    0    0    0  501 -0.00000000000E+00  0.00000000000E+00  0.46651332486E+03  0.46651332486E+03  0.00000000000E+00 0.  1.
          1   -1    0    0  501    0  0.00000000000E+00 -0.00000000000E+00 -0.10448700059E+04  0.10448700059E+04  0.00000000000E+00 0. -1.
        -24    2    1    2    0    0 -0.73586292854E+02 -0.83068460675E+02  0.24710887782E+03  0.28215890322E+03  0.78965419727E+02 0.  0.
        254    2    1    2    0    0  0.73586292854E+02  0.83068460675E+02 -0.82546555888E+03  0.12292244276E+04  0.90403760585E+03 0.  0.
         23    2    4    4    0    0  0.74026598875E+02  0.82826438980E+02  0.17409246034E+03  0.22553307240E+03  0.90646707948E+02 0.  0.
         23    2    4    4    0    0 -0.44030602091E+00  0.24202169447E+00 -0.99955801923E+03  0.10036913552E+04  0.90993682278E+02 0.  0.
          3    1    3    3  502    0  0.95242358324E+01 -0.42559542862E+02  0.73489367822E+02  0.85455912257E+02  0.00000000000E+00 0. -1.
         -4    1    3    3    0  502 -0.83110528686E+02 -0.40508917813E+02  0.17361951000E+03  0.19670299096E+03  0.00000000000E+00 0.  1.
         13    1    5    5    0    0  0.33911238664E+02  0.45265958832E+02  0.15867885715E+03  0.16845758767E+03  0.00000000000E+00 0. -1.
        -13    1    5    5    0    0  0.40115360211E+02  0.37560480148E+02  0.15413603195E+02  0.57075484731E+02  0.00000000000E+00 0.  1.
          3    1    6    6  503    0  0.84295020835E+01  0.25537216617E+02 -0.94913021352E+02  0.98649316065E+02  0.00000000000E+00 0. -1.
         -3    1    6    6    0  503 -0.88698081044E+01 -0.25295194923E+02 -0.90464499788E+03  0.90504203911E+03  0.00000000000E+00 0.  1.
<mgrwt>
<rscale>  0 0.13963463E+04</rscale>
<asrwt>0</asrwt>
<pdfrwt beam="1">  1        1 0.16074923E+00 0.13963463E+04</pdfrwt>
<pdfrwt beam="2">  1       -2 0.71771281E-01 0.13963463E+04</pdfrwt>
<totfact> 0.21017521E+01</totfact>
</mgrwt>
</event>
<event>
12    5  0.5221187E-008  0.2242110E+04  0.7818608E-02  0.8501103E-01
         -4   -1    0    0    0  501 -0.00000000000E+00  0.00000000000E+00  0.13053756003E+04  0.13053756003E+04  0.00000000000E+00 0.  1.
          3   -1    0    0  501    0  0.00000000000E+00 -0.00000000000E+00 -0.96276083605E+03  0.96276083605E+03  0.00000000000E+00 0. -1.
        -24    2    1    2    0    0 -0.82252368590E+03 -0.28914512934E+03  0.36422347147E+01  0.87525686220E+03  0.76884258844E+02 0.  0.
        254    2    1    2    0    0  0.82252368590E+03  0.28914512934E+03  0.33897252952E+03  0.13928795741E+04  0.10320179323E+04 0.  0.
         23    2    4    4    0    0 -0.23291115532E+03  0.27187610429E+02  0.12761954658E+03  0.28155175574E+03  0.89430811566E+02 0.  0.
         23    2    4    4    0    0  0.10554348412E+04  0.26195751892E+03  0.21135298294E+03  0.11113278184E+04  0.88402436633E+02 0.  0.
          1    1    3    3  502    0 -0.12941118236E+03 -0.19005260966E+02  0.11662006848E+02  0.13131814980E+03  0.00000000000E+00 0. -1.
         -2    1    3    3    0  502 -0.69311250354E+03 -0.27013986838E+03 -0.80197721332E+01  0.74393871239E+03  0.00000000000E+00 0.  1.
         13    1    5    5    0    0 -0.15348665794E+03 -0.24423618150E+02  0.68096551526E+02  0.16968148874E+03  0.00000000000E+00 0.  1.
        -13    1    5    5    0    0 -0.79424497375E+02  0.51611228579E+02  0.59522995057E+02  0.11187026700E+03  0.00000000000E+00 0. -1.
          1    1    6    6  503    0  0.37190345436E+03  0.49879222172E+02  0.81027102955E+02  0.38388215324E+03  0.00000000000E+00 0. -1.
         -1    1    6    6    0  503  0.68353138686E+03  0.21207829674E+03  0.13032587999E+03  0.72744566517E+03  0.00000000000E+00 0.  1.
<mgrwt>
<rscale>  0 0.22421102E+04</rscale>
<asrwt>0</asrwt>
<pdfrwt beam="1">  1        3 0.14811705E+00 0.22421102E+04</pdfrwt>
<pdfrwt beam="2">  1       -4 0.20082701E+00 0.22421102E+04</pdfrwt>
<totfact> 0.90310719E-02</totfact>
</mgrwt>
</event>
<event>
12    5  0.5221187E-008  0.1890136E+04  0.7818608E-02  0.8659782E-01
          1   -1    0    0  501    0  0.00000000000E+00  0.00000000000E+00  0.43300338875E+03  0.43300338875E+03  0.00000000000E+00 0. -1.
         -2   -1    0    0    0  501 -0.00000000000E+00 -0.00000000000E+00 -0.20626937657E+04  0.20626937657E+04  0.00000000000E+00 0.  1.
        -24    2    1    2    0    0 -0.41545553682E+03  0.18137256266E+03  0.12131400265E+03  0.47572161100E+03  0.78068267346E+02 0.  0.
        254    2    1    2    0    0  0.41545553682E+03 -0.18137256266E+03 -0.17510043796E+04  0.20199755435E+04  0.89932505205E+03 0.  0.
         23    2    4    4    0    0  0.20830907367E+03  0.35504573483E+03 -0.82305458526E+03  0.92453394110E+03  0.88848263564E+02 0.  0.
         23    2    4    4    0    0  0.20714646315E+03 -0.53641829749E+03 -0.92794979434E+03  0.10954416024E+04  0.90814295643E+02 0.  0.
          1    1    3    3  502    0 -0.21778989309E+03  0.61891179071E+02  0.34760936673E+02  0.22906610028E+03  0.00000000000E+00 0. -1.
         -2    1    3    3    0  502 -0.19766564374E+03  0.11948138359E+03  0.86553065975E+02  0.24665551072E+03  0.00000000000E+00 0.  1.
         13    1    5    5    0    0  0.39366079201E+02  0.14281926717E+03 -0.33159388342E+03  0.36318250892E+03  0.00000000000E+00 0. -1.
        -13    1    5    5    0    0  0.16894299447E+03  0.21222646766E+03 -0.49146070184E+03  0.56135143217E+03  0.00000000000E+00 0.  1.
          3    1    6    6  503    0  0.11731038751E+03 -0.20084837278E+03 -0.41912307975E+03  0.47933907816E+03  0.00000000000E+00 0. -1.
         -3    1    6    6    0  503  0.89836075641E+02 -0.33556992470E+03 -0.50882671459E+03  0.61610252420E+03  0.00000000000E+00 0.  1.
<mgrwt>
<rscale>  0 0.18901359E+04</rscale>
<asrwt>0</asrwt>
<pdfrwt beam="1">  1        1 0.66615907E-01 0.18901359E+04</pdfrwt>
<pdfrwt beam="2">  1       -2 0.31733750E+00 0.18901359E+04</pdfrwt>
<totfact> 0.11011657E+00</totfact>
</mgrwt>
</event>
<event>
12    5  0.5221187E-008  0.1724372E+04  0.7818608E-02  0.8747585E-01
         -4   -1    0    0    0  501 -0.00000000000E+00  0.00000000000E+00  0.34229897244E+03  0.34229897244E+03  0.00000000000E+00 0.  1.
          3   -1    0    0  501    0  0.00000000000E+00 -0.00000000000E+00 -0.21716823776E+04  0.21716823776E+04  0.00000000000E+00 0. -1.
        -24    2    1    2    0    0  0.29085722297E+03  0.15749304777E+03  0.95383717580E+02  0.35306615337E+03  0.78458083257E+02 0.  0.
        254    2    1    2    0    0 -0.29085722297E+03 -0.15749304777E+03 -0.19247671227E+04  0.21609151966E+04  0.92489135909E+03 0.  0.
         23    2    4    4    0    0 -0.38393719263E+03  0.26297085456E+03 -0.59563914289E+03  0.76148844930E+03  0.92288848953E+02 0.  0.
         23    2    4    4    0    0  0.93079969662E+02 -0.42046390233E+03 -0.13291279798E+04  0.13994267473E+04  0.79751241323E+02 0.  0.
          3    1    3    3  502    0  0.22009467509E+03  0.13735833832E+03  0.43551193104E+02  0.26306973510E+03  0.00000000000E+00 0. -1.
         -4    1    3    3    0  502  0.70762547882E+02  0.20134709452E+02  0.51832524476E+02  0.89996418267E+02  0.00000000000E+00 0.  1.
         13    1    5    5    0    0 -0.28366969296E+03  0.22386255545E+03 -0.50384581961E+03  0.62003511866E+03  0.00000000000E+00 0.  1.
        -13    1    5    5    0    0 -0.10026749967E+03  0.39108299110E+02 -0.91793323281E+02  0.14145333064E+03  0.00000000000E+00 0. -1.
          4    1    6    6  503    0  0.69499804749E+01 -0.97979399901E+01 -0.98516557551E+02  0.99246228988E+02  0.00000000000E+00 0. -1.
         -4    1    6    6    0  503  0.86129989187E+02 -0.41066596234E+03 -0.12306114223E+04  0.13001805183E+04  0.00000000000E+00 0.  1.
<mgrwt>
<rscale>  0 0.17243719E+04</rscale>
<asrwt>0</asrwt>
<pdfrwt beam="1">  1        3 0.33410497E+00 0.17243719E+04</pdfrwt>
<pdfrwt beam="2">  1       -4 0.52661382E-01 0.17243719E+04</pdfrwt>
<totfact> 0.19046597E-01</totfact>
</mgrwt>
</event>
<event>
12    5  0.5221187E-008  0.1832285E+04  0.7818608E-02  0.8689317E-01
         -2   -1    0    0    0  501 -0.00000000000E+00  0.00000000000E+00  0.85548823974E+03  0.85548823974E+03  0.00000000000E+00 0.  1.
          1   -1    0    0  501    0  0.00000000000E+00 -0.00000000000E+00 -0.98109686587E+03  0.98109686587E+03  0.00000000000E+00 0. -1.
        -24    2    1    2    0    0  0.44031480071E+03 -0.46187338812E+02  0.48356310918E+03  0.66046943385E+03  0.79851102008E+02 0.  0.
        254    2    1    2    0    0 -0.44031480071E+03  0.46187338812E+02 -0.60917173531E+03  0.11761156718E+04  0.90340880906E+03 0.  0.
         23    2    4    4    0    0 -0.67149626312E+03 -0.90996462355E+02 -0.27337427295E+03  0.73645092549E+03  0.91863403989E+02 0.  0.
         23    2    4    4    0    0  0.23118146241E+03  0.13718380117E+03 -0.33579746236E+03  0.43966474628E+03  0.90999393040E+02 0.  0.
          3    1    3    3  502    0  0.16645202375E+03  0.21243510613E+02  0.17671608942E+03  0.24369271473E+03  0.00000000000E+00 0. -1.
         -4    1    3    3    0  502  0.27386277697E+03 -0.67430849425E+02  0.30684701976E+03  0.41677671912E+03  0.00000000000E+00 0.  1.
         13    1    5    5    0    0 -0.10381434757E+03 -0.92685004120E+01 -0.81073677365E+01  0.10454211244E+03  0.00000000000E+00 0. -1.
        -13    1    5    5    0    0 -0.56768191555E+03 -0.81727961943E+02 -0.26526690522E+03  0.63190881304E+03  0.00000000000E+00 0.  1.
          2    1    6    6  503    0  0.89735213757E+02  0.46980028972E+01 -0.99923882519E+02  0.13438475403E+03  0.00000000000E+00 0. -1.
         -2    1    6    6    0  503  0.14144624865E+03  0.13248579827E+03 -0.23587357984E+03  0.30527999225E+03  0.00000000000E+00 0.  1.
<mgrwt>
<rscale>  0 0.18322847E+04</rscale>
<asrwt>0</asrwt>
<pdfrwt beam="1">  1        1 0.15093798E+00 0.18322847E+04</pdfrwt>
<pdfrwt beam="2">  1       -2 0.13161358E+00 0.18322847E+04</pdfrwt>
<totfact> 0.54359541E+00</totfact>
</mgrwt>
</event>
<event>
12    5  0.5221187E-008  0.1254368E+04  0.7818608E-02  0.9066556E-01
         -2   -1    0    0    0  501 -0.00000000000E+00  0.00000000000E+00  0.34265944292E+03  0.34265944292E+03  0.00000000000E+00 0.  1.
          1   -1    0    0  501    0  0.00000000000E+00 -0.00000000000E+00 -0.11479605218E+04  0.11479605218E+04  0.00000000000E+00 0. -1.
        -24    2    1    2    0    0 -0.22696653632E+03 -0.92841609543E+02 -0.36400932066E+03  0.44584841211E+03  0.78387805079E+02 0.  0.
        254    2    1    2    0    0  0.22696653632E+03  0.92841609543E+02 -0.44129175820E+03  0.10447715526E+04  0.91469984594E+03 0.  0.
         23    2    4    4    0    0  0.43548421544E+03 -0.24704646595E+03 -0.36652039164E+03  0.62730212866E+03  0.92153702589E+02 0.  0.
         23    2    4    4    0    0 -0.20851767912E+03  0.33988807549E+03 -0.74771366557E+02  0.41746942392E+03  0.98419694600E+02 0.  0.
          1    1    3    3  502    0 -0.22074259414E+03 -0.70102074535E+02 -0.31040917550E+03  0.38729246049E+03  0.00000000000E+00 0. -1.
         -2    1    3    3    0  502 -0.62239421784E+01 -0.22739535008E+02 -0.53600145162E+02  0.58555951619E+02  0.00000000000E+00 0.  1.
         13    1    5    5    0    0  0.43662320752E+03 -0.23562431415E+03 -0.36450424070E+03  0.61564761369E+03  0.00000000000E+00 0. -1.
        -13    1    5    5    0    0 -0.11389920743E+01 -0.11422151795E+02 -0.20161509477E+01  0.11654514971E+02  0.00000000000E+00 0.  1.
          2    1    6    6  503    0 -0.62653657150E+02  0.14234103456E+03  0.14473997041E+02  0.15619202113E+03  0.00000000000E+00 0.  1.
         -2    1    6    6    0  503 -0.14586402197E+03  0.19754704093E+03 -0.89245363597E+02  0.26127740279E+03  0.00000000000E+00 0. -1.
<mgrwt>
<rscale>  0 0.12543676E+04</rscale>
<asrwt>0</asrwt>
<pdfrwt beam="1">  1        1 0.17660931E+00 0.12543676E+04</pdfrwt>
<pdfrwt beam="2">  1       -2 0.52716837E-01 0.12543676E+04</pdfrwt>
<totfact> 0.34254500E+01</totfact>
</mgrwt>
</event>
<event>
12    5  0.5221187E-008  0.1423539E+04  0.7818608E-02  0.8936954E-01
          1   -1    0    0  501    0  0.00000000000E+00  0.00000000000E+00  0.96383929455E+03  0.96383929455E+03  0.00000000000E+00 0. -1.
         -2   -1    0    0    0  501 -0.00000000000E+00 -0.00000000000E+00 -0.52562285071E+03  0.52562285071E+03  0.00000000000E+00 0.  1.
        -24    2    1    2    0    0  0.36816770822E+03  0.41607922316E+01 -0.87300067654E+02  0.38664920438E+03  0.79445150052E+02 0.  0.
        254    2    1    2    0    0 -0.36816770822E+03 -0.41607922316E+01  0.52551651150E+03  0.11028129409E+04  0.89691917425E+03 0.  0.
         23    2    4    4    0    0  0.47034945728E+02  0.70516537086E+02  0.64271683497E+03  0.65475755893E+03  0.91856752042E+02 0.  0.
         23    2    4    4    0    0 -0.41520265395E+03 -0.74677329317E+02 -0.11720032347E+03  0.44805538195E+03  0.95119725151E+02 0.  0.
          1    1    3    3  502    0  0.24790425971E+01 -0.10335150872E+02 -0.13275224703E+01  0.10710896865E+02  0.00000000000E+00 0. -1.
         -2    1    3    3    0  502  0.36568866562E+03  0.14495943103E+02 -0.85972545184E+02  0.37593830751E+03  0.00000000000E+00 0.  1.
         13    1    5    5    0    0  0.82734711240E+00 -0.14347631970E+02  0.20227694065E+02  0.24813275752E+02  0.00000000000E+00 0.  1.
        -13    1    5    5    0    0  0.46207598616E+02  0.84864169055E+02  0.62248914091E+03  0.62994428318E+03  0.00000000000E+00 0. -1.
          1    1    6    6  503    0 -0.56015040193E+02  0.13312827236E+02 -0.40457188063E+02  0.70368317891E+02  0.00000000000E+00 0.  1.
         -1    1    6    6    0  503 -0.35918761375E+03 -0.87990156553E+02 -0.76743135411E+02  0.37768706406E+03  0.00000000000E+00 0. -1.
<mgrwt>
<rscale>  0 0.14235392E+04</rscale>
<asrwt>0</asrwt>
<pdfrwt beam="1">  1        1 0.14828297E+00 0.14235392E+04</pdfrwt>
<pdfrwt beam="2">  1       -2 0.80865054E-01 0.14235392E+04</pdfrwt>
<totfact> 0.18600630E+01</totfact>
</mgrwt>
</event>
<event>
12    5  0.5221187E-008  0.2690769E+04  0.7818608E-02  0.8338006E-01
          1   -1    0    0  501    0  0.00000000000E+00  0.00000000000E+00  0.21580504230E+04  0.21580504230E+04  0.00000000000E+00 0. -1.
         -2   -1    0    0    0  501 -0.00000000000E+00 -0.00000000000E+00 -0.83874771987E+03  0.83874771987E+03  0.00000000000E+00 0.  1.
        -24    2    1    2    0    0 -0.93915689218E+03 -0.65157659350E+03  0.36182517203E+03  0.12015911772E+04  0.79600104367E+02 0.  0.
        254    2    1    2    0    0  0.93915689218E+03  0.65157659350E+03  0.95747753109E+03  0.17952069657E+04  0.99971851129E+03 0.  0.
         23    2    4    4    0    0 -0.93442620772E+02  0.50391607217E+02 -0.11975944166E+03  0.18390473732E+03  0.90596860243E+02 0.  0.
         23    2    4    4    0    0  0.10325995129E+04  0.60118498628E+03  0.10772369728E+04  0.16113022284E+04  0.90389345789E+02 0.  0.
          1    1    3    3  502    0 -0.76601573267E+02 -0.39834159898E+02  0.89446311050E+01  0.86801887926E+02  0.00000000000E+00 0. -1.
         -2    1    3    3    0  502 -0.86255531891E+03 -0.61174243360E+03  0.35288054093E+03  0.11147892892E+04  0.00000000000E+00 0.  1.
         13    1    5    5    0    0  0.54051509876E+01  0.24950157306E+02 -0.61008723918E+02  0.66134638434E+02  0.00000000000E+00 0. -1.
        -13    1    5    5    0    0 -0.98847771760E+02  0.25441449911E+02 -0.58750717745E+02  0.11777009888E+03  0.00000000000E+00 0.  1.
          3    1    6    6  503    0  0.10257836986E+03  0.31841414020E+02  0.10895023022E+03  0.15299134052E+03  0.00000000000E+00 0. -1.
         -3    1    6    6    0  503  0.93002114309E+03  0.56934357226E+03  0.96828674253E+03  0.14583108879E+04  0.00000000000E+00 0.  1.
<mgrwt>
<rscale>  0 0.26907693E+04</rscale>
<asrwt>0</asrwt>
<pdfrwt beam="1">  1        1 0.33200775E+00 0.26907693E+04</pdfrwt>
<pdfrwt beam="2">  1       -2 0.12903811E+00 0.26907693E+04</pdfrwt>
<totfact> 0.79096117E-01</totfact>
</mgrwt>
</event>
<event>
12    5  0.5221187E-008  0.1586777E+04  0.7818608E-02  0.8828713E-01
          1   -1    0    0  501    0  0.00000000000E+00  0.00000000000E+00  0.76267834145E+03  0.76267834145E+03  0.00000000000E+00 0. -1.
         -2   -1    0    0    0  501 -0.00000000000E+00 -0.00000000000E+00 -0.82533497811E+03  0.82533497811E+03  0.00000000000E+00 0.  1.
        -24    2    1    2    0    0 -0.24913244794E+02 -0.31485133851E+03 -0.45417927120E+03  0.55893279702E+03  0.79843760378E+02 0.  0.
        254    2    1    2    0    0  0.24913244794E+02  0.31485133851E+03  0.39152263455E+03  0.10290805225E+04  0.89775537502E+03 0.  0.
         23    2    4    4    0    0  0.15268405735E+03  0.56630694509E+03  0.42819195100E+03  0.73273377878E+03  0.97644591474E+02 0.  0.
         23    2    4    4    0    0 -0.12777081256E+03 -0.25145560658E+03 -0.36669316455E+02  0.29634674375E+03  0.83195259122E+02 0.  0.
          3    1    3    3  502    0  0.36394964769E+00 -0.23726517389E+03 -0.28301965112E+03  0.36931696159E+03  0.00000000000E+00 0. -1.
         -4    1    3    3    0  502 -0.25277194442E+02 -0.77586164621E+02 -0.17115962009E+03  0.18961583543E+03  0.00000000000E+00 0.  1.
         13    1    5    5    0    0  0.78589965019E+02  0.20962589387E+03  0.21630276006E+03  0.31129773850E+03  0.00000000000E+00 0. -1.
        -13    1    5    5    0    0  0.74094092334E+02  0.35668105122E+03  0.21188919094E+03  0.42143604029E+03  0.00000000000E+00 0.  1.
          3    1    6    6  503    0 -0.90992314669E+02 -0.88450910609E+02 -0.19001762569E+02  0.12831302310E+03  0.00000000000E+00 0. -1.
         -3    1    6    6    0  503 -0.36778497890E+02 -0.16300469597E+03 -0.17667553886E+02  0.16803372065E+03  0.00000000000E+00 0.  1.
<mgrwt>
<rscale>  0 0.15867767E+04</rscale>
<asrwt>0</asrwt>
<pdfrwt beam="1">  1        1 0.11733513E+00 0.15867767E+04</pdfrwt>
<pdfrwt beam="2">  1       -2 0.12697461E+00 0.15867767E+04</pdfrwt>
<totfact> 0.92492882E+00</totfact>
</mgrwt>
</event>
<event>
12    5  0.5221187E-008  0.1018315E+04  0.7818608E-02  0.9288683E-01
         -2   -1    0    0    0  501 -0.00000000000E+00  0.00000000000E+00  0.25388547085E+03  0.25388547085E+03  0.00000000000E+00 0.  1.
          1   -1    0    0  501    0  0.00000000000E+00 -0.00000000000E+00 -0.10210951382E+04  0.10210951382E+04  0.00000000000E+00 0. -1.
        -24    2    1    2    0    0 -0.33924679149E+02 -0.10486205435E+03 -0.85556549744E+02  0.16113405320E+03  0.80605989845E+02 0.  0.
        254    2    1    2    0    0  0.33924679149E+02  0.10486205435E+03 -0.68165311759E+03  0.11138465558E+04  0.87398869725E+03 0.  0.
         23    2    4    4    0    0  0.42612831493E+01  0.48155584946E+03 -0.34232535073E+03  0.59779998259E+03  0.90906428509E+02 0.  0.
         23    2    4    4    0    0  0.29663395999E+02 -0.37669379511E+03 -0.33932776686E+03  0.51604657325E+03  0.91556540215E+02 0.  0.
          1    1    3    3  502    0 -0.18128590454E+02 -0.32941497350E+02 -0.78650400926E+02  0.87176106849E+02  0.00000000000E+00 0. -1.
         -2    1    3    3    0  502 -0.15796088695E+02 -0.71920556996E+02 -0.69061488181E+01  0.73957946349E+02  0.00000000000E+00 0.  1.
         13    1    5    5    0    0 -0.39837395514E+02  0.26387380955E+03 -0.20679786710E+03  0.33761185300E+03  0.00000000000E+00 0.  1.
        -13    1    5    5    0    0  0.44098678663E+02  0.21768203991E+03 -0.13552748363E+03  0.26018812959E+03  0.00000000000E+00 0. -1.
          2    1    6    6  503    0 -0.27138075259E+02 -0.52448706126E+02 -0.61886735966E+02  0.85541276537E+02  0.00000000000E+00 0. -1.
         -2    1    6    6    0  503  0.56801471259E+02 -0.32424508899E+03 -0.27744103090E+03  0.43050529671E+03  0.00000000000E+00 0.  1.
<mgrwt>
<rscale>  0 0.10183147E+04</rscale>
<asrwt>0</asrwt>
<pdfrwt beam="1">  1        1 0.15709156E+00 0.10183147E+04</pdfrwt>
<pdfrwt beam="2">  1       -2 0.39059303E-01 0.10183147E+04</pdfrwt>
<totfact> 0.79223175E+01</totfact>
</mgrwt>
</event>
<event>
12    5  0.5221187E-008  0.1241395E+04  0.7818608E-02  0.9077376E-01
         -2   -1    0    0    0  501 -0.00000000000E+00  0.00000000000E+00  0.19490106045E+04  0.19490106045E+04  0.00000000000E+00 0.  1.
          1   -1    0    0  501    0  0.00000000000E+00 -0.00000000000E+00 -0.19767232783E+03  0.19767232783E+03  0.00000000000E+00 0. -1.
        -24    2    1    2    0    0 -0.14293679507E+02  0.20188380507E+03  0.75560315237E+03  0.78669490792E+03  0.83614438013E+02 0.  0.
        254    2    1    2    0    0  0.14293679507E+02 -0.20188380507E+03  0.99573512427E+03  0.13599880244E+04  0.90394557843E+03 0.  0.
         23    2    4    4    0    0 -0.26693614404E+02 -0.20935649425E+03  0.11508924379E+04  0.11737402777E+04  0.92575078172E+02 0.  0.
         23    2    4    4    0    0  0.40987293910E+02  0.74726891739E+01 -0.15515731361E+03  0.18624774673E+03  0.94226492281E+02 0.  0.
          3    1    3    3  502    0 -0.88462661653E+01  0.10189753831E+03  0.23115203884E+03  0.25276991474E+03  0.00000000000E+00 0. -1.
         -4    1    3    3    0  502 -0.54474133414E+01  0.99986266764E+02  0.52445111353E+03  0.53392499317E+03  0.00000000000E+00 0.  1.
         13    1    5    5    0    0 -0.13092123868E+02  0.15285744087E+00  0.22928735767E+02  0.26403673923E+02  0.00000000000E+00 0.  1.
        -13    1    5    5    0    0 -0.13601490536E+02 -0.20950935169E+03  0.11279637021E+04  0.11473366037E+04  0.00000000000E+00 0. -1.
          3    1    6    6  503    0  0.65710928420E+02 -0.12315410752E+02 -0.12851200657E+03  0.14486176613E+03  0.00000000000E+00 0. -1.
         -3    1    6    6    0  503 -0.24723634509E+02  0.19788099926E+02 -0.26645307047E+02  0.41385980593E+02  0.00000000000E+00 0.  1.
<mgrwt>
<rscale>  0 0.12413951E+04</rscale>
<asrwt>0</asrwt>
<pdfrwt beam="1">  1        1 0.30411129E-01 0.12413951E+04</pdfrwt>
<pdfrwt beam="2">  1       -2 0.29984777E+00 0.12413951E+04</pdfrwt>
<totfact> 0.41695901E+00</totfact>
</mgrwt>
</event>
<event>
12    5  0.5221187E-008  0.1259871E+04  0.7818608E-02  0.9062008E-01
         -2   -1    0    0    0  501 -0.00000000000E+00  0.00000000000E+00  0.36487817781E+03  0.36487817781E+03  0.00000000000E+00 0.  1.
          1   -1    0    0  501    0  0.00000000000E+00 -0.00000000000E+00 -0.10875372832E+04  0.10875372832E+04  0.00000000000E+00 0. -1.
        -24    2    1    2    0    0  0.80013541234E+02  0.10324057759E+03  0.13587799778E+03  0.20438881092E+03  0.79064354215E+02 0.  0.
        254    2    1    2    0    0 -0.80013541234E+02 -0.10324057759E+03 -0.85853710316E+03  0.12480266501E+04  0.89633909774E+03 0.  0.
         23    2    4    4    0    0 -0.10077636860E+03 -0.66780164921E+02  0.16254731597E+03  0.22212078496E+03  0.91107333886E+02 0.  0.
         23    2    4    4    0    0  0.20762827367E+02 -0.36460412665E+02 -0.10210844191E+04  0.10259058651E+04  0.90049966000E+02 0.  0.
          3    1    3    3  502    0  0.13985309968E+02  0.76841914017E+02  0.49344564334E+02  0.92385900840E+02  0.00000000000E+00 0. -1.
         -4    1    3    3    0  502  0.66028231266E+02  0.26398663569E+02  0.86533433449E+02  0.11200291008E+03  0.00000000000E+00 0.  1.
         13    1    5    5    0    0 -0.34661519652E+02 -0.48993701044E+02  0.18782383506E+02  0.62885464272E+02  0.00000000000E+00 0. -1.
        -13    1    5    5    0    0 -0.66114848949E+02 -0.17786463877E+02  0.14376493246E+03  0.15923532069E+03  0.00000000000E+00 0.  1.
          3    1    6    6  503    0  0.42012357018E+02 -0.18261243685E+02 -0.24071882130E+03  0.24503889914E+03  0.00000000000E+00 0. -1.
         -3    1    6    6    0  503 -0.21249529651E+02 -0.18199168981E+02 -0.78036559783E+03  0.78086696597E+03  0.00000000000E+00 0.  1.
<mgrwt>
<rscale>  0 0.12598708E+04</rscale>
<asrwt>0</asrwt>
<pdfrwt beam="1">  1        1 0.16731343E+00 0.12598708E+04</pdfrwt>
<pdfrwt beam="2">  1       -2 0.56135105E-01 0.12598708E+04</pdfrwt>
<totfact> 0.33354200E+01</totfact>
</mgrwt>
</event>
<event>
12    5  0.5221187E-008  0.1152919E+04  0.7818608E-02  0.9155095E-01
         -4   -1    0    0    0  501 -0.00000000000E+00  0.00000000000E+00  0.31382947588E+03  0.31382947588E+03  0.00000000000E+00 0.  1.
          3   -1    0    0  501    0  0.00000000000E+00 -0.00000000000E+00 -0.10588726531E+04  0.10588726531E+04  0.00000000000E+00 0. -1.
        -24    2    1    2    0    0  0.17479361210E+03 -0.47110227271E+02 -0.23361931362E+02  0.19914431882E+03  0.79627253732E+02 0.  0.
        254    2    1    2    0    0 -0.17479361210E+03  0.47110227271E+02 -0.72168124591E+03  0.11735578102E+04  0.90754720695E+03 0.  0.
         23    2    4    4    0    0  0.15087688719E+03 -0.29488360987E+03 -0.49764886548E+02  0.34673864297E+03  0.89615646745E+02 0.  0.
         23    2    4    4    0    0 -0.32567049929E+03  0.34199383714E+03 -0.67191635936E+03  0.82681916722E+03  0.95589134157E+02 0.  0.
          1    1    3    3  502    0  0.87802018610E+02 -0.81365370929E+01 -0.48399624014E+02  0.10058787856E+03  0.00000000000E+00 0. -1.
         -2    1    3    3    0  502  0.86991593494E+02 -0.38973690178E+02  0.25037692652E+02  0.98556440267E+02  0.00000000000E+00 0.  1.
         13    1    5    5    0    0  0.15250391785E+03 -0.24433522783E+03 -0.62189465696E+02  0.29466027585E+03  0.00000000000E+00 0.  1.
        -13    1    5    5    0    0 -0.16270306660E+01 -0.50548382034E+02  0.12424579149E+02  0.52078367122E+02  0.00000000000E+00 0. -1.
          1    1    6    6  503    0 -0.96723210643E+02  0.80649137707E+02 -0.11576906855E+03  0.17106180206E+03  0.00000000000E+00 0. -1.
         -1    1    6    6    0  503 -0.22894728865E+03  0.26134469943E+03 -0.55614729080E+03  0.65575736517E+03  0.00000000000E+00 0.  1.
<mgrwt>
<rscale>  0 0.11529188E+04</rscale>
<asrwt>0</asrwt>
<pdfrwt beam="1">  1        3 0.16290348E+00 0.11529188E+04</pdfrwt>
<pdfrwt beam="2">  1       -4 0.48281458E-01 0.11529188E+04</pdfrwt>
<totfact> 0.24491296E+00</totfact>
</mgrwt>
</event>
<event>
12    5  0.5221187E-008  0.1392830E+04  0.7818608E-02  0.8959025E-01
         -2   -1    0    0    0  501 -0.00000000000E+00  0.00000000000E+00  0.18087416777E+03  0.18087416777E+03  0.00000000000E+00 0.  1.
          1   -1    0    0  501    0  0.00000000000E+00 -0.00000000000E+00 -0.26813883451E+04  0.26813883451E+04  0.00000000000E+00 0. -1.
        -24    2    1    2    0    0 -0.22273081432E+03 -0.27766525806E+03 -0.36403407782E+03  0.51458908046E+03  0.74659900451E+02 0.  0.
        254    2    1    2    0    0  0.22273081432E+03  0.27766525806E+03 -0.21364800995E+04  0.23476734324E+04  0.90571315459E+03 0.  0.
         23    2    4    4    0    0  0.16260960666E+03  0.42314672484E+03 -0.21149050693E+04  0.21647544001E+04  0.88561424611E+02 0.  0.
         23    2    4    4    0    0  0.60121207663E+02 -0.14548146677E+03 -0.21575030195E+02  0.18291903223E+03  0.90633733441E+02 0.  0.
          1    1    3    3  502    0 -0.10602758497E+03 -0.97822124488E+02 -0.18935051459E+03  0.23804334519E+03  0.00000000000E+00 0. -1.
         -2    1    3    3    0  502 -0.11670322936E+03 -0.17984313357E+03 -0.17468356322E+03  0.27654573527E+03  0.00000000000E+00 0.  1.
         13    1    5    5    0    0  0.49432823748E+02  0.51654402746E+02 -0.40916051670E+03  0.41536021693E+03  0.00000000000E+00 0. -1.
        -13    1    5    5    0    0  0.11317678291E+03  0.37149232209E+03 -0.17057445526E+04  0.17493941832E+04  0.00000000000E+00 0.  1.
          1    1    6    6  503    0 -0.89806935858E+01  0.83626419637E+01 -0.56760439035E+01  0.13520507102E+02  0.00000000000E+00 0. -1.
         -1    1    6    6    0  503  0.69101901249E+02 -0.15384410874E+03 -0.15898986292E+02  0.16939852513E+03  0.00000000000E+00 0.  1.
<mgrwt>
<rscale>  0 0.13928300E+04</rscale>
<asrwt>0</asrwt>
<pdfrwt beam="1">  1        1 0.41252128E+00 0.13928300E+04</pdfrwt>
<pdfrwt beam="2">  1       -2 0.27826795E-01 0.13928300E+04</pdfrwt>
<totfact> 0.10268422E+01</totfact>
</mgrwt>
</event>
<event>
12    5  0.5221187E-008  0.1977743E+04  0.7818608E-02  0.8617098E-01
         -2   -1    0    0    0  501 -0.00000000000E+00  0.00000000000E+00  0.54506570826E+03  0.54506570826E+03  0.00000000000E+00 0.  1.
          1   -1    0    0  501    0  0.00000000000E+00 -0.00000000000E+00 -0.17940353313E+04  0.17940353313E+04  0.00000000000E+00 0. -1.
        -24    2    1    2    0    0  0.52796813757E+03  0.20808847149E+03  0.11370922489E+03  0.58418433712E+03  0.79311951586E+02 0.  0.
        254    2    1    2    0    0 -0.52796813757E+03 -0.20808847149E+03 -0.13626788479E+04  0.17549167024E+04  0.94909842673E+03 0.  0.
         23    2    4    4    0    0 -0.81148183505E+02 -0.37012238214E+02 -0.12468607001E+04  0.12532785888E+04  0.89948219624E+02 0.  0.
         23    2    4    4    0    0 -0.44681995406E+03 -0.17107623327E+03 -0.11581814780E+03  0.50163811361E+03  0.96497692869E+02 0.  0.
          3    1    3    3  502    0  0.24653587076E+02  0.18473200243E+02 -0.98196231453E+01  0.32333936996E+02  0.00000000000E+00 0. -1.
         -4    1    3    3    0  502  0.50331455049E+03  0.18961527124E+03  0.12352884803E+03  0.55185040013E+03  0.00000000000E+00 0.  1.
         13    1    5    5    0    0 -0.93107874418E+02 -0.64699108835E+01 -0.97078182306E+03  0.97525806021E+03  0.00000000000E+00 0. -1.
        -13    1    5    5    0    0  0.11959690914E+02 -0.30542327330E+02 -0.27607887704E+03  0.27802052858E+03  0.00000000000E+00 0.  1.
          1    1    6    6  503    0 -0.44953703823E+03 -0.17241743938E+03 -0.10825147229E+03  0.49348728798E+03  0.00000000000E+00 0. -1.
         -1    1    6    6    0  503  0.27170841731E+01  0.13412061100E+01 -0.75666755020E+01  0.81508256260E+01  0.00000000000E+00 0.  1.
<mgrwt>
<rscale>  0 0.19777433E+04</rscale>
<asrwt>0</asrwt>
<pdfrwt beam="1">  1        1 0.27600543E+00 0.19777433E+04</pdfrwt>
<pdfrwt beam="2">  1       -2 0.83856264E-01 0.19777433E+04</pdfrwt>
<totfact> 0.41699819E+00</totfact>
</mgrwt>
</event>
<event>
12    5  0.5221187E-008  0.1543944E+04  0.7818608E-02  0.8855745E-01
         -2   -1    0    0    0  501 -0.00000000000E+00  0.00000000000E+00  0.22467298459E+03  0.22467298459E+03  0.00000000000E+00 0.  1.
          1   -1    0    0  501    0  0.00000000000E+00 -0.00000000000E+00 -0.26524796107E+04  0.26524796107E+04  0.00000000000E+00 0. -1.
        -24    2    1    2    0    0 -0.33733143567E+03  0.23496815701E+03 -0.25092098558E+03  0.48816189840E+03  0.79612597878E+02 0.  0.
        254    2    1    2    0    0  0.33733143567E+03 -0.23496815701E+03 -0.21768856405E+04  0.23889906969E+04  0.89411572273E+03 0.  0.
         23    2    4    4    0    0  0.10433772175E+03  0.32941877092E+03 -0.64894072204E+03  0.74095670135E+03  0.92139490713E+02 0.  0.
         23    2    4    4    0    0  0.23299371392E+03 -0.56438692793E+03 -0.15279449185E+04  0.16480339955E+04  0.92637472967E+02 0.  0.
          3    1    3    3  502    0 -0.66264922256E+02  0.28839723787E+02 -0.14791235798E+02  0.73766864148E+02  0.00000000000E+00 0. -1.
         -4    1    3    3    0  502 -0.27106651341E+03  0.20612843322E+03 -0.23612974978E+03  0.41439503425E+03  0.00000000000E+00 0.  1.
         13    1    5    5    0    0 -0.11909445815E+02  0.49698924865E+02 -0.61064513232E+02  0.79628467326E+02  0.00000000000E+00 0.  1.
        -13    1    5    5    0    0  0.11624716756E+03  0.27971984605E+03 -0.58787620880E+03  0.66132823403E+03  0.00000000000E+00 0. -1.
          1    1    6    6  503    0  0.17582687701E+03 -0.49430652831E+03 -0.13515091665E+04  0.14497693132E+04  0.00000000000E+00 0. -1.
         -1    1    6    6    0  503  0.57166836909E+02 -0.70080399612E+02 -0.17643575202E+03  0.19826468229E+03  0.00000000000E+00 0.  1.
<mgrwt>
<rscale>  0 0.15439437E+04</rscale>
<asrwt>0</asrwt>
<pdfrwt beam="1">  1        1 0.40807380E+00 0.15439437E+04</pdfrwt>
<pdfrwt beam="2">  1       -2 0.34565074E-01 0.15439437E+04</pdfrwt>
<totfact> 0.70627311E+00</totfact>
</mgrwt>
</event>
<event>
12    5  0.5221187E-008  0.1423432E+04  0.7818608E-02  0.8937030E-01
          1   -1    0    0  501    0  0.00000000000E+00  0.00000000000E+00  0.11168687272E+04  0.11168687272E+04  0.00000000000E+00 0. -1.
         -2   -1    0    0    0  501 -0.00000000000E+00 -0.00000000000E+00 -0.45353529964E+03  0.45353529964E+03  0.00000000000E+00 0.  1.
        -24    2    1    2    0    0 -0.23733698361E+03  0.80938087107E+02 -0.18068042923E+03  0.31946361306E+03  0.80819334492E+02 0.  0.
        254    2    1    2    0    0  0.23733698361E+03 -0.80938087107E+02  0.84401385677E+03  0.12509404138E+04  0.88860154772E+03 0.  0.
         23    2    4    4    0    0 -0.29154513427E+03  0.81367697733E+02  0.50226886312E+03  0.59373217981E+03  0.92868848028E+02 0.  0.
         23    2    4    4    0    0  0.52888211788E+03 -0.16230578484E+03  0.34174499365E+03  0.65720823394E+03  0.95255234373E+02 0.  0.
          1    1    3    3  502    0 -0.16453453564E+02  0.30848486565E+02 -0.11652809057E+02  0.36852859000E+02  0.00000000000E+00 0. -1.
         -2    1    3    3    0  502 -0.22088353004E+03  0.50089600542E+02 -0.16902762017E+03  0.28261075406E+03  0.00000000000E+00 0.  1.
         13    1    5    5    0    0 -0.23706407784E+03  0.84110400639E+02  0.46160695461E+03  0.52569469946E+03  0.00000000000E+00 0.  1.
        -13    1    5    5    0    0 -0.54481056425E+02 -0.27427029061E+01  0.40661908509E+02  0.68037480347E+02  0.00000000000E+00 0. -1.
          3    1    6    6  503    0  0.20544960358E+03 -0.60941011889E+02  0.18779650823E+03  0.28494012537E+03  0.00000000000E+00 0. -1.
         -3    1    6    6    0  503  0.32343251429E+03 -0.10136477295E+03  0.15394848542E+03  0.37226810857E+03  0.00000000000E+00 0.  1.
<mgrwt>
<rscale>  0 0.14234316E+04</rscale>
<asrwt>0</asrwt>
<pdfrwt beam="1">  1        1 0.17182596E+00 0.14234316E+04</pdfrwt>
<pdfrwt beam="2">  1       -2 0.69774662E-01 0.14234316E+04</pdfrwt>
<totfact> 0.19674858E+01</totfact>
</mgrwt>
</event>
<event>
12    5  0.5221187E-008  0.2792988E+04  0.7818608E-02  0.8305448E-01
         -2   -1    0    0    0  501 -0.00000000000E+00  0.00000000000E+00  0.91205986973E+03  0.91205986973E+03  0.00000000000E+00 0.  1.
          1   -1    0    0  501    0  0.00000000000E+00 -0.00000000000E+00 -0.21382325078E+04  0.21382325078E+04  0.00000000000E+00 0. -1.
        -24    2    1    2    0    0  0.56922310145E+03  0.68589837689E+03  0.40398712422E+03  0.98185370624E+03  0.79746982914E+02 0.  0.
        254    2    1    2    0    0 -0.56922310145E+03 -0.68589837689E+03 -0.16301597623E+04  0.20684386713E+04  0.90914584291E+03 0.  0.
         23    2    4    4    0    0 -0.60905721473E+03 -0.18039673152E+03 -0.13183405558E+04  0.14663517721E+04  0.93123718094E+02 0.  0.
         23    2    4    4    0    0  0.39834113277E+02 -0.50550164537E+03 -0.31181920656E+03  0.60208689927E+03  0.90325780617E+02 0.  0.
          1    1    3    3  502    0  0.23910467425E+02  0.29981814979E+02  0.36931809351E+02  0.53240757169E+02  0.00000000000E+00 0. -1.
         -2    1    3    3    0  502  0.54531263403E+03  0.65591656191E+03  0.36705531487E+03  0.92861294907E+03  0.00000000000E+00 0.  1.
         13    1    5    5    0    0 -0.56244918244E+03 -0.18851018155E+03 -0.12446587989E+04  0.13787895768E+04  0.00000000000E+00 0. -1.
        -13    1    5    5    0    0 -0.46608032291E+02  0.81134500366E+01 -0.73681756897E+02  0.87562195296E+02  0.00000000000E+00 0.  1.
          3    1    6    6  503    0  0.42995317926E+02 -0.36161990359E+03 -0.17706928738E+03  0.40493343226E+03  0.00000000000E+00 0. -1.
         -3    1    6    6    0  503 -0.31612046495E+01 -0.14388174178E+03 -0.13474991918E+03  0.19715346701E+03  0.00000000000E+00 0.  1.
<mgrwt>
<rscale>  0 0.27929884E+04</rscale>
<asrwt>0</asrwt>
<pdfrwt beam="1">  1        1 0.32895885E+00 0.27929884E+04</pdfrwt>
<pdfrwt beam="2">  1       -2 0.14031690E+00 0.27929884E+04</pdfrwt>
<totfact> 0.65264960E-01</totfact>
</mgrwt>
</event>
<event>
12    5  0.5221187E-008  0.1750768E+04  0.7818608E-02  0.8732928E-01
         -4   -1    0    0    0  501 -0.00000000000E+00  0.00000000000E+00  0.31334545980E+03  0.31334545980E+03  0.00000000000E+00 0.  1.
          1   -1    0    0  501    0  0.00000000000E+00 -0.00000000000E+00 -0.24455332352E+04  0.24455332352E+04  0.00000000000E+00 0. -1.
        -24    2    1    2    0    0 -0.46219711645E+03 -0.40255925021E+03 -0.10484356202E+04  0.12183669252E+04  0.97573512739E+02 0.  0.
        254    2    1    2    0    0  0.46219711645E+03  0.40255925021E+03 -0.10837521552E+04  0.15405117698E+04  0.90718115860E+03 0.  0.
         23    2    4    4    0    0  0.27436449477E+03  0.57996159482E+03 -0.30564454804E+03  0.71567239706E+03  0.84481138149E+02 0.  0.
         23    2    4    4    0    0  0.18783262168E+03 -0.17740234461E+03 -0.77810760713E+03  0.82483937270E+03  0.90309782563E+02 0.  0.
          3    1    3    3  502    0 -0.42394210547E+03 -0.39765261060E+03 -0.96674687041E+03  0.11280310363E+04  0.00000000000E+00 0. -1.
         -4    1    3    3    0  502 -0.38255010976E+02 -0.49066396093E+01 -0.81688749785E+02  0.90335888873E+02  0.00000000000E+00 0.  1.
         13    1    5    5    0    0  0.14688741815E+03  0.26258100939E+03 -0.18390984620E+03  0.35262945373E+03  0.00000000000E+00 0.  1.
        -13    1    5    5    0    0  0.12747707662E+03  0.31738058543E+03 -0.12173470184E+03  0.36304294333E+03  0.00000000000E+00 0. -1.
          2    1    6    6  503    0  0.21727170047E+02 -0.74855780201E+02 -0.24607503044E+03  0.25812473410E+03  0.00000000000E+00 0. -1.
         -2    1    6    6    0  503  0.16610545163E+03 -0.10254656441E+03 -0.53203257670E+03  0.56671463860E+03  0.00000000000E+00 0.  1.
<mgrwt>
<rscale>  0 0.17507675E+04</rscale>
<asrwt>0</asrwt>
<pdfrwt beam="1">  1        1 0.37623587E+00 0.17507675E+04</pdfrwt>
<pdfrwt beam="2">  1       -4 0.48206996E-01 0.17507675E+04</pdfrwt>
<totfact> 0.28952112E+00</totfact>
</mgrwt>
</event>
<event>
12    5  0.5221187E-008  0.4084286E+04  0.7818608E-02  0.7987756E-01
          1   -1    0    0  501    0  0.00000000000E+00  0.00000000000E+00  0.24493250066E+04  0.24493250066E+04  0.00000000000E+00 0. -1.
         -2   -1    0    0    0  501 -0.00000000000E+00 -0.00000000000E+00 -0.17026515627E+04  0.17026515627E+04  0.00000000000E+00 0.  1.
        -24    2    1    2    0    0 -0.14717025495E+04  0.11055187132E+04  0.98479185331E+03  0.20890793601E+04  0.79734303399E+02 0.  0.
        254    2    1    2    0    0  0.14717025495E+04 -0.11055187132E+04 -0.23811840934E+03  0.20628972092E+04  0.90042462162E+03 0.  0.
         23    2    4    4    0    0  0.95791668223E+03 -0.89584691918E+03 -0.54364850803E+03  0.14226610561E+04  0.90910436296E+02 0.  0.
         23    2    4    4    0    0  0.51378586726E+03 -0.20967179406E+03  0.30553009869E+03  0.64023615312E+03  0.92819782009E+02 0.  0.
          3    1    3    3  502    0 -0.62501656014E+03  0.50858212471E+03  0.45840456591E+03  0.92705783210E+03  0.00000000000E+00 0. -1.
         -4    1    3    3    0  502 -0.84668598935E+03  0.59693658853E+03  0.52638728740E+03  0.11620215280E+04  0.00000000000E+00 0.  1.
         13    1    5    5    0    0  0.93323743318E+03 -0.88545455278E+03 -0.54157511221E+03  0.13958028062E+04  0.00000000000E+00 0.  1.
        -13    1    5    5    0    0  0.24679249049E+02 -0.10392366398E+02 -0.20733958204E+01  0.26858249817E+02  0.00000000000E+00 0. -1.
          1    1    6    6  503    0  0.31238294103E+02 -0.17698565887E+02  0.49695936330E+02  0.61308697105E+02  0.00000000000E+00 0. -1.
         -1    1    6    6    0  503  0.48254757316E+03 -0.19197322818E+03  0.25583416236E+03  0.57892745601E+03  0.00000000000E+00 0.  1.
<mgrwt>
<rscale>  0 0.40842855E+04</rscale>
<asrwt>0</asrwt>
<pdfrwt beam="1">  1        1 0.37681923E+00 0.40842855E+04</pdfrwt>
<pdfrwt beam="2">  1       -2 0.26194639E+00 0.40842855E+04</pdfrwt>
<totfact> 0.54521464E-02</totfact>
</mgrwt>
</event>
<event>
12    5  0.5221187E-008  0.1200242E+04  0.7818608E-02  0.9112645E-01
         -2   -1    0    0    0  501 -0.00000000000E+00  0.00000000000E+00  0.34569101748E+03  0.34569101748E+03  0.00000000000E+00 0.  1.
          1   -1    0    0  501    0  0.00000000000E+00 -0.00000000000E+00 -0.10418118307E+04  0.10418118307E+04  0.00000000000E+00 0. -1.
        -24    2    1    2    0    0 -0.51901859656E+02 -0.69160151539E+02 -0.43540887958E+03  0.45084339724E+03  0.78752440105E+02 0.  0.
        254    2    1    2    0    0  0.51901859656E+02  0.69160151539E+02 -0.26071193361E+03  0.93665945091E+03  0.89547936048E+03 0.  0.
         23    2    4    4    0    0  0.16102387515E+03 -0.22552919192E+03  0.21313120934E+03  0.36097577066E+03  0.89924912171E+02 0.  0.
         23    2    4    4    0    0 -0.10912201550E+03  0.29468934346E+03 -0.47384314295E+03  0.57568368025E+03  0.90193969732E+02 0.  0.
          3    1    3    3  502    0 -0.64406125758E+02 -0.31884206245E+02 -0.34248587464E+03  0.34994474702E+03  0.00000000000E+00 0. -1.
         -4    1    3    3    0  502  0.12504266102E+02 -0.37275945294E+02 -0.92923004942E+02  0.10089865022E+03  0.00000000000E+00 0.  1.
         13    1    5    5    0    0  0.13749677058E+03 -0.11844869470E+03  0.12597722595E+03  0.22092015900E+03  0.00000000000E+00 0.  1.
        -13    1    5    5    0    0  0.23527104573E+02 -0.10708049722E+03  0.87153983393E+02  0.14005561165E+03  0.00000000000E+00 0. -1.
          3    1    6    6  503    0 -0.71953742243E+02  0.27610289134E+03 -0.41017089881E+03  0.49965019149E+03  0.00000000000E+00 0. -1.
         -3    1    6    6    0  503 -0.37168273255E+02  0.18586452114E+02 -0.63672244138E+02  0.76033488757E+02  0.00000000000E+00 0.  1.
<mgrwt>
<rscale>  0 0.12002416E+04</rscale>
<asrwt>0</asrwt>
<pdfrwt beam="1">  1        1 0.16027874E+00 0.12002416E+04</pdfrwt>
<pdfrwt beam="2">  1       -2 0.53183234E-01 0.12002416E+04</pdfrwt>
<totfact> 0.40611714E+01</totfact>
</mgrwt>
</event>
<event>
12    5  0.5221187E-008  0.1707101E+04  0.7818608E-02  0.8757325E-01
          1   -1    0    0  501    0  0.00000000000E+00  0.00000000000E+00  0.16687719528E+04  0.16687719528E+04  0.00000000000E+00 0. -1.
         -2   -1    0    0    0  501 -0.00000000000E+00 -0.00000000000E+00 -0.43657780061E+03  0.43657780061E+03  0.00000000000E+00 0.  1.
        -24    2    1    2    0    0 -0.46014352097E+01  0.56387245601E+03  0.15821353679E+03  0.59131773140E+03  0.81558668423E+02 0.  0.
        254    2    1    2    0    0  0.46014352097E+01 -0.56387245601E+03  0.10739806154E+04  0.15140320220E+04  0.90602719693E+03 0.  0.
         23    2    4    4    0    0  0.32188094092E+03 -0.38669101602E+03  0.10131651768E+04  0.11349121430E+04  0.91567542483E+02 0.  0.
         23    2    4    4    0    0 -0.31727950571E+03 -0.17718143999E+03  0.60815438625E+02  0.37911987904E+03  0.89296235551E+02 0.  0.
          1    1    3    3  502    0  0.24009544667E+02  0.60402347608E+02  0.25871191582E+02  0.69958704859E+02  0.00000000000E+00 0. -1.
         -2    1    3    3    0  502 -0.28610979876E+02  0.50347010840E+03  0.13234234521E+03  0.52135902654E+03  0.00000000000E+00 0.  1.
         13    1    5    5    0    0  0.22878981774E+03 -0.22530646789E+03  0.70722597808E+03  0.77670867721E+03  0.00000000000E+00 0.  1.
        -13    1    5    5    0    0  0.93091123189E+02 -0.16138454812E+03  0.30593919871E+03  0.35820346578E+03  0.00000000000E+00 0. -1.
          2    1    6    6  503    0 -0.46548294721E+02 -0.17247646173E+02  0.40421411518E+02  0.64016525593E+02  0.00000000000E+00 0. -1.
         -2    1    6    6    0  503 -0.27073121099E+03 -0.15993379382E+03  0.20394027107E+02  0.31510335345E+03  0.00000000000E+00 0.  1.
<mgrwt>
<rscale>  0 0.17071014E+04</rscale>
<asrwt>0</asrwt>
<pdfrwt beam="1">  1        1 0.25673414E+00 0.17071014E+04</pdfrwt>
<pdfrwt beam="2">  1       -2 0.67165816E-01 0.17071014E+04</pdfrwt>
<totfact> 0.84993552E+00</totfact>
</mgrwt>
</event>
<event>
12    5  0.5221187E-008  0.1482873E+04  0.7818608E-02  0.8895922E-01
         -2   -1    0    0    0  501 -0.00000000000E+00  0.00000000000E+00  0.39903821834E+03  0.39903821834E+03  0.00000000000E+00 0.  1.
          1   -1    0    0  501    0  0.00000000000E+00 -0.00000000000E+00 -0.13776333142E+04  0.13776333142E+04  0.00000000000E+00 0. -1.
        -24    2    1    2    0    0 -0.85671334462E+02 -0.69731668374E+02 -0.82042984357E+03  0.83330080048E+03  0.95304841062E+02 0.  0.
        254    2    1    2    0    0  0.85671334462E+02  0.69731668374E+02 -0.15816525227E+03  0.94337073204E+03  0.92343381350E+03 0.  0.
         23    2    4    4    0    0  0.45396568548E+03 -0.69503836299E+02 -0.24636486411E+03  0.52986286594E+03  0.95621041539E+02 0.  0.
         23    2    4    4    0    0 -0.36829435102E+03  0.13923550467E+03  0.88199611840E+02  0.41350786609E+03  0.90456227205E+02 0.  0.
          1    1    3    3  502    0 -0.33292845730E+02 -0.26311359471E+02 -0.62363919375E+03  0.62508123088E+03  0.00000000000E+00 0. -1.
         -2    1    3    3    0  502 -0.52378488732E+02 -0.43420308904E+02 -0.19679064983E+03  0.20821956960E+03  0.00000000000E+00 0.  1.
         13    1    5    5    0    0  0.75882656350E+02 -0.48007375084E+02 -0.58124022320E+02  0.10696395453E+03  0.00000000000E+00 0. -1.
        -13    1    5    5    0    0  0.37808302913E+03 -0.21496461216E+02 -0.18824084179E+03  0.42289891142E+03  0.00000000000E+00 0.  1.
          3    1    6    6  503    0 -0.59531454451E+02  0.13149273608E+02 -0.17871282685E+02  0.63531726014E+02  0.00000000000E+00 0. -1.
         -3    1    6    6    0  503 -0.30876289657E+03  0.12608623107E+03  0.10607089453E+03  0.34997614008E+03  0.00000000000E+00 0.  1.
<mgrwt>
<rscale>  0 0.14828734E+04</rscale>
<asrwt>0</asrwt>
<pdfrwt beam="1">  1        1 0.21194358E+00 0.14828734E+04</pdfrwt>
<pdfrwt beam="2">  1       -2 0.61390496E-01 0.14828734E+04</pdfrwt>
<totfact> 0.16702396E+01</totfact>
</mgrwt>
</event>
<event>
12    5  0.5221187E-008  0.1908839E+04  0.7818608E-02  0.8650469E-01
          1   -1    0    0  501    0  0.00000000000E+00  0.00000000000E+00  0.55429948377E+03  0.55429948377E+03  0.00000000000E+00 0. -1.
         -2   -1    0    0    0  501 -0.00000000000E+00 -0.00000000000E+00 -0.16433654908E+04  0.16433654908E+04  0.00000000000E+00 0.  1.
        -24    2    1    2    0    0  0.11633483660E+02 -0.32958179111E+03  0.33734444496E+03  0.47848729462E+03  0.79933232123E+02 0.  0.
        254    2    1    2    0    0 -0.11633483660E+02  0.32958179111E+03 -0.14264104520E+04  0.17191776800E+04  0.90120232065E+03 0.  0.
         23    2    4    4    0    0  0.28697867410E+03  0.43071593715E+03 -0.12305143259E+04  0.13377531537E+04  0.86862051176E+02 0.  0.
         23    2    4    4    0    0 -0.29861215776E+03 -0.10113414604E+03 -0.19589612607E+03  0.38142452629E+03  0.87818225852E+02 0.  0.
          3    1    3    3  502    0  0.44346898397E+02 -0.14139396615E+03  0.14056617361E+03  0.20424923556E+03  0.00000000000E+00 0. -1.
         -2    1    3    3    0  502 -0.32713414736E+02 -0.18818782496E+03  0.19677827135E+03  0.27423805907E+03  0.00000000000E+00 0.  1.
         13    1    5    5    0    0  0.19823060306E+03  0.32423340541E+03 -0.98565725188E+03  0.10563819817E+04  0.00000000000E+00 0.  1.
        -13    1    5    5    0    0  0.88748071035E+02  0.10648253174E+03 -0.24485707406E+03  0.28137117193E+03  0.00000000000E+00 0. -1.
          3    1    6    6  503    0 -0.14084100130E+02 -0.10348765604E+02 -0.41900478354E+02  0.45399437357E+02  0.00000000000E+00 0. -1.
         -3    1    6    6    0  503 -0.28452805763E+03 -0.90785380438E+02 -0.15399564771E+03  0.33602508893E+03  0.00000000000E+00 0.  1.
<mgrwt>
<rscale>  0 0.19088391E+04</rscale>
<asrwt>0</asrwt>
<pdfrwt beam="1">  1        1 0.85276845E-01 0.19088391E+04</pdfrwt>
<pdfrwt beam="2">  1       -2 0.25282546E+00 0.19088391E+04</pdfrwt>
<totfact> 0.19385019E+00</totfact>
</mgrwt>
</event>
<event>
12    5  0.5221187E-008  0.1564615E+04  0.7818608E-02  0.8842586E-01
          1   -1    0    0  501    0  0.00000000000E+00  0.00000000000E+00  0.24500877178E+04  0.24500877178E+04  0.00000000000E+00 0. -1.
         -2   -1    0    0    0  501 -0.00000000000E+00 -0.00000000000E+00 -0.24978893037E+03  0.24978893037E+03  0.00000000000E+00 0.  1.
        -24    2    1    2    0    0  0.57848711080E+02 -0.18125508621E+03  0.15891563179E+04  0.16033556720E+04  0.95560078025E+02 0.  0.
        254    2    1    2    0    0 -0.57848711080E+02  0.18125508621E+03  0.61114246958E+03  0.10965209762E+04  0.89031637834E+03 0.  0.
         23    2    4    4    0    0  0.22893732128E+03  0.24483204821E+03 -0.65679575170E+02  0.35308378856E+03  0.89438952620E+02 0.  0.
         23    2    4    4    0    0 -0.28678603236E+03 -0.63576961999E+02  0.67682204475E+03  0.74343718767E+03  0.91227809849E+02 0.  0.
          1    1    3    3  502    0  0.59068144609E+02 -0.47673856872E+02  0.44504274119E+03  0.45146969314E+03  0.00000000000E+00 0. -1.
         -2    1    3    3    0  502 -0.12194335290E+01 -0.13358122933E+03  0.11441135767E+04  0.11518859788E+04  0.00000000000E+00 0.  1.
         13    1    5    5    0    0  0.22031973918E+03  0.20935484321E+03 -0.79328435636E+02  0.31410704951E+03  0.00000000000E+00 0. -1.
        -13    1    5    5    0    0  0.86175821038E+01  0.35477204993E+02  0.13648860466E+02  0.38976739056E+02  0.00000000000E+00 0.  1.
          4    1    6    6  503    0 -0.24184393356E+03 -0.82917760825E+02  0.60198159864E+03  0.65402269713E+03  0.00000000000E+00 0. -1.
         -4    1    6    6    0  503 -0.44942098802E+02  0.19340798826E+02  0.74840446119E+02  0.89414490544E+02  0.00000000000E+00 0.  1.
<mgrwt>
<rscale>  0 0.15646147E+04</rscale>
<asrwt>0</asrwt>
<pdfrwt beam="1">  1        1 0.37693656E+00 0.15646147E+04</pdfrwt>
<pdfrwt beam="2">  1       -2 0.38429068E-01 0.15646147E+04</pdfrwt>
<totfact> 0.79443099E+00</totfact>
</mgrwt>
</event>
<event>
12    5  0.5221187E-008  0.1436784E+04  0.7818608E-02  0.8927615E-01
          1   -1    0    0  501    0  0.00000000000E+00  0.00000000000E+00  0.16140961106E+04  0.16140961106E+04  0.00000000000E+00 0. -1.
         -2   -1    0    0    0  501 -0.00000000000E+00 -0.00000000000E+00 -0.31973739971E+03  0.31973739971E+03  0.00000000000E+00 0.  1.
        -24    2    1    2    0    0  0.15328929835E+03  0.40033187215E+03  0.50795762170E+03  0.66943629756E+03  0.79754587324E+02 0.  0.
        254    2    1    2    0    0 -0.15328929835E+03 -0.40033187215E+03  0.78640108923E+03  0.12643972128E+04  0.89247432553E+03 0.  0.
         23    2    4    4    0    0 -0.31471477517E+03 -0.56584369539E+03  0.77494120209E+03  0.10141829066E+04  0.93854269618E+02 0.  0.
         23    2    4    4    0    0  0.16142547682E+03  0.16551182324E+03  0.11459887133E+02  0.25021430624E+03  0.94992219867E+02 0.  0.
          3    1    3    3  502    0  0.14656238160E+03  0.30969826751E+03  0.37041575085E+03  0.50458039704E+03  0.00000000000E+00 0. -1.
         -4    1    3    3    0  502  0.67269167472E+01  0.90633604643E+02  0.13754187085E+03  0.16485590052E+03  0.00000000000E+00 0.  1.
         13    1    5    5    0    0 -0.18589571856E+03 -0.40704570321E+03  0.57015221835E+03  0.72478753768E+03  0.00000000000E+00 0. -1.
        -13    1    5    5    0    0 -0.12881905661E+03 -0.15879799218E+03  0.20478898374E+03  0.28939536888E+03  0.00000000000E+00 0.  1.
          4    1    6    6  503    0  0.15634067506E+03  0.10963504178E+03  0.24766466052E+02  0.19255032305E+03  0.00000000000E+00 0.  1.
         -4    1    6    6    0  503  0.50848017568E+01  0.55876781454E+02 -0.13306578919E+02  0.57663983187E+02  0.00000000000E+00 0. -1.
<mgrwt>
<rscale>  0 0.14367838E+04</rscale>
<asrwt>0</asrwt>
<pdfrwt beam="1">  1        1 0.24832247E+00 0.14367838E+04</pdfrwt>
<pdfrwt beam="2">  1       -2 0.49190370E-01 0.14367838E+04</pdfrwt>
<totfact> 0.18217546E+01</totfact>
</mgrwt>
</event>
<event>
12    5  0.5221187E-008  0.1716607E+04  0.7818608E-02  0.8751949E-01
          1   -1    0    0  501    0  0.00000000000E+00  0.00000000000E+00  0.25331495900E+04  0.25331495900E+04  0.00000000000E+00 0. -1.
         -2   -1    0    0    0  501 -0.00000000000E+00 -0.00000000000E+00 -0.29081761549E+03  0.29081761549E+03  0.00000000000E+00 0.  1.
        -24    2    1    2    0    0  0.57683112990E+03  0.16510430719E+03  0.96829873749E+03  0.11418494003E+04  0.78892479634E+02 0.  0.
        254    2    1    2    0    0 -0.57683112990E+03 -0.16510430719E+03  0.12740332370E+04  0.16821178052E+04  0.91998154150E+03 0.  0.
         23    2    4    4    0    0 -0.75760580214E+03  0.52169161362E+02  0.10929729408E+04  0.13340718176E+04  0.92030388426E+02 0.  0.
         23    2    4    4    0    0  0.18077467224E+03 -0.21727346855E+03  0.18106029621E+03  0.34804598753E+03  0.92010522816E+02 0.  0.
          1    1    3    3  502    0  0.46467498192E+03  0.10053050828E+03  0.77597743084E+03  0.91003856791E+03  0.00000000000E+00 0. -1.
         -2    1    3    3    0  502  0.11215614798E+03  0.64573798914E+02  0.19232130665E+03  0.23181083242E+03  0.00000000000E+00 0.  1.
         13    1    5    5    0    0 -0.30750447326E+03  0.65576048779E+02  0.43312924447E+03  0.53521973213E+03  0.00000000000E+00 0.  1.
        -13    1    5    5    0    0 -0.45010132888E+03 -0.13406887417E+02  0.65984369636E+03  0.79885208550E+03  0.00000000000E+00 0. -1.
          4    1    6    6  503    0  0.76813309783E+02 -0.32335146390E+02  0.68496610235E+02  0.10787785623E+03  0.00000000000E+00 0. -1.
         -4    1    6    6    0  503  0.10396136246E+03 -0.18493832216E+03  0.11256368597E+03  0.24016813129E+03  0.00000000000E+00 0.  1.
<mgrwt>
<rscale>  0 0.17166066E+04</rscale>
<asrwt>0</asrwt>
<pdfrwt beam="1">  1        1 0.38971531E+00 0.17166066E+04</pdfrwt>
<pdfrwt beam="2">  1       -2 0.44741173E-01 0.17166066E+04</pdfrwt>
<totfact> 0.50874896E+00</totfact>
</mgrwt>
</event>
<event>
12    5  0.5221187E-008  0.1245694E+04  0.7818608E-02  0.9073775E-01
         -2   -1    0    0    0  501 -0.00000000000E+00  0.00000000000E+00  0.17983118855E+03  0.17983118855E+03  0.00000000000E+00 0.  1.
          1   -1    0    0  501    0  0.00000000000E+00 -0.00000000000E+00 -0.21572347621E+04  0.21572347621E+04  0.00000000000E+00 0. -1.
        -24    2    1    2    0    0  0.53303840072E+02 -0.12405148106E+03 -0.95189354022E+03  0.96470307585E+03  0.79502473600E+02 0.  0.
        254    2    1    2    0    0 -0.53303840072E+02  0.12405148106E+03 -0.10255100333E+04  0.13723628748E+04  0.90193068600E+03 0.  0.
         23    2    4    4    0    0  0.75610561876E+02  0.38097404305E+03 -0.99186058587E+03  0.10692277036E+04  0.92748487062E+02 0.  0.
         23    2    4    4    0    0 -0.12891440195E+03 -0.25692256199E+03 -0.33649447458E+02  0.30313517117E+03  0.90169400584E+02 0.  0.
          1    1    3    3  502    0  0.43920183486E+02 -0.11298383612E+03 -0.58027298332E+03  0.59279934625E+03  0.00000000000E+00 0. -1.
         -2    1    3    3    0  502  0.93836565858E+01 -0.11067644943E+02 -0.37162055690E+03  0.37190372960E+03  0.00000000000E+00 0.  1.
         13    1    5    5    0    0  0.60544557477E+02  0.11451204670E+03 -0.38702770706E+03  0.40812877662E+03  0.00000000000E+00 0.  1.
        -13    1    5    5    0    0  0.15066004399E+02  0.26646199635E+03 -0.60483287882E+03  0.66109892700E+03  0.00000000000E+00 0. -1.
          3    1    6    6  503    0 -0.37398762232E+02 -0.17313342881E+03 -0.22652242862E+02  0.17856924622E+03  0.00000000000E+00 0. -1.
         -3    1    6    6    0  503 -0.91515639717E+02 -0.83789133171E+02 -0.10997204596E+02  0.12456592495E+03  0.00000000000E+00 0.  1.
<mgrwt>
<rscale>  0 0.12456935E+04</rscale>
<asrwt>0</asrwt>
<pdfrwt beam="1">  1        1 0.33188226E+00 0.12456935E+04</pdfrwt>
<pdfrwt beam="2">  1       -2 0.27666338E-01 0.12456935E+04</pdfrwt>
<totfact> 0.24108415E+01</totfact>
</mgrwt>
</event>
<event>
12    5  0.5221187E-008  0.1726970E+04  0.7818608E-02  0.8746130E-01
          1   -1    0    0  501    0  0.00000000000E+00  0.00000000000E+00  0.24941046820E+04  0.24941046820E+04  0.00000000000E+00 0. -1.
         -2   -1    0    0    0  501 -0.00000000000E+00 -0.00000000000E+00 -0.29894745175E+03  0.29894745175E+03  0.00000000000E+00 0.  1.
        -24    2    1    2    0    0  0.29704408074E+03 -0.52877345259E+03  0.57322957033E+03  0.83774770201E+03  0.73433792297E+02 0.  0.
        254    2    1    2    0    0 -0.29704408074E+03  0.52877345259E+03  0.16219276599E+04  0.19553044317E+04  0.90814620889E+03 0.  0.
         23    2    4    4    0    0 -0.56919616479E+03  0.17745665420E+03  0.66867388865E+03  0.90004853487E+03  0.86530096566E+02 0.  0.
         23    2    4    4    0    0  0.27215208405E+03  0.35131679839E+03  0.95325377125E+03  0.10552558969E+04  0.85918599756E+02 0.  0.
          1    1    3    3  502    0  0.20769521430E+03 -0.36072962849E+03  0.34546598737E+03  0.54093429855E+03  0.00000000000E+00 0. -1.
         -2    1    3    3    0  502  0.89348866449E+02 -0.16804382410E+03  0.22776358295E+03  0.29681340346E+03  0.00000000000E+00 0.  1.
         13    1    5    5    0    0 -0.13538062723E+03  0.81966295556E+02  0.17679387231E+03  0.23728139649E+03  0.00000000000E+00 0. -1.
        -13    1    5    5    0    0 -0.43381553757E+03  0.95490358639E+02  0.49188001635E+03  0.66276713837E+03  0.00000000000E+00 0.  1.
          4    1    6    6  503    0  0.54105865267E+02  0.32116414768E+02  0.18157763238E+03  0.19217009480E+03  0.00000000000E+00 0. -1.
         -4    1    6    6    0  503  0.21804621878E+03  0.31920038363E+03  0.77167613887E+03  0.86308580207E+03  0.00000000000E+00 0.  1.
<mgrwt>
<rscale>  0 0.17269699E+04</rscale>
<asrwt>0</asrwt>
<pdfrwt beam="1">  1        1 0.38370840E+00 0.17269699E+04</pdfrwt>
<pdfrwt beam="2">  1       -2 0.45991917E-01 0.17269699E+04</pdfrwt>
<totfact> 0.51187398E+00</totfact>
</mgrwt>
</event>
<event>
12    5  0.5221187E-008  0.1711824E+04  0.7818608E-02  0.8754649E-01
          1   -1    0    0  501    0  0.00000000000E+00  0.00000000000E+00  0.22947648668E+04  0.22947648668E+04  0.00000000000E+00 0. -1.
         -2   -1    0    0    0  501 -0.00000000000E+00 -0.00000000000E+00 -0.31924217278E+03  0.31924217278E+03  0.00000000000E+00 0.  1.
        -24    2    1    2    0    0 -0.25868701730E+03 -0.26162171714E+03  0.14900803826E+04  0.15369235483E+04  0.80184481289E+02 0.  0.
        254    2    1    2    0    0  0.25868701730E+03  0.26162171714E+03  0.48544231142E+03  0.10770834912E+04  0.88830721802E+03 0.  0.
         23    2    4    4    0    0  0.14779607042E+03  0.52492107755E+03  0.53994953274E+03  0.77254426662E+03  0.88844413965E+02 0.  0.
         23    2    4    4    0    0  0.11089094688E+03 -0.26329936041E+03 -0.54507221318E+02  0.30453922462E+03  0.90275948426E+02 0.  0.
          3    1    3    3  502    0 -0.11193789565E+03 -0.11376382207E+03  0.81311014094E+03  0.82862560967E+03  0.00000000000E+00 0. -1.
         -4    1    3    3    0  502 -0.14674912165E+03 -0.14785789506E+03  0.67697024163E+03  0.70829793865E+03  0.00000000000E+00 0.  1.
         13    1    5    5    0    0  0.60346908498E+02  0.87726989800E+02  0.96264396315E+02  0.14354305313E+03  0.00000000000E+00 0. -1.
        -13    1    5    5    0    0  0.87449161925E+02  0.43719408775E+03  0.44368513643E+03  0.62900121349E+03  0.00000000000E+00 0.  1.
          4    1    6    6  503    0  0.10312533248E+03 -0.13398508433E+03 -0.43146092046E+02  0.17449476290E+03  0.00000000000E+00 0.  1.
         -4    1    6    6    0  503  0.77656144024E+01 -0.12931427608E+03 -0.11361129272E+02  0.13004446172E+03  0.00000000000E+00 0. -1.
<mgrwt>
<rscale>  0 0.17118244E+04</rscale>
<asrwt>0</asrwt>
<pdfrwt beam="1">  1        1 0.35304074E+00 0.17118244E+04</pdfrwt>
<pdfrwt beam="2">  1       -2 0.49114182E-01 0.17118244E+04</pdfrwt>
<totfact> 0.61538070E+00</totfact>
</mgrwt>
</event>
<event>
12    5  0.5221187E-008  0.1724629E+04  0.7818608E-02  0.8747441E-01
         -2   -1    0    0    0  501 -0.00000000000E+00  0.00000000000E+00  0.47676418158E+03  0.47676418158E+03  0.00000000000E+00 0.  1.
          1   -1    0    0  501    0  0.00000000000E+00 -0.00000000000E+00 -0.15596529282E+04  0.15596529282E+04  0.00000000000E+00 0. -1.
        -24    2    1    2    0    0 -0.41048925903E+03 -0.33802792192E+03 -0.77670996215E+03  0.94528037515E+03  0.86673609423E+02 0.  0.
        254    2    1    2    0    0  0.41048925903E+03  0.33802792192E+03 -0.30617878447E+03  0.10911367346E+04  0.90225806610E+03 0.  0.
         23    2    4    4    0    0 -0.11761375053E+03  0.23440889589E+02  0.22757433851E+03  0.27183399763E+03  0.87870205991E+02 0.  0.
         23    2    4    4    0    0  0.52810300955E+03  0.31458703233E+03 -0.53375312298E+03  0.81930273701E+03  0.92232255522E+02 0.  0.
          3    1    3    3  502    0 -0.30017758949E+01  0.28337011691E+01  0.16141034465E+00  0.41311710372E+01  0.00000000000E+00 0. -1.
         -4    1    3    3    0  502 -0.40748748313E+03 -0.34086162309E+03 -0.77687137249E+03  0.94114920411E+03  0.00000000000E+00 0.  1.
         13    1    5    5    0    0  0.42400129069E+01 -0.43949803945E+01  0.72044141428E+02  0.72302502558E+02  0.00000000000E+00 0.  1.
        -13    1    5    5    0    0 -0.12185376344E+03  0.27835869983E+02  0.15553019709E+03  0.19953149507E+03  0.00000000000E+00 0. -1.
          3    1    6    6  503    0  0.20744176984E+03  0.76266347128E+02 -0.16767470996E+03  0.27742287566E+03  0.00000000000E+00 0. -1.
         -3    1    6    6    0  503  0.32066123971E+03  0.23832068521E+03 -0.36607841302E+03  0.54187986134E+03  0.00000000000E+00 0.  1.
<mgrwt>
<rscale>  0 0.17246294E+04</rscale>
<asrwt>0</asrwt>
<pdfrwt beam="1">  1        1 0.23994660E+00 0.17246294E+04</pdfrwt>
<pdfrwt beam="2">  1       -2 0.73348336E-01 0.17246294E+04</pdfrwt>
<totfact> 0.83165367E+00</totfact>
</mgrwt>
</event>
<event>
12    5  0.5221187E-008  0.1344322E+04  0.7818608E-02  0.8995137E-01
         -2   -1    0    0    0  501 -0.00000000000E+00  0.00000000000E+00  0.63622534017E+03  0.63622534017E+03  0.00000000000E+00 0.  1.
          1   -1    0    0  501    0  0.00000000000E+00 -0.00000000000E+00 -0.71012677285E+03  0.71012677285E+03  0.00000000000E+00 0. -1.
        -24    2    1    2    0    0  0.18139116242E+03 -0.24669244995E+03 -0.21322680162E+03  0.38169692261E+03  0.80417368384E+02 0.  0.
        254    2    1    2    0    0 -0.18139116242E+03  0.24669244995E+03  0.13932536894E+03  0.96465519041E+03  0.90409521584E+03 0.  0.
         23    2    4    4    0    0 -0.27348762374E+03  0.46014499216E+03  0.34300056556E+03  0.64249427048E+03  0.92847215738E+02 0.  0.
         23    2    4    4    0    0  0.92096461324E+02 -0.21345254221E+03 -0.20367519662E+03  0.32216091994E+03  0.90886339195E+02 0.  0.
          3    1    3    3  502    0  0.12642446523E+03 -0.17535789742E+03 -0.19209509119E+03  0.28919554225E+03  0.00000000000E+00 0. -1.
         -4    1    3    3    0  502  0.54966697194E+02 -0.71334552521E+02 -0.21131710434E+02  0.92501380366E+02  0.00000000000E+00 0.  1.
         13    1    5    5    0    0 -0.27954413764E+03  0.45453351302E+03  0.34279535489E+03  0.63423520454E+03  0.00000000000E+00 0.  1.
        -13    1    5    5    0    0  0.60565138950E+01  0.56114791411E+01  0.20521067023E+00  0.82590659357E+01  0.00000000000E+00 0. -1.
          3    1    6    6  503    0  0.25265587320E+02 -0.15132010594E+03 -0.15758632295E+03  0.21993083810E+03  0.00000000000E+00 0. -1.
         -3    1    6    6    0  503  0.66830874004E+02 -0.62132436272E+02 -0.46088873663E+02  0.10223008184E+03  0.00000000000E+00 0.  1.
<mgrwt>
<rscale>  0 0.13443224E+04</rscale>
<asrwt>0</asrwt>
<pdfrwt beam="1">  1        1 0.10925027E+00 0.13443224E+04</pdfrwt>
<pdfrwt beam="2">  1       -2 0.97880821E-01 0.13443224E+04</pdfrwt>
<totfact> 0.19860405E+01</totfact>
</mgrwt>
</event>
<event>
12    5  0.5221187E-008  0.1647627E+04  0.7818608E-02  0.8791811E-01
         -2   -1    0    0    0  501 -0.00000000000E+00  0.00000000000E+00  0.17825825676E+04  0.17825825676E+04  0.00000000000E+00 0.  1.
          1   -1    0    0  501    0  0.00000000000E+00 -0.00000000000E+00 -0.38072222765E+03  0.38072222765E+03  0.00000000000E+00 0. -1.
        -24    2    1    2    0    0 -0.42111273874E+02  0.34848487508E+03 -0.10334789303E+03  0.37469831900E+03  0.80641030007E+02 0.  0.
        254    2    1    2    0    0  0.42111273874E+02 -0.34848487508E+03  0.15052082329E+04  0.17886064762E+04  0.90013678666E+03 0.  0.
         23    2    4    4    0    0  0.25397382609E+03 -0.56571777807E+03  0.11767052636E+04  0.13332389066E+04  0.91385971439E+02 0.  0.
         23    2    4    4    0    0 -0.21186255221E+03  0.21723290298E+03  0.32850296930E+03  0.45536756964E+03  0.85846068465E+02 0.  0.
          3    1    3    3  502    0 -0.35265605474E+02  0.14574492022E+03 -0.81505117688E+02  0.17067023440E+03  0.00000000000E+00 0. -1.
         -2    1    3    3    0  502 -0.68456684000E+01  0.20273995486E+03 -0.21842775339E+02  0.20402808460E+03  0.00000000000E+00 0.  1.
         13    1    5    5    0    0  0.20731870838E+03 -0.35605606926E+03  0.77580096876E+03  0.87842137635E+03  0.00000000000E+00 0.  1.
        -13    1    5    5    0    0  0.46655117704E+02 -0.20966170880E+03  0.40090429486E+03  0.45481753021E+03  0.00000000000E+00 0. -1.
          1    1    6    6  503    0 -0.20793221327E+03  0.22452095309E+03  0.32493917508E+03  0.44635292224E+03  0.00000000000E+00 0. -1.
         -1    1    6    6    0  503 -0.39303389387E+01 -0.72880501030E+01  0.35637942250E+01  0.90146474005E+01  0.00000000000E+00 0.  1.
<mgrwt>
<rscale>  0 0.16476271E+04</rscale>
<asrwt>0</asrwt>
<pdfrwt beam="1">  1        1 0.58572651E-01 0.16476271E+04</pdfrwt>
<pdfrwt beam="2">  1       -2 0.27424347E+00 0.16476271E+04</pdfrwt>
<totfact> 0.24475051E+00</totfact>
</mgrwt>
</event>
<event>
12    5  0.5221187E-008  0.2558334E+04  0.7818608E-02  0.8382493E-01
         -2   -1    0    0    0  501 -0.00000000000E+00  0.00000000000E+00  0.80010968266E+03  0.80010968266E+03  0.00000000000E+00 0.  1.
          1   -1    0    0  501    0  0.00000000000E+00 -0.00000000000E+00 -0.20450556188E+04  0.20450556188E+04  0.00000000000E+00 0. -1.
        -24    2    1    2    0    0  0.38914266029E+03 -0.37811389317E+03  0.54234394563E+03  0.77132191726E+03  0.79990114564E+02 0.  0.
        254    2    1    2    0    0 -0.38914266029E+03  0.37811389317E+03 -0.17872898818E+04  0.20738433842E+04  0.90112104317E+03 0.  0.
         23    2    4    4    0    0 -0.36881389526E+03 -0.15418342916E+03 -0.35227706995E+03  0.54049226670E+03  0.90755370001E+02 0.  0.
         23    2    4    4    0    0 -0.20328765024E+02  0.53229732233E+03 -0.14350128118E+04  0.15333511175E+04  0.90278355116E+02 0.  0.
          1    1    3    3  502    0  0.12573306897E+03 -0.83892604115E+02  0.11892526570E+03  0.19232782555E+03  0.00000000000E+00 0. -1.
         -2    1    3    3    0  502  0.26340959132E+03 -0.29422128905E+03  0.42341867993E+03  0.57899409172E+03  0.00000000000E+00 0.  1.
         13    1    5    5    0    0 -0.26174559607E+02 -0.83628469143E+01  0.58523658893E+00  0.27484309724E+02  0.00000000000E+00 0. -1.
        -13    1    5    5    0    0 -0.34263933565E+03 -0.14582058224E+03 -0.35286230654E+03  0.51300795698E+03  0.00000000000E+00 0.  1.
          1    1    6    6  503    0 -0.45505677782E+02  0.20433597127E+03 -0.49480275621E+03  0.53726504020E+03  0.00000000000E+00 0. -1.
         -1    1    6    6    0  503  0.25176912758E+02  0.32796135106E+03 -0.94021005561E+03  0.99608607731E+03  0.00000000000E+00 0.  1.
<mgrwt>
<rscale>  0 0.25583345E+04</rscale>
<asrwt>0</asrwt>
<pdfrwt beam="1">  1        1 0.31462394E+00 0.25583345E+04</pdfrwt>
<pdfrwt beam="2">  1       -2 0.12309380E+00 0.25583345E+04</pdfrwt>
<totfact> 0.10750775E+00</totfact>
</mgrwt>
</event>
<event>
12    5  0.5221187E-008  0.1472235E+04  0.7818608E-02  0.8903129E-01
         -2   -1    0    0    0  501 -0.00000000000E+00  0.00000000000E+00  0.85939964016E+03  0.85939964016E+03  0.00000000000E+00 0.  1.
          1   -1    0    0  501    0  0.00000000000E+00 -0.00000000000E+00 -0.63052004352E+03  0.63052004352E+03  0.00000000000E+00 0. -1.
        -24    2    1    2    0    0  0.96415263695E+02  0.13794851515E+03 -0.30662569241E+03  0.35967879315E+03  0.83808251905E+02 0.  0.
        254    2    1    2    0    0 -0.96415263695E+02 -0.13794851515E+03  0.53550528905E+03  0.11302408905E+04  0.98099585124E+03 0.  0.
         23    2    4    4    0    0  0.15369811326E+03  0.16390273515E+03 -0.18328093399E+03  0.30636453262E+03  0.98894436014E+02 0.  0.
         23    2    4    4    0    0 -0.25011337696E+03 -0.30185125030E+03  0.71878622305E+03  0.82387635792E+03  0.91911588228E+02 0.  0.
          1    1    3    3  502    0  0.29543908537E+02  0.99977286336E+02 -0.22243783988E+03  0.24565604598E+03  0.00000000000E+00 0. -1.
         -2    1    3    3    0  502  0.66871355158E+02  0.37971228815E+02 -0.84187852531E+02  0.11402274717E+03  0.00000000000E+00 0.  1.
         13    1    5    5    0    0  0.80508978701E+02  0.18442418944E+02 -0.58379663823E+02  0.10114348034E+03  0.00000000000E+00 0.  1.
        -13    1    5    5    0    0  0.73189134561E+02  0.14546031621E+03 -0.12490127017E+03  0.20522105228E+03  0.00000000000E+00 0. -1.
          2    1    6    6  503    0 -0.54711105407E+02 -0.10242636494E+03  0.14499807546E+03  0.18576573198E+03  0.00000000000E+00 0. -1.
         -2    1    6    6    0  503 -0.19540227155E+03 -0.19942488537E+03  0.57378814758E+03  0.63811062594E+03  0.00000000000E+00 0.  1.
<mgrwt>
<rscale>  0 0.14722346E+04</rscale>
<asrwt>0</asrwt>
<pdfrwt beam="1">  1        1 0.97003084E-01 0.14722346E+04</pdfrwt>
<pdfrwt beam="2">  1       -2 0.13221533E+00 0.14722346E+04</pdfrwt>
<totfact> 0.11242458E+01</totfact>
</mgrwt>
</event>
<event>
12    5  0.5221187E-008  0.1620057E+04  0.7818608E-02  0.8808320E-01
          1   -1    0    0  501    0  0.00000000000E+00  0.00000000000E+00  0.12142432784E+04  0.12142432784E+04  0.00000000000E+00 0. -1.
         -2   -1    0    0    0  501 -0.00000000000E+00 -0.00000000000E+00 -0.54037453986E+03  0.54037453986E+03  0.00000000000E+00 0.  1.
        -24    2    1    2    0    0 -0.15312716096E+03 -0.45467082462E+02  0.81304894394E+03  0.83250387969E+03  0.80616012396E+02 0.  0.
        254    2    1    2    0    0  0.15312716096E+03  0.45467082462E+02 -0.13918020542E+03  0.92211393855E+03  0.89744515324E+03 0.  0.
         23    2    4    4    0    0 -0.30829036741E+03  0.14707869560E+03 -0.24465571682E+03  0.42964722583E+03  0.89806600805E+02 0.  0.
         23    2    4    4    0    0  0.46141752837E+03 -0.10161161314E+03  0.10547551140E+03  0.49246671272E+03  0.90373249465E+02 0.  0.
          3    1    3    3  502    0 -0.12690657248E+03 -0.74434505285E+00  0.59355674273E+03  0.60697235442E+03  0.00000000000E+00 0. -1.
         -4    1    3    3    0  502 -0.26220588478E+02 -0.44722737409E+02  0.21949220120E+03  0.22553152527E+03  0.00000000000E+00 0.  1.
         13    1    5    5    0    0 -0.16719614299E+03  0.12844415876E+03 -0.14335682798E+03  0.25495809906E+03  0.00000000000E+00 0.  1.
        -13    1    5    5    0    0 -0.14109422442E+03  0.18634536843E+02 -0.10129888884E+03  0.17468912676E+03  0.00000000000E+00 0. -1.
          2    1    6    6  503    0  0.36167443220E+03 -0.42177876365E+02  0.92087129081E+02  0.37558941346E+03  0.00000000000E+00 0.  1.
         -2    1    6    6    0  503  0.99743096171E+02 -0.59433736776E+02  0.13388382322E+02  0.11687729926E+03  0.00000000000E+00 0. -1.
<mgrwt>
<rscale>  0 0.16200570E+04</rscale>
<asrwt>0</asrwt>
<pdfrwt beam="1">  1        1 0.18680666E+00 0.16200570E+04</pdfrwt>
<pdfrwt beam="2">  1       -2 0.83134545E-01 0.16200570E+04</pdfrwt>
<totfact> 0.11108541E+01</totfact>
</mgrwt>
</event>
<event>
12    5  0.5221187E-008  0.3603735E+04  0.7818608E-02  0.8089637E-01
          1   -1    0    0  501    0  0.00000000000E+00  0.00000000000E+00  0.38677126574E+04  0.38677126574E+04  0.00000000000E+00 0. -1.
         -2   -1    0    0    0  501 -0.00000000000E+00 -0.00000000000E+00 -0.83944340930E+03  0.83944340930E+03  0.00000000000E+00 0.  1.
        -24    2    1    2    0    0 -0.10742677825E+03  0.12041911970E+04 -0.12319644941E+03  0.12176067342E+04  0.75972643172E+02 0.  0.
        254    2    1    2    0    0  0.10742677825E+03 -0.12041911970E+04  0.31514656975E+04  0.34895493325E+04  0.88521271445E+03 0.  0.
         23    2    4    4    0    0  0.31667718744E+03 -0.21906189102E+03  0.42020058716E+03  0.57707959030E+03  0.90442064060E+02 0.  0.
         23    2    4    4    0    0 -0.20925040919E+03 -0.98512930594E+03  0.27312651104E+04  0.29124697422E+04  0.91681039639E+02 0.  0.
          3    1    3    3  502    0 -0.51764196506E+02  0.23836812184E+03 -0.22971617357E+02  0.24500324234E+03  0.00000000000E+00 0. -1.
         -4    1    3    3    0  502 -0.55662581743E+02  0.96582307511E+03 -0.10022483205E+03  0.97260349187E+03  0.00000000000E+00 0.  1.
         13    1    5    5    0    0  0.10462230720E+03 -0.32542446644E+02  0.84366442601E+02  0.13828425303E+03  0.00000000000E+00 0. -1.
        -13    1    5    5    0    0  0.21205488023E+03 -0.18651944437E+03  0.33583414456E+03  0.43879533727E+03  0.00000000000E+00 0.  1.
          3    1    6    6  503    0 -0.17046468427E+03 -0.91828314625E+03  0.25179752327E+04  0.26856100643E+04  0.00000000000E+00 0. -1.
         -3    1    6    6    0  503 -0.38785724921E+02 -0.66846159694E+02  0.21328987771E+03  0.22685967790E+03  0.00000000000E+00 0.  1.
<mgrwt>
<rscale>  0 0.36037347E+04</rscale>
<asrwt>0</asrwt>
<pdfrwt beam="1">  1        1 0.59503271E+00 0.36037347E+04</pdfrwt>
<pdfrwt beam="2">  1       -2 0.12914514E+00 0.36037347E+04</pdfrwt>
<totfact> 0.39225345E-02</totfact>
</mgrwt>
</event>
<event>
12    5  0.5221187E-008  0.2095331E+04  0.7818608E-02  0.8563303E-01
          1   -1    0    0  501    0  0.00000000000E+00  0.00000000000E+00  0.19275642787E+04  0.19275642787E+04  0.00000000000E+00 0. -1.
         -2   -1    0    0    0  501 -0.00000000000E+00 -0.00000000000E+00 -0.56942485661E+03  0.56942485661E+03  0.00000000000E+00 0.  1.
        -24    2    1    2    0    0  0.67140343806E+02 -0.38303179035E+03  0.14561011224E+04  0.15092677311E+04  0.80233579585E+02 0.  0.
        254    2    1    2    0    0 -0.67140343806E+02  0.38303179035E+03 -0.97961700338E+02  0.98772140419E+03  0.90264937788E+03 0.  0.
         23    2    4    4    0    0 -0.34146851319E+03 -0.14354739649E+03 -0.42159516763E+02  0.38429393836E+03  0.93262026926E+02 0.  0.
         23    2    4    4    0    0  0.27432816938E+03  0.52657918684E+03 -0.55802183575E+02  0.60342746583E+03  0.92028464621E+02 0.  0.
          1    1    3    3  502    0  0.74418705069E+02 -0.21765633419E+03  0.91051555689E+03  0.93912246423E+03  0.00000000000E+00 0. -1.
         -2    1    3    3    0  502 -0.72783612630E+01 -0.16537545615E+03  0.54558556556E+03  0.57014526692E+03  0.00000000000E+00 0.  1.
         13    1    5    5    0    0 -0.12778798368E+03 -0.51408286034E+02 -0.61388170081E+02  0.15080148564E+03  0.00000000000E+00 0.  1.
        -13    1    5    5    0    0 -0.21368052950E+03 -0.92139110461E+02  0.19228653318E+02  0.23349245271E+03  0.00000000000E+00 0. -1.
          1    1    6    6  503    0  0.18829968211E+03  0.43667014052E+03 -0.57319597247E+02  0.47898133380E+03  0.00000000000E+00 0. -1.
         -1    1    6    6    0  503  0.86028487274E+02  0.89909046320E+02  0.15174136723E+01  0.12444613203E+03  0.00000000000E+00 0.  1.
<mgrwt>
<rscale>  0 0.20953310E+04</rscale>
<asrwt>0</asrwt>
<pdfrwt beam="1">  1        1 0.29654835E+00 0.20953310E+04</pdfrwt>
<pdfrwt beam="2">  1       -2 0.87603825E-01 0.20953310E+04</pdfrwt>
<totfact> 0.30323390E+00</totfact>
</mgrwt>
</event>
<event>
12    5  0.5221187E-008  0.1150577E+04  0.7818608E-02  0.9157252E-01
          1   -1    0    0  501    0  0.00000000000E+00  0.00000000000E+00  0.76142348534E+03  0.76142348534E+03  0.00000000000E+00 0. -1.
         -4   -1    0    0    0  501 -0.00000000000E+00 -0.00000000000E+00 -0.43465513088E+03  0.43465513088E+03  0.00000000000E+00 0.  1.
        -24    2    1    2    0    0 -0.17965788895E+03 -0.61614131951E+02  0.16554647898E+03  0.26437811336E+03  0.80105504194E+02 0.  0.
        254    2    1    2    0    0  0.17965788895E+03  0.61614131951E+02  0.16122187548E+03  0.93170050286E+03  0.89777506959E+03 0.  0.
         23    2    4    4    0    0  0.24080410099E+03  0.30119176414E+03  0.41045725938E+03  0.57032492434E+03  0.89957010322E+02 0.  0.
         23    2    4    4    0    0 -0.61146212040E+02 -0.23957763219E+03 -0.24923538390E+03  0.36137557852E+03  0.85660557292E+02 0.  0.
          3    1    3    3  502    0 -0.95113092096E+01  0.10728437156E+02  0.35639788314E+02  0.38415607215E+02  0.00000000000E+00 0. -1.
         -4    1    3    3    0  502 -0.17014657974E+03 -0.72342569107E+02  0.12990669067E+03  0.22596250614E+03  0.00000000000E+00 0.  1.
         13    1    5    5    0    0  0.48253110790E+02  0.98406610480E+02  0.71302089081E+02  0.13075248217E+03  0.00000000000E+00 0.  1.
        -13    1    5    5    0    0  0.19255099020E+03  0.20278515366E+03  0.33915517030E+03  0.43957244217E+03  0.00000000000E+00 0. -1.
          2    1    6    6  503    0 -0.34154485764E+02 -0.52795600175E+02 -0.11052700009E+03  0.12716179475E+03  0.00000000000E+00 0.  1.
         -2    1    6    6    0  503 -0.26991726276E+02 -0.18678203201E+03 -0.13870838380E+03  0.23421378377E+03  0.00000000000E+00 0. -1.
<mgrwt>
<rscale>  0 0.11505766E+04</rscale>
<asrwt>0</asrwt>
<pdfrwt beam="1">  1        1 0.11714207E+00 0.11505766E+04</pdfrwt>
<pdfrwt beam="2">  1       -4 0.66870020E-01 0.11505766E+04</pdfrwt>
<totfact> 0.23845303E+01</totfact>
</mgrwt>
</event>
<event>
12    5  0.5221187E-008  0.2031088E+04  0.7818608E-02  0.8592222E-01
          1   -1    0    0  501    0  0.00000000000E+00  0.00000000000E+00  0.88252263942E+03  0.88252263942E+03  0.00000000000E+00 0. -1.
         -2   -1    0    0    0  501 -0.00000000000E+00 -0.00000000000E+00 -0.11686155701E+04  0.11686155701E+04  0.00000000000E+00 0.  1.
        -24    2    1    2    0    0 -0.84907361829E+02 -0.81535251958E+03 -0.61456929522E+02  0.82577622490E+03  0.78233165271E+02 0.  0.
        254    2    1    2    0    0  0.84907361829E+02  0.81535251958E+03 -0.22463600119E+03  0.12253619846E+04  0.88263337186E+03 0.  0.
         23    2    4    4    0    0  0.43032679951E+02  0.61212147907E+03 -0.54907587127E+03  0.82835666693E+03  0.90254853311E+02 0.  0.
         23    2    4    4    0    0  0.41874681878E+02  0.20323104050E+03  0.32443987008E+03  0.39700531772E+03  0.96413941893E+02 0.  0.
          3    1    3    3  502    0 -0.27144039078E+02 -0.39418003131E+03  0.70508606323E+01  0.39517642969E+03  0.00000000000E+00 0. -1.
         -4    1    3    3    0  502 -0.57763322751E+02 -0.42117248826E+03 -0.68507790155E+02  0.43059979521E+03  0.00000000000E+00 0.  1.
         13    1    5    5    0    0 -0.22712297456E+02  0.29696092574E+03 -0.24791707787E+03  0.38751066743E+03  0.00000000000E+00 0.  1.
        -13    1    5    5    0    0  0.65744977407E+02  0.31516055334E+03 -0.30115879340E+03  0.44084599950E+03  0.00000000000E+00 0. -1.
          3    1    6    6  503    0  0.18448946465E+02  0.17694673979E+03  0.19997973914E+03  0.26766099532E+03  0.00000000000E+00 0. -1.
         -3    1    6    6    0  503  0.23425735413E+02  0.26284300716E+02  0.12446013094E+03  0.12934432240E+03  0.00000000000E+00 0.  1.
<mgrwt>
<rscale>  0 0.20310881E+04</rscale>
<asrwt>0</asrwt>
<pdfrwt beam="1">  1        1 0.13577271E+00 0.20310881E+04</pdfrwt>
<pdfrwt beam="2">  1       -2 0.17978701E+00 0.20310881E+04</pdfrwt>
<totfact> 0.27741614E+00</totfact>
</mgrwt>
</event>
<event>
12    5  0.5221187E-008  0.1347293E+04  0.7818608E-02  0.8992880E-01
         -2   -1    0    0    0  501 -0.00000000000E+00  0.00000000000E+00  0.31813663552E+03  0.31813663552E+03  0.00000000000E+00 0.  1.
          1   -1    0    0  501    0  0.00000000000E+00 -0.00000000000E+00 -0.14264303998E+04  0.14264303998E+04  0.00000000000E+00 0. -1.
        -24    2    1    2    0    0  0.23777306284E+03 -0.16141251550E+03 -0.19324426439E+02  0.29878562285E+03  0.79431639753E+02 0.  0.
        254    2    1    2    0    0 -0.23777306284E+03  0.16141251550E+03 -0.10889693378E+04  0.14457814125E+04  0.90655371837E+03 0.  0.
         23    2    4    4    0    0 -0.55603243178E+03  0.22068777881E+03 -0.80007320112E+03  0.10027385728E+04  0.86558404153E+02 0.  0.
         23    2    4    4    0    0  0.31825936894E+03 -0.59275263311E+02 -0.28889613673E+03  0.44304283966E+03  0.89573417921E+02 0.  0.
          1    1    3    3  502    0 -0.21250694322E+01 -0.53346850628E-01  0.80979676480E+01  0.83723262004E+01  0.00000000000E+00 0. -1.
         -2    1    3    3    0  502  0.23989813227E+03 -0.16135916865E+03 -0.27422394087E+02  0.29041329665E+03  0.00000000000E+00 0.  1.
         13    1    5    5    0    0 -0.55465051108E+03  0.21758193484E+03 -0.80179612254E+03  0.99892747981E+03  0.00000000000E+00 0. -1.
        -13    1    5    5    0    0 -0.13819207079E+01  0.31058439683E+01  0.17229214173E+01  0.38110929939E+01  0.00000000000E+00 0.  1.
          3    1    6    6  503    0  0.28202879591E+03 -0.80359126015E+02 -0.26193720277E+03  0.39320341943E+03  0.00000000000E+00 0. -1.
         -3    1    6    6    0  503  0.36230573036E+02  0.21083862704E+02 -0.26958933956E+02  0.49839420232E+02  0.00000000000E+00 0.  1.
<mgrwt>
<rscale>  0 0.13472932E+04</rscale>
<asrwt>0</asrwt>
<pdfrwt beam="1">  1        1 0.21945083E+00 0.13472932E+04</pdfrwt>
<pdfrwt beam="2">  1       -2 0.48944098E-01 0.13472932E+04</pdfrwt>
<totfact> 0.24991918E+01</totfact>
</mgrwt>
</event>
<event>
12    5  0.5221187E-008  0.1812504E+04  0.7818608E-02  0.8699678E-01
          1   -1    0    0  501    0  0.00000000000E+00  0.00000000000E+00  0.17027521511E+04  0.17027521511E+04  0.00000000000E+00 0. -1.
         -2   -1    0    0    0  501 -0.00000000000E+00 -0.00000000000E+00 -0.48233236065E+03  0.48233236065E+03  0.00000000000E+00 0.  1.
        -24    2    1    2    0    0 -0.45414407957E+03 -0.48171128952E+03  0.63034435695E+03  0.91769998238E+03  0.80911296313E+02 0.  0.
        254    2    1    2    0    0  0.45414407957E+03  0.48171128952E+03  0.59007543350E+03  0.12673845294E+04  0.90541808938E+03 0.  0.
         23    2    4    4    0    0  0.48088435303E+03  0.69875761964E+03  0.57637883487E+03  0.10297251533E+04  0.92786626845E+02 0.  0.
         23    2    4    4    0    0 -0.26740273464E+02 -0.21704633013E+03  0.13696598632E+02  0.23765937602E+03  0.92033855465E+02 0.  0.
          3    1    3    3  502    0 -0.41118062984E+03 -0.43051955427E+03  0.52958659782E+03  0.79679267163E+03  0.00000000000E+00 0. -1.
         -4    1    3    3    0  502 -0.42963449729E+02 -0.51191735251E+02  0.10075775912E+03  0.12090731076E+03  0.00000000000E+00 0.  1.
         13    1    5    5    0    0  0.41314313402E+03  0.60232015742E+03  0.53279413490E+03  0.90407212733E+03  0.00000000000E+00 0. -1.
        -13    1    5    5    0    0  0.67741219010E+02  0.96437462225E+02  0.43584699965E+02  0.12565302601E+03  0.00000000000E+00 0.  1.
          4    1    6    6  503    0 -0.25663370682E+02 -0.17490406853E+03  0.48148020269E+02  0.18321646662E+03  0.00000000000E+00 0. -1.
         -4    1    6    6    0  503 -0.10769027823E+01 -0.42142261593E+02 -0.34451421636E+02  0.54442909405E+02  0.00000000000E+00 0.  1.
<mgrwt>
<rscale>  0 0.18125038E+04</rscale>
<asrwt>0</asrwt>
<pdfrwt beam="1">  1        1 0.26196187E+00 0.18125038E+04</pdfrwt>
<pdfrwt beam="2">  1       -2 0.74204979E-01 0.18125038E+04</pdfrwt>
<totfact> 0.64196016E+00</totfact>
</mgrwt>
</event>
<event>
12    5  0.5221187E-008  0.1447806E+04  0.7818608E-02  0.8919923E-01
          1   -1    0    0  501    0  0.00000000000E+00  0.00000000000E+00  0.67089847209E+03  0.67089847209E+03  0.00000000000E+00 0. -1.
         -2   -1    0    0    0  501 -0.00000000000E+00 -0.00000000000E+00 -0.78109481962E+03  0.78109481962E+03  0.00000000000E+00 0.  1.
        -24    2    1    2    0    0  0.20122514815E+03  0.37412480180E+03 -0.14191353569E+03  0.45299106109E+03  0.67827149784E+02 0.  0.
        254    2    1    2    0    0 -0.20122514815E+03 -0.37412480180E+03  0.31717188164E+02  0.99900223062E+03  0.90362522607E+03 0.  0.
         23    2    4    4    0    0  0.20826821947E+03  0.11218049945E+03 -0.19291839972E+03  0.31859890582E+03  0.91255893723E+02 0.  0.
         23    2    4    4    0    0 -0.40949336763E+03 -0.48630530125E+03  0.22463558789E+03  0.68040332480E+03  0.91158504269E+02 0.  0.
          3    1    3    3  502    0  0.16349904971E+03  0.27498490370E+03 -0.78514028268E+02  0.32941324982E+03  0.00000000000E+00 0. -1.
         -4    1    3    3    0  502  0.37726098440E+02  0.99139898097E+02 -0.63399507420E+02  0.12357781127E+03  0.00000000000E+00 0.  1.
         13    1    5    5    0    0  0.21335672897E+03  0.11955202005E+03 -0.18690320895E+03  0.30780933841E+03  0.00000000000E+00 0. -1.
        -13    1    5    5    0    0 -0.50885094982E+01 -0.73715206024E+01 -0.60151907754E+01  0.10789567413E+02  0.00000000000E+00 0.  1.
          1    1    6    6  503    0 -0.35309153521E+03 -0.37054961287E+03  0.15960162700E+03  0.53614674034E+03  0.00000000000E+00 0. -1.
         -1    1    6    6    0  503 -0.56401832419E+02 -0.11575568838E+03  0.65033960885E+02  0.14425658446E+03  0.00000000000E+00 0.  1.
<mgrwt>
<rscale>  0 0.14478057E+04</rscale>
<asrwt>0</asrwt>
<pdfrwt beam="1">  1        1 0.10321515E+00 0.14478057E+04</pdfrwt>
<pdfrwt beam="2">  1       -2 0.12016843E+00 0.14478057E+04</pdfrwt>
<totfact> 0.13070006E+01</totfact>
</mgrwt>
</event>
<event>
12    5  0.5221187E-008  0.1561600E+04  0.7818608E-02  0.8844492E-01
         -2   -1    0    0    0  501 -0.00000000000E+00  0.00000000000E+00  0.18227754496E+03  0.18227754496E+03  0.00000000000E+00 0.  1.
          1   -1    0    0  501    0  0.00000000000E+00 -0.00000000000E+00 -0.33446161143E+04  0.33446161143E+04  0.00000000000E+00 0. -1.
        -24    2    1    2    0    0  0.24787877389E+03 -0.13072459070E+03 -0.20350976474E+04  0.20558490457E+04  0.79749979602E+02 0.  0.
        254    2    1    2    0    0 -0.24787877389E+03  0.13072459070E+03 -0.11272409219E+04  0.14710446135E+04  0.90264464421E+03 0.  0.
         23    2    4    4    0    0 -0.52989807476E+03  0.21690253852E+03 -0.96006044098E+03  0.11214742324E+04  0.90275814785E+02 0.  0.
         23    2    4    4    0    0  0.28201930087E+03 -0.86177947813E+02 -0.16718048094E+03  0.34957038111E+03  0.85373376380E+02 0.  0.
          3    1    3    3  502    0  0.20038666318E+03 -0.76323963022E+02 -0.16669947759E+04  0.16807295276E+04  0.00000000000E+00 0. -1.
         -4    1    3    3    0  502  0.47492110705E+02 -0.54400627681E+02 -0.36810287154E+03  0.37511951817E+03  0.00000000000E+00 0.  1.
         13    1    5    5    0    0 -0.11805678503E+03  0.12157678027E+02 -0.17084586273E+03  0.20802288922E+03  0.00000000000E+00 0.  1.
        -13    1    5    5    0    0 -0.41184128972E+03  0.20474486049E+03 -0.78921457825E+03  0.91345134317E+03  0.00000000000E+00 0. -1.
          2    1    6    6  503    0  0.25871885143E+03 -0.94067271713E+02 -0.12867388902E+03  0.30387672732E+03  0.00000000000E+00 0. -1.
         -2    1    6    6    0  503  0.23300449435E+02  0.78893238996E+01 -0.38506591919E+02  0.45693653790E+02  0.00000000000E+00 0.  1.
<mgrwt>
<rscale>  0 0.15615997E+04</rscale>
<asrwt>0</asrwt>
<pdfrwt beam="1">  1        1 0.51455621E+00 0.15615997E+04</pdfrwt>
<pdfrwt beam="2">  1       -2 0.28042705E-01 0.15615997E+04</pdfrwt>
<totfact> 0.32720516E+00</totfact>
</mgrwt>
</event>
<event>
12    5  0.5221187E-008  0.2330369E+04  0.7818608E-02  0.8466042E-01
         -2   -1    0    0    0  501 -0.00000000000E+00  0.00000000000E+00  0.98619859377E+03  0.98619859377E+03  0.00000000000E+00 0.  1.
          1   -1    0    0  501    0  0.00000000000E+00 -0.00000000000E+00 -0.13766552666E+04  0.13766552666E+04  0.00000000000E+00 0. -1.
        -24    2    1    2    0    0 -0.23328457730E+03  0.25812744488E+03 -0.11194014342E+04  0.11749898418E+04  0.80561067873E+02 0.  0.
        254    2    1    2    0    0  0.23328457730E+03 -0.25812744488E+03  0.72894476137E+03  0.11878640186E+04  0.87098162419E+03 0.  0.
         23    2    4    4    0    0  0.15606619173E+03  0.24269586930E+02 -0.16323063288E+03  0.24462218124E+03  0.90830077585E+02 0.  0.
         23    2    4    4    0    0  0.77218385570E+02 -0.28239703181E+03  0.89217539425E+03  0.94324183732E+03  0.89540308949E+02 0.  0.
          1    1    3    3  502    0 -0.14039582486E+03  0.17993711001E+03 -0.60942397080E+03  0.65075796375E+03  0.00000000000E+00 0. -1.
         -2    1    3    3    0  502 -0.92888752442E+02  0.78190334862E+02 -0.50997746340E+03  0.52423187805E+03  0.00000000000E+00 0.  1.
         13    1    5    5    0    0  0.16060831226E+03  0.58221996802E+01 -0.15688372723E+03  0.22459170030E+03  0.00000000000E+00 0.  1.
        -13    1    5    5    0    0 -0.45421205312E+01  0.18447387250E+02 -0.63469056543E+01  0.20030480939E+02  0.00000000000E+00 0. -1.
          3    1    6    6  503    0 -0.50652975159E+01 -0.68727421516E+02  0.12635828600E+03  0.14392891353E+03  0.00000000000E+00 0. -1.
         -3    1    6    6    0  503  0.82283683086E+02 -0.21366961029E+03  0.76581710825E+03  0.79931292379E+03  0.00000000000E+00 0.  1.
<mgrwt>
<rscale>  0 0.23303695E+04</rscale>
<asrwt>0</asrwt>
<pdfrwt beam="1">  1        1 0.21179312E+00 0.23303695E+04</pdfrwt>
<pdfrwt beam="2">  1       -2 0.15172286E+00 0.23303695E+04</pdfrwt>
<totfact> 0.18353133E+00</totfact>
</mgrwt>
</event>
<event>
12    5  0.5221187E-008  0.1924958E+04  0.7818608E-02  0.8642532E-01
         -2   -1    0    0    0  501 -0.00000000000E+00  0.00000000000E+00  0.50026892183E+03  0.50026892183E+03  0.00000000000E+00 0.  1.
          1   -1    0    0  501    0  0.00000000000E+00 -0.00000000000E+00 -0.18517354919E+04  0.18517354919E+04  0.00000000000E+00 0. -1.
        -24    2    1    2    0    0  0.13877099032E+03  0.17799516085E+03  0.34987253316E+03  0.42368693801E+03  0.78486730987E+02 0.  0.
        254    2    1    2    0    0 -0.13877099032E+03 -0.17799516085E+03 -0.17013391032E+04  0.19283174757E+04  0.87915520698E+03 0.  0.
         23    2    4    4    0    0 -0.23118831123E+03 -0.38168489812E+03 -0.16080164168E+04  0.16711833933E+04  0.89474804316E+02 0.  0.
         23    2    4    4    0    0  0.92417320909E+02  0.20368973727E+03 -0.93322686404E+02  0.25713408241E+03  0.85897277401E+02 0.  0.
          3    1    3    3  502    0  0.89172255347E+02  0.57188076648E+02  0.12710324108E+03  0.16546117710E+03  0.00000000000E+00 0. -1.
         -4    1    3    3    0  502  0.49598734975E+02  0.12080708420E+03  0.22276929208E+03  0.25822576091E+03  0.00000000000E+00 0.  1.
         13    1    5    5    0    0 -0.27770193484E+02 -0.19280202745E+02 -0.20996070712E+03  0.21266501452E+03  0.00000000000E+00 0. -1.
        -13    1    5    5    0    0 -0.20341811775E+03 -0.36240469538E+03 -0.13980557097E+04  0.14585183788E+04  0.00000000000E+00 0.  1.
          1    1    6    6  503    0  0.93535032870E+01 -0.79165429829E+01 -0.55496390359E+01  0.13452069356E+02  0.00000000000E+00 0. -1.
         -1    1    6    6    0  503  0.83063817622E+02  0.21160628026E+03 -0.87773047368E+02  0.24368201305E+03  0.00000000000E+00 0.  1.
<mgrwt>
<rscale>  0 0.19249579E+04</rscale>
<asrwt>0</asrwt>
<pdfrwt beam="1">  1        1 0.28488238E+00 0.19249579E+04</pdfrwt>
<pdfrwt beam="2">  1       -2 0.76964450E-01 0.19249579E+04</pdfrwt>
<totfact> 0.46430007E+00</totfact>
</mgrwt>
</event>
<event>
12    5  0.5221187E-008  0.2936182E+04  0.7818608E-02  0.8262193E-01
          3   -1    0    0  501    0  0.00000000000E+00  0.00000000000E+00  0.14832586669E+04  0.14832586669E+04  0.00000000000E+00 0. -1.
         -4   -1    0    0    0  501 -0.00000000000E+00 -0.00000000000E+00 -0.14530781505E+04  0.14530781505E+04  0.00000000000E+00 0.  1.
        -24    2    1    2    0    0  0.62980294819E+03 -0.34258626989E+03 -0.11042055167E+04  0.13189526465E+04  0.79681583762E+02 0.  0.
        254    2    1    2    0    0 -0.62980294819E+03  0.34258626989E+03  0.11343860331E+04  0.16173841709E+04  0.90281934975E+03 0.  0.
         23    2    4    4    0    0  0.16987049897E+03  0.26075177642E+03  0.20312351639E+03  0.38395418278E+03  0.96509980011E+02 0.  0.
         23    2    4    4    0    0 -0.79967344716E+03  0.81834493477E+02  0.93126251674E+03  0.12334299881E+04  0.89023334692E+02 0.  0.
          1    1    3    3  502    0  0.45221079118E+02 -0.30089063196E+02 -0.50968831286E+02  0.74485699858E+02  0.00000000000E+00 0. -1.
         -2    1    3    3    0  502  0.58458186908E+03 -0.31249720670E+03 -0.10532366854E+04  0.12444669466E+04  0.00000000000E+00 0.  1.
         13    1    5    5    0    0  0.73149714215E+02  0.86819391848E+02  0.12835209343E+03  0.17135561671E+03  0.00000000000E+00 0.  1.
        -13    1    5    5    0    0  0.96720784752E+02  0.17393238457E+03  0.74771422966E+02  0.21259856607E+03  0.00000000000E+00 0. -1.
          4    1    6    6  503    0 -0.32049637954E+03 -0.39812025238E+01  0.40609906034E+03  0.51734923029E+03  0.00000000000E+00 0. -1.
         -4    1    6    6    0  503 -0.47917706762E+03  0.85815696001E+02  0.52516345640E+03  0.71608075784E+03  0.00000000000E+00 0.  1.
<mgrwt>
<rscale>  0 0.29361817E+04</rscale>
<asrwt>0</asrwt>
<pdfrwt beam="1">  1        3 0.22819364E+00 0.29361817E+04</pdfrwt>
<pdfrwt beam="2">  1       -4 0.22355048E+00 0.29361817E+04</pdfrwt>
<totfact> 0.17930096E-02</totfact>
</mgrwt>
</event>
<event>
12    5  0.5221187E-008  0.2927623E+04  0.7818608E-02  0.8264706E-01
          1   -1    0    0  501    0  0.00000000000E+00  0.00000000000E+00  0.10974722842E+04  0.10974722842E+04  0.00000000000E+00 0. -1.
         -2   -1    0    0    0  501 -0.00000000000E+00 -0.00000000000E+00 -0.19524352003E+04  0.19524352003E+04  0.00000000000E+00 0.  1.
        -24    2    1    2    0    0 -0.11433650618E+04  0.11251210539E+03  0.28278176206E+03  0.11864160415E+04  0.87606278608E+02 0.  0.
        254    2    1    2    0    0  0.11433650618E+04 -0.11251210539E+03 -0.11377446781E+04  0.18634914430E+04  0.92638802196E+03 0.  0.
         23    2    4    4    0    0  0.50098350933E+03 -0.40276537010E+03 -0.18971098300E+03  0.67788426187E+03  0.10164839131E+03 0.  0.
         23    2    4    4    0    0  0.64238155250E+03  0.29025326471E+03 -0.94803369509E+03  0.11856071811E+04  0.99977418923E+02 0.  0.
          1    1    3    3  502    0 -0.92244863508E+03  0.88792294591E+02  0.26322614638E+03  0.96337093587E+03  0.00000000000E+00 0. -1.
         -2    1    3    3    0  502 -0.22091642675E+03  0.23719810802E+02  0.19555615688E+02  0.22304510561E+03  0.00000000000E+00 0.  1.
         13    1    5    5    0    0  0.49763857700E+03 -0.37829276673E+03 -0.18946866330E+03  0.65318293384E+03  0.00000000000E+00 0.  1.
        -13    1    5    5    0    0  0.33449323241E+01 -0.24472603372E+02 -0.24231970019E+00  0.24701328039E+02  0.00000000000E+00 0. -1.
          3    1    6    6  503    0  0.17806480409E+02 -0.61567624447E+01 -0.41169158381E+02  0.45275557094E+02  0.00000000000E+00 0. -1.
         -3    1    6    6    0  503  0.62457507209E+03  0.29641002716E+03 -0.90686453671E+03  0.11403316241E+04  0.00000000000E+00 0.  1.
<mgrwt>
<rscale>  0 0.29276226E+04</rscale>
<asrwt>0</asrwt>
<pdfrwt beam="1">  1        1 0.16884189E+00 0.29276226E+04</pdfrwt>
<pdfrwt beam="2">  1       -2 0.30037464E+00 0.29276226E+04</pdfrwt>
<totfact> 0.30254501E-01</totfact>
</mgrwt>
</event>
<event>
12    5  0.5221187E-008  0.1816542E+04  0.7818608E-02  0.8697552E-01
         -2   -1    0    0    0  501 -0.00000000000E+00  0.00000000000E+00  0.98215522755E+03  0.98215522755E+03  0.00000000000E+00 0.  1.
          1   -1    0    0  501    0  0.00000000000E+00 -0.00000000000E+00 -0.83994457591E+03  0.83994457591E+03  0.00000000000E+00 0. -1.
        -24    2    1    2    0    0 -0.13848248657E+03  0.35389227518E+02  0.71779452592E+03  0.73665248769E+03  0.83654705042E+02 0.  0.
        254    2    1    2    0    0  0.13848248657E+03 -0.35389227518E+02 -0.57558387427E+03  0.10854473158E+04  0.90910355982E+03 0.  0.
         23    2    4    4    0    0 -0.34897322024E+03 -0.18080269216E+03 -0.23745974012E+03  0.46780880968E+03  0.89364603171E+02 0.  0.
         23    2    4    4    0    0  0.48745570681E+03  0.14541346464E+03 -0.33812413416E+03  0.61763850610E+03  0.91603778935E+02 0.  0.
          3    1    3    3  502    0 -0.14142209940E+01 -0.83136205235E+01  0.57198907240E+01  0.10189870319E+02  0.00000000000E+00 0. -1.
         -4    1    3    3    0  502 -0.13706826558E+03  0.43702848041E+02  0.71207463519E+03  0.72646261737E+03  0.00000000000E+00 0.  1.
         13    1    5    5    0    0 -0.26213209839E+02  0.97619694846E+01 -0.12264649583E+02  0.30542593990E+02  0.00000000000E+00 0.  1.
        -13    1    5    5    0    0 -0.32276001040E+03 -0.19056466165E+03 -0.22519509053E+03  0.43726621569E+03  0.00000000000E+00 0. -1.
          3    1    6    6  503    0  0.42042709505E+03  0.90976815093E+02 -0.29002169625E+03  0.51879505340E+03  0.00000000000E+00 0. -1.
         -3    1    6    6    0  503  0.67028611759E+02  0.54436649552E+02 -0.48102437910E+02  0.98843452700E+02  0.00000000000E+00 0.  1.
<mgrwt>
<rscale>  0 0.18165417E+04</rscale>
<asrwt>0</asrwt>
<pdfrwt beam="1">  1        1 0.12922224E+00 0.18165417E+04</pdfrwt>
<pdfrwt beam="2">  1       -2 0.15110080E+00 0.18165417E+04</pdfrwt>
<totfact> 0.49535467E+00</totfact>
</mgrwt>
</event>
<event>
12    5  0.5221187E-008  0.1441750E+04  0.7818608E-02  0.8924140E-01
         -2   -1    0    0    0  501 -0.00000000000E+00  0.00000000000E+00  0.44959584466E+03  0.44959584466E+03  0.00000000000E+00 0.  1.
          1   -1    0    0  501    0  0.00000000000E+00 -0.00000000000E+00 -0.11558400989E+04  0.11558400989E+04  0.00000000000E+00 0. -1.
        -24    2    1    2    0    0  0.12346672634E+03 -0.11092944113E+03 -0.65964276992E+03  0.68486295428E+03  0.79745274508E+02 0.  0.
        254    2    1    2    0    0 -0.12346672634E+03  0.11092944113E+03 -0.46601484287E+02  0.92057298925E+03  0.90428621397E+03 0.  0.
         23    2    4    4    0    0 -0.18184805618E+02  0.24969280946E+03  0.37229885964E+03  0.45779841903E+03  0.91081092035E+02 0.  0.
         23    2    4    4    0    0 -0.10528192073E+03 -0.13876336833E+03 -0.41890034393E+03  0.46277457022E+03  0.91341389745E+02 0.  0.
          3    1    3    3  502    0  0.10656529697E+03 -0.61666736429E+02 -0.35364374843E+03  0.37446341571E+03  0.00000000000E+00 0. -1.
         -4    1    3    3    0  502  0.16901429373E+02 -0.49262704704E+02 -0.30599902149E+03  0.31039953857E+03  0.00000000000E+00 0.  1.
         13    1    5    5    0    0  0.17486190733E+02  0.21598228596E+03  0.31529740116E+03  0.38257883618E+03  0.00000000000E+00 0. -1.
        -13    1    5    5    0    0 -0.35670996352E+02  0.33710523503E+02  0.57001458479E+02  0.75219582852E+02  0.00000000000E+00 0.  1.
          4    1    6    6  503    0 -0.48178705431E+02 -0.73116260056E+02 -0.31656072881E+03  0.32844766732E+03  0.00000000000E+00 0. -1.
         -4    1    6    6    0  503 -0.57103215294E+02 -0.65647108271E+02 -0.10233961511E+03  0.13432690290E+03  0.00000000000E+00 0.  1.
<mgrwt>
<rscale>  0 0.14417502E+04</rscale>
<asrwt>0</asrwt>
<pdfrwt beam="1">  1        1 0.17782155E+00 0.14417502E+04</pdfrwt>
<pdfrwt beam="2">  1       -2 0.69168592E-01 0.14417502E+04</pdfrwt>
<totfact> 0.18729634E+01</totfact>
</mgrwt>
</event>
<event>
12    5  0.5221187E-008  0.1655869E+04  0.7818608E-02  0.8786942E-01
         -2   -1    0    0    0  501 -0.00000000000E+00  0.00000000000E+00  0.58215402390E+03  0.58215402390E+03  0.00000000000E+00 0.  1.
          1   -1    0    0  501    0  0.00000000000E+00 -0.00000000000E+00 -0.11774820708E+04  0.11774820708E+04  0.00000000000E+00 0. -1.
        -24    2    1    2    0    0 -0.22083198032E+03  0.15094022472E+03  0.34525351350E+03  0.44387625263E+03  0.79223885903E+02 0.  0.
        254    2    1    2    0    0  0.22083198032E+03 -0.15094022472E+03 -0.94058156037E+03  0.13157598420E+04  0.88032981049E+03 0.  0.
         23    2    4    4    0    0  0.22837184802E+03 -0.39879833447E+03 -0.16556867645E+03  0.49683900607E+03  0.90786556191E+02 0.  0.
         23    2    4    4    0    0 -0.75398676957E+01  0.24785810975E+03 -0.77501288392E+03  0.81892083597E+03  0.92173060940E+02 0.  0.
          1    1    3    3  502    0 -0.46803001746E+02 -0.25733192570E+01  0.55300183475E+02  0.72493125445E+02  0.00000000000E+00 0. -1.
         -2    1    3    3    0  502 -0.17402897858E+03  0.15351354398E+03  0.28995333002E+03  0.37138312719E+03  0.00000000000E+00 0.  1.
         13    1    5    5    0    0  0.36579923731E+02 -0.12619814218E+03 -0.19124339721E+02  0.13277726568E+03  0.00000000000E+00 0. -1.
        -13    1    5    5    0    0  0.19179192429E+03 -0.27260019229E+03 -0.14644433673E+03  0.36406174039E+03  0.00000000000E+00 0.  1.
          4    1    6    6  503    0  0.21831385897E+02  0.17291705763E+03 -0.41674932733E+03  0.45172659880E+03  0.00000000000E+00 0. -1.
         -4    1    6    6    0  503 -0.29371253592E+02  0.74941052121E+02 -0.35826355659E+03  0.36719423717E+03  0.00000000000E+00 0.  1.
<mgrwt>
<rscale>  0 0.16558695E+04</rscale>
<asrwt>0</asrwt>
<pdfrwt beam="1">  1        1 0.18115109E+00 0.16558695E+04</pdfrwt>
<pdfrwt beam="2">  1       -2 0.89562159E-01 0.16558695E+04</pdfrwt>
<totfact> 0.99383632E+00</totfact>
</mgrwt>
</event>
<event>
12    5  0.5221187E-008  0.1460442E+04  0.7818608E-02  0.8911193E-01
          1   -1    0    0  501    0  0.00000000000E+00  0.00000000000E+00  0.11391746738E+04  0.11391746738E+04  0.00000000000E+00 0. -1.
         -2   -1    0    0    0  501 -0.00000000000E+00 -0.00000000000E+00 -0.46807787994E+03  0.46807787994E+03  0.00000000000E+00 0.  1.
        -24    2    1    2    0    0 -0.24875322124E+03  0.48908939795E+02  0.61339398831E+03  0.66821246678E+03  0.77365796013E+02 0.  0.
        254    2    1    2    0    0  0.24875322124E+03 -0.48908939795E+02  0.57702805518E+02  0.93904008693E+03  0.90232833361E+03 0.  0.
         23    2    4    4    0    0 -0.19725259799E+03 -0.33113642616E+03 -0.24093415756E+02  0.39719387136E+03  0.92857733213E+02 0.  0.
         23    2    4    4    0    0  0.44600581922E+03  0.28222748637E+03  0.81796221274E+02  0.54184621558E+03  0.91286114368E+02 0.  0.
          3    1    3    3  502    0 -0.23154088272E+03  0.41387374778E+02  0.49152667701E+03  0.54490601884E+03  0.00000000000E+00 0. -1.
         -4    1    3    3    0  502 -0.17212338515E+02  0.75215650164E+01  0.12186731130E+03  0.12330644793E+03  0.00000000000E+00 0.  1.
         13    1    5    5    0    0 -0.18047221531E+03 -0.24251397662E+03  0.52545467312E+01  0.30234228883E+03  0.00000000000E+00 0. -1.
        -13    1    5    5    0    0 -0.16780382678E+02 -0.88622449539E+02 -0.29347962488E+02  0.94851582524E+02  0.00000000000E+00 0.  1.
          1    1    6    6  503    0  0.25495695859E+03  0.20183744323E+03  0.21072767610E+02  0.32586111421E+03  0.00000000000E+00 0. -1.
         -1    1    6    6    0  503  0.19104886064E+03  0.80390043143E+02  0.60723453664E+02  0.21598510137E+03  0.00000000000E+00 0.  1.
<mgrwt>
<rscale>  0 0.14604417E+04</rscale>
<asrwt>0</asrwt>
<pdfrwt beam="1">  1        1 0.17525764E+00 0.14604417E+04</pdfrwt>
<pdfrwt beam="2">  1       -2 0.72011982E-01 0.14604417E+04</pdfrwt>
<totfact> 0.17617039E+01</totfact>
</mgrwt>
</event>
<event>
12    5  0.5221187E-008  0.1408694E+04  0.7818608E-02  0.8947550E-01
          1   -1    0    0  501    0  0.00000000000E+00  0.00000000000E+00  0.20782182775E+04  0.20782182775E+04  0.00000000000E+00 0. -1.
         -2   -1    0    0    0  501 -0.00000000000E+00 -0.00000000000E+00 -0.23871620382E+03  0.23871620382E+03  0.00000000000E+00 0.  1.
        -24    2    1    2    0    0  0.24362871518E+03  0.12425616676E+03  0.56221437177E+02  0.29047149718E+03  0.80114261155E+02 0.  0.
        254    2    1    2    0    0 -0.24362871518E+03 -0.12425616676E+03  0.17832806365E+04  0.20264629841E+04  0.92285852202E+03 0.  0.
         23    2    4    4    0    0 -0.58032708177E+03 -0.10745855890E+03  0.94198944801E+03  0.11153135385E+04  0.90847703975E+02 0.  0.
         23    2    4    4    0    0  0.33669836660E+03 -0.16797607865E+02  0.84129118846E+03  0.91114944558E+03  0.93672294206E+02 0.  0.
          1    1    3    3  502    0  0.79737741582E+02  0.62843622216E+02  0.54961225285E+02  0.11544767027E+03  0.00000000000E+00 0. -1.
         -2    1    3    3    0  502  0.16389097359E+03  0.61412544548E+02  0.12602118921E+01  0.17502382691E+03  0.00000000000E+00 0.  1.
         13    1    5    5    0    0 -0.45216353946E+02  0.11479907491E+02  0.50289364920E+02  0.68595387339E+02  0.00000000000E+00 0.  1.
        -13    1    5    5    0    0 -0.53511072783E+03 -0.11893846639E+03  0.89170008309E+03  0.10467181512E+04  0.00000000000E+00 0. -1.
          3    1    6    6  503    0  0.15381172848E+03  0.23080608137E+02  0.29198584584E+03  0.33082698871E+03  0.00000000000E+00 0. -1.
         -3    1    6    6    0  503  0.18288663812E+03 -0.39878216002E+02  0.54930534263E+03  0.58032245687E+03  0.00000000000E+00 0.  1.
<mgrwt>
<rscale>  0 0.14086935E+04</rscale>
<asrwt>0</asrwt>
<pdfrwt beam="1">  1        1 0.31972588E+00 0.14086935E+04</pdfrwt>
<pdfrwt beam="2">  1       -2 0.36725571E-01 0.14086935E+04</pdfrwt>
<totfact> 0.15770945E+01</totfact>
</mgrwt>
</event>
<event>
12    5  0.5221187E-008  0.1606383E+04  0.7818608E-02  0.8816636E-01
         -2   -1    0    0    0  501 -0.00000000000E+00  0.00000000000E+00  0.28610240866E+03  0.28610240866E+03  0.00000000000E+00 0.  1.
          1   -1    0    0  501    0  0.00000000000E+00 -0.00000000000E+00 -0.22548443224E+04  0.22548443224E+04  0.00000000000E+00 0. -1.
        -24    2    1    2    0    0  0.20636667683E+03 -0.26381841554E+02  0.11920790447E+03  0.25479423113E+03  0.86176382274E+02 0.  0.
        254    2    1    2    0    0 -0.20636667683E+03  0.26381841554E+02 -0.20879498182E+04  0.22861525000E+04  0.90756575670E+03 0.  0.
         23    2    4    4    0    0 -0.30234399143E+03 -0.93131518490E+02 -0.20800109452E+04  0.21058597710E+04  0.90080376189E+02 0.  0.
         23    2    4    4    0    0  0.95977314606E+02  0.11951336004E+03 -0.79388730354E+01  0.18029272894E+03  0.94590455409E+02 0.  0.
          3    1    3    3  502    0  0.65952584620E+02 -0.29642468870E+02  0.27818573658E+01  0.72361302567E+02  0.00000000000E+00 0. -1.
         -4    1    3    3    0  502  0.14041409221E+03  0.32606273166E+01  0.11642604710E+03  0.18243292856E+03  0.00000000000E+00 0.  1.
         13    1    5    5    0    0 -0.28562496416E+03 -0.10726544350E+03 -0.19882584501E+04  0.20115315459E+04  0.00000000000E+00 0.  1.
        -13    1    5    5    0    0 -0.16719027268E+02  0.14133925007E+02 -0.91752495070E+02  0.94328225153E+02  0.00000000000E+00 0. -1.
          3    1    6    6  503    0  0.77797103015E+01  0.35907070313E+01  0.28819311349E+02  0.30066090135E+02  0.00000000000E+00 0. -1.
         -3    1    6    6    0  503  0.88197604304E+02  0.11592265301E+03 -0.36758184384E+02  0.15022663880E+03  0.00000000000E+00 0.  1.
<mgrwt>
<rscale>  0 0.16063828E+04</rscale>
<asrwt>0</asrwt>
<pdfrwt beam="1">  1        1 0.34689913E+00 0.16063828E+04</pdfrwt>
<pdfrwt beam="2">  1       -2 0.44015754E-01 0.16063828E+04</pdfrwt>
<totfact> 0.82462326E+00</totfact>
</mgrwt>
</event>
<event>
12    5  0.5221187E-008  0.1407769E+04  0.7818608E-02  0.8948214E-01
          1   -1    0    0  501    0  0.00000000000E+00  0.00000000000E+00  0.23104605291E+04  0.23104605291E+04  0.00000000000E+00 0. -1.
         -2   -1    0    0    0  501 -0.00000000000E+00 -0.00000000000E+00 -0.21443918745E+03  0.21443918745E+03  0.00000000000E+00 0.  1.
        -24    2    1    2    0    0  0.35898060925E+03  0.55126757602E+02  0.89613574600E+03  0.97006902550E+03  0.77901230756E+02 0.  0.
        254    2    1    2    0    0 -0.35898060925E+03 -0.55126757602E+02  0.11998855957E+04  0.15548306911E+04  0.91971027938E+03 0.  0.
         23    2    4    4    0    0  0.19423452751E+02 -0.33820503547E+03  0.11745030829E+03  0.37025736197E+03  0.92390598234E+02 0.  0.
         23    2    4    4    0    0 -0.37840406201E+03  0.28307827787E+03  0.10824352874E+04  0.11845733291E+04  0.90691097310E+02 0.  0.
          3    1    3    3  502    0  0.10227195674E+03  0.27527572970E+02  0.35558606371E+03  0.37102394682E+03  0.00000000000E+00 0. -1.
         -4    1    3    3    0  502  0.25670865252E+03  0.27599184633E+02  0.54054968229E+03  0.59904507868E+03  0.00000000000E+00 0.  1.
         13    1    5    5    0    0 -0.96160114852E+01 -0.13682953400E+03  0.38242378358E+01  0.13722031135E+03  0.00000000000E+00 0.  1.
        -13    1    5    5    0    0  0.29039464236E+02 -0.20137550147E+03  0.11362607046E+03  0.23303705062E+03  0.00000000000E+00 0. -1.
          1    1    6    6  503    0 -0.25592726057E+03  0.17521800605E+03  0.60247707107E+03  0.67762728214E+03  0.00000000000E+00 0. -1.
         -1    1    6    6    0  503 -0.12247680143E+03  0.10786027182E+03  0.47995821631E+03  0.50694604696E+03  0.00000000000E+00 0.  1.
<mgrwt>
<rscale>  0 0.14077688E+04</rscale>
<asrwt>0</asrwt>
<pdfrwt beam="1">  1        1 0.35545545E+00 0.14077688E+04</pdfrwt>
<pdfrwt beam="2">  1       -2 0.32990646E-01 0.14077688E+04</pdfrwt>
<totfact> 0.13461144E+01</totfact>
</mgrwt>
</event>
<event>
12    5  0.5221187E-008  0.1405409E+04  0.7818608E-02  0.8949912E-01
         -2   -1    0    0    0  501 -0.00000000000E+00  0.00000000000E+00  0.68371796392E+03  0.68371796392E+03  0.00000000000E+00 0.  1.
          1   -1    0    0  501    0  0.00000000000E+00 -0.00000000000E+00 -0.72221835117E+03  0.72221835117E+03  0.00000000000E+00 0. -1.
        -24    2    1    2    0    0  0.18263015706E+03 -0.85600120068E+02  0.35290716644E+03  0.41402960412E+03  0.78713976809E+02 0.  0.
        254    2    1    2    0    0 -0.18263015706E+03  0.85600120068E+02 -0.39140755369E+03  0.99190671096E+03  0.88881825777E+03 0.  0.
         23    2    4    4    0    0 -0.21342115410E+02  0.10214839033E+03  0.27111027100E+03  0.30388333108E+03  0.89188117664E+02 0.  0.
         23    2    4    4    0    0 -0.16128804165E+03 -0.16548270260E+02 -0.66251782469E+03  0.68802337988E+03  0.90325110592E+02 0.  0.
          3    1    3    3  502    0  0.86146877800E+01 -0.24025159039E+02  0.16755295457E+02  0.30531312423E+02  0.00000000000E+00 0. -1.
         -4    1    3    3    0  502  0.17401546928E+03 -0.61574961029E+02  0.33615187098E+03  0.38349829170E+03  0.00000000000E+00 0.  1.
         13    1    5    5    0    0 -0.24295326871E+02  0.11462177679E+03  0.26486699211E+03  0.28962551361E+03  0.00000000000E+00 0. -1.
        -13    1    5    5    0    0  0.29532114610E+01 -0.12473386466E+02  0.62432788889E+01  0.14257817475E+02  0.00000000000E+00 0.  1.
          1    1    6    6  503    0 -0.17152539936E+03 -0.15950339897E+02 -0.58519206623E+03  0.61002059830E+03  0.00000000000E+00 0. -1.
         -1    1    6    6    0  503  0.10237357707E+02 -0.59793036260E+00 -0.77325758462E+02  0.78002781587E+02  0.00000000000E+00 0.  1.
<mgrwt>
<rscale>  0 0.14054091E+04</rscale>
<asrwt>0</asrwt>
<pdfrwt beam="1">  1        1 0.11111052E+00 0.14054091E+04</pdfrwt>
<pdfrwt beam="2">  1       -2 0.10518738E+00 0.14054091E+04</pdfrwt>
<totfact> 0.16224360E+01</totfact>
</mgrwt>
</event>
<event>
12    5  0.5221187E-008  0.1589225E+04  0.7818608E-02  0.8827195E-01
          1   -1    0    0  501    0  0.00000000000E+00  0.00000000000E+00  0.23921902498E+04  0.23921902498E+04  0.00000000000E+00 0. -1.
         -2   -1    0    0    0  501 -0.00000000000E+00 -0.00000000000E+00 -0.26394585224E+03  0.26394585224E+03  0.00000000000E+00 0.  1.
        -24    2    1    2    0    0 -0.36312513336E+03 -0.23385374231E+03  0.20207962020E+03  0.48344114125E+03  0.79572161435E+02 0.  0.
        254    2    1    2    0    0  0.36312513336E+03  0.23385374231E+03  0.19261647774E+04  0.21726949608E+04  0.90771427655E+03 0.  0.
         23    2    4    4    0    0  0.18893752889E+03 -0.47023958344E+02  0.17910468547E+04  0.18038550431E+04  0.90197219722E+02 0.  0.
         23    2    4    4    0    0  0.17418760447E+03  0.28087770066E+03  0.13511792270E+03  0.36883991770E+03  0.92479335943E+02 0.  0.
          3    1    3    3  502    0 -0.65089646793E+01 -0.23797087853E+00  0.17874755131E+02  0.19024461157E+02  0.00000000000E+00 0. -1.
         -4    1    3    3    0  502 -0.35661616868E+03 -0.23361577143E+03  0.18420486507E+03  0.46441668009E+03  0.00000000000E+00 0.  1.
         13    1    5    5    0    0  0.14135624208E+03  0.30645387737E+01  0.10262189387E+04  0.10359132631E+04  0.00000000000E+00 0. -1.
        -13    1    5    5    0    0  0.47581286814E+02 -0.50088497118E+02  0.76482791594E+03  0.76794177996E+03  0.00000000000E+00 0.  1.
          3    1    6    6  503    0  0.62323448996E+02  0.37540011523E+02  0.10723885598E+02  0.73542276836E+02  0.00000000000E+00 0. -1.
         -3    1    6    6    0  503  0.11186415548E+03  0.24333768913E+03  0.12439403711E+03  0.29529764087E+03  0.00000000000E+00 0.  1.
<mgrwt>
<rscale>  0 0.15892246E+04</rscale>
<asrwt>0</asrwt>
<pdfrwt beam="1">  1        1 0.36802925E+00 0.15892246E+04</pdfrwt>
<pdfrwt beam="2">  1       -2 0.40607056E-01 0.15892246E+04</pdfrwt>
<totfact> 0.78013168E+00</totfact>
</mgrwt>
</event>
<event>
12    5  0.5221187E-008  0.1473175E+04  0.7818608E-02  0.8902490E-01
          1   -1    0    0  501    0  0.00000000000E+00  0.00000000000E+00  0.73739851509E+03  0.73739851509E+03  0.00000000000E+00 0. -1.
         -2   -1    0    0    0  501 -0.00000000000E+00 -0.00000000000E+00 -0.73577745775E+03  0.73577745775E+03  0.00000000000E+00 0.  1.
        -24    2    1    2    0    0 -0.29823931793E+03  0.35685184860E+03  0.96410802690E+02  0.48169236995E+03  0.80265582785E+02 0.  0.
        254    2    1    2    0    0  0.29823931793E+03 -0.35685184860E+03 -0.94789745358E+02  0.99148360289E+03  0.87049681583E+03 0.  0.
         23    2    4    4    0    0  0.92302617936E+01 -0.30420476799E+03  0.33596428250E+03  0.46246098983E+03  0.91500980338E+02 0.  0.
         23    2    4    4    0    0  0.28900905614E+03 -0.52647080608E+02 -0.43075402786E+03  0.52902261306E+03  0.89542967266E+02 0.  0.
          1    1    3    3  502    0 -0.28626045678E+03  0.30903603716E+03  0.74650433862E+02  0.42780954718E+03  0.00000000000E+00 0. -1.
         -2    1    3    3    0  502 -0.11978861150E+02  0.47815811436E+02  0.21760368828E+02  0.53882822767E+02  0.00000000000E+00 0.  1.
         13    1    5    5    0    0  0.16048997809E+02 -0.96499666207E+02  0.17150346455E+03  0.19744162241E+03  0.00000000000E+00 0. -1.
        -13    1    5    5    0    0 -0.68187360153E+01 -0.20770510179E+03  0.16446081795E+03  0.26501936742E+03  0.00000000000E+00 0.  1.
          4    1    6    6  503    0  0.23162530583E+03 -0.39217507797E+01 -0.31739838759E+03  0.39294706880E+03  0.00000000000E+00 0.  1.
         -4    1    6    6    0  503  0.57383750304E+02 -0.48725329828E+02 -0.11335564027E+03  0.13607554426E+03  0.00000000000E+00 0. -1.
<mgrwt>
<rscale>  0 0.14731751E+04</rscale>
<asrwt>0</asrwt>
<pdfrwt beam="1">  1        1 0.11344592E+00 0.14731751E+04</pdfrwt>
<pdfrwt beam="2">  1       -2 0.11319653E+00 0.14731751E+04</pdfrwt>
<totfact> 0.13083192E+01</totfact>
</mgrwt>
</event>
<event>
12    5  0.5221187E-008  0.2110050E+04  0.7818608E-02  0.8556829E-01
         -2   -1    0    0    0  501 -0.00000000000E+00  0.00000000000E+00  0.37133340767E+03  0.37133340767E+03  0.00000000000E+00 0.  1.
          1   -1    0    0  501    0  0.00000000000E+00 -0.00000000000E+00 -0.29975157591E+04  0.29975157591E+04  0.00000000000E+00 0. -1.
        -24    2    1    2    0    0 -0.32415238739E+03 -0.63460857811E+03 -0.18659156497E+04  0.19986627628E+04  0.72172086376E+02 0.  0.
        254    2    1    2    0    0  0.32415238739E+03  0.63460857811E+03 -0.76026670171E+03  0.13701864039E+04  0.88972046515E+03 0.  0.
         23    2    4    4    0    0  0.45547219632E+02  0.79722701854E+03 -0.51163620088E+03  0.95275479293E+03  0.91239383471E+02 0.  0.
         23    2    4    4    0    0  0.27860516775E+03 -0.16261844043E+03 -0.24863050083E+03  0.41743161099E+03  0.91468176121E+02 0.  0.
          1    1    3    3  502    0 -0.30752701399E+03 -0.61586579020E+03 -0.18269835775E+04  0.19523658797E+04  0.00000000000E+00 0. -1.
         -2    1    3    3    0  502 -0.16625373400E+02 -0.18742787907E+02 -0.38932072256E+02  0.46296883149E+02  0.00000000000E+00 0.  1.
         13    1    5    5    0    0  0.46684381634E+02  0.29207012207E+03 -0.22767293787E+03  0.37325507944E+03  0.00000000000E+00 0. -1.
        -13    1    5    5    0    0 -0.11371620018E+01  0.50515689648E+03 -0.28396326301E+03  0.57949971349E+03  0.00000000000E+00 0.  1.
          2    1    6    6  503    0  0.11902561904E+03 -0.11694087076E+03 -0.99397004142E+02  0.19422159940E+03  0.00000000000E+00 0. -1.
         -2    1    6    6    0  503  0.15957954871E+03 -0.45677569669E+02 -0.14923349669E+03  0.22321001158E+03  0.00000000000E+00 0.  1.
<mgrwt>
<rscale>  0 0.21100500E+04</rscale>
<asrwt>0</asrwt>
<pdfrwt beam="1">  1        1 0.46115626E+00 0.21100500E+04</pdfrwt>
<pdfrwt beam="2">  1       -2 0.57128217E-01 0.21100500E+04</pdfrwt>
<totfact> 0.13937102E+00</totfact>
</mgrwt>
</event>
<event>
12    5  0.5221187E-008  0.1818608E+04  0.7818608E-02  0.8696466E-01
         -2   -1    0    0    0  501 -0.00000000000E+00  0.00000000000E+00  0.84881926840E+03  0.84881926840E+03  0.00000000000E+00 0.  1.
          1   -1    0    0  501    0  0.00000000000E+00 -0.00000000000E+00 -0.97409856211E+03  0.97409856211E+03  0.00000000000E+00 0. -1.
        -24    2    1    2    0    0 -0.20694784886E+03  0.61705256071E+03  0.17464487900E+03  0.67876210074E+03  0.81460915801E+02 0.  0.
        254    2    1    2    0    0  0.20694784886E+03 -0.61705256071E+03 -0.29992417272E+03  0.11441557298E+04  0.89193976801E+03 0.  0.
         23    2    4    4    0    0  0.32756730546E+03 -0.12538961354E+03  0.21072717772E+03  0.41958013787E+03  0.92836705424E+02 0.  0.
         23    2    4    4    0    0 -0.12061945661E+03 -0.49166294717E+03 -0.51065135044E+03  0.72457559190E+03  0.89238331090E+02 0.  0.
          3    1    3    3  502    0 -0.26376073340E+02  0.19552017429E+03  0.49185475225E+02  0.20332989641E+03  0.00000000000E+00 0. -1.
         -4    1    3    3    0  502 -0.18057177552E+03  0.42153238642E+03  0.12545940378E+03  0.47543220433E+03  0.00000000000E+00 0.  1.
         13    1    5    5    0    0  0.42395737971E+01 -0.19398341994E+01  0.27663563837E+02  0.28053693283E+02  0.00000000000E+00 0.  1.
        -13    1    5    5    0    0  0.32332773167E+03 -0.12344977934E+03  0.18306361389E+03  0.39152644459E+03  0.00000000000E+00 0. -1.
          1    1    6    6  503    0 -0.21622603362E+02 -0.72308632002E+02 -0.36320121359E+02  0.83756948689E+02  0.00000000000E+00 0.  1.
         -1    1    6    6    0  503 -0.98996853243E+02 -0.41935431517E+03 -0.47433122908E+03  0.64081864321E+03  0.00000000000E+00 0. -1.
<mgrwt>
<rscale>  0 0.18186079E+04</rscale>
<asrwt>0</asrwt>
<pdfrwt beam="1">  1        1 0.14986132E+00 0.18186079E+04</pdfrwt>
<pdfrwt beam="2">  1       -2 0.13058758E+00 0.18186079E+04</pdfrwt>
<totfact> 0.56225752E+00</totfact>
</mgrwt>
</event>
<event>
12    5  0.5221187E-008  0.2033164E+04  0.7818608E-02  0.8591270E-01
         -4   -1    0    0    0  501 -0.00000000000E+00  0.00000000000E+00  0.27999446385E+03  0.27999446385E+03  0.00000000000E+00 0.  1.
          1   -1    0    0  501    0  0.00000000000E+00 -0.00000000000E+00 -0.36909274708E+04  0.36909274708E+04  0.00000000000E+00 0. -1.
        -24    2    1    2    0    0 -0.97382363591E+02 -0.33766776042E+03 -0.28360626549E+04  0.28588689634E+04  0.79859414403E+02 0.  0.
        254    2    1    2    0    0  0.97382363591E+02  0.33766776042E+03 -0.57487035204E+03  0.11120529713E+04  0.88469375949E+03 0.  0.
         23    2    4    4    0    0 -0.10091189208E+03  0.79905259633E+01  0.19938436993E+03  0.24208298670E+03  0.92752288427E+02 0.  0.
         23    2    4    4    0    0  0.19829425567E+03  0.32967723445E+03 -0.77425472196E+03  0.86996998456E+03  0.96797256199E+02 0.  0.
          1    1    3    3  502    0 -0.10776143006E+03 -0.32432974486E+03 -0.26296780804E+04  0.26517935658E+04  0.00000000000E+00 0. -1.
         -2    1    3    3    0  502  0.10379066464E+02 -0.13338015562E+02 -0.20638457451E+03  0.20707539756E+03  0.00000000000E+00 0.  1.
         13    1    5    5    0    0 -0.11538616068E+03  0.21259208624E+02  0.17636306882E+03  0.21182505062E+03  0.00000000000E+00 0. -1.
        -13    1    5    5    0    0  0.14474268595E+02 -0.13268682661E+02  0.23021301110E+02  0.30257936079E+02  0.00000000000E+00 0.  1.
          3    1    6    6  503    0  0.12699885913E+03  0.16301434129E+03 -0.32046248324E+03  0.38131166891E+03  0.00000000000E+00 0. -1.
         -3    1    6    6    0  503  0.71295396546E+02  0.16666289316E+03 -0.45379223873E+03  0.48865831565E+03  0.00000000000E+00 0.  1.
<mgrwt>
<rscale>  0 0.20331643E+04</rscale>
<asrwt>0</asrwt>
<pdfrwt beam="1">  1        1 0.56783501E+00 0.20331643E+04</pdfrwt>
<pdfrwt beam="2">  1       -4 0.43076070E-01 0.20331643E+04</pdfrwt>
<totfact> 0.42824566E-01</totfact>
</mgrwt>
</event>
<event>
12    5  0.5221187E-008  0.1664161E+04  0.7818608E-02  0.8782073E-01
          1   -1    0    0  501    0  0.00000000000E+00  0.00000000000E+00  0.12307203400E+04  0.12307203400E+04  0.00000000000E+00 0. -1.
         -2   -1    0    0    0  501 -0.00000000000E+00 -0.00000000000E+00 -0.56256292751E+03  0.56256292751E+03  0.00000000000E+00 0.  1.
        -24    2    1    2    0    0 -0.48756265153E+03 -0.15943797510E+03 -0.40852150036E+02  0.52185097200E+03  0.86727917943E+02 0.  0.
        254    2    1    2    0    0  0.48756265153E+03  0.15943797510E+03  0.70900956257E+03  0.12714322956E+04  0.92233817838E+03 0.  0.
         23    2    4    4    0    0  0.15744556910E+02 -0.32077781633E+03  0.40963045919E+03  0.52897747392E+03  0.94200617292E+02 0.  0.
         23    2    4    4    0    0  0.47181809462E+03  0.48021579144E+03  0.29937910338E+03  0.74245482163E+03  0.91606734875E+02 0.  0.
          3    1    3    3  502    0 -0.29057811412E+03 -0.10993103346E+03  0.15513446170E+02  0.31106452632E+03  0.00000000000E+00 0. -1.
         -4    1    3    3    0  502 -0.19698453741E+03 -0.49506941640E+02 -0.56365596206E+02  0.21078644569E+03  0.00000000000E+00 0.  1.
         13    1    5    5    0    0  0.20462504887E+02 -0.22014961012E+02  0.13911192112E+02  0.33119388288E+02  0.00000000000E+00 0. -1.
        -13    1    5    5    0    0 -0.47179479771E+01 -0.29876285532E+03  0.39571926708E+03  0.49585808563E+03  0.00000000000E+00 0.  1.
          2    1    6    6  503    0  0.43863374051E+03  0.42546463072E+03  0.24467540345E+03  0.65824445562E+03  0.00000000000E+00 0.  1.
         -2    1    6    6    0  503  0.33184354108E+02  0.54751160715E+02  0.54703699933E+02  0.84210366010E+02  0.00000000000E+00 0. -1.
<mgrwt>
<rscale>  0 0.16641606E+04</rscale>
<asrwt>0</asrwt>
<pdfrwt beam="1">  1        1 0.18934159E+00 0.16641606E+04</pdfrwt>
<pdfrwt beam="2">  1       -2 0.86548143E-01 0.16641606E+04</pdfrwt>
<totfact> 0.98236833E+00</totfact>
</mgrwt>
</event>
<event>
12    5  0.5221187E-008  0.1682131E+04  0.7818608E-02  0.8771622E-01
          1   -1    0    0  501    0  0.00000000000E+00  0.00000000000E+00  0.28690871376E+04  0.28690871376E+04  0.00000000000E+00 0. -1.
         -2   -1    0    0    0  501 -0.00000000000E+00 -0.00000000000E+00 -0.24655618979E+03  0.24655618979E+03  0.00000000000E+00 0.  1.
        -24    2    1    2    0    0  0.12658278313E+03 -0.12402373049E+03  0.19861373237E+04  0.19956648091E+04  0.80817541375E+02 0.  0.
        254    2    1    2    0    0 -0.12658278313E+03  0.12402373049E+03  0.63639362411E+03  0.11199785183E+04  0.90440585464E+03 0.  0.
         23    2    4    4    0    0 -0.24564406312E+03 -0.21914673559E+03 -0.39591818022E+02  0.34698738014E+03  0.10230558370E+03 0.  0.
         23    2    4    4    0    0  0.11906128000E+03  0.34317046608E+03  0.67598544214E+03  0.77299113815E+03  0.92830083986E+02 0.  0.
          3    1    3    3  502    0  0.86173871967E+02 -0.10331139803E+03  0.10732837755E+04  0.10816825985E+04  0.00000000000E+00 0. -1.
         -2    1    3    3    0  502  0.40408911158E+02 -0.20712332462E+02  0.91285354823E+03  0.91398221062E+03  0.00000000000E+00 0.  1.
         13    1    5    5    0    0  0.33975840123E+01 -0.16665641133E+02  0.13427644840E+02  0.21669998095E+02  0.00000000000E+00 0. -1.
        -13    1    5    5    0    0 -0.24904164713E+03 -0.20248109446E+03 -0.53019462862E+02  0.32531738205E+03  0.00000000000E+00 0.  1.
          3    1    6    6  503    0  0.48132508470E+02  0.56455890270E+02  0.19406536567E+03  0.20776277836E+03  0.00000000000E+00 0. -1.
         -3    1    6    6    0  503  0.70928771527E+02  0.28671457581E+03  0.48192007646E+03  0.56522835979E+03  0.00000000000E+00 0.  1.
<mgrwt>
<rscale>  0 0.16821310E+04</rscale>
<asrwt>0</asrwt>
<pdfrwt beam="1">  1        1 0.44139800E+00 0.16821310E+04</pdfrwt>
<pdfrwt beam="2">  1       -2 0.37931723E-01 0.16821310E+04</pdfrwt>
<totfact> 0.40968283E+00</totfact>
</mgrwt>
</event>
<event>
12    5  0.5221187E-008  0.1097033E+04  0.7818608E-02  0.9208088E-01
         -2   -1    0    0    0  501 -0.00000000000E+00  0.00000000000E+00  0.17640579366E+03  0.17640579366E+03  0.00000000000E+00 0.  1.
          1   -1    0    0  501    0  0.00000000000E+00 -0.00000000000E+00 -0.17055587213E+04  0.17055587213E+04  0.00000000000E+00 0. -1.
        -24    2    1    2    0    0  0.28341863532E+02  0.99474148020E+02 -0.48136471451E+03  0.49878304427E+03  0.79838396315E+02 0.  0.
        254    2    1    2    0    0 -0.28341863532E+02 -0.99474148020E+02 -0.10477882131E+04  0.13831814707E+04  0.89701308460E+03 0.  0.
         23    2    4    4    0    0  0.14349703140E+02  0.39042264732E+03 -0.46599550959E+03  0.61488093073E+03  0.91054854326E+02 0.  0.
         23    2    4    4    0    0 -0.42691566673E+02 -0.48989679534E+03 -0.58179270355E+03  0.76830053997E+03  0.99907606659E+02 0.  0.
          3    1    3    3  502    0  0.16906139641E+02  0.10506071181E+03 -0.46941429312E+03  0.48132457792E+03  0.00000000000E+00 0. -1.
         -4    1    3    3    0  502  0.11435723892E+02 -0.55865637936E+01 -0.11950421384E+02  0.17458466347E+02  0.00000000000E+00 0.  1.
         13    1    5    5    0    0  0.38208353421E+02  0.10751308413E+03 -0.10034536909E+03  0.15194780231E+03  0.00000000000E+00 0. -1.
        -13    1    5    5    0    0 -0.23858650281E+02  0.28290956319E+03 -0.36565014049E+03  0.46293312841E+03  0.00000000000E+00 0.  1.
          4    1    6    6  503    0 -0.71734130571E+02 -0.29035570334E+03 -0.32266130184E+03  0.43995742482E+03  0.00000000000E+00 0. -1.
         -4    1    6    6    0  503  0.29042563898E+02 -0.19954109200E+03 -0.25913140172E+03  0.32834311515E+03  0.00000000000E+00 0.  1.
<mgrwt>
<rscale>  0 0.10970332E+04</rscale>
<asrwt>0</asrwt>
<pdfrwt beam="1">  1        1 0.26239364E+00 0.10970332E+04</pdfrwt>
<pdfrwt beam="2">  1       -2 0.27139354E-01 0.10970332E+04</pdfrwt>
<totfact> 0.51070729E+01</totfact>
</mgrwt>
</event>
<event>
12    5  0.5221187E-008  0.2176783E+04  0.7818608E-02  0.8528154E-01
         -2   -1    0    0    0  501 -0.00000000000E+00  0.00000000000E+00  0.87021023142E+03  0.87021023142E+03  0.00000000000E+00 0.  1.
          1   -1    0    0  501    0  0.00000000000E+00 -0.00000000000E+00 -0.13612757952E+04  0.13612757952E+04  0.00000000000E+00 0. -1.
        -24    2    1    2    0    0 -0.26466704466E+03  0.83359913453E+03  0.26002773355E+02  0.87863075006E+03  0.79872956076E+02 0.  0.
        254    2    1    2    0    0  0.26466704466E+03 -0.83359913453E+03 -0.51706833716E+03  0.13528552766E+04  0.89326455905E+03 0.  0.
         23    2    4    4    0    0  0.66351672217E+02 -0.97161069568E+03 -0.32254092785E+03  0.10298773365E+04  0.90469827232E+02 0.  0.
         23    2    4    4    0    0  0.19831537244E+03  0.13801156116E+03 -0.19452740931E+03  0.32297794012E+03  0.89986992786E+02 0.  0.
          1    1    3    3  502    0 -0.13479202312E+03  0.39920875300E+03  0.51712768669E+02  0.42451234189E+03  0.00000000000E+00 0. -1.
         -2    1    3    3    0  502 -0.12987502154E+03  0.43439038152E+03 -0.25709995314E+02  0.45411840817E+03  0.00000000000E+00 0.  1.
         13    1    5    5    0    0 -0.10300024189E+02 -0.13340342665E+03 -0.19152488347E+02  0.13516427986E+03  0.00000000000E+00 0.  1.
        -13    1    5    5    0    0  0.76651696406E+02 -0.83820726903E+03 -0.30338843950E+03  0.89471305659E+03  0.00000000000E+00 0. -1.
          1    1    6    6  503    0  0.90337987059E+02  0.48823292570E+02 -0.13785459641E+03  0.17189693294E+03  0.00000000000E+00 0.  1.
         -1    1    6    6    0  503  0.10797738539E+03  0.89188268588E+02 -0.56672812899E+02  0.15108100718E+03  0.00000000000E+00 0. -1.
<mgrwt>
<rscale>  0 0.21767831E+04</rscale>
<asrwt>0</asrwt>
<pdfrwt beam="1">  1        1 0.20942705E+00 0.21767831E+04</pdfrwt>
<pdfrwt beam="2">  1       -2 0.13387850E+00 0.21767831E+04</pdfrwt>
<totfact> 0.26437653E+00</totfact>
</mgrwt>
</event>
<event>
12    5  0.5221187E-008  0.1088274E+04  0.7818608E-02  0.9216697E-01
          1   -1    0    0  501    0  0.00000000000E+00  0.00000000000E+00  0.63864720319E+03  0.63864720319E+03  0.00000000000E+00 0. -1.
         -2   -1    0    0    0  501 -0.00000000000E+00 -0.00000000000E+00 -0.46361300700E+03  0.46361300700E+03  0.00000000000E+00 0.  1.
        -24    2    1    2    0    0  0.29255185381E+02  0.52113379404E+02 -0.11611606030E+03  0.15260978354E+03  0.78962879804E+02 0.  0.
        254    2    1    2    0    0 -0.29255185381E+02 -0.52113379404E+02  0.29115025648E+03  0.94965042665E+03  0.90194001508E+03 0.  0.
         23    2    4    4    0    0 -0.28425884830E+03 -0.36970700955E+02 -0.21878954948E+03  0.37221362130E+03  0.92218150910E+02 0.  0.
         23    2    4    4    0    0  0.25500366292E+03 -0.15142678449E+02  0.50993980596E+03  0.57743680535E+03  0.90213578008E+02 0.  0.
          3    1    3    3  502    0  0.56036026122E+02  0.37971781796E+02 -0.90036125577E+02  0.11264278204E+03  0.00000000000E+00 0. -1.
         -4    1    3    3    0  502 -0.26780840740E+02  0.14141597608E+02 -0.26079934723E+02  0.39967001499E+02  0.00000000000E+00 0.  1.
         13    1    5    5    0    0 -0.86649418494E+01  0.59459897521E+01 -0.38957681033E+02  0.40350178722E+02  0.00000000000E+00 0.  1.
        -13    1    5    5    0    0 -0.27559390645E+03 -0.42916690707E+02 -0.17983186844E+03  0.33186344258E+03  0.00000000000E+00 0. -1.
          3    1    6    6  503    0  0.26215017619E+03 -0.18505290345E+02  0.49079789754E+03  0.55672950063E+03  0.00000000000E+00 0. -1.
         -3    1    6    6    0  503 -0.71465132680E+01  0.33626118962E+01  0.19141908420E+02  0.20707304717E+02  0.00000000000E+00 0.  1.
<mgrwt>
<rscale>  0 0.10882741E+04</rscale>
<asrwt>0</asrwt>
<pdfrwt beam="1">  1        1 0.98253415E-01 0.10882741E+04</pdfrwt>
<pdfrwt beam="2">  1       -2 0.71325078E-01 0.10882741E+04</pdfrwt>
<totfact> 0.48713606E+01</totfact>
</mgrwt>
</event>
<event>
12    5  0.5221187E-008  0.3427635E+04  0.7818608E-02  0.8131157E-01
          1   -1    0    0  501    0  0.00000000000E+00  0.00000000000E+00  0.16851588944E+04  0.16851588944E+04  0.00000000000E+00 0. -1.
         -2   -1    0    0    0  501 -0.00000000000E+00 -0.00000000000E+00 -0.17429631957E+04  0.17429631957E+04  0.00000000000E+00 0.  1.
        -24    2    1    2    0    0 -0.14863658385E+04 -0.53697456080E+03 -0.21680056016E+03  0.15984171614E+04  0.10153745261E+03 0.  0.
        254    2    1    2    0    0  0.14863658385E+04  0.53697456080E+03  0.15899625887E+03  0.18297049287E+04  0.90824844138E+03 0.  0.
         23    2    4    4    0    0  0.53389573474E+03 -0.58653609761E+02  0.40165083468E+03  0.67677243144E+03  0.90623558998E+02 0.  0.
         23    2    4    4    0    0  0.95247010371E+03  0.59562817056E+03 -0.24265457581E+03  0.11529324973E+04  0.91650881858E+02 0.  0.
          3    1    3    3  502    0 -0.12155790420E+03 -0.68431468751E+02 -0.36574710469E+02  0.14421130134E+03  0.00000000000E+00 0. -1.
         -4    1    3    3    0  502 -0.13648079343E+04 -0.46854309205E+03 -0.18022584969E+03  0.14542058601E+04  0.00000000000E+00 0.  1.
         13    1    5    5    0    0  0.19752125601E+03  0.13621529070E+02  0.17939962298E+03  0.26717862443E+03  0.00000000000E+00 0. -1.
        -13    1    5    5    0    0  0.33637447874E+03 -0.72275138831E+02  0.22225121171E+03  0.40959380701E+03  0.00000000000E+00 0.  1.
          3    1    6    6  503    0  0.24237231500E+02  0.29209792081E+02  0.31733038355E+01  0.38088386700E+02  0.00000000000E+00 0. -1.
         -3    1    6    6    0  503  0.92823287221E+03  0.56641837848E+03 -0.24582787964E+03  0.11148441106E+04  0.00000000000E+00 0.  1.
<mgrwt>
<rscale>  0 0.34276347E+04</rscale>
<asrwt>0</asrwt>
<pdfrwt beam="1">  1        1 0.25925522E+00 0.34276347E+04</pdfrwt>
<pdfrwt beam="2">  1       -2 0.26814818E+00 0.34276347E+04</pdfrwt>
<totfact> 0.17502600E-01</totfact>
</mgrwt>
</event>
<event>
12    5  0.5221187E-008  0.2096826E+04  0.7818608E-02  0.8562643E-01
          1   -1    0    0  501    0  0.00000000000E+00  0.00000000000E+00  0.13965858242E+04  0.13965858242E+04  0.00000000000E+00 0. -1.
         -2   -1    0    0    0  501 -0.00000000000E+00 -0.00000000000E+00 -0.78704032984E+03  0.78704032984E+03  0.00000000000E+00 0.  1.
        -24    2    1    2    0    0  0.62136228276E+03  0.41448737922E+03 -0.14642795361E+03  0.76528960565E+03  0.79600005965E+02 0.  0.
        254    2    1    2    0    0 -0.62136228276E+03 -0.41448737922E+03  0.75597344796E+03  0.14183365484E+04  0.93930391062E+03 0.  0.
         23    2    4    4    0    0 -0.83008572613E+03 -0.14380434443E+03  0.52039086866E+03  0.99434749355E+03  0.90544351269E+02 0.  0.
         23    2    4    4    0    0  0.20872344336E+03 -0.27068303479E+03  0.23558257930E+03  0.42398905484E+03  0.86213605794E+02 0.  0.
          1    1    3    3  502    0  0.34256488363E+03  0.22209440085E+03 -0.11995986458E+03  0.42551967228E+03  0.00000000000E+00 0. -1.
         -2    1    3    3    0  502  0.27879739913E+03  0.19239297837E+03 -0.26468089031E+02  0.33976993338E+03  0.00000000000E+00 0.  1.
         13    1    5    5    0    0 -0.60760653194E+03 -0.13579391900E+03  0.41343029410E+03  0.74736222421E+03  0.00000000000E+00 0.  1.
        -13    1    5    5    0    0 -0.22247919419E+03 -0.80104254355E+01  0.10696057456E+03  0.24698526934E+03  0.00000000000E+00 0. -1.
          2    1    6    6  503    0  0.78911190432E+02 -0.56682152006E+02  0.35113010814E+02  0.10330907927E+03  0.00000000000E+00 0. -1.
         -2    1    6    6    0  503  0.12981225293E+03 -0.21400088278E+03  0.20046956848E+03  0.32067997556E+03  0.00000000000E+00 0.  1.
<mgrwt>
<rscale>  0 0.20968256E+04</rscale>
<asrwt>0</asrwt>
<pdfrwt beam="1">  1        1 0.21485936E+00 0.20968256E+04</pdfrwt>
<pdfrwt beam="2">  1       -2 0.12108313E+00 0.20968256E+04</pdfrwt>
<totfact> 0.32388099E+00</totfact>
</mgrwt>
</event>
<event>
12    5  0.5221187E-008  0.1529291E+04  0.7818608E-02  0.8865205E-01
         -2   -1    0    0    0  501 -0.00000000000E+00  0.00000000000E+00  0.69134819501E+03  0.69134819501E+03  0.00000000000E+00 0.  1.
          1   -1    0    0  501    0  0.00000000000E+00 -0.00000000000E+00 -0.84571400757E+03  0.84571400757E+03  0.00000000000E+00 0. -1.
        -24    2    1    2    0    0 -0.13296141730E+03 -0.23655802291E+03  0.37028296461E+03  0.46488638815E+03  0.73290131070E+02 0.  0.
        254    2    1    2    0    0  0.13296141730E+03  0.23655802291E+03 -0.52464877717E+03  0.10721758144E+04  0.89479953116E+03 0.  0.
         23    2    4    4    0    0 -0.21696517425E+03  0.45070790232E+03 -0.22452724493E+03  0.55622420996E+03  0.93602286231E+02 0.  0.
         23    2    4    4    0    0  0.34992659154E+03 -0.21414987941E+03 -0.30012153224E+03  0.51595160446E+03  0.88455263887E+02 0.  0.
          1    1    3    3  502    0 -0.21938973428E+02 -0.80556885929E+02  0.71020410745E+02  0.10961126387E+03  0.00000000000E+00 0. -1.
         -2    1    3    3    0  502 -0.11102244387E+03 -0.15600113698E+03  0.29926255387E+03  0.35527512428E+03  0.00000000000E+00 0.  1.
         13    1    5    5    0    0 -0.36530500188E+02  0.16279267849E+03 -0.49601293911E+02  0.17405809941E+03  0.00000000000E+00 0. -1.
        -13    1    5    5    0    0 -0.18043467406E+03  0.28791522383E+03 -0.17492595102E+03  0.38216611055E+03  0.00000000000E+00 0.  1.
          3    1    6    6  503    0  0.15585992505E+03 -0.14580299986E+03 -0.16545808893E+03  0.27005038455E+03  0.00000000000E+00 0. -1.
         -3    1    6    6    0  503  0.19406666649E+03 -0.68346879553E+02 -0.13466344331E+03  0.24590121991E+03  0.00000000000E+00 0.  1.
<mgrwt>
<rscale>  0 0.15292911E+04</rscale>
<asrwt>0</asrwt>
<pdfrwt beam="1">  1        1 0.13010985E+00 0.15292911E+04</pdfrwt>
<pdfrwt beam="2">  1       -2 0.10636126E+00 0.15292911E+04</pdfrwt>
<totfact> 0.12169797E+01</totfact>
</mgrwt>
</event>
<event>
12    5  0.5221187E-008  0.1863609E+04  0.7818608E-02  0.8673186E-01
          1   -1    0    0  501    0  0.00000000000E+00  0.00000000000E+00  0.19741115905E+04  0.19741115905E+04  0.00000000000E+00 0. -1.
         -2   -1    0    0    0  501 -0.00000000000E+00 -0.00000000000E+00 -0.43982286438E+03  0.43982286438E+03  0.00000000000E+00 0.  1.
        -24    2    1    2    0    0 -0.52805141115E+03 -0.47958766886E+03  0.65151028642E+03  0.96914823646E+03  0.77071564047E+02 0.  0.
        254    2    1    2    0    0  0.52805141115E+03  0.47958766886E+03  0.88277843968E+03  0.14447862184E+04  0.89401723606E+03 0.  0.
         23    2    4    4    0    0  0.38410228423E+03 -0.85546669986E+02  0.73186736780E+03  0.83588756265E+03  0.90693857814E+02 0.  0.
         23    2    4    4    0    0  0.14394912692E+03  0.56513433884E+03  0.15091107188E+03  0.60889865575E+03  0.88798926102E+02 0.  0.
          3    1    3    3  502    0 -0.33308465230E+03 -0.32352381870E+03  0.37772604365E+03  0.59857331290E+03  0.00000000000E+00 0. -1.
         -4    1    3    3    0  502 -0.19496675885E+03 -0.15606385015E+03  0.27378424277E+03  0.37057492356E+03  0.00000000000E+00 0.  1.
         13    1    5    5    0    0  0.10816777707E+03 -0.61106292675E+02  0.18471309546E+03  0.22260542365E+03  0.00000000000E+00 0.  1.
        -13    1    5    5    0    0  0.27593450715E+03 -0.24440377311E+02  0.54715427234E+03  0.61328213900E+03  0.00000000000E+00 0. -1.
          4    1    6    6  503    0  0.12891882888E+03  0.55803851231E+03  0.15088287373E+03  0.59227754241E+03  0.00000000000E+00 0. -1.
         -4    1    6    6    0  503  0.15030298041E+02  0.70958265318E+01  0.28198147299E-01  0.16621113336E+02  0.00000000000E+00 0.  1.
<mgrwt>
<rscale>  0 0.18636088E+04</rscale>
<asrwt>0</asrwt>
<pdfrwt beam="1">  1        1 0.30370947E+00 0.18636088E+04</pdfrwt>
<pdfrwt beam="2">  1       -2 0.67665057E-01 0.18636088E+04</pdfrwt>
<totfact> 0.51185495E+00</totfact>
</mgrwt>
</event>
<event>
12    5  0.5221187E-008  0.1924743E+04  0.7818608E-02  0.8642637E-01
          1   -1    0    0  501    0  0.00000000000E+00  0.00000000000E+00  0.10641379742E+04  0.10641379742E+04  0.00000000000E+00 0. -1.
         -2   -1    0    0    0  501 -0.00000000000E+00 -0.00000000000E+00 -0.87033724462E+03  0.87033724462E+03  0.00000000000E+00 0.  1.
        -24    2    1    2    0    0 -0.17434712916E+03  0.16077442204E+03  0.78859151675E+03  0.82744460966E+03  0.80886745210E+02 0.  0.
        254    2    1    2    0    0  0.17434712916E+03 -0.16077442204E+03 -0.59479078719E+03  0.11070306091E+04  0.90304781313E+03 0.  0.
         23    2    4    4    0    0 -0.29531397979E+03 -0.22185229305E+03 -0.57461856609E+02  0.38452647195E+03  0.90166269058E+02 0.  0.
         23    2    4    4    0    0  0.46966110894E+03  0.61077871010E+02 -0.53732893058E+03  0.72250413718E+03  0.94751174247E+02 0.  0.
          3    1    3    3  502    0 -0.10962873163E+03  0.11867393440E+03  0.63895483964E+03  0.65906391845E+03  0.00000000000E+00 0. -1.
         -4    1    3    3    0  502 -0.64718397526E+02  0.42100487638E+02  0.14963667710E+03  0.16838069121E+03  0.00000000000E+00 0.  1.
         13    1    5    5    0    0 -0.51252999961E+02 -0.62126319513E+01 -0.24615907596E+02  0.57196238578E+02  0.00000000000E+00 0. -1.
        -13    1    5    5    0    0 -0.24406097983E+03 -0.21563966110E+03 -0.32845949013E+02  0.32733023337E+03  0.00000000000E+00 0.  1.
          1    1    6    6  503    0  0.10080461130E+03  0.50788914689E+02 -0.10564254270E+03  0.15460087433E+03  0.00000000000E+00 0. -1.
         -1    1    6    6    0  503  0.36885649764E+03  0.10288956321E+02 -0.43168638789E+03  0.56790326286E+03  0.00000000000E+00 0.  1.
<mgrwt>
<rscale>  0 0.19247430E+04</rscale>
<asrwt>0</asrwt>
<pdfrwt beam="1">  1        1 0.16371353E+00 0.19247430E+04</pdfrwt>
<pdfrwt beam="2">  1       -2 0.13389804E+00 0.19247430E+04</pdfrwt>
<totfact> 0.44516978E+00</totfact>
</mgrwt>
</event>
<event>
12    5  0.5221187E-008  0.1832003E+04  0.7818608E-02  0.8689463E-01
          1   -1    0    0  501    0  0.00000000000E+00  0.00000000000E+00  0.52038083503E+03  0.52038083503E+03  0.00000000000E+00 0. -1.
         -2   -1    0    0    0  501 -0.00000000000E+00 -0.00000000000E+00 -0.16123937175E+04  0.16123937175E+04  0.00000000000E+00 0.  1.
        -24    2    1    2    0    0  0.67878923258E+03 -0.17279054696E+02 -0.59067828774E+03  0.90324748226E+03  0.76823086451E+02 0.  0.
        254    2    1    2    0    0 -0.67878923258E+03  0.17279054696E+02 -0.50133459473E+03  0.12295270703E+04  0.89406210782E+03 0.  0.
         23    2    4    4    0    0 -0.22122521500E+03 -0.96861310974E+02  0.23603201693E+03  0.34930248013E+03  0.89321891459E+02 0.  0.
         23    2    4    4    0    0 -0.45756401758E+03  0.11414036567E+03 -0.73736661166E+03  0.88022459014E+03  0.93236022200E+02 0.  0.
          1    1    3    3  502    0  0.65257091779E+02 -0.19706816178E+02 -0.41374570625E+02  0.79741468044E+02  0.00000000000E+00 0. -1.
         -2    1    3    3    0  502  0.61353214080E+03  0.24277614822E+01 -0.54930371712E+03  0.82350601422E+03  0.00000000000E+00 0.  1.
         13    1    5    5    0    0 -0.15468837860E+03 -0.68843327628E+02  0.10367407230E+03  0.19853516439E+03  0.00000000000E+00 0. -1.
        -13    1    5    5    0    0 -0.66536836399E+02 -0.28017983345E+02  0.13235794462E+03  0.15076731573E+03  0.00000000000E+00 0.  1.
          3    1    6    6  503    0 -0.38049159429E+03  0.57928168391E+02 -0.57539666180E+03  0.69225056477E+03  0.00000000000E+00 0. -1.
         -3    1    6    6    0  503 -0.77072423292E+02  0.56212197278E+02 -0.16196994986E+03  0.18797402537E+03  0.00000000000E+00 0.  1.
<mgrwt>
<rscale>  0 0.18320030E+04</rscale>
<asrwt>0</asrwt>
<pdfrwt beam="1">  1        1 0.80058592E-01 0.18320030E+04</pdfrwt>
<pdfrwt beam="2">  1       -2 0.24806057E+00 0.18320030E+04</pdfrwt>
<totfact> 0.22806367E+00</totfact>
</mgrwt>
</event>
<event>
12    5  0.5221187E-008  0.2633529E+04  0.7818608E-02  0.8356900E-01
          1   -1    0    0  501    0  0.00000000000E+00  0.00000000000E+00  0.11590358087E+04  0.11590358087E+04  0.00000000000E+00 0. -1.
         -2   -1    0    0    0  501 -0.00000000000E+00 -0.00000000000E+00 -0.14959582828E+04  0.14959582828E+04  0.00000000000E+00 0.  1.
        -24    2    1    2    0    0 -0.84848139156E+03  0.58452703167E+03 -0.68805181685E+03  0.12415194886E+04  0.79767257626E+02 0.  0.
        254    2    1    2    0    0  0.84848139156E+03 -0.58452703167E+03  0.35112934282E+03  0.14134746029E+04  0.90167960772E+03 0.  0.
         23    2    4    4    0    0  0.12799196048E+03 -0.58088811289E+03 -0.12698095234E+02  0.60167526594E+03  0.89660149368E+02 0.  0.
         23    2    4    4    0    0  0.72048943108E+03 -0.36389187840E+01  0.36382743805E+03  0.81179933692E+03  0.86772672697E+02 0.  0.
          3    1    3    3  502    0 -0.44617082864E+02  0.50792395240E+02 -0.58369346165E+02  0.89317031239E+02  0.00000000000E+00 0. -1.
         -4    1    3    3    0  502 -0.80386430870E+03  0.53373463643E+03 -0.62968247068E+03  0.11522024574E+04  0.00000000000E+00 0.  1.
         13    1    5    5    0    0  0.11115239421E+03 -0.56015544270E+03  0.22207913664E+01  0.57108134853E+03  0.00000000000E+00 0.  1.
        -13    1    5    5    0    0  0.16839566272E+02 -0.20732670188E+02 -0.14918886601E+02  0.30593917415E+02  0.00000000000E+00 0. -1.
          4    1    6    6  503    0  0.16009295380E+03  0.68775756554E+00  0.41837321102E+02  0.16547080801E+03  0.00000000000E+00 0. -1.
         -4    1    6    6    0  503  0.56039647727E+03 -0.43266763495E+01  0.32199011695E+03  0.64632852891E+03  0.00000000000E+00 0.  1.
<mgrwt>
<rscale>  0 0.26335294E+04</rscale>
<asrwt>0</asrwt>
<pdfrwt beam="1">  1        1 0.17831320E+00 0.26335294E+04</pdfrwt>
<pdfrwt beam="2">  1       -2 0.23014743E+00 0.26335294E+04</pdfrwt>
<totfact> 0.75301021E-01</totfact>
</mgrwt>
</event>
<event>
12    5  0.5221187E-008  0.1167688E+04  0.7818608E-02  0.9141619E-01
          1   -1    0    0  501    0  0.00000000000E+00  0.00000000000E+00  0.64620266316E+03  0.64620266316E+03  0.00000000000E+00 0. -1.
         -2   -1    0    0    0  501 -0.00000000000E+00 -0.00000000000E+00 -0.52750323132E+03  0.52750323132E+03  0.00000000000E+00 0.  1.
        -24    2    1    2    0    0  0.16257405474E+03  0.14481486477E+03  0.28872649968E+02  0.23362790459E+03  0.79666175714E+02 0.  0.
        254    2    1    2    0    0 -0.16257405474E+03 -0.14481486477E+03  0.89826781865E+02  0.94007798990E+03  0.91009675750E+03 0.  0.
         23    2    4    4    0    0 -0.33850978850E+03 -0.42610252205E+03 -0.78073302598E+02  0.55736215868E+03  0.91678236960E+02 0.  0.
         23    2    4    4    0    0  0.17593573377E+03  0.28128765728E+03  0.16790008446E+03  0.38271583122E+03  0.90580574893E+02 0.  0.
          1    1    3    3  502    0  0.56210867813E+02  0.55791355084E+01  0.36047473165E+01  0.56601966543E+02  0.00000000000E+00 0. -1.
         -2    1    3    3    0  502  0.10636318693E+03  0.13923572926E+03  0.25267902652E+02  0.17702593804E+03  0.00000000000E+00 0.  1.
         13    1    5    5    0    0 -0.31395602594E+03 -0.34201573980E+03 -0.65088025173E+02  0.46880657367E+03  0.00000000000E+00 0. -1.
        -13    1    5    5    0    0 -0.24553762563E+02 -0.84086782258E+02 -0.12985277425E+02  0.88555585009E+02  0.00000000000E+00 0.  1.
          1    1    6    6  503    0  0.13609309536E+03  0.24426961436E+03  0.17181273863E+03  0.32818987227E+03  0.00000000000E+00 0. -1.
         -1    1    6    6    0  503  0.39842638402E+02  0.37018042928E+02 -0.39126541678E+01  0.54525958952E+02  0.00000000000E+00 0.  1.
<mgrwt>
<rscale>  0 0.11676883E+04</rscale>
<asrwt>0</asrwt>
<pdfrwt beam="1">  1        1 0.99415794E-01 0.11676883E+04</pdfrwt>
<pdfrwt beam="2">  1       -2 0.81154343E-01 0.11676883E+04</pdfrwt>
<totfact> 0.35719018E+01</totfact>
</mgrwt>
</event>
<event>
12    5  0.5221187E-008  0.1704793E+04  0.7818608E-02  0.8758635E-01
          1   -1    0    0  501    0  0.00000000000E+00  0.00000000000E+00  0.23988450353E+04  0.23988450353E+04  0.00000000000E+00 0. -1.
         -2   -1    0    0    0  501 -0.00000000000E+00 -0.00000000000E+00 -0.30288748593E+03  0.30288748593E+03  0.00000000000E+00 0.  1.
        -24    2    1    2    0    0  0.45561318730E+03 -0.35063425399E+00  0.13380988255E+04  0.14157370763E+04  0.78863825132E+02 0.  0.
        254    2    1    2    0    0 -0.45561318730E+03  0.35063425399E+00  0.75785872387E+03  0.12859954450E+04  0.93372958599E+03 0.  0.
         23    2    4    4    0    0 -0.47879905711E+03  0.37409691841E+03  0.62829017146E+03  0.87917054785E+03  0.94843403586E+02 0.  0.
         23    2    4    4    0    0  0.23185869809E+02 -0.37374628415E+03  0.12956855241E+03  0.40682489712E+03  0.92166250155E+02 0.  0.
          1    1    3    3  502    0  0.31159870195E+03  0.28407566620E+02  0.97841069464E+03  0.10272235532E+04  0.00000000000E+00 0. -1.
         -2    1    3    3    0  502  0.14401448535E+03 -0.28758200874E+02  0.35968813088E+03  0.38851352307E+03  0.00000000000E+00 0.  1.
         13    1    5    5    0    0 -0.25677076270E+03  0.15590794636E+03  0.26325019234E+03  0.39942355474E+03  0.00000000000E+00 0. -1.
        -13    1    5    5    0    0 -0.22202829441E+03  0.21818897205E+03  0.36503997912E+03  0.47974699311E+03  0.00000000000E+00 0.  1.
          3    1    6    6  503    0  0.48540381311E+02 -0.33374378331E+03  0.10358403896E+03  0.35280410236E+03  0.00000000000E+00 0. -1.
         -3    1    6    6    0  503 -0.25354511502E+02 -0.40002500847E+02  0.25984513458E+02  0.54020794766E+02  0.00000000000E+00 0.  1.
<mgrwt>
<rscale>  0 0.17047934E+04</rscale>
<asrwt>0</asrwt>
<pdfrwt beam="1">  1        1 0.36905307E+00 0.17047934E+04</pdfrwt>
<pdfrwt beam="2">  1       -2 0.46598076E-01 0.17047934E+04</pdfrwt>
<totfact> 0.58115729E+00</totfact>
</mgrwt>
</event>
<event>
12    5  0.5221187E-008  0.1467421E+04  0.7818608E-02  0.8906411E-01
          1   -1    0    0  501    0  0.00000000000E+00  0.00000000000E+00  0.14224025685E+04  0.14224025685E+04  0.00000000000E+00 0. -1.
         -4   -1    0    0    0  501 -0.00000000000E+00 -0.00000000000E+00 -0.37846597541E+03  0.37846597541E+03  0.00000000000E+00 0.  1.
        -24    2    1    2    0    0 -0.11243054252E+03  0.29543974364E+03 -0.71058591008E+02  0.33377357574E+03  0.80188574603E+02 0.  0.
        254    2    1    2    0    0  0.11243054252E+03 -0.29543974364E+03  0.11149951841E+04  0.14670949682E+04  0.89957107339E+03 0.  0.
         23    2    4    4    0    0  0.35509114272E+03 -0.34997566895E+03  0.10895607594E+04  0.12016120551E+04  0.90311648778E+02 0.  0.
         23    2    4    4    0    0 -0.24266060020E+03  0.54535925309E+02  0.25434424731E+02  0.26548291316E+03  0.89308080168E+02 0.  0.
          3    1    3    3  502    0  0.51849992411E+00  0.10126444378E+03 -0.27766770569E+02  0.10500357119E+03  0.00000000000E+00 0. -1.
         -4    1    3    3    0  502 -0.11294904244E+03  0.19417529986E+03 -0.43291820440E+02  0.22877000455E+03  0.00000000000E+00 0.  1.
         13    1    5    5    0    0  0.25315546853E+03 -0.29782731251E+03  0.80510630201E+03  0.89497762925E+03  0.00000000000E+00 0.  1.
        -13    1    5    5    0    0  0.10193567418E+03 -0.52148356443E+02  0.28445445741E+03  0.30663442581E+03  0.00000000000E+00 0. -1.
          1    1    6    6  503    0  0.76526852056E+01  0.38111221047E+01  0.31515360586E+01  0.91115543176E+01  0.00000000000E+00 0. -1.
         -1    1    6    6    0  503 -0.25031328540E+03  0.50724803205E+02  0.22282888673E+02  0.25637135885E+03  0.00000000000E+00 0.  1.
<mgrwt>
<rscale>  0 0.14674208E+04</rscale>
<asrwt>0</asrwt>
<pdfrwt beam="1">  1        1 0.21883116E+00 0.14674208E+04</pdfrwt>
<pdfrwt beam="2">  1       -4 0.58225536E-01 0.14674208E+04</pdfrwt>
<totfact> 0.98598209E+00</totfact>
</mgrwt>
</event>
<event>
12    5  0.5221187E-008  0.1600416E+04  0.7818608E-02  0.8820292E-01
         -2   -1    0    0    0  501 -0.00000000000E+00  0.00000000000E+00  0.75692887637E+03  0.75692887637E+03  0.00000000000E+00 0.  1.
          1   -1    0    0  501    0  0.00000000000E+00 -0.00000000000E+00 -0.84596180433E+03  0.84596180433E+03  0.00000000000E+00 0. -1.
        -24    2    1    2    0    0  0.29749663862E+03  0.47612793369E+02  0.41699056564E+03  0.52036601128E+03  0.78284262680E+02 0.  0.
        254    2    1    2    0    0 -0.29749663862E+03 -0.47612793369E+02 -0.50602349360E+03  0.10825246694E+04  0.90831088057E+03 0.  0.
         23    2    4    4    0    0 -0.47505531414E+03 -0.29373407715E+03 -0.11214621065E+03  0.57700964356E+03  0.91684767699E+02 0.  0.
         23    2    4    4    0    0  0.17755867553E+03  0.24612128378E+03 -0.39387728295E+03  0.50551502586E+03  0.91122762058E+02 0.  0.
          1    1    3    3  502    0  0.23680869929E+02  0.37372880954E+01  0.82291671493E+02  0.85712718543E+02  0.00000000000E+00 0. -1.
         -2    1    3    3    0  502  0.27381576869E+03  0.43875505274E+02  0.33469889414E+03  0.43465329273E+03  0.00000000000E+00 0.  1.
         13    1    5    5    0    0 -0.38380752700E+03 -0.27655392899E+03 -0.97559281999E+02  0.48301977902E+03  0.00000000000E+00 0. -1.
        -13    1    5    5    0    0 -0.91247787143E+02 -0.17180148160E+02 -0.14586928648E+02  0.93989864542E+02  0.00000000000E+00 0.  1.
          3    1    6    6  503    0  0.12642274033E+03  0.14392224328E+03 -0.17919410316E+03  0.26231059450E+03  0.00000000000E+00 0. -1.
         -3    1    6    6    0  503  0.51135935203E+02  0.10219904050E+03 -0.21468317979E+03  0.24320443136E+03  0.00000000000E+00 0.  1.
<mgrwt>
<rscale>  0 0.16004161E+04</rscale>
<asrwt>0</asrwt>
<pdfrwt beam="1">  1        1 0.13014797E+00 0.16004161E+04</pdfrwt>
<pdfrwt beam="2">  1       -2 0.11645060E+00 0.16004161E+04</pdfrwt>
<totfact> 0.97031060E+00</totfact>
</mgrwt>
</event>
<event>
12    5  0.5221187E-008  0.2199430E+04  0.7818608E-02  0.8518665E-01
         -2   -1    0    0    0  501 -0.00000000000E+00  0.00000000000E+00  0.16963404156E+04  0.16963404156E+04  0.00000000000E+00 0.  1.
          1   -1    0    0  501    0  0.00000000000E+00 -0.00000000000E+00 -0.71293059037E+03  0.71293059037E+03  0.00000000000E+00 0. -1.
        -24    2    1    2    0    0 -0.68523356495E+03  0.81447386623E+02 -0.25212038580E+03  0.73848921308E+03  0.74986089207E+02 0.  0.
        254    2    1    2    0    0  0.68523356495E+03 -0.81447386623E+02  0.12355302110E+04  0.16707817928E+04  0.88814310881E+03 0.  0.
         23    2    4    4    0    0  0.43625294888E+03  0.21511177647E+03  0.11669122704E+04  0.12674114808E+04  0.89765823687E+02 0.  0.
         23    2    4    4    0    0  0.24898061607E+03 -0.29655916309E+03  0.68617940630E+02  0.40337031207E+03  0.89780301247E+02 0.  0.
          1    1    3    3  502    0 -0.54087584185E+03  0.34550344338E+02 -0.20667717552E+03  0.58004815099E+03  0.00000000000E+00 0. -1.
         -2    1    3    3    0  502 -0.14435772310E+03  0.46897042285E+02 -0.45443210284E+02  0.15844106209E+03  0.00000000000E+00 0.  1.
         13    1    5    5    0    0  0.27894403745E+03  0.94220593986E+02  0.64339534101E+03  0.70756261998E+03  0.00000000000E+00 0.  1.
        -13    1    5    5    0    0  0.15730891143E+03  0.12089118249E+03  0.52351692935E+03  0.55984886079E+03  0.00000000000E+00 0. -1.
          4    1    6    6  503    0  0.20770912899E+03 -0.23760284800E+03  0.90214892263E+02  0.32823303068E+03  0.00000000000E+00 0. -1.
         -4    1    6    6    0  503  0.41271487080E+02 -0.58956315094E+02 -0.21596951633E+02  0.75137281393E+02  0.00000000000E+00 0.  1.
<mgrwt>
<rscale>  0 0.21994299E+04</rscale>
<asrwt>0</asrwt>
<pdfrwt beam="1">  1        1 0.10968163E+00 0.21994299E+04</pdfrwt>
<pdfrwt beam="2">  1       -2 0.26097545E+00 0.21994299E+04</pdfrwt>
<totfact> 0.11646951E+00</totfact>
</mgrwt>
</event>
<event>
12    5  0.5362514E-008  0.2082781E+04  0.7818608E-02  0.8568867E-01
         -2   -1    0    0    0  501 -0.00000000000E+00  0.00000000000E+00  0.37665602108E+03  0.37665602108E+03  0.00000000000E+00 0.  1.
          1   -1    0    0  501    0  0.00000000000E+00 -0.00000000000E+00 -0.28792688804E+04  0.28792688804E+04  0.00000000000E+00 0. -1.
        -24    2    1    2    0    0 -0.75980110637E+02  0.73011862531E+03 -0.36068020209E+03  0.82105648177E+03  0.72092675371E+02 0.  0.
        254    2    1    2    0    0  0.75980110637E+02 -0.73011862531E+03 -0.21419326572E+04  0.24348684197E+04  0.89546777106E+03 0.  0.
         23    2    4    4    0    0  0.81672041818E+02 -0.85174026935E+03 -0.21151266676E+04  0.22834527704E+04  0.90906137037E+02 0.  0.
         23    2    4    4    0    0 -0.56919311808E+01  0.12162164404E+03 -0.26805989584E+02  0.15141564929E+03  0.85929711929E+02 0.  0.
          1    1    3    3  502    0 -0.18035167703E+02  0.18451745512E+03 -0.12684253488E+03  0.22463523137E+03  0.00000000000E+00 0. -1.
         -2    1    3    3    0  502 -0.57944942935E+02  0.54560117018E+03 -0.23383766721E+03  0.59642125040E+03  0.00000000000E+00 0.  1.
         13    1    5    5    0    0  0.71839580976E+02 -0.67598033106E+03 -0.17693713335E+04  0.18954643888E+04  0.00000000000E+00 0.  1.
        -13    1    5    5    0    0  0.98324608423E+01 -0.17575993829E+03 -0.34575533412E+03  0.38798838162E+03  0.00000000000E+00 0. -1.
          4    1    6    6  503    0 -0.16283569812E+02  0.11804639944E+03  0.33945882645E+01  0.11921254253E+03  0.00000000000E+00 0. -1.
         -4    1    6    6    0  503  0.10591638631E+02  0.35752446045E+01 -0.30200577848E+02  0.32203106764E+02  0.00000000000E+00 0.  1.
<mgrwt>
<rscale>  0 0.20827808E+04</rscale>
<asrwt>0</asrwt>
<pdfrwt beam="1">  1        1 0.44296443E+00 0.20827808E+04</pdfrwt>
<pdfrwt beam="2">  1       -2 0.57947082E-01 0.20827808E+04</pdfrwt>
<totfact> 0.16512471E+00</totfact>
</mgrwt>
</event>
<event>
12    5  0.5221187E-008  0.1304940E+04  0.7818608E-02  0.9025657E-01
          1   -1    0    0  501    0  0.00000000000E+00  0.00000000000E+00  0.24819948210E+04  0.24819948210E+04  0.00000000000E+00 0. -1.
         -2   -1    0    0    0  501 -0.00000000000E+00 -0.00000000000E+00 -0.17152219015E+03  0.17152219015E+03  0.00000000000E+00 0.  1.
        -24    2    1    2    0    0  0.97050451561E+02 -0.24843261919E+03  0.18879353644E+03  0.33648250159E+03  0.80249100008E+02 0.  0.
        254    2    1    2    0    0 -0.97050451561E+02  0.24843261919E+03  0.21216790944E+04  0.23170345095E+04  0.89218225850E+03 0.  0.
         23    2    4    4    0    0  0.48590355468E+01  0.44714498605E+03  0.49857396714E+03  0.67605534181E+03  0.92263620694E+02 0.  0.
         23    2    4    4    0    0 -0.10190948711E+03 -0.19871236686E+03  0.16231051273E+04  0.16409791677E+04  0.92033833514E+02 0.  0.
          1    1    3    3  502    0  0.84740125253E+02 -0.19171475314E+03  0.10469182129E+03  0.23429855494E+03  0.00000000000E+00 0. -1.
         -2    1    3    3    0  502  0.12310326308E+02 -0.56717866045E+02  0.84101715157E+02  0.10218394666E+03  0.00000000000E+00 0.  1.
         13    1    5    5    0    0  0.48459989792E+02  0.22158835594E+03  0.24364120589E+03  0.33288257285E+03  0.00000000000E+00 0.  1.
        -13    1    5    5    0    0 -0.43600954246E+02  0.22555663011E+03  0.25493276125E+03  0.34317276896E+03  0.00000000000E+00 0. -1.
          2    1    6    6  503    0 -0.19671432496E+02 -0.11311642247E+03  0.10086684905E+04  0.10151819611E+04  0.00000000000E+00 0. -1.
         -2    1    6    6    0  503 -0.82238054611E+02 -0.85595944392E+02  0.61443663674E+03  0.62579720668E+03  0.00000000000E+00 0.  1.
<mgrwt>
<rscale>  0 0.13049401E+04</rscale>
<asrwt>0</asrwt>
<pdfrwt beam="1">  1        1 0.38184533E+00 0.13049401E+04</pdfrwt>
<pdfrwt beam="2">  1       -2 0.26388031E-01 0.13049401E+04</pdfrwt>
<totfact> 0.15700054E+01</totfact>
</mgrwt>
</event>
<event>
12    5  0.5221187E-008  0.1018173E+04  0.7818608E-02  0.9288834E-01
          1   -1    0    0  501    0  0.00000000000E+00  0.00000000000E+00  0.14839010287E+04  0.14839010287E+04  0.00000000000E+00 0. -1.
         -2   -1    0    0    0  501 -0.00000000000E+00 -0.00000000000E+00 -0.17465389630E+03  0.17465389630E+03  0.00000000000E+00 0.  1.
        -24    2    1    2    0    0  0.49259877122E+02  0.18579472506E+03  0.29414457448E+03  0.36061079932E+03  0.81073439171E+02 0.  0.
        254    2    1    2    0    0 -0.49259877122E+02 -0.18579472506E+03  0.10151025579E+04  0.12979441256E+04  0.78567139116E+03 0.  0.
         23    2    4    4    0    0  0.28595874615E+03  0.13563611155E+03  0.34094740127E+03  0.47403053112E+03  0.91050836070E+02 0.  0.
         23    2    4    4    0    0 -0.33521862327E+03 -0.32143083661E+03  0.67415515661E+03  0.82391359451E+03  0.93054435297E+02 0.  0.
          1    1    3    3  502    0  0.30852172461E+02  0.18115969696E+03  0.28600895954E+03  0.33995855231E+03  0.00000000000E+00 0. -1.
         -2    1    3    3    0  502  0.18407704661E+02  0.46350280954E+01  0.81356149377E+01  0.20652247015E+02  0.00000000000E+00 0.  1.
         13    1    5    5    0    0  0.97301905912E+02  0.40364569842E+02  0.56129981911E+02  0.11936303558E+03  0.00000000000E+00 0.  1.
        -13    1    5    5    0    0  0.18865684023E+03  0.95271541706E+02  0.28481741936E+03  0.35466749554E+03  0.00000000000E+00 0. -1.
          1    1    6    6  503    0 -0.26042001427E+03 -0.22625041345E+03  0.42899218441E+03  0.55049262275E+03  0.00000000000E+00 0. -1.
         -1    1    6    6    0  503 -0.74798609003E+02 -0.95180423150E+02  0.24516297220E+03  0.27342097176E+03  0.00000000000E+00 0.  1.
<mgrwt>
<rscale>  0 0.10181731E+04</rscale>
<asrwt>0</asrwt>
<pdfrwt beam="1">  1        1 0.22829246E+00 0.10181731E+04</pdfrwt>
<pdfrwt beam="2">  1       -2 0.26869831E-01 0.10181731E+04</pdfrwt>
<totfact> 0.74188089E+01</totfact>
</mgrwt>
</event>
<event>
12    5  0.5221187E-008  0.1456456E+04  0.7818608E-02  0.8913937E-01
          1   -1    0    0  501    0  0.00000000000E+00  0.00000000000E+00  0.15297736548E+04  0.15297736548E+04  0.00000000000E+00 0. -1.
         -2   -1    0    0    0  501 -0.00000000000E+00 -0.00000000000E+00 -0.34666285065E+03  0.34666285065E+03  0.00000000000E+00 0.  1.
        -24    2    1    2    0    0  0.14276409466E+03 -0.38968330830E+02 -0.17411010446E+03  0.24120162579E+03  0.77225502768E+02 0.  0.
        254    2    1    2    0    0 -0.14276409466E+03  0.38968330830E+02  0.13572209086E+04  0.16352348796E+04  0.90002466594E+03 0.  0.
         23    2    4    4    0    0  0.17836370322E+03  0.16883193492E+03  0.33672501142E+02  0.26442071973E+03  0.92014383734E+02 0.  0.
         23    2    4    4    0    0 -0.32112779788E+03 -0.12986360409E+03  0.13235484074E+04  0.13708141599E+04  0.85810581360E+02 0.  0.
          1    1    3    3  502    0 -0.18848884470E+01 -0.20410640394E+01  0.63877556203E+01  0.69657855792E+01  0.00000000000E+00 0. -1.
         -2    1    3    3    0  502  0.14464898311E+03 -0.36927266791E+02 -0.18049786008E+03  0.23423584021E+03  0.00000000000E+00 0.  1.
         13    1    5    5    0    0  0.17985237017E+03  0.12722492412E+03  0.33160627232E+02  0.22278393921E+03  0.00000000000E+00 0.  1.
        -13    1    5    5    0    0 -0.14886669484E+01  0.41607010798E+02  0.51187390966E+00  0.41636780516E+02  0.00000000000E+00 0. -1.
          4    1    6    6  503    0 -0.46932396554E+02 -0.54466883793E+02  0.30012781800E+03  0.30861950427E+03  0.00000000000E+00 0. -1.
         -4    1    6    6    0  503 -0.27419540133E+03 -0.75396720297E+02  0.10234205894E+04  0.10621946556E+04  0.00000000000E+00 0.  1.
<mgrwt>
<rscale>  0 0.14564556E+04</rscale>
<asrwt>0</asrwt>
<pdfrwt beam="1">  1        1 0.23534979E+00 0.14564556E+04</pdfrwt>
<pdfrwt beam="2">  1       -2 0.53332747E-01 0.14564556E+04</pdfrwt>
<totfact> 0.17610135E+01</totfact>
</mgrwt>
</event>
<event>
12    5  0.5221187E-008  0.1204109E+04  0.7818608E-02  0.9109267E-01
         -2   -1    0    0    0  501 -0.00000000000E+00  0.00000000000E+00  0.15604741192E+03  0.15604741192E+03  0.00000000000E+00 0.  1.
          1   -1    0    0  501    0  0.00000000000E+00 -0.00000000000E+00 -0.23228185551E+04  0.23228185551E+04  0.00000000000E+00 0. -1.
        -24    2    1    2    0    0 -0.16029039332E+03  0.16390580155E+03 -0.74196724197E+03  0.78072929859E+03  0.80403529499E+02 0.  0.
        254    2    1    2    0    0  0.16029039332E+03 -0.16390580155E+03 -0.14248039012E+04  0.16981366684E+04  0.89501053948E+03 0.  0.
         23    2    4    4    0    0  0.14821703843E+03  0.31578020027E+03 -0.29007821628E+03  0.46268224210E+03  0.90796807395E+02 0.  0.
         23    2    4    4    0    0  0.12073354887E+02 -0.47968600182E+03 -0.11347256849E+04  0.12354544263E+04  0.92199963476E+02 0.  0.
          3    1    3    3  502    0 -0.16112552225E+03  0.17143946272E+03 -0.71474502202E+03  0.75247150763E+03  0.00000000000E+00 0. -1.
         -4    1    3    3    0  502  0.83512893859E+00 -0.75336611680E+01 -0.27222219952E+02  0.28257790962E+02  0.00000000000E+00 0.  1.
         13    1    5    5    0    0  0.14931421096E+03  0.30686798864E+03 -0.29614473368E+03  0.45184554810E+03  0.00000000000E+00 0.  1.
        -13    1    5    5    0    0 -0.10971725271E+01  0.89122116207E+01  0.60665174003E+01  0.10836694002E+02  0.00000000000E+00 0. -1.
          4    1    6    6  503    0 -0.19128406701E+02 -0.12214940349E+03 -0.38274976274E+03  0.40222351198E+03  0.00000000000E+00 0. -1.
         -4    1    6    6    0  503  0.31201761588E+02 -0.35753659833E+03 -0.75197592216E+03  0.83323091432E+03  0.00000000000E+00 0.  1.
<mgrwt>
<rscale>  0 0.12041093E+04</rscale>
<asrwt>0</asrwt>
<pdfrwt beam="1">  1        1 0.35735670E+00 0.12041093E+04</pdfrwt>
<pdfrwt beam="2">  1       -2 0.24007294E-01 0.12041093E+04</pdfrwt>
<totfact> 0.24182364E+01</totfact>
</mgrwt>
</event>
<event>
12    5  0.5221187E-008  0.2086524E+04  0.7818608E-02  0.8567203E-01
         -2   -1    0    0    0  501 -0.00000000000E+00  0.00000000000E+00  0.95834079849E+03  0.95834079849E+03  0.00000000000E+00 0.  1.
          1   -1    0    0  501    0  0.00000000000E+00 -0.00000000000E+00 -0.11357084151E+04  0.11357084151E+04  0.00000000000E+00 0. -1.
        -24    2    1    2    0    0  0.57420198101E+03  0.61084129388E+03 -0.18841499102E+03  0.86292750345E+03  0.79427111626E+02 0.  0.
        254    2    1    2    0    0 -0.57420198101E+03 -0.61084129388E+03  0.11047374422E+02  0.12311217101E+04  0.90150075948E+03 0.  0.
         23    2    4    4    0    0  0.16292328348E+03  0.72856139684E+02 -0.73171497815E+02  0.21808847569E+03  0.10176689906E+03 0.  0.
         23    2    4    4    0    0 -0.73712526450E+03 -0.68369743357E+03  0.84218872237E+02  0.10130332344E+04  0.91365635842E+02 0.  0.
          3    1    3    3  502    0  0.54639051606E+03  0.60154396892E+03 -0.18464739387E+03  0.83336210776E+03  0.00000000000E+00 0. -1.
         -4    1    3    3    0  502  0.27811464950E+02  0.92973249646E+01 -0.37675971438E+01  0.29565395692E+02  0.00000000000E+00 0.  1.
         13    1    5    5    0    0  0.62504935088E+02  0.54320727267E+02  0.13804451627E+02  0.83953387101E+02  0.00000000000E+00 0. -1.
        -13    1    5    5    0    0  0.10041834840E+03  0.18535412417E+02 -0.86975949442E+02  0.13413508859E+03  0.00000000000E+00 0.  1.
          4    1    6    6  503    0 -0.55270317649E+02 -0.22350988539E+02  0.38961859014E+01  0.59745752705E+02  0.00000000000E+00 0. -1.
         -4    1    6    6    0  503 -0.68185494685E+03 -0.66134644503E+03  0.80322686335E+02  0.95328748173E+03  0.00000000000E+00 0.  1.
<mgrwt>
<rscale>  0 0.20865241E+04</rscale>
<asrwt>0</asrwt>
<pdfrwt beam="1">  1        1 0.17472437E+00 0.20865241E+04</pdfrwt>
<pdfrwt beam="2">  1       -2 0.14743705E+00 0.20865241E+04</pdfrwt>
<totfact> 0.30188873E+00</totfact>
</mgrwt>
</event>
<event>
12    5  0.5221187E-008  0.1426965E+04  0.7818608E-02  0.8934528E-01
          1   -1    0    0  501    0  0.00000000000E+00  0.00000000000E+00  0.19100865960E+04  0.19100865960E+04  0.00000000000E+00 0. -1.
         -2   -1    0    0    0  501 -0.00000000000E+00 -0.00000000000E+00 -0.26651015368E+03  0.26651015368E+03  0.00000000000E+00 0.  1.
        -24    2    1    2    0    0  0.58139721085E+02 -0.35771087298E+03  0.97320607575E+03  0.10416506386E+04  0.81047462721E+02 0.  0.
        254    2    1    2    0    0 -0.58139721085E+02  0.35771087298E+03  0.67037036658E+03  0.11349461111E+04  0.84105228784E+03 0.  0.
         23    2    4    4    0    0  0.55412445491E+02  0.38054016926E+03  0.82922765859E+03  0.91751052959E+03  0.79534285694E+02 0.  0.
         23    2    4    4    0    0 -0.11355216658E+03 -0.22829296282E+02 -0.15885729201E+03  0.21743558150E+03  0.92883376189E+02 0.  0.
          3    1    3    3  502    0  0.16836459110E+02 -0.21993356420E+03  0.48719079818E+03  0.53479819825E+03  0.00000000000E+00 0. -1.
         -4    1    3    3    0  502  0.41303261975E+02 -0.13777730877E+03  0.48601527757E+03  0.50685244035E+03  0.00000000000E+00 0.  1.
         13    1    5    5    0    0  0.35929834730E+02  0.33597973917E+03  0.66047677789E+03  0.74189144239E+03  0.00000000000E+00 0.  1.
        -13    1    5    5    0    0  0.19482610762E+02  0.44560430083E+02  0.16875088070E+03  0.17561908720E+03  0.00000000000E+00 0. -1.
          1    1    6    6  503    0 -0.51029632582E+02  0.15153188523E+02 -0.13825547061E+02  0.54998075197E+02  0.00000000000E+00 0. -1.
         -1    1    6    6    0  503 -0.62522533994E+02 -0.37982484805E+02 -0.14503174495E+03  0.16243750630E+03  0.00000000000E+00 0.  1.
<mgrwt>
<rscale>  0 0.14269653E+04</rscale>
<asrwt>0</asrwt>
<pdfrwt beam="1">  1        1 0.29385947E+00 0.14269653E+04</pdfrwt>
<pdfrwt beam="2">  1       -2 0.41001563E-01 0.14269653E+04</pdfrwt>
<totfact> 0.16512415E+01</totfact>
</mgrwt>
</event>
<event>
12    5  0.5221187E-008  0.1670884E+04  0.7818608E-02  0.8778147E-01
         -2   -1    0    0    0  501 -0.00000000000E+00  0.00000000000E+00  0.12550875589E+04  0.12550875589E+04  0.00000000000E+00 0.  1.
          1   -1    0    0  501    0  0.00000000000E+00 -0.00000000000E+00 -0.55610751765E+03  0.55610751765E+03  0.00000000000E+00 0. -1.
        -24    2    1    2    0    0  0.20340383020E+01  0.21852832357E+03 -0.34455328094E+03  0.41588205394E+03  0.80511824416E+02 0.  0.
        254    2    1    2    0    0 -0.20340383020E+01 -0.21852832357E+03  0.10435333222E+04  0.13953130226E+04  0.90009881180E+03 0.  0.
         23    2    4    4    0    0  0.24911037825E+03 -0.25134293885E+03  0.53968957572E+02  0.36955876406E+03  0.91824714775E+02 0.  0.
         23    2    4    4    0    0 -0.25114441656E+03  0.32814615283E+02  0.98956436462E+03  0.10257542585E+04  0.93722197221E+02 0.  0.
          3    1    3    3  502    0 -0.35394719819E+02  0.68618943316E+02 -0.13506967322E+03  0.15558008291E+03  0.00000000000E+00 0. -1.
         -4    1    3    3    0  502  0.37428758121E+02  0.14990938026E+03 -0.20948360772E+03  0.26030197104E+03  0.00000000000E+00 0.  1.
         13    1    5    5    0    0  0.20784107387E+03 -0.22516276472E+03  0.76367527529E+02  0.31579769135E+03  0.00000000000E+00 0.  1.
        -13    1    5    5    0    0  0.41269304387E+02 -0.26180174140E+02 -0.22398569957E+02  0.53761072708E+02  0.00000000000E+00 0. -1.
          3    1    6    6  503    0 -0.21616473882E+03  0.46676438841E+02  0.92460991181E+03  0.95068889405E+03  0.00000000000E+00 0.  1.
         -3    1    6    6    0  503 -0.34979677734E+02 -0.13861823558E+02  0.64954452808E+02  0.75065364492E+02  0.00000000000E+00 0. -1.
<mgrwt>
<rscale>  0 0.16708843E+04</rscale>
<asrwt>0</asrwt>
<pdfrwt beam="1">  1        1 0.85555003E-01 0.16708843E+04</pdfrwt>
<pdfrwt beam="2">  1       -2 0.19309039E+00 0.16708843E+04</pdfrwt>
<totfact> 0.47069437E+00</totfact>
</mgrwt>
</event>
<event>
12    5  0.5221187E-008  0.1776241E+04  0.7818608E-02  0.8719037E-01
         -2   -1    0    0    0  501 -0.00000000000E+00  0.00000000000E+00  0.53612240818E+03  0.53612240818E+03  0.00000000000E+00 0.  1.
          1   -1    0    0  501    0  0.00000000000E+00 -0.00000000000E+00 -0.14712269891E+04  0.14712269891E+04  0.00000000000E+00 0. -1.
        -24    2    1    2    0    0 -0.44054279079E+03  0.40644971935E+03 -0.65104747412E+03  0.88862475020E+03  0.80695775778E+02 0.  0.
        254    2    1    2    0    0  0.44054279079E+03 -0.40644971935E+03 -0.28405710676E+03  0.11187246471E+04  0.90087572458E+03 0.  0.
         23    2    4    4    0    0 -0.21216541675E+03 -0.18309986530E+03 -0.30321469041E+03  0.42277788244E+03  0.90897000297E+02 0.  0.
         23    2    4    4    0    0  0.65270820755E+03 -0.22334985406E+03  0.19157583642E+02  0.69594676461E+03  0.89787107402E+02 0.  0.
          3    1    3    3  502    0 -0.37894922501E+03  0.38039584126E+03 -0.59410291821E+03  0.80078822957E+03  0.00000000000E+00 0. -1.
         -4    1    3    3    0  502 -0.61593565786E+02  0.26053878096E+02 -0.56944555911E+02  0.87836520639E+02  0.00000000000E+00 0.  1.
         13    1    5    5    0    0  0.64250799086E+01 -0.98059230033E+01 -0.30467046949E+02  0.32644735067E+02  0.00000000000E+00 0.  1.
        -13    1    5    5    0    0 -0.21859049666E+03 -0.17329394229E+03 -0.27274764346E+03  0.39013314737E+03  0.00000000000E+00 0. -1.
          4    1    6    6  503    0  0.47860928037E+03 -0.14419358076E+03  0.49508804168E+02  0.50230444322E+03  0.00000000000E+00 0. -1.
         -4    1    6    6    0  503  0.17409892718E+03 -0.79156273297E+02 -0.30351220526E+02  0.19364232139E+03  0.00000000000E+00 0.  1.
<mgrwt>
<rscale>  0 0.17762407E+04</rscale>
<asrwt>0</asrwt>
<pdfrwt beam="1">  1        1 0.22634261E+00 0.17762407E+04</pdfrwt>
<pdfrwt beam="2">  1       -2 0.82480372E-01 0.17762407E+04</pdfrwt>
<totfact> 0.73327402E+00</totfact>
</mgrwt>
</event>
<event>
12    5  0.5221187E-008  0.3505216E+04  0.7818608E-02  0.8112555E-01
          1   -1    0    0  501    0  0.00000000000E+00  0.00000000000E+00  0.26599892566E+04  0.26599892566E+04  0.00000000000E+00 0. -1.
         -2   -1    0    0    0  501 -0.00000000000E+00 -0.00000000000E+00 -0.11547542981E+04  0.11547542981E+04  0.00000000000E+00 0.  1.
        -24    2    1    2    0    0  0.83062996722E+03  0.19627618228E+03  0.22244151729E+04  0.23841853842E+04  0.88581050284E+02 0.  0.
        254    2    1    2    0    0 -0.83062996722E+03 -0.19627618228E+03 -0.71918021446E+03  0.14305581705E+04  0.89487765423E+03 0.  0.
         23    2    4    4    0    0 -0.92551835941E+03 -0.27237054709E+03 -0.34900243570E+03  0.10304238372E+04  0.95919943538E+02 0.  0.
         23    2    4    4    0    0  0.94888392197E+02  0.76094364811E+02 -0.37017777876E+03  0.40013433328E+03  0.91004051866E+02 0.  0.
          1    1    3    3  502    0  0.54998410054E+03  0.16750352598E+03  0.15465847190E+04  0.16499891621E+04  0.00000000000E+00 0. -1.
         -2    1    3    3    0  502  0.28064586668E+03  0.28772656298E+02  0.67783045391E+03  0.73419622206E+03  0.00000000000E+00 0.  1.
         13    1    5    5    0    0 -0.91102140428E+03 -0.25374451523E+03 -0.33704468224E+03  0.10039648380E+04  0.00000000000E+00 0.  1.
        -13    1    5    5    0    0 -0.14496955137E+02 -0.18626031863E+02 -0.11957753460E+02  0.26458999207E+02  0.00000000000E+00 0. -1.
          2    1    6    6  503    0  0.37849125847E+02 -0.77792438608E+01 -0.18504433080E+03  0.18903565093E+03  0.00000000000E+00 0. -1.
         -2    1    6    6    0  503  0.57039266350E+02  0.83873608671E+02 -0.18513344796E+03  0.21109868235E+03  0.00000000000E+00 0.  1.
<mgrwt>
<rscale>  0 0.35052156E+04</rscale>
<asrwt>0</asrwt>
<pdfrwt beam="1">  1        1 0.40922911E+00 0.35052156E+04</pdfrwt>
<pdfrwt beam="2">  1       -2 0.17765451E+00 0.35052156E+04</pdfrwt>
<totfact> 0.14146290E-01</totfact>
</mgrwt>
</event>
<event>
12    5  0.5221187E-008  0.2091478E+04  0.7818608E-02  0.8565007E-01
         -4   -1    0    0    0  501 -0.00000000000E+00  0.00000000000E+00  0.12413673807E+04  0.12413673807E+04  0.00000000000E+00 0.  1.
          1   -1    0    0  501    0  0.00000000000E+00 -0.00000000000E+00 -0.88093970382E+03  0.88093970382E+03  0.00000000000E+00 0. -1.
        -24    2    1    2    0    0  0.27684670955E+03 -0.77964413229E+03  0.82092303622E+01  0.83123858913E+03  0.80007043380E+02 0.  0.
        254    2    1    2    0    0 -0.27684670955E+03  0.77964413229E+03  0.35221844647E+03  0.12910684953E+04  0.92645072834E+03 0.  0.
         23    2    4    4    0    0 -0.45976981193E+02  0.21673216537E+03 -0.30677187690E+03  0.38921259699E+03  0.91053538599E+02 0.  0.
         23    2    4    4    0    0 -0.23086972836E+03  0.56291196692E+03  0.65899032337E+03  0.90185589836E+03  0.94366843402E+02 0.  0.
          3    1    3    3  502    0  0.24852674359E+03 -0.64829617903E+03 -0.17091289524E+02  0.69451104397E+03  0.00000000000E+00 0. -1.
         -4    1    3    3    0  502  0.28319965964E+02 -0.13134795327E+03  0.25300519886E+02  0.13672754516E+03  0.00000000000E+00 0.  1.
         13    1    5    5    0    0 -0.40106330520E+02  0.10883111649E+03 -0.89326253287E+02  0.14639641112E+03  0.00000000000E+00 0.  1.
        -13    1    5    5    0    0 -0.58706506730E+01  0.10790104889E+03 -0.21744562361E+03  0.24281618587E+03  0.00000000000E+00 0. -1.
          1    1    6    6  503    0 -0.12427444245E+03  0.36629981367E+03  0.47265011736E+03  0.61075185140E+03  0.00000000000E+00 0. -1.
         -1    1    6    6    0  503 -0.10659528591E+03  0.19661215325E+03  0.18634020601E+03  0.29110404696E+03  0.00000000000E+00 0.  1.
<mgrwt>
<rscale>  0 0.20914778E+04</rscale>
<asrwt>0</asrwt>
<pdfrwt beam="1">  1        1 0.13552919E+00 0.20914778E+04</pdfrwt>
<pdfrwt beam="2">  1       -4 0.19097960E+00 0.20914778E+04</pdfrwt>
<totfact> 0.12664420E+00</totfact>
</mgrwt>
</event>
<event>
12    5  0.5221187E-008  0.1378195E+04  0.7818608E-02  0.8969755E-01
         -2   -1    0    0    0  501 -0.00000000000E+00  0.00000000000E+00  0.15304326201E+03  0.15304326201E+03  0.00000000000E+00 0.  1.
          1   -1    0    0  501    0  0.00000000000E+00 -0.00000000000E+00 -0.31027531782E+04  0.31027531782E+04  0.00000000000E+00 0. -1.
        -24    2    1    2    0    0 -0.33484260939E+03 -0.11807921756E+03 -0.48300844537E+03  0.60450737779E+03  0.77908515725E+02 0.  0.
        254    2    1    2    0    0  0.33484260939E+03  0.11807921756E+03 -0.24667014709E+04  0.26512890625E+04  0.90479570714E+03 0.  0.
         23    2    4    4    0    0  0.48049396459E+03 -0.15762948086E+03 -0.78641918649E+03  0.93988988006E+03  0.96001804770E+02 0.  0.
         23    2    4    4    0    0 -0.14565135519E+03  0.27570869842E+03 -0.16802822844E+04  0.17113991824E+04  0.91153730970E+02 0.  0.
          1    1    3    3  502    0 -0.10732626793E+03 -0.64712727354E+01 -0.17806570192E+03  0.20801009437E+03  0.00000000000E+00 0. -1.
         -2    1    3    3    0  502 -0.22751634146E+03 -0.11160794483E+03 -0.30494274345E+03  0.39649728342E+03  0.00000000000E+00 0.  1.
         13    1    5    5    0    0  0.11944042648E+02 -0.18310507353E+02 -0.14574531048E+02  0.26274546420E+02  0.00000000000E+00 0. -1.
        -13    1    5    5    0    0  0.46854992194E+03 -0.13931897351E+03 -0.77184465544E+03  0.91361533364E+03  0.00000000000E+00 0.  1.
          1    1    6    6  503    0 -0.52709058004E+02  0.72928980561E+02 -0.29985274366E+03  0.31306317075E+03  0.00000000000E+00 0. -1.
         -1    1    6    6    0  503 -0.92942297190E+02  0.20277971786E+03 -0.13804295407E+04  0.13983360117E+04  0.00000000000E+00 0.  1.
<mgrwt>
<rscale>  0 0.13781951E+04</rscale>
<asrwt>0</asrwt>
<pdfrwt beam="1">  1        1 0.47734660E+00 0.13781951E+04</pdfrwt>
<pdfrwt beam="2">  1       -2 0.23545119E-01 0.13781951E+04</pdfrwt>
<totfact> 0.69538693E+00</totfact>
</mgrwt>
</event>
<event>
12    5  0.5221187E-008  0.1338069E+04  0.7818608E-02  0.8999909E-01
          1   -1    0    0  501    0  0.00000000000E+00  0.00000000000E+00  0.48631076451E+03  0.48631076451E+03  0.00000000000E+00 0. -1.
         -2   -1    0    0    0  501 -0.00000000000E+00 -0.00000000000E+00 -0.92041403331E+03  0.92041403331E+03  0.00000000000E+00 0.  1.
        -24    2    1    2    0    0  0.12277846461E+03  0.25297855687E+03 -0.35546175386E+03  0.46014937112E+03  0.79446105533E+02 0.  0.
        254    2    1    2    0    0 -0.12277846461E+03 -0.25297855687E+03 -0.78641514953E+02  0.94657542670E+03  0.90041537578E+03 0.  0.
         23    2    4    4    0    0 -0.37063730767E+02 -0.30891340490E+03  0.36169896995E+03  0.48568793060E+03  0.90914295946E+02 0.  0.
         23    2    4    4    0    0 -0.85714733847E+02  0.55934848031E+02 -0.44034048490E+03  0.46088749609E+03  0.89676187419E+02 0.  0.
          1    1    3    3  502    0  0.43174342765E+02  0.44710993212E+02 -0.40234111831E+02  0.74039722731E+02  0.00000000000E+00 0. -1.
         -2    1    3    3    0  502  0.79604121849E+02  0.20826756365E+03 -0.31522764202E+03  0.38610964839E+03  0.00000000000E+00 0.  1.
         13    1    5    5    0    0 -0.48023359477E+02 -0.16993575669E+03  0.25479653510E+03  0.31000915915E+03  0.00000000000E+00 0.  1.
        -13    1    5    5    0    0  0.10959628710E+02 -0.13897764821E+03  0.10690243485E+03  0.17567877145E+03  0.00000000000E+00 0. -1.
          1    1    6    6  503    0 -0.83142908390E+02  0.77747023779E+02 -0.37950335636E+03  0.39620719379E+03  0.00000000000E+00 0. -1.
         -1    1    6    6    0  503 -0.25718254570E+01 -0.21812175748E+02 -0.60837128540E+02  0.64680302303E+02  0.00000000000E+00 0.  1.
<mgrwt>
<rscale>  0 0.13380691E+04</rscale>
<asrwt>0</asrwt>
<pdfrwt beam="1">  1        1 0.74817041E-01 0.13380691E+04</pdfrwt>
<pdfrwt beam="2">  1       -2 0.14160216E+00 0.13380691E+04</pdfrwt>
<totfact> 0.13745305E+01</totfact>
</mgrwt>
</event>
<event>
12    5  0.5221187E-008  0.1154374E+04  0.7818608E-02  0.9153757E-01
          3   -1    0    0  501    0  0.00000000000E+00  0.00000000000E+00  0.82910037524E+03  0.82910037524E+03  0.00000000000E+00 0. -1.
         -4   -1    0    0    0  501 -0.00000000000E+00 -0.00000000000E+00 -0.40181510319E+03  0.40181510319E+03  0.00000000000E+00 0.  1.
        -24    2    1    2    0    0 -0.14591383640E+03 -0.71344256677E+02  0.13563100496E+03  0.23271407776E+03  0.96846382835E+02 0.  0.
        254    2    1    2    0    0  0.14591383640E+03  0.71344256677E+02  0.29165426709E+03  0.99820140067E+03  0.94072470690E+03 0.  0.
         23    2    4    4    0    0 -0.35175391125E+03 -0.17046644419E+02  0.31929490756E+03  0.48398840037E+03  0.90962253387E+02 0.  0.
         23    2    4    4    0    0  0.49766774765E+03  0.88390901096E+02 -0.27640640469E+02  0.51421300030E+03  0.90359649322E+02 0.  0.
          3    1    3    3  502    0 -0.12123292932E+03 -0.70709022092E+02  0.14895618328E+03  0.20465857787E+03  0.00000000000E+00 0. -1.
         -4    1    3    3    0  502 -0.24680907080E+02 -0.63523458476E+00 -0.13325178318E+02  0.28055499897E+02  0.00000000000E+00 0.  1.
         13    1    5    5    0    0 -0.23583465169E+03 -0.53976209724E+02  0.20626140797E+03  0.31792323378E+03  0.00000000000E+00 0.  1.
        -13    1    5    5    0    0 -0.11591925955E+03  0.36929565305E+02  0.11303349958E+03  0.16606516660E+03  0.00000000000E+00 0. -1.
          2    1    6    6  503    0  0.42366694434E+03  0.80384044436E+02  0.88512698645E+01  0.43131614774E+03  0.00000000000E+00 0.  1.
         -2    1    6    6    0  503  0.74000803308E+02  0.80068566606E+01 -0.36491910334E+02  0.82896852556E+02  0.00000000000E+00 0. -1.
<mgrwt>
<rscale>  0 0.11543744E+04</rscale>
<asrwt>0</asrwt>
<pdfrwt beam="1">  1        3 0.12755390E+00 0.11543744E+04</pdfrwt>
<pdfrwt beam="2">  1       -4 0.61817708E-01 0.11543744E+04</pdfrwt>
<totfact> 0.27131209E+00</totfact>
</mgrwt>
</event>
<event>
12    5  0.5221187E-008  0.2066929E+04  0.7818608E-02  0.8575953E-01
          1   -1    0    0  501    0  0.00000000000E+00  0.00000000000E+00  0.75334484212E+03  0.75334484212E+03  0.00000000000E+00 0. -1.
         -2   -1    0    0    0  501 -0.00000000000E+00 -0.00000000000E+00 -0.14177425926E+04  0.14177425926E+04  0.00000000000E+00 0.  1.
        -24    2    1    2    0    0 -0.42258847047E+03  0.71626669750E+03 -0.21621303033E+03  0.86503201723E+03  0.99565651859E+02 0.  0.
        254    2    1    2    0    0  0.42258847047E+03 -0.71626669750E+03 -0.44818472018E+03  0.13060554175E+04  0.90182715245E+03 0.  0.
         23    2    4    4    0    0 -0.19464730858E+03  0.64068380792E+02 -0.12449217463E+03  0.25587748227E+03  0.89345689501E+02 0.  0.
         23    2    4    4    0    0  0.61723577905E+03 -0.78033507829E+03 -0.32369254555E+03  0.10501779352E+04  0.90520662123E+02 0.  0.
          1    1    3    3  502    0 -0.13580601829E+03  0.22625358945E+03 -0.11702870786E+03  0.28866880643E+03  0.00000000000E+00 0. -1.
         -2    1    3    3    0  502 -0.28678245218E+03  0.49001310805E+03 -0.99184322460E+02  0.57636321080E+03  0.00000000000E+00 0.  1.
         13    1    5    5    0    0 -0.21962031308E+02 -0.14207765264E+02  0.45260015659E+01  0.26545736063E+02  0.00000000000E+00 0. -1.
        -13    1    5    5    0    0 -0.17268527728E+03  0.78276146056E+02 -0.12901817620E+03  0.22933174621E+03  0.00000000000E+00 0.  1.
          4    1    6    6  503    0  0.32515410674E+03 -0.48096810505E+03 -0.19935013242E+03  0.61383710095E+03  0.00000000000E+00 0. -1.
         -4    1    6    6    0  503  0.29208167231E+03 -0.29936697324E+03 -0.12434241313E+03  0.43634083429E+03  0.00000000000E+00 0.  1.
<mgrwt>
<rscale>  0 0.20669292E+04</rscale>
<asrwt>0</asrwt>
<pdfrwt beam="1">  1        1 0.11589921E+00 0.20669292E+04</pdfrwt>
<pdfrwt beam="2">  1       -2 0.21811424E+00 0.20669292E+04</pdfrwt>
<totfact> 0.19959872E+00</totfact>
</mgrwt>
</event>
<event>
12    5  0.5221187E-008  0.2272408E+04  0.7818608E-02  0.8488880E-01
          1   -1    0    0  501    0  0.00000000000E+00  0.00000000000E+00  0.21512490426E+04  0.21512490426E+04  0.00000000000E+00 0. -1.
         -2   -1    0    0    0  501 -0.00000000000E+00 -0.00000000000E+00 -0.60009754964E+03  0.60009754964E+03  0.00000000000E+00 0.  1.
        -24    2    1    2    0    0 -0.63507533442E+03 -0.22990116364E+03 -0.16488676349E+03  0.69981677569E+03  0.79878966715E+02 0.  0.
        254    2    1    2    0    0  0.63507533442E+03  0.22990116364E+03  0.17160382564E+04  0.20515298165E+04  0.89878365870E+03 0.  0.
         23    2    4    4    0    0  0.77073928325E+03  0.26407853322E+03  0.16949381299E+04  0.18827616183E+04  0.90551271190E+02 0.  0.
         23    2    4    4    0    0 -0.13566394882E+03 -0.34177369582E+02  0.21100126518E+02  0.16876819822E+03  0.92003748777E+02 0.  0.
          3    1    3    3  502    0 -0.57700613977E+01 -0.54922726460E+01  0.62517583321E+01  0.10126359148E+02  0.00000000000E+00 0. -1.
         -4    1    3    3    0  502 -0.62930527303E+03 -0.22440889099E+03 -0.17113852182E+03  0.68969041654E+03  0.00000000000E+00 0.  1.
         13    1    5    5    0    0  0.76351880769E+03  0.26207749894E+03  0.16464343556E+04  0.18336825441E+04  0.00000000000E+00 0. -1.
        -13    1    5    5    0    0  0.72204755570E+01  0.20010342853E+01  0.48503774320E+02  0.49079074245E+02  0.00000000000E+00 0.  1.
          2    1    6    6  503    0 -0.96099472819E+02 -0.12159978251E+02  0.55740733070E+02  0.11175868230E+03  0.00000000000E+00 0. -1.
         -2    1    6    6    0  503 -0.39564476002E+02 -0.22017391331E+02 -0.34640606552E+02  0.57009515913E+02  0.00000000000E+00 0.  1.
<mgrwt>
<rscale>  0 0.22724078E+04</rscale>
<asrwt>0</asrwt>
<pdfrwt beam="1">  1        1 0.33096139E+00 0.22724078E+04</pdfrwt>
<pdfrwt beam="2">  1       -2 0.92322702E-01 0.22724078E+04</pdfrwt>
<totfact> 0.18649747E+00</totfact>
</mgrwt>
</event>
<event>
12    5  0.5221187E-008  0.1319540E+04  0.7818608E-02  0.9014212E-01
         -2   -1    0    0    0  501 -0.00000000000E+00  0.00000000000E+00  0.20120505585E+03  0.20120505585E+03  0.00000000000E+00 0.  1.
          1   -1    0    0  501    0  0.00000000000E+00 -0.00000000000E+00 -0.21634462782E+04  0.21634462782E+04  0.00000000000E+00 0. -1.
        -24    2    1    2    0    0  0.17764978786E+03 -0.11643434903E+03 -0.10225193231E+04  0.10475131329E+04  0.81373169582E+02 0.  0.
        254    2    1    2    0    0 -0.17764978786E+03  0.11643434903E+03 -0.93972189917E+03  0.13171382011E+04  0.89814218705E+03 0.  0.
         23    2    4    4    0    0 -0.43779884510E+03  0.34096226523E+03 -0.50218907634E+03  0.75394657699E+03  0.91205687763E+02 0.  0.
         23    2    4    4    0    0  0.26014905724E+03 -0.22452791620E+03 -0.43753282283E+03  0.56319162407E+03  0.87518667939E+02 0.  0.
          1    1    3    3  502    0  0.16125320613E+03 -0.12919733971E+03 -0.92225465418E+03  0.94511808587E+03  0.00000000000E+00 0. -1.
         -2    1    3    3    0  502  0.16396581732E+02  0.12762990683E+02 -0.10026466895E+03  0.10239504707E+03  0.00000000000E+00 0.  1.
         13    1    5    5    0    0 -0.55744789553E+01  0.22161390442E+02 -0.83250871163E+01  0.24320960455E+02  0.00000000000E+00 0. -1.
        -13    1    5    5    0    0 -0.43222436614E+03  0.31880087479E+03 -0.49386398922E+03  0.72962561654E+03  0.00000000000E+00 0.  1.
          2    1    6    6  503    0  0.30694413235E+02 -0.15758423662E+02 -0.94956526078E+02  0.10103077138E+03  0.00000000000E+00 0. -1.
         -2    1    6    6    0  503  0.22945464400E+03 -0.20876949254E+03 -0.34257629675E+03  0.46216085270E+03  0.00000000000E+00 0.  1.
<mgrwt>
<rscale>  0 0.13195398E+04</rscale>
<asrwt>0</asrwt>
<pdfrwt beam="1">  1        1 0.33283789E+00 0.13195398E+04</pdfrwt>
<pdfrwt beam="2">  1       -2 0.30954624E-01 0.13195398E+04</pdfrwt>
<totfact> 0.19256441E+01</totfact>
</mgrwt>
</event>
<event>
12    5  0.5221187E-008  0.1782383E+04  0.7818608E-02  0.8715724E-01
          1   -1    0    0  501    0  0.00000000000E+00  0.00000000000E+00  0.14058336667E+04  0.14058336667E+04  0.00000000000E+00 0. -1.
         -2   -1    0    0    0  501 -0.00000000000E+00 -0.00000000000E+00 -0.56494765069E+03  0.56494765069E+03  0.00000000000E+00 0.  1.
        -24    2    1    2    0    0  0.63734171288E+02  0.19272590195E+03  0.10111956646E+04  0.10348598601E+04  0.84929029354E+02 0.  0.
        254    2    1    2    0    0 -0.63734171288E+02 -0.19272590195E+03 -0.17030964859E+03  0.93592145731E+03  0.89762925530E+03 0.  0.
         23    2    4    4    0    0 -0.30274424154E+03 -0.44886241680E+03 -0.39945367047E+02  0.55055398413E+03  0.91556059883E+02 0.  0.
         23    2    4    4    0    0  0.23901007025E+03  0.25613651485E+03 -0.13036428154E+03  0.38536747317E+03  0.93709741002E+02 0.  0.
          1    1    3    3  502    0  0.49554219399E+02  0.14720989988E+03  0.90793180421E+03  0.92112243289E+03  0.00000000000E+00 0. -1.
         -2    1    3    3    0  502  0.14179951889E+02  0.45516002075E+02  0.10326386038E+03  0.11373742718E+03  0.00000000000E+00 0.  1.
         13    1    5    5    0    0 -0.42456848547E+02 -0.62767311087E+02  0.26331546218E+02  0.80222625585E+02  0.00000000000E+00 0. -1.
        -13    1    5    5    0    0 -0.26028739299E+03 -0.38609510571E+03 -0.66276913264E+02  0.47033135855E+03  0.00000000000E+00 0.  1.
          3    1    6    6  503    0  0.82574160694E+02  0.45644829532E+02 -0.44646031251E+01  0.94455678275E+02  0.00000000000E+00 0.  1.
         -3    1    6    6    0  503  0.15643590956E+03  0.21049168531E+03 -0.12589967841E+03  0.29091179490E+03  0.00000000000E+00 0. -1.
<mgrwt>
<rscale>  0 0.17823832E+04</rscale>
<asrwt>0</asrwt>
<pdfrwt beam="1">  1        1 0.21628210E+00 0.17823832E+04</pdfrwt>
<pdfrwt beam="2">  1       -2 0.86915024E-01 0.17823832E+04</pdfrwt>
<totfact> 0.72265434E+00</totfact>
</mgrwt>
</event>
<event>
12    5  0.5221187E-008  0.1164081E+04  0.7818608E-02  0.9144890E-01
          1   -1    0    0  501    0  0.00000000000E+00  0.00000000000E+00  0.32788813640E+04  0.32788813640E+04  0.00000000000E+00 0. -1.
         -2   -1    0    0    0  501 -0.00000000000E+00 -0.00000000000E+00 -0.10331916559E+03  0.10331916559E+03  0.00000000000E+00 0.  1.
        -24    2    1    2    0    0 -0.19241612106E+03 -0.57016906243E+02  0.34391320862E+03  0.40522634481E+03  0.75214388378E+02 0.  0.
        254    2    1    2    0    0  0.19241612106E+03  0.57016906243E+02  0.28316489897E+04  0.29769741847E+04  0.89658485615E+03 0.  0.
         23    2    4    4    0    0  0.38375764302E+02  0.63947561673E+02  0.27949226896E+04  0.27973935328E+04  0.90861137533E+02 0.  0.
         23    2    4    4    0    0  0.15404035676E+03 -0.69306554304E+01  0.36726300096E+02  0.17958065195E+03  0.84403340802E+02 0.  0.
          1    1    3    3  502    0 -0.12538863184E+03 -0.39371264242E+02  0.28656922754E+03  0.31526865943E+03  0.00000000000E+00 0. -1.
         -2    1    3    3    0  502 -0.67027489223E+02 -0.17645642001E+02  0.57343981084E+02  0.89957685384E+02  0.00000000000E+00 0.  1.
         13    1    5    5    0    0 -0.12205847512E+02 -0.16984522126E+02  0.36667117796E+03  0.36726721804E+03  0.00000000000E+00 0. -1.
        -13    1    5    5    0    0  0.50581611814E+02  0.80932083799E+02  0.24282515117E+04  0.24301263148E+04  0.00000000000E+00 0.  1.
          2    1    6    6  503    0  0.70566414819E+02 -0.42620104329E+02  0.22437193702E+01  0.82468942458E+02  0.00000000000E+00 0. -1.
         -2    1    6    6    0  503  0.83473941943E+02  0.35689448899E+02  0.34482580726E+02  0.97111709488E+02  0.00000000000E+00 0.  1.
<mgrwt>
<rscale>  0 0.11640812E+04</rscale>
<asrwt>0</asrwt>
<pdfrwt beam="1">  1        1 0.50444321E+00 0.11640812E+04</pdfrwt>
<pdfrwt beam="2">  1       -2 0.15895259E-01 0.11640812E+04</pdfrwt>
<totfact> 0.10477036E+01</totfact>
</mgrwt>
</event>
<event>
12    5  0.5468410E-008  0.2077042E+04  0.7818608E-02  0.8571425E-01
         -2   -1    0    0    0  501 -0.00000000000E+00  0.00000000000E+00  0.84795377961E+03  0.84795377961E+03  0.00000000000E+00 0.  1.
          1   -1    0    0  501    0  0.00000000000E+00 -0.00000000000E+00 -0.12719158159E+04  0.12719158159E+04  0.00000000000E+00 0. -1.
        -24    2    1    2    0    0 -0.34735697017E+03  0.80950970622E+02  0.60757320205E+03  0.70913052506E+03  0.80690652201E+02 0.  0.
        254    2    1    2    0    0  0.34735697017E+03 -0.80950970622E+02 -0.10315352383E+04  0.14107390705E+04  0.89381757234E+03 0.  0.
         23    2    4    4    0    0 -0.12473543218E+03 -0.16021756011E+03 -0.86890807962E+03  0.89711461412E+03  0.92654117198E+02 0.  0.
         23    2    4    4    0    0  0.47209240235E+03  0.79266589484E+02 -0.16262715872E+03  0.51362445634E+03  0.90598348959E+02 0.  0.
          1    1    3    3  502    0 -0.23923424716E+02 -0.12796798024E+02  0.66546775561E+02  0.71864884522E+02  0.00000000000E+00 0. -1.
         -2    1    3    3    0  502 -0.32343354545E+03  0.93747768647E+02  0.54102642649E+03  0.63726564053E+03  0.00000000000E+00 0.  1.
         13    1    5    5    0    0 -0.12303258671E+03 -0.16875131787E+03 -0.85855733667E+03  0.88359194486E+03  0.00000000000E+00 0. -1.
        -13    1    5    5    0    0 -0.17028454725E+01  0.85337577651E+01 -0.10350742953E+02  0.13522669262E+02  0.00000000000E+00 0.  1.
          2    1    6    6  503    0  0.42758083780E+02 -0.16069074720E+02 -0.28477256642E+02  0.53827716251E+02  0.00000000000E+00 0.  1.
         -2    1    6    6    0  503  0.42933431857E+03  0.95335664204E+02 -0.13414990207E+03  0.45979674009E+03  0.00000000000E+00 0. -1.
<mgrwt>
<rscale>  0 0.20770420E+04</rscale>
<asrwt>0</asrwt>
<pdfrwt beam="1">  1        1 0.19567936E+00 0.20770420E+04</pdfrwt>
<pdfrwt beam="2">  1       -2 0.13045443E+00 0.20770420E+04</pdfrwt>
<totfact> 0.32979675E+00</totfact>
</mgrwt>
</event>
<event>
12    5  0.5221187E-008  0.1441561E+04  0.7818608E-02  0.8924272E-01
          1   -1    0    0  501    0  0.00000000000E+00  0.00000000000E+00  0.94736850384E+03  0.94736850384E+03  0.00000000000E+00 0. -1.
         -2   -1    0    0    0  501 -0.00000000000E+00 -0.00000000000E+00 -0.54838701673E+03  0.54838701673E+03  0.00000000000E+00 0.  1.
        -24    2    1    2    0    0  0.27462591204E+03 -0.10854882056E+03 -0.72862707357E+02  0.31541498541E+03  0.83518865487E+02 0.  0.
        254    2    1    2    0    0 -0.27462591204E+03  0.10854882056E+03  0.47184419447E+03  0.11803405352E+04  0.10408480182E+04 0.  0.
         23    2    4    4    0    0 -0.60300528426E+03  0.18249003011E+03  0.58706582264E+02  0.63978134904E+03  0.94634707389E+02 0.  0.
         23    2    4    4    0    0  0.32837937222E+03 -0.73941209549E+02  0.41313761221E+03  0.54055918612E+03  0.90671012503E+02 0.  0.
          1    1    3    3  502    0  0.11193578424E+03 -0.14811085095E+02  0.28863329552E+01  0.11294830213E+03  0.00000000000E+00 0. -1.
         -2    1    3    3    0  502  0.16269012779E+03 -0.93737735467E+02 -0.75749040312E+02  0.20246668328E+03  0.00000000000E+00 0.  1.
         13    1    5    5    0    0 -0.46545824752E+03  0.16878991037E+03  0.17041422844E+02  0.49541076303E+03  0.00000000000E+00 0. -1.
        -13    1    5    5    0    0 -0.13754703674E+03  0.13700119737E+02  0.41665159420E+02  0.14437058601E+03  0.00000000000E+00 0.  1.
          3    1    6    6  503    0  0.17610822170E+03 -0.79610461574E+02  0.26547573800E+03  0.32837371821E+03  0.00000000000E+00 0. -1.
         -3    1    6    6    0  503  0.15227115052E+03  0.56692520246E+01  0.14766187421E+03  0.21218546791E+03  0.00000000000E+00 0.  1.
<mgrwt>
<rscale>  0 0.14415611E+04</rscale>
<asrwt>0</asrwt>
<pdfrwt beam="1">  1        1 0.14574900E+00 0.14415611E+04</pdfrwt>
<pdfrwt beam="2">  1       -2 0.84367234E-01 0.14415611E+04</pdfrwt>
<totfact> 0.17390448E+01</totfact>
</mgrwt>
</event>
<event>
12    5  0.5221187E-008  0.1273194E+04  0.7818608E-02  0.9051097E-01
          1   -1    0    0  501    0  0.00000000000E+00  0.00000000000E+00  0.60740344899E+03  0.60740344899E+03  0.00000000000E+00 0. -1.
         -2   -1    0    0    0  501 -0.00000000000E+00 -0.00000000000E+00 -0.66719398378E+03  0.66719398378E+03  0.00000000000E+00 0.  1.
        -24    2    1    2    0    0 -0.13765204492E+03 -0.26092691786E+03 -0.10002523591E+03  0.32015923689E+03  0.73932044572E+02 0.  0.
        254    2    1    2    0    0  0.13765204492E+03  0.26092691786E+03  0.40234701124E+02  0.95443819588E+03  0.90680896371E+03 0.  0.
         23    2    4    4    0    0  0.14257400035E+02  0.52189622084E+03 -0.20124240456E+03  0.56661787164E+03  0.89321712245E+02 0.  0.
         23    2    4    4    0    0  0.12339464489E+03 -0.26096930299E+03  0.24147710568E+03  0.38782032425E+03  0.93606601494E+02 0.  0.
          3    1    3    3  502    0 -0.12476480459E+03 -0.17999889628E+03 -0.92908722010E+02  0.23790311001E+03  0.00000000000E+00 0. -1.
         -4    1    3    3    0  502 -0.12887240334E+02 -0.80928021579E+02 -0.71165139029E+01  0.82256126886E+02  0.00000000000E+00 0.  1.
         13    1    5    5    0    0 -0.18830801976E+02  0.23413149686E+03 -0.51199619752E+02  0.24040290761E+03  0.00000000000E+00 0.  1.
        -13    1    5    5    0    0  0.33088202011E+02  0.28776472398E+03 -0.15004278480E+03  0.32621496402E+03  0.00000000000E+00 0. -1.
          2    1    6    6  503    0  0.38607292392E+02 -0.90931598419E+02  0.29383594474E+02  0.10306538818E+03  0.00000000000E+00 0.  1.
         -2    1    6    6    0  503  0.84787352495E+02 -0.17003770457E+03  0.21209351121E+03  0.28475493607E+03  0.00000000000E+00 0. -1.
<mgrwt>
<rscale>  0 0.12731943E+04</rscale>
<asrwt>0</asrwt>
<pdfrwt beam="1">  1        1 0.93446684E-01 0.12731943E+04</pdfrwt>
<pdfrwt beam="2">  1       -2 0.10264523E+00 0.12731943E+04</pdfrwt>
<totfact> 0.22500390E+01</totfact>
</mgrwt>
</event>
<event>
12    5  0.5221187E-008  0.1836032E+04  0.7818608E-02  0.8687369E-01
         -2   -1    0    0    0  501 -0.00000000000E+00  0.00000000000E+00  0.70293332478E+03  0.70293332478E+03  0.00000000000E+00 0.  1.
          1   -1    0    0  501    0  0.00000000000E+00 -0.00000000000E+00 -0.11989096240E+04  0.11989096240E+04  0.00000000000E+00 0. -1.
        -24    2    1    2    0    0 -0.64544754032E+03 -0.25039612930E+03 -0.28200048953E+03  0.75184281034E+03  0.80265724284E+02 0.  0.
        254    2    1    2    0    0  0.64544754032E+03  0.25039612930E+03 -0.21397580972E+03  0.11500001385E+04  0.89298035951E+03 0.  0.
         23    2    4    4    0    0  0.79085938960E+03  0.40875897697E+02  0.11502074596E+02  0.79728670827E+03  0.91675429226E+02 0.  0.
         23    2    4    4    0    0 -0.14541184929E+03  0.20952023160E+03 -0.22547788432E+03  0.35271343020E+03  0.92320930275E+02 0.  0.
          3    1    3    3  502    0 -0.33587455394E+03 -0.16202728172E+03 -0.12219514722E+03  0.39242350848E+03  0.00000000000E+00 0. -1.
         -4    1    3    3    0  502 -0.30957298638E+03 -0.88368847581E+02 -0.15980534231E+03  0.35941930186E+03  0.00000000000E+00 0.  1.
         13    1    5    5    0    0  0.73286875085E+03  0.55864731604E+02 -0.55302750052E+01  0.73501568565E+03  0.00000000000E+00 0. -1.
        -13    1    5    5    0    0  0.57990638750E+02 -0.14988833907E+02  0.17032349601E+02  0.62271022615E+02  0.00000000000E+00 0.  1.
          3    1    6    6  503    0 -0.10803273641E+03  0.90523312433E+02 -0.83889716829E+02  0.16402142183E+03  0.00000000000E+00 0. -1.
         -3    1    6    6    0  503 -0.37379112878E+02  0.11899691917E+03 -0.14158816749E+03  0.18869200837E+03  0.00000000000E+00 0.  1.
<mgrwt>
<rscale>  0 0.18360322E+04</rscale>
<asrwt>0</asrwt>
<pdfrwt beam="1">  1        1 0.18444763E+00 0.18360322E+04</pdfrwt>
<pdfrwt beam="2">  1       -2 0.10814359E+00 0.18360322E+04</pdfrwt>
<totfact> 0.60478775E+00</totfact>
</mgrwt>
</event>
<event>
12    5  0.5221187E-008  0.4265688E+04  0.7818608E-02  0.7952993E-01
          1   -1    0    0  501    0  0.00000000000E+00  0.00000000000E+00  0.24661585528E+04  0.24661585528E+04  0.00000000000E+00 0. -1.
         -2   -1    0    0    0  501 -0.00000000000E+00 -0.00000000000E+00 -0.18445790667E+04  0.18445790667E+04  0.00000000000E+00 0.  1.
        -24    2    1    2    0    0 -0.82760710103E+03 -0.88682465287E+03  0.19675669884E+04  0.23127980829E+04  0.79521316614E+02 0.  0.
        254    2    1    2    0    0  0.82760710103E+03  0.88682465287E+03 -0.13459875023E+04  0.19979395365E+04  0.84183641920E+03 0.  0.
         23    2    4    4    0    0 -0.25680611908E+02  0.53553318060E+03 -0.57541667832E+03  0.79224131592E+03  0.95324013824E+02 0.  0.
         23    2    4    4    0    0  0.85328771293E+03  0.35129147227E+03 -0.77057082399E+03  0.12056982206E+04  0.91777910658E+02 0.  0.
          1    1    3    3  502    0 -0.80018254076E+03 -0.83277975047E+03  0.18628811605E+04  0.21918349458E+04  0.00000000000E+00 0. -1.
         -2    1    3    3    0  502 -0.27424560267E+02 -0.54044902404E+02  0.10468582792E+03  0.12096313715E+03  0.00000000000E+00 0.  1.
         13    1    5    5    0    0 -0.42834743360E+02  0.37140464501E+03 -0.44954230851E+03  0.58469181003E+03  0.00000000000E+00 0.  1.
        -13    1    5    5    0    0  0.17154131452E+02  0.16412853559E+03 -0.12587436981E+03  0.20754950589E+03  0.00000000000E+00 0. -1.
          2    1    6    6  503    0  0.58430571421E+03  0.21895236797E+03 -0.56895946192E+03  0.84443364240E+03  0.00000000000E+00 0. -1.
         -2    1    6    6    0  503  0.26898199872E+03  0.13233910430E+03 -0.20161136207E+03  0.36126457822E+03  0.00000000000E+00 0.  1.
<mgrwt>
<rscale>  0 0.42656884E+04</rscale>
<asrwt>0</asrwt>
<pdfrwt beam="1">  1        1 0.37940901E+00 0.42656884E+04</pdfrwt>
<pdfrwt beam="2">  1       -2 0.28378139E+00 0.42656884E+04</pdfrwt>
<totfact> 0.38470316E-02</totfact>
</mgrwt>
</event>
<event>
12    5  0.5221187E-008  0.2894703E+04  0.7818608E-02  0.8274455E-01
          1   -1    0    0  501    0  0.00000000000E+00  0.00000000000E+00  0.24031908198E+04  0.24031908198E+04  0.00000000000E+00 0. -1.
         -2   -1    0    0    0  501 -0.00000000000E+00 -0.00000000000E+00 -0.87168520002E+03  0.87168520002E+03  0.00000000000E+00 0.  1.
        -24    2    1    2    0    0  0.47592166777E+03  0.91714925636E+03  0.15976450047E+04  0.19043332227E+04  0.79694853938E+02 0.  0.
        254    2    1    2    0    0 -0.47592166777E+03 -0.91714925636E+03 -0.66139384961E+02  0.13705427971E+04  0.89796934699E+03 0.  0.
         23    2    4    4    0    0 -0.52547126362E+03 -0.47535170071E+03 -0.38922262000E+03  0.81344972100E+03  0.90149389409E+02 0.  0.
         23    2    4    4    0    0  0.49549595849E+02 -0.44179755565E+03  0.32308323504E+03  0.55709307610E+03  0.91267058952E+02 0.  0.
          3    1    3    3  502    0  0.44301857546E+03  0.88804837052E+03  0.15290931535E+04  0.18229155873E+04  0.00000000000E+00 0. -1.
         -4    1    3    3    0  502  0.32903092310E+02  0.29100885836E+02  0.68551851284E+02  0.81417635402E+02  0.00000000000E+00 0.  1.
         13    1    5    5    0    0 -0.44652488019E+03 -0.39765238774E+03 -0.36345830596E+03  0.69972411012E+03  0.00000000000E+00 0.  1.
        -13    1    5    5    0    0 -0.78946383428E+02 -0.77699312970E+02 -0.25764314043E+02  0.11372561088E+03  0.00000000000E+00 0. -1.
          1    1    6    6  503    0  0.47939398114E+02 -0.10130209823E+03  0.62488285159E+02  0.12831635429E+03  0.00000000000E+00 0. -1.
         -1    1    6    6    0  503  0.16101977347E+01 -0.34049545742E+03  0.26059494988E+03  0.42877672180E+03  0.00000000000E+00 0.  1.
<mgrwt>
<rscale>  0 0.28947027E+04</rscale>
<asrwt>0</asrwt>
<pdfrwt beam="1">  1        1 0.36972166E+00 0.28947027E+04</pdfrwt>
<pdfrwt beam="2">  1       -2 0.13410542E+00 0.28947027E+04</pdfrwt>
<totfact> 0.47896206E-01</totfact>
</mgrwt>
</event>
<event>
12    5  0.5221187E-008  0.2865208E+04  0.7818608E-02  0.8283305E-01
         -2   -1    0    0    0  501 -0.00000000000E+00  0.00000000000E+00  0.11015267862E+04  0.11015267862E+04  0.00000000000E+00 0.  1.
          1   -1    0    0  501    0  0.00000000000E+00 -0.00000000000E+00 -0.18631909500E+04  0.18631909500E+04  0.00000000000E+00 0. -1.
        -24    2    1    2    0    0  0.98498006982E+03  0.13564610286E+03  0.52645081789E+03  0.11278676931E+04  0.79683538279E+02 0.  0.
        254    2    1    2    0    0 -0.98498006982E+03 -0.13564610286E+03 -0.12881149816E+04  0.18368500431E+04  0.85216915689E+03 0.  0.
         23    2    4    4    0    0 -0.12889083688E+03 -0.23069308606E+03 -0.78825330693E+03  0.83648276799E+03  0.92347157294E+02 0.  0.
         23    2    4    4    0    0 -0.85608923294E+03  0.95046983194E+02 -0.49986167469E+03  0.10003672752E+04  0.94605959722E+02 0.  0.
          3    1    3    3  502    0  0.11153793766E+03 -0.41621650280E+01  0.77622000785E+02  0.13595297040E+03  0.00000000000E+00 0. -1.
         -4    1    3    3    0  502  0.87344213216E+03  0.13980826789E+03  0.44882881711E+03  0.99191472268E+03  0.00000000000E+00 0.  1.
         13    1    5    5    0    0 -0.16760530495E+02 -0.70777293387E+02 -0.12047781895E+03  0.14073111063E+03  0.00000000000E+00 0.  1.
        -13    1    5    5    0    0 -0.11213030638E+03 -0.15991579267E+03 -0.66777548798E+03  0.69575165735E+03  0.00000000000E+00 0. -1.
          4    1    6    6  503    0 -0.66274592454E+02 -0.85091247185E+01 -0.63136911774E+02  0.91929301296E+02  0.00000000000E+00 0. -1.
         -4    1    6    6    0  503 -0.78981464048E+03  0.10355610791E+03 -0.43672476292E+03  0.90843797386E+03  0.00000000000E+00 0.  1.
<mgrwt>
<rscale>  0 0.28652084E+04</rscale>
<asrwt>0</asrwt>
<pdfrwt beam="1">  1        1 0.28664476E+00 0.28652084E+04</pdfrwt>
<pdfrwt beam="2">  1       -2 0.16946566E+00 0.28652084E+04</pdfrwt>
<totfact> 0.60040265E-01</totfact>
</mgrwt>
</event>
<event>
12    5  0.5221187E-008  0.1667323E+04  0.7818608E-02  0.8780224E-01
          1   -1    0    0  501    0  0.00000000000E+00  0.00000000000E+00  0.13305126959E+04  0.13305126959E+04  0.00000000000E+00 0. -1.
         -2   -1    0    0    0  501 -0.00000000000E+00 -0.00000000000E+00 -0.52234889024E+03  0.52234889024E+03  0.00000000000E+00 0.  1.
        -24    2    1    2    0    0 -0.56143076623E+03  0.18650792298E+03  0.32075825335E+03  0.68104826980E+03  0.10464787675E+03 0.  0.
        254    2    1    2    0    0  0.56143076623E+03 -0.18650792298E+03  0.48740555228E+03  0.11718133163E+04  0.88633659816E+03 0.  0.
         23    2    4    4    0    0 -0.20954850024E+03  0.74726266380E+02  0.16132561439E+03  0.29016206025E+03  0.93131511916E+02 0.  0.
         23    2    4    4    0    0  0.77097926647E+03 -0.26123418936E+03  0.32607993789E+03  0.88165125604E+03  0.91260508192E+02 0.  0.
          1    1    3    3  502    0 -0.33556587996E+03  0.70622092605E+02  0.14516197132E+03  0.37237607022E+03  0.00000000000E+00 0. -1.
         -2    1    3    3    0  502 -0.22586488627E+03  0.11588583037E+03  0.17559628203E+03  0.30867219958E+03  0.00000000000E+00 0.  1.
         13    1    5    5    0    0 -0.16477228051E+03  0.96874672161E+02  0.12473028060E+03  0.22823726564E+03  0.00000000000E+00 0.  1.
        -13    1    5    5    0    0 -0.44776219734E+02 -0.22148405781E+02  0.36595333786E+02  0.61924794608E+02  0.00000000000E+00 0. -1.
          4    1    6    6  503    0  0.47430710190E+03 -0.11343243667E+03  0.19352628192E+03  0.52467758328E+03  0.00000000000E+00 0. -1.
         -4    1    6    6    0  503  0.29667216457E+03 -0.14780175269E+03  0.13255365597E+03  0.35697367276E+03  0.00000000000E+00 0.  1.
<mgrwt>
<rscale>  0 0.16673234E+04</rscale>
<asrwt>0</asrwt>
<pdfrwt beam="1">  1        1 0.20469426E+00 0.16673234E+04</pdfrwt>
<pdfrwt beam="2">  1       -2 0.80361368E-01 0.16673234E+04</pdfrwt>
<totfact> 0.98548017E+00</totfact>
</mgrwt>
</event>
<event>
12    5  0.5221187E-008  0.1057934E+04  0.7818608E-02  0.9247191E-01
         -2   -1    0    0    0  501 -0.00000000000E+00  0.00000000000E+00  0.46340458259E+03  0.46340458259E+03  0.00000000000E+00 0.  1.
          1   -1    0    0  501    0  0.00000000000E+00 -0.00000000000E+00 -0.60380548641E+03  0.60380548641E+03  0.00000000000E+00 0. -1.
        -24    2    1    2    0    0  0.52587421440E+02 -0.67789698706E+02  0.74323400080E+02  0.14085765843E+03  0.83402829656E+02 0.  0.
        254    2    1    2    0    0 -0.52587421440E+02  0.67789698706E+02 -0.21472430391E+03  0.92635241057E+03  0.89702919782E+03 0.  0.
         23    2    4    4    0    0  0.29936165753E+03 -0.21228456884E+03  0.70401061625E+02  0.38582644573E+03  0.96039557372E+02 0.  0.
         23    2    4    4    0    0 -0.35194907897E+03  0.28007426755E+03 -0.28512536553E+03  0.54052596484E+03  0.92531589575E+02 0.  0.
          1    1    3    3  502    0  0.34531815218E+02  0.12857128636E+02  0.19569961851E+02  0.41722121541E+02  0.00000000000E+00 0. -1.
         -2    1    3    3    0  502  0.18055606222E+02 -0.80646827342E+02  0.54753438230E+02  0.99135536889E+02  0.00000000000E+00 0.  1.
         13    1    5    5    0    0  0.10513937588E+03 -0.97940319186E+02 -0.15729947769E+02  0.14454765906E+03  0.00000000000E+00 0. -1.
        -13    1    5    5    0    0  0.19422228165E+03 -0.11434424966E+03  0.86131009395E+02  0.24127878667E+03  0.00000000000E+00 0.  1.
          3    1    6    6  503    0 -0.34235668081E+03  0.24587549398E+03 -0.24754348282E+03  0.48881553916E+03  0.00000000000E+00 0. -1.
         -3    1    6    6    0  503 -0.95923981551E+01  0.34198773575E+02 -0.37581882712E+02  0.51710425686E+02  0.00000000000E+00 0.  1.
<mgrwt>
<rscale>  0 0.10579343E+04</rscale>
<asrwt>0</asrwt>
<pdfrwt beam="1">  1        1 0.92893152E-01 0.10579343E+04</pdfrwt>
<pdfrwt beam="2">  1       -2 0.71293013E-01 0.10579343E+04</pdfrwt>
<totfact> 0.53027612E+01</totfact>
</mgrwt>
</event>
<event>
12    5  0.5221187E-008  0.2050327E+04  0.7818608E-02  0.8583446E-01
         -2   -1    0    0    0  501 -0.00000000000E+00  0.00000000000E+00  0.87839138343E+03  0.87839138343E+03  0.00000000000E+00 0.  1.
          1   -1    0    0  501    0  0.00000000000E+00 -0.00000000000E+00 -0.11964597212E+04  0.11964597212E+04  0.00000000000E+00 0. -1.
        -24    2    1    2    0    0 -0.75112593242E+03 -0.23596565246E+03 -0.37921484198E+03  0.87777975739E+03  0.82604180315E+02 0.  0.
        254    2    1    2    0    0  0.75112593242E+03  0.23596565246E+03  0.61146504210E+02  0.11970713473E+04  0.89965046543E+03 0.  0.
         23    2    4    4    0    0  0.19497180110E+03 -0.17163679174E+03 -0.30454474294E+03  0.41101165660E+03  0.93326790929E+02 0.  0.
         23    2    4    4    0    0  0.55615413132E+03  0.40760244421E+03  0.36569124715E+03  0.78605969066E+03  0.93341195237E+02 0.  0.
          1    1    3    3  502    0 -0.15382045704E+03 -0.81998343898E+02 -0.96590078755E+02  0.19928398009E+03  0.00000000000E+00 0. -1.
         -2    1    3    3    0  502 -0.59730547537E+03 -0.15396730857E+03 -0.28262476323E+03  0.67849577729E+03  0.00000000000E+00 0.  1.
         13    1    5    5    0    0  0.15490037869E+03 -0.16356899940E+03 -0.20985781851E+03  0.30787862685E+03  0.00000000000E+00 0.  1.
        -13    1    5    5    0    0  0.40071422411E+02 -0.80677923415E+01 -0.94686924421E+02  0.10313302974E+03  0.00000000000E+00 0. -1.
          1    1    6    6  503    0  0.53419288055E+03  0.37922476875E+03  0.36550084106E+03  0.75017619508E+03  0.00000000000E+00 0. -1.
         -1    1    6    6    0  503  0.21961250771E+02  0.28377675460E+02  0.19040609030E+00  0.35883495572E+02  0.00000000000E+00 0.  1.
<mgrwt>
<rscale>  0 0.20503267E+04</rscale>
<asrwt>0</asrwt>
<pdfrwt beam="1">  1        1 0.18407073E+00 0.20503267E+04</pdfrwt>
<pdfrwt beam="2">  1       -2 0.13513714E+00 0.20503267E+04</pdfrwt>
<totfact> 0.34271602E+00</totfact>
</mgrwt>
</event>
<event>
12    5  0.5221187E-008  0.1973219E+04  0.7818608E-02  0.8619245E-01
         -2   -1    0    0    0  501 -0.00000000000E+00  0.00000000000E+00  0.19010372803E+04  0.19010372803E+04  0.00000000000E+00 0.  1.
          1   -1    0    0  501    0  0.00000000000E+00 -0.00000000000E+00 -0.51203514741E+03  0.51203514741E+03  0.00000000000E+00 0. -1.
        -24    2    1    2    0    0  0.68136388460E+03  0.29960639858E+03  0.28133397578E+03  0.80313778336E+03  0.10890709726E+03 0.  0.
        254    2    1    2    0    0 -0.68136388460E+03 -0.29960639858E+03  0.11076681572E+04  0.16099346444E+04  0.90052211272E+03 0.  0.
         23    2    4    4    0    0  0.16996791033E+03 -0.13605263317E+03  0.48379081446E+03  0.53824807537E+03  0.90873697800E+02 0.  0.
         23    2    4    4    0    0 -0.85133179493E+03 -0.16355376542E+03  0.62387734270E+03  0.10716865690E+04  0.88167478293E+02 0.  0.
          3    1    3    3  502    0  0.64848112638E+03  0.30850375602E+03  0.26643473313E+03  0.76595679106E+03  0.00000000000E+00 0. -1.
         -4    1    3    3    0  502  0.32882758215E+02 -0.88973574374E+01  0.14899242646E+02  0.37180992303E+02  0.00000000000E+00 0.  1.
         13    1    5    5    0    0  0.15471292398E+03 -0.75904587706E+02  0.38133476963E+03  0.41846601034E+03  0.00000000000E+00 0. -1.
        -13    1    5    5    0    0  0.15254986355E+02 -0.60148045459E+02  0.10245604482E+03  0.11978206503E+03  0.00000000000E+00 0.  1.
          3    1    6    6  503    0 -0.71712134759E+03 -0.16386889733E+03  0.50368789177E+03  0.89152539784E+03  0.00000000000E+00 0. -1.
         -3    1    6    6    0  503 -0.13421044734E+03  0.31513191039E+00  0.12018945093E+03  0.18016117118E+03  0.00000000000E+00 0.  1.
<mgrwt>
<rscale>  0 0.19732186E+04</rscale>
<asrwt>0</asrwt>
<pdfrwt beam="1">  1        1 0.78774639E-01 0.19732186E+04</pdfrwt>
<pdfrwt beam="2">  1       -2 0.29246727E+00 0.19732186E+04</pdfrwt>
<totfact> 0.12346139E+00</totfact>
</mgrwt>
</event>
<event>
12    5  0.5221187E-008  0.1499552E+04  0.7818608E-02  0.8884751E-01
          1   -1    0    0  501    0  0.00000000000E+00  0.00000000000E+00  0.16521222027E+04  0.16521222027E+04  0.00000000000E+00 0. -1.
         -2   -1    0    0    0  501 -0.00000000000E+00 -0.00000000000E+00 -0.34026771251E+03  0.34026771251E+03  0.00000000000E+00 0.  1.
        -24    2    1    2    0    0  0.16058876923E+02 -0.25596478562E+03  0.93393794581E+03  0.97183666980E+03  0.80315422899E+02 0.  0.
        254    2    1    2    0    0 -0.16058876923E+02  0.25596478562E+03  0.37791654436E+03  0.10205532454E+04  0.91265116728E+03 0.  0.
         23    2    4    4    0    0  0.16280215046E+03  0.53532070248E+03  0.95199945410E+02  0.57520532857E+03  0.93409559023E+02 0.  0.
         23    2    4    4    0    0 -0.17886102738E+03 -0.27935591686E+03  0.28271659895E+03  0.44534791680E+03  0.91515552099E+02 0.  0.
          1    1    3    3  502    0  0.39209618623E+02 -0.14709854269E+03  0.63085984344E+03  0.64896804045E+03  0.00000000000E+00 0. -1.
         -2    1    3    3    0  502 -0.23150741700E+02 -0.10886624293E+03  0.30307810236E+03  0.32286862935E+03  0.00000000000E+00 0.  1.
         13    1    5    5    0    0  0.24511230083E+02  0.38335539531E+02 -0.14592049467E+02  0.47784326918E+02  0.00000000000E+00 0.  1.
        -13    1    5    5    0    0  0.13829092037E+03  0.49698516295E+03  0.10979199488E+03  0.52742100166E+03  0.00000000000E+00 0. -1.
          1    1    6    6  503    0 -0.17053518340E+03 -0.27098769872E+03  0.28956598523E+03  0.43170017539E+03  0.00000000000E+00 0. -1.
         -1    1    6    6    0  503 -0.83258439812E+01 -0.83682181452E+01 -0.68493862859E+01  0.13647741404E+02  0.00000000000E+00 0.  1.
<mgrwt>
<rscale>  0 0.14995517E+04</rscale>
<asrwt>0</asrwt>
<pdfrwt beam="1">  1        1 0.25417264E+00 0.14995517E+04</pdfrwt>
<pdfrwt beam="2">  1       -2 0.52348880E-01 0.14995517E+04</pdfrwt>
<totfact> 0.15027461E+01</totfact>
</mgrwt>
</event>
<event>
12    5  0.5221187E-008  0.1267546E+04  0.7818608E-02  0.9055705E-01
         -2   -1    0    0    0  501 -0.00000000000E+00  0.00000000000E+00  0.54423703232E+03  0.54423703232E+03  0.00000000000E+00 0.  1.
          1   -1    0    0  501    0  0.00000000000E+00 -0.00000000000E+00 -0.73803965492E+03  0.73803965492E+03  0.00000000000E+00 0. -1.
        -24    2    1    2    0    0  0.51682488099E+02 -0.23463339496E+02  0.26142877303E+03  0.27930872652E+03  0.80291677457E+02 0.  0.
        254    2    1    2    0    0 -0.51682488099E+02  0.23463339496E+02 -0.45523139563E+03  0.10029679607E+04  0.89190105885E+03 0.  0.
         23    2    4    4    0    0 -0.43604905960E+03  0.14410490096E+03 -0.32555313950E+03  0.56994286941E+03  0.89134857922E+02 0.  0.
         23    2    4    4    0    0  0.38436657150E+03 -0.12064156147E+03 -0.12967825613E+03  0.43302509130E+03  0.91663689348E+02 0.  0.
          3    1    3    3  502    0 -0.63422103174E+01 -0.37367753257E+02  0.11888440051E+03  0.12478009977E+03  0.00000000000E+00 0. -1.
         -4    1    3    3    0  502  0.58024698416E+02  0.13904413761E+02  0.14254437252E+03  0.15452862675E+03  0.00000000000E+00 0.  1.
         13    1    5    5    0    0 -0.11181669278E+03  0.66234331722E+02 -0.12774965419E+03  0.18223592848E+03  0.00000000000E+00 0.  1.
        -13    1    5    5    0    0 -0.32423236682E+03  0.77870569242E+02 -0.19780348531E+03  0.38770694093E+03  0.00000000000E+00 0. -1.
          4    1    6    6  503    0  0.30578820720E+03 -0.92718075943E+02 -0.61703822762E+02  0.32543882837E+03  0.00000000000E+00 0. -1.
         -4    1    6    6    0  503  0.78578364304E+02 -0.27923485525E+02 -0.67974433365E+02  0.10758626293E+03  0.00000000000E+00 0.  1.
<mgrwt>
<rscale>  0 0.12675465E+04</rscale>
<asrwt>0</asrwt>
<pdfrwt beam="1">  1        1 0.11354456E+00 0.12675465E+04</pdfrwt>
<pdfrwt beam="2">  1       -2 0.83728774E-01 0.12675465E+04</pdfrwt>
<totfact> 0.27019411E+01</totfact>
</mgrwt>
</event>
<event>
12    5  0.5221187E-008  0.1723087E+04  0.7818608E-02  0.8748306E-01
          1   -1    0    0  501    0  0.00000000000E+00  0.00000000000E+00  0.37645423917E+04  0.37645423917E+04  0.00000000000E+00 0. -1.
         -2   -1    0    0    0  501 -0.00000000000E+00 -0.00000000000E+00 -0.19717054567E+03  0.19717054567E+03  0.00000000000E+00 0.  1.
        -24    2    1    2    0    0 -0.29127702072E+03  0.19062110073E+03  0.11399167934E+03  0.37574977847E+03  0.83756111561E+02 0.  0.
        254    2    1    2    0    0  0.29127702072E+03 -0.19062110073E+03  0.34533801666E+04  0.35859631588E+04  0.90117617279E+03 0.  0.
         23    2    4    4    0    0 -0.31572406267E+03 -0.10528503480E+03  0.12875907416E+04  0.13330687420E+04  0.91737292953E+02 0.  0.
         23    2    4    4    0    0  0.60700108338E+03 -0.85336065933E+02  0.21657894251E+04  0.22528944168E+04  0.95691484255E+02 0.  0.
          1    1    3    3  502    0 -0.44946271629E+02  0.87739603128E+01  0.39882447508E+02  0.60726924277E+02  0.00000000000E+00 0. -1.
         -2    1    3    3    0  502 -0.24633074909E+03  0.18184714042E+03  0.74109231832E+02  0.31502285420E+03  0.00000000000E+00 0.  1.
         13    1    5    5    0    0 -0.23592288504E+03 -0.11772066967E+03  0.10225767142E+04  0.10560212594E+04  0.00000000000E+00 0. -1.
        -13    1    5    5    0    0 -0.79801177624E+02  0.12435634876E+02  0.26501402733E+03  0.27704748266E+03  0.00000000000E+00 0.  1.
          2    1    6    6  503    0  0.45960617873E+03 -0.49889356453E+02  0.14788864657E+04  0.15494618311E+04  0.00000000000E+00 0. -1.
         -2    1    6    6    0  503  0.14739490465E+03 -0.35446709480E+02  0.68690295934E+03  0.70343258574E+03  0.00000000000E+00 0.  1.
<mgrwt>
<rscale>  0 0.17230866E+04</rscale>
<asrwt>0</asrwt>
<pdfrwt beam="1">  1        1 0.57916031E+00 0.17230866E+04</pdfrwt>
<pdfrwt beam="2">  1       -2 0.30333933E-01 0.17230866E+04</pdfrwt>
<totfact> 0.12919591E+00</totfact>
</mgrwt>
</event>
<event>
12    5  0.5221187E-008  0.1150589E+04  0.7818608E-02  0.9157240E-01
         -2   -1    0    0    0  501 -0.00000000000E+00  0.00000000000E+00  0.16104571410E+04  0.16104571410E+04  0.00000000000E+00 0.  1.
          1   -1    0    0  501    0  0.00000000000E+00 -0.00000000000E+00 -0.20550926272E+03  0.20550926272E+03  0.00000000000E+00 0. -1.
        -24    2    1    2    0    0 -0.96375047098E+02 -0.10793992757E+03  0.39656242030E+02  0.16951089170E+03  0.78880588269E+02 0.  0.
        254    2    1    2    0    0  0.96375047098E+02  0.10793992757E+03  0.13652916362E+04  0.16464555120E+04  0.90876582428E+03 0.  0.
         23    2    4    4    0    0  0.75920250225E+02  0.45970912594E+03  0.42073778983E+03  0.63426625821E+03  0.90426952014E+02 0.  0.
         23    2    4    4    0    0  0.20454796873E+02 -0.35176919836E+03  0.94455384640E+03  0.10121892538E+04  0.90471813882E+02 0.  0.
          1    1    3    3  502    0 -0.10411789615E+03 -0.11432456338E+03  0.38889007204E+02  0.15944590610E+03  0.00000000000E+00 0. -1.
         -2    1    3    3    0  502  0.77428490552E+01  0.63846358049E+01  0.76723482602E+00  0.10064985600E+02  0.00000000000E+00 0.  1.
         13    1    5    5    0    0 -0.13239004059E+02  0.17570507257E+03  0.13931823879E+03  0.22462661332E+03  0.00000000000E+00 0.  1.
        -13    1    5    5    0    0  0.89159254283E+02  0.28400405337E+03  0.28141955104E+03  0.40963964489E+03  0.00000000000E+00 0. -1.
          2    1    6    6  503    0 -0.15787810514E+02 -0.27506412031E+03  0.65835071043E+03  0.71367722618E+03  0.00000000000E+00 0. -1.
         -2    1    6    6    0  503  0.36242607388E+02 -0.76705078051E+02  0.28620313597E+03  0.29851202761E+03  0.00000000000E+00 0.  1.
<mgrwt>
<rscale>  0 0.11505892E+04</rscale>
<asrwt>0</asrwt>
<pdfrwt beam="1">  1        1 0.31616811E-01 0.11505892E+04</pdfrwt>
<pdfrwt beam="2">  1       -2 0.24776263E+00 0.11505892E+04</pdfrwt>
<totfact> 0.82712110E+00</totfact>
</mgrwt>
</event>
<event>
12    5  0.5221187E-008  0.1243886E+04  0.7818608E-02  0.9075287E-01
         -2   -1    0    0    0  501 -0.00000000000E+00  0.00000000000E+00  0.26292595270E+03  0.26292595270E+03  0.00000000000E+00 0.  1.
          1   -1    0    0  501    0  0.00000000000E+00 -0.00000000000E+00 -0.14711864481E+04  0.14711864481E+04  0.00000000000E+00 0. -1.
        -24    2    1    2    0    0  0.26213967814E+03  0.90715587121E+01 -0.16538382327E+03  0.32383120304E+03  0.93355958699E+02 0.  0.
        254    2    1    2    0    0 -0.26213967814E+03 -0.90715587121E+01 -0.10428766721E+04  0.14102811978E+04  0.91241536565E+03 0.  0.
         23    2    4    4    0    0  0.10443029946E+03 -0.27686539346E+03 -0.85802861298E+03  0.91222708302E+03  0.91569737166E+02 0.  0.
         23    2    4    4    0    0 -0.36656997760E+03  0.26779383475E+03 -0.18484805916E+03  0.49805411475E+03  0.88328986402E+02 0.  0.
          3    1    3    3  502    0  0.10662660774E+03 -0.39515337983E+02 -0.86136551019E+02  0.14265413010E+03  0.00000000000E+00 0. -1.
         -4    1    3    3    0  502  0.15551307040E+03  0.48586896695E+02 -0.79247272254E+02  0.18117707293E+03  0.00000000000E+00 0.  1.
         13    1    5    5    0    0  0.55444296670E+02 -0.20445992655E+03 -0.48774721927E+03  0.53176619064E+03  0.00000000000E+00 0.  1.
        -13    1    5    5    0    0  0.48986002788E+02 -0.72405466916E+02 -0.37028139370E+03  0.38046089238E+03  0.00000000000E+00 0. -1.
          3    1    6    6  503    0 -0.28863102795E+03  0.17729198195E+03 -0.10597200674E+03  0.35492306683E+03  0.00000000000E+00 0. -1.
         -3    1    6    6    0  503 -0.77938949654E+02  0.90501852802E+02 -0.78876052417E+02  0.14313104792E+03  0.00000000000E+00 0.  1.
<mgrwt>
<rscale>  0 0.12438860E+04</rscale>
<asrwt>0</asrwt>
<pdfrwt beam="1">  1        1 0.22633637E+00 0.12438860E+04</pdfrwt>
<pdfrwt beam="2">  1       -2 0.40450147E-01 0.12438860E+04</pdfrwt>
<totfact> 0.34306549E+01</totfact>
</mgrwt>
</event>
<event>
12    5  0.5221187E-008  0.1895085E+04  0.7818608E-02  0.8657307E-01
          1   -1    0    0  501    0  0.00000000000E+00  0.00000000000E+00  0.52983841754E+03  0.52983841754E+03  0.00000000000E+00 0. -1.
         -2   -1    0    0    0  501 -0.00000000000E+00 -0.00000000000E+00 -0.16945490618E+04  0.16945490618E+04  0.00000000000E+00 0.  1.
        -24    2    1    2    0    0  0.12126954410E+03 -0.42794173356E+03 -0.11322239634E+04  0.12192656191E+04  0.82686860463E+02 0.  0.
        254    2    1    2    0    0 -0.12126954410E+03  0.42794173356E+03 -0.32486680831E+02  0.10051218602E+04  0.90076308752E+03 0.  0.
         23    2    4    4    0    0 -0.25103325505E+03  0.29379146878E+03  0.37589269942E+03  0.54668097307E+03  0.90739421285E+02 0.  0.
         23    2    4    4    0    0  0.12976371095E+03  0.13415026479E+03 -0.40837938025E+03  0.45844088716E+03  0.92517104298E+02 0.  0.
          3    1    3    3  502    0  0.27790188665E+02 -0.90537935590E+02 -0.16008185766E+03  0.18599896107E+03  0.00000000000E+00 0. -1.
         -4    1    3    3    0  502  0.93479355433E+02 -0.33740379797E+03 -0.97214210573E+03  0.10332666580E+04  0.00000000000E+00 0.  1.
         13    1    5    5    0    0 -0.73460078616E+02  0.10031145586E+03  0.66984095588E+02  0.14122903522E+03  0.00000000000E+00 0. -1.
        -13    1    5    5    0    0 -0.17757317643E+03  0.19348001291E+03  0.30890860383E+03  0.40545193785E+03  0.00000000000E+00 0.  1.
          1    1    6    6  503    0  0.53109696436E+01  0.14575264605E+02 -0.12985788422E+03  0.13078117155E+03  0.00000000000E+00 0. -1.
         -1    1    6    6    0  503  0.12445274131E+03  0.11957500018E+03 -0.27852149603E+03  0.32765971561E+03  0.00000000000E+00 0.  1.
<mgrwt>
<rscale>  0 0.18950854E+04</rscale>
<asrwt>0</asrwt>
<pdfrwt beam="1">  1        1 0.81513603E-01 0.18950854E+04</pdfrwt>
<pdfrwt beam="2">  1       -2 0.26069986E+00 0.18950854E+04</pdfrwt>
<totfact> 0.18508179E+00</totfact>
</mgrwt>
</event>
<event>
12    5  0.6542643E-008  0.1560652E+04  0.7818608E-02  0.8845093E-01
         -2   -1    0    0    0  501 -0.00000000000E+00  0.00000000000E+00  0.28780351626E+03  0.28780351626E+03  0.00000000000E+00 0.  1.
          1   -1    0    0  501    0  0.00000000000E+00 -0.00000000000E+00 -0.21157091665E+04  0.21157091665E+04  0.00000000000E+00 0. -1.
        -24    2    1    2    0    0 -0.72365564593E+02 -0.16621452368E+03 -0.13574999337E+04  0.13724046935E+04  0.88456372445E+02 0.  0.
        254    2    1    2    0    0  0.72365564593E+02  0.16621452368E+03 -0.47040571650E+03  0.10311079893E+04  0.89946545490E+03 0.  0.
         23    2    4    4    0    0  0.96856515898E+02 -0.21703161576E+03 -0.57000132462E+03  0.62387115629E+03  0.88486172157E+02 0.  0.
         23    2    4    4    0    0 -0.24490951305E+02  0.38324613944E+03  0.99595608121E+02  0.40723683297E+03  0.91897458504E+02 0.  0.
          3    1    3    3  502    0 -0.92885257628E+02 -0.14499847036E+03 -0.11594100681E+04  0.11721279510E+04  0.00000000000E+00 0. -1.
         -2    1    3    3    0  502  0.20519693036E+02 -0.21216053318E+02 -0.19808986556E+03  0.20027674243E+03  0.00000000000E+00 0.  1.
         13    1    5    5    0    0  0.10298213663E+03 -0.21972102747E+03 -0.52489060219E+03  0.57826706170E+03  0.00000000000E+00 0. -1.
        -13    1    5    5    0    0 -0.61256207353E+01  0.26894117117E+01 -0.45110722428E+02  0.45604094583E+02  0.00000000000E+00 0.  1.
          1    1    6    6  503    0 -0.22597889063E+02  0.35679810662E+03  0.64554975311E+02  0.36329450631E+03  0.00000000000E+00 0. -1.
         -1    1    6    6    0  503 -0.18930622424E+01  0.26448032821E+02  0.35040632809E+02  0.43942326662E+02  0.00000000000E+00 0.  1.
<mgrwt>
<rscale>  0 0.15606518E+04</rscale>
<asrwt>0</asrwt>
<pdfrwt beam="1">  1        1 0.32549372E+00 0.15606518E+04</pdfrwt>
<pdfrwt beam="2">  1       -2 0.44277464E-01 0.15606518E+04</pdfrwt>
<totfact> 0.10173443E+01</totfact>
</mgrwt>
</event>
<event>
12    5  0.5221187E-008  0.1658186E+04  0.7818608E-02  0.8785578E-01
         -2   -1    0    0    0  501 -0.00000000000E+00  0.00000000000E+00  0.10153922773E+04  0.10153922773E+04  0.00000000000E+00 0.  1.
          1   -1    0    0  501    0  0.00000000000E+00 -0.00000000000E+00 -0.67697490141E+03  0.67697490141E+03  0.00000000000E+00 0. -1.
        -24    2    1    2    0    0  0.45313957367E+03 -0.15631616592E+03  0.46576569488E+03  0.67315185828E+03  0.80159371422E+02 0.  0.
        254    2    1    2    0    0 -0.45313957367E+03  0.15631616592E+03 -0.12734831895E+03  0.10192153205E+04  0.89039994282E+03 0.  0.
         23    2    4    4    0    0  0.24013377453E+03 -0.81355305743E+02 -0.61871023054E+02  0.27782772980E+03  0.95274910171E+02 0.  0.
         23    2    4    4    0    0 -0.69327334821E+03  0.23767147166E+03 -0.65477295893E+02  0.74138759066E+03  0.90843929545E+02 0.  0.
          3    1    3    3  502    0  0.49493812533E+02 -0.45485404306E+02  0.58003239611E+02  0.88785895780E+02  0.00000000000E+00 0. -1.
         -4    1    3    3    0  502  0.40364576114E+03 -0.11083076161E+03  0.40776245527E+03  0.58436596250E+03  0.00000000000E+00 0.  1.
         13    1    5    5    0    0  0.42058098148E+02  0.19369862792E+02  0.28135458222E+01  0.46389559650E+02  0.00000000000E+00 0. -1.
        -13    1    5    5    0    0  0.19807567639E+03 -0.10072516853E+03 -0.64684568877E+02  0.23143817015E+03  0.00000000000E+00 0.  1.
          4    1    6    6  503    0 -0.62625775299E+02  0.50817818077E+02 -0.10844564469E+02  0.81375935905E+02  0.00000000000E+00 0. -1.
         -4    1    6    6    0  503 -0.63064757291E+03  0.18685365358E+03 -0.54632731424E+02  0.66001165476E+03  0.00000000000E+00 0.  1.
<mgrwt>
<rscale>  0 0.16581859E+04</rscale>
<asrwt>0</asrwt>
<pdfrwt beam="1">  1        1 0.10414998E+00 0.16581859E+04</pdfrwt>
<pdfrwt beam="2">  1       -2 0.15621420E+00 0.16581859E+04</pdfrwt>
<totfact> 0.64370646E+00</totfact>
</mgrwt>
</event>
<event>
12    5  0.5221187E-008  0.2081971E+04  0.7818608E-02  0.8569227E-01
          3   -1    0    0  501    0  0.00000000000E+00  0.00000000000E+00  0.96375547372E+03  0.96375547372E+03  0.00000000000E+00 0. -1.
         -4   -1    0    0    0  501 -0.00000000000E+00 -0.00000000000E+00 -0.11244040659E+04  0.11244040659E+04  0.00000000000E+00 0.  1.
        -24    2    1    2    0    0 -0.74433592341E+03 -0.15047207882E+03  0.30085760699E+03  0.82084674129E+03  0.81217360343E+02 0.  0.
        254    2    1    2    0    0  0.74433592341E+03  0.15047207882E+03 -0.46150619915E+03  0.12673127983E+04  0.90355738254E+03 0.  0.
         23    2    4    4    0    0  0.86380464713E+03  0.21545789563E+03 -0.57816792359E+03  0.10656644256E+04  0.93712042610E+02 0.  0.
         23    2    4    4    0    0 -0.11946872372E+03 -0.64985816806E+02  0.11666172444E+03  0.20164837272E+03  0.92499599669E+02 0.  0.
          3    1    3    3  502    0 -0.36432791893E+03 -0.61482064506E+02  0.18805505089E+03  0.41458362116E+03  0.00000000000E+00 0. -1.
         -4    1    3    3    0  502 -0.38000800448E+03 -0.88990014314E+02  0.11280255610E+03  0.40626312013E+03  0.00000000000E+00 0.  1.
         13    1    5    5    0    0  0.84804852337E+03  0.22126347035E+03 -0.57591103853E+03  0.10487217675E+04  0.00000000000E+00 0.  1.
        -13    1    5    5    0    0  0.15756123764E+02 -0.58055747218E+01 -0.22568850631E+01  0.16942658118E+02  0.00000000000E+00 0. -1.
          4    1    6    6  503    0 -0.12600484432E+02  0.15075514882E+02 -0.57776292592E+01  0.20479852459E+02  0.00000000000E+00 0. -1.
         -4    1    6    6    0  503 -0.10686823929E+03 -0.80061331688E+02  0.12243935370E+03  0.18116852026E+03  0.00000000000E+00 0.  1.
<mgrwt>
<rscale>  0 0.20819708E+04</rscale>
<asrwt>0</asrwt>
<pdfrwt beam="1">  1        3 0.14827007E+00 0.20819708E+04</pdfrwt>
<pdfrwt beam="2">  1       -4 0.17298524E+00 0.20819708E+04</pdfrwt>
<totfact> 0.14162955E-01</totfact>
</mgrwt>
</event>
<event>
12    5  0.5221187E-008  0.1505316E+04  0.7818608E-02  0.8880925E-01
          1   -1    0    0  501    0  0.00000000000E+00  0.00000000000E+00  0.17460762781E+04  0.17460762781E+04  0.00000000000E+00 0. -1.
         -2   -1    0    0    0  501 -0.00000000000E+00 -0.00000000000E+00 -0.32443852194E+03  0.32443852194E+03  0.00000000000E+00 0.  1.
        -24    2    1    2    0    0  0.74316216965E+02  0.44208636649E+03  0.69893230727E+03  0.83414258428E+03  0.79524997474E+02 0.  0.
        254    2    1    2    0    0 -0.74316216965E+02 -0.44208636649E+03  0.72270544892E+03  0.12363722158E+04  0.89741285625E+03 0.  0.
         23    2    4    4    0    0 -0.21885088969E+03 -0.50430775632E+03  0.84816291362E+03  0.10150405071E+04  0.93299935924E+02 0.  0.
         23    2    4    4    0    0  0.14453467273E+03  0.62221389833E+02 -0.12545746469E+03  0.22133170869E+03  0.92121533042E+02 0.  0.
          1    1    3    3  502    0  0.69540754982E+02  0.44436841627E+03  0.69327514983E+03  0.82639557075E+03  0.00000000000E+00 0. -1.
         -2    1    3    3    0  502  0.47754619827E+01 -0.22820497803E+01  0.56571574409E+01  0.77470135317E+01  0.00000000000E+00 0.  1.
         13    1    5    5    0    0 -0.22648278939E+03 -0.46846816284E+03  0.77961969834E+03  0.93731731422E+03  0.00000000000E+00 0.  1.
        -13    1    5    5    0    0  0.76318997041E+01 -0.35839593479E+02  0.68543215278E+02  0.77723192899E+02  0.00000000000E+00 0. -1.
          3    1    6    6  503    0  0.51305331573E+02  0.69464272328E+02 -0.78453637916E+02  0.11667259953E+03  0.00000000000E+00 0. -1.
         -3    1    6    6    0  503  0.93229341152E+02 -0.72428824947E+01 -0.47003826778E+02  0.10465910916E+03  0.00000000000E+00 0.  1.
<mgrwt>
<rscale>  0 0.15053165E+04</rscale>
<asrwt>0</asrwt>
<pdfrwt beam="1">  1        1 0.26862711E+00 0.15053165E+04</pdfrwt>
<pdfrwt beam="2">  1       -2 0.49913620E-01 0.15053165E+04</pdfrwt>
<totfact> 0.14290757E+01</totfact>
</mgrwt>
</event>
<event>
12    5  0.5221187E-008  0.1702347E+04  0.7818608E-02  0.8760027E-01
         -2   -1    0    0    0  501 -0.00000000000E+00  0.00000000000E+00  0.13211452942E+04  0.13211452942E+04  0.00000000000E+00 0.  1.
          1   -1    0    0  501    0  0.00000000000E+00 -0.00000000000E+00 -0.54838523565E+03  0.54838523565E+03  0.00000000000E+00 0. -1.
        -24    2    1    2    0    0  0.61228419594E+03 -0.31923827455E+02  0.36191978795E+03  0.71617979010E+03  0.77566045985E+02 0.  0.
        254    2    1    2    0    0 -0.61228419594E+03  0.31923827455E+02  0.41084027060E+03  0.11533507398E+04  0.88629404465E+03 0.  0.
         23    2    4    4    0    0 -0.81021500907E+03  0.48691700892E+02  0.44676665853E+03  0.93100542895E+03  0.91386097942E+02 0.  0.
         23    2    4    4    0    0  0.19793081314E+03 -0.16767873436E+02 -0.35926387927E+02  0.22234531080E+03  0.93214610004E+02 0.  0.
          3    1    3    3  502    0  0.33876722800E+03 -0.44083386112E+02  0.23330622114E+03  0.41368873869E+03  0.00000000000E+00 0. -1.
         -4    1    3    3    0  502  0.27351696794E+03  0.12159558657E+02  0.12861356680E+03  0.30249105141E+03  0.00000000000E+00 0.  1.
         13    1    5    5    0    0 -0.83179701513E+02  0.16127835849E+02  0.18995819279E+02  0.86832084986E+02  0.00000000000E+00 0. -1.
        -13    1    5    5    0    0 -0.72703530756E+03  0.32563865043E+02  0.42777083925E+03  0.84417334396E+03  0.00000000000E+00 0.  1.
          1    1    6    6  503    0 -0.96635665404E+01 -0.48630906368E+01  0.19380969540E+01  0.10990468080E+02  0.00000000000E+00 0. -1.
         -1    1    6    6    0  503  0.20759437968E+03 -0.11904782800E+02 -0.37864484881E+02  0.21135484272E+03  0.00000000000E+00 0.  1.
<mgrwt>
<rscale>  0 0.17023473E+04</rscale>
<asrwt>0</asrwt>
<pdfrwt beam="1">  1        1 0.84366959E-01 0.17023473E+04</pdfrwt>
<pdfrwt beam="2">  1       -2 0.20325312E+00 0.17023473E+04</pdfrwt>
<totfact> 0.41034246E+00</totfact>
</mgrwt>
</event>
<event>
12    5  0.5221187E-008  0.1269054E+04  0.7818608E-02  0.9054472E-01
          1   -1    0    0  501    0  0.00000000000E+00  0.00000000000E+00  0.49032846137E+03  0.49032846137E+03  0.00000000000E+00 0. -1.
         -2   -1    0    0    0  501 -0.00000000000E+00 -0.00000000000E+00 -0.82113261268E+03  0.82113261268E+03  0.00000000000E+00 0.  1.
        -24    2    1    2    0    0 -0.30116211741E+03 -0.63017735326E+02 -0.11511679076E+03  0.33820819594E+03  0.80393111380E+02 0.  0.
        254    2    1    2    0    0  0.30116211741E+03  0.63017735326E+02 -0.21568736055E+03  0.97325287810E+03  0.89779188641E+03 0.  0.
         23    2    4    4    0    0  0.31893933795E+02 -0.27550355484E+03 -0.39910993070E+03  0.49468007370E+03  0.92196566036E+02 0.  0.
         23    2    4    4    0    0  0.26926818361E+03  0.33852129017E+03  0.18342257014E+03  0.47857280440E+03  0.91027859871E+02 0.  0.
          1    1    3    3  502    0 -0.27414505000E+02 -0.52867905064E+01  0.12642181328E+02  0.30648490778E+02  0.00000000000E+00 0. -1.
         -2    1    3    3    0  502 -0.27374761241E+03 -0.57730944819E+02 -0.12775897209E+03  0.30755970516E+03  0.00000000000E+00 0.  1.
         13    1    5    5    0    0 -0.70521243798E+01  0.41589820797E+01 -0.22728548887E+02  0.24158156484E+02  0.00000000000E+00 0. -1.
        -13    1    5    5    0    0  0.38946058175E+02 -0.27966253692E+03 -0.37638138181E+03  0.47052191721E+03  0.00000000000E+00 0.  1.
          4    1    6    6  503    0  0.21361646289E+03  0.27623952650E+03  0.18470544968E+03  0.39503970985E+03  0.00000000000E+00 0.  1.
         -4    1    6    6    0  503  0.55651720722E+02  0.62281763671E+02 -0.12828795400E+01  0.83533094551E+02  0.00000000000E+00 0. -1.
<mgrwt>
<rscale>  0 0.12690543E+04</rscale>
<asrwt>0</asrwt>
<pdfrwt beam="1">  1        1 0.75435148E-01 0.12690543E+04</pdfrwt>
<pdfrwt beam="2">  1       -2 0.12632809E+00 0.12690543E+04</pdfrwt>
<totfact> 0.18298611E+01</totfact>
</mgrwt>
</event>
<event>
12    5  0.5221187E-008  0.2029954E+04  0.7818608E-02  0.8592743E-01
         -2   -1    0    0    0  501 -0.00000000000E+00  0.00000000000E+00  0.73608886488E+03  0.73608886488E+03  0.00000000000E+00 0.  1.
          1   -1    0    0  501    0  0.00000000000E+00 -0.00000000000E+00 -0.13995295730E+04  0.13995295730E+04  0.00000000000E+00 0. -1.
        -24    2    1    2    0    0 -0.75869166012E+03  0.16708234056E+03 -0.84992866339E+01  0.78101840091E+03  0.79924720970E+02 0.  0.
        254    2    1    2    0    0  0.75869166012E+03 -0.16708234056E+03 -0.65494142144E+03  0.13546000369E+04  0.89580324338E+03 0.  0.
         23    2    4    4    0    0  0.90209870256E+03 -0.23730800477E+03 -0.35392234924E+03  0.10017705208E+04  0.90476454378E+02 0.  0.
         23    2    4    4    0    0 -0.14340704244E+03  0.70225664212E+02 -0.30101907220E+03  0.35282951611E+03  0.91536669543E+02 0.  0.
          3    1    3    3  502    0 -0.98943573726E+02  0.19370951401E+00  0.15052798149E+02  0.10008224137E+03  0.00000000000E+00 0. -1.
         -4    1    3    3    0  502 -0.65974808639E+03  0.16688863105E+03 -0.23552084783E+02  0.68093615954E+03  0.00000000000E+00 0.  1.
         13    1    5    5    0    0  0.75663414954E+03 -0.20302667630E+03 -0.33148858776E+03  0.85064666657E+03  0.00000000000E+00 0. -1.
        -13    1    5    5    0    0  0.14546455302E+03 -0.34281328475E+02 -0.22433761483E+02  0.15112385424E+03  0.00000000000E+00 0.  1.
          3    1    6    6  503    0 -0.59527547066E+02  0.29007163311E+02 -0.44413346938E+02  0.79733868395E+02  0.00000000000E+00 0. -1.
         -3    1    6    6    0  503 -0.83879495376E+02  0.41218500901E+02 -0.25660572526E+03  0.27309564771E+03  0.00000000000E+00 0.  1.
<mgrwt>
<rscale>  0 0.20299538E+04</rscale>
<asrwt>0</asrwt>
<pdfrwt beam="1">  1        1 0.21531224E+00 0.20299538E+04</pdfrwt>
<pdfrwt beam="2">  1       -2 0.11324444E+00 0.20299538E+04</pdfrwt>
<totfact> 0.38222766E+00</totfact>
</mgrwt>
</event>
<event>
12    5  0.5221187E-008  0.1503775E+04  0.7818608E-02  0.8881947E-01
          1   -1    0    0  501    0  0.00000000000E+00  0.00000000000E+00  0.33510552343E+03  0.33510552343E+03  0.00000000000E+00 0. -1.
         -2   -1    0    0    0  501 -0.00000000000E+00 -0.00000000000E+00 -0.16870346318E+04  0.16870346318E+04  0.00000000000E+00 0.  1.
        -24    2    1    2    0    0 -0.61234506823E+01 -0.74106084987E+02 -0.10676108571E+04  0.10732563037E+04  0.80974950754E+02 0.  0.
        254    2    1    2    0    0  0.61234506823E+01  0.74106084987E+02 -0.28431825129E+03  0.94888385159E+03  0.90222751417E+03 0.  0.
         23    2    4    4    0    0  0.12649649487E+03 -0.80323717344E+02 -0.56672784336E+03  0.59331247634E+03  0.91575014933E+02 0.  0.
         23    2    4    4    0    0 -0.12037304418E+03  0.15442980233E+03  0.28240959207E+03  0.35557137525E+03  0.91310413379E+02 0.  0.
          3    1    3    3  502    0 -0.27987351397E+02  0.11645185684E+01 -0.17698326355E+03  0.17918628162E+03  0.00000000000E+00 0. -1.
         -4    1    3    3    0  502  0.21863900715E+02 -0.75270603555E+02 -0.89062759357E+03  0.89407002206E+03  0.00000000000E+00 0.  1.
         13    1    5    5    0    0  0.10097550656E+03 -0.62957576191E+02 -0.53847416855E+03  0.55146544726E+03  0.00000000000E+00 0.  1.
        -13    1    5    5    0    0  0.25520988306E+02 -0.17366141152E+02 -0.28253674811E+02  0.41847029082E+02  0.00000000000E+00 0. -1.
          1    1    6    6  503    0 -0.18582640587E+02 -0.11150237252E+02  0.27367434221E+02  0.34908720656E+02  0.00000000000E+00 0. -1.
         -1    1    6    6    0  503 -0.10179040360E+03  0.16558003958E+03  0.25504215785E+03  0.32066265460E+03  0.00000000000E+00 0.  1.
<mgrwt>
<rscale>  0 0.15037747E+04</rscale>
<asrwt>0</asrwt>
<pdfrwt beam="1">  1        1 0.51554695E-01 0.15037747E+04</pdfrwt>
<pdfrwt beam="2">  1       -2 0.25954379E+00 0.15037747E+04</pdfrwt>
<totfact> 0.36018047E+00</totfact>
</mgrwt>
</event>
<event>
12    5  0.5221187E-008  0.1953603E+04  0.7818608E-02  0.8628625E-01
         -2   -1    0    0    0  501 -0.00000000000E+00  0.00000000000E+00  0.14042328608E+04  0.14042328608E+04  0.00000000000E+00 0.  1.
          1   -1    0    0  501    0  0.00000000000E+00 -0.00000000000E+00 -0.67947480061E+03  0.67947480061E+03  0.00000000000E+00 0. -1.
        -24    2    1    2    0    0 -0.48323471548E+03 -0.38779172898E+03  0.80840212830E+03  0.10216937846E+04  0.80286818372E+02 0.  0.
        254    2    1    2    0    0  0.48323471548E+03  0.38779172898E+03 -0.83644068073E+02  0.10620138768E+04  0.85847476906E+03 0.  0.
         23    2    4    4    0    0  0.53668610596E+02  0.48216767381E+03 -0.28790141899E+03  0.57038806326E+03  0.84198160434E+02 0.  0.
         23    2    4    4    0    0  0.42956610488E+03 -0.94375944831E+02  0.20425735091E+03  0.49162581355E+03  0.80876558547E+02 0.  0.
          1    1    3    3  502    0 -0.18264475348E+03 -0.98184170161E+02  0.27072222278E+03  0.34101284309E+03  0.00000000000E+00 0. -1.
         -2    1    3    3    0  502 -0.30058996199E+03 -0.28960755882E+03  0.53767990552E+03  0.68068094154E+03  0.00000000000E+00 0.  1.
         13    1    5    5    0    0  0.23463851469E+01  0.25578324335E+03 -0.11249036890E+03  0.27943631868E+03  0.00000000000E+00 0.  1.
        -13    1    5    5    0    0  0.51322225449E+02  0.22638443046E+03 -0.17541105009E+03  0.29095174458E+03  0.00000000000E+00 0. -1.
          1    1    6    6  503    0  0.31680624407E+03 -0.65850696077E+02  0.18787688411E+03  0.37416605143E+03  0.00000000000E+00 0. -1.
         -1    1    6    6    0  503  0.11275986081E+03 -0.28525248755E+02  0.16380466807E+02  0.11745976212E+03  0.00000000000E+00 0.  1.
<mgrwt>
<rscale>  0 0.19536027E+04</rscale>
<asrwt>0</asrwt>
<pdfrwt beam="1">  1        1 0.10453458E+00 0.19536027E+04</pdfrwt>
<pdfrwt beam="2">  1       -2 0.21603582E+00 0.19536027E+04</pdfrwt>
<totfact> 0.24337375E+00</totfact>
</mgrwt>
</event>
<event>
12    5  0.5221187E-008  0.2355702E+04  0.7818608E-02  0.8456277E-01
          1   -1    0    0  501    0  0.00000000000E+00  0.00000000000E+00  0.19519304193E+04  0.19519304193E+04  0.00000000000E+00 0. -1.
         -2   -1    0    0    0  501 -0.00000000000E+00 -0.00000000000E+00 -0.71074921517E+03  0.71074921517E+03  0.00000000000E+00 0.  1.
        -24    2    1    2    0    0 -0.80973650479E+02 -0.71609528605E+03 -0.26353823695E+03  0.77126598445E+03  0.77779339503E+02 0.  0.
        254    2    1    2    0    0  0.80973650479E+02  0.71609528605E+03  0.15047194411E+04  0.18914136501E+04  0.89101953311E+03 0.  0.
         23    2    4    4    0    0 -0.29015202803E+03  0.53852908723E+03  0.47868486575E+03  0.78217739513E+03  0.91980974126E+02 0.  0.
         23    2    4    4    0    0  0.37112567850E+03  0.17756619882E+03  0.10260345754E+04  0.11092362549E+04  0.91619294856E+02 0.  0.
          1    1    3    3  502    0 -0.88288402026E+01 -0.79413890100E+01 -0.10370022165E+02  0.15765514214E+02  0.00000000000E+00 0. -1.
         -2    1    3    3    0  502 -0.72144810276E+02 -0.70815389704E+03 -0.25316821479E+03  0.75550047023E+03  0.00000000000E+00 0.  1.
         13    1    5    5    0    0 -0.79303454675E+02  0.19288755697E+03  0.11618442169E+03  0.23873304631E+03  0.00000000000E+00 0. -1.
        -13    1    5    5    0    0 -0.21084857335E+03  0.34564153026E+03  0.36250044407E+03  0.54344434883E+03  0.00000000000E+00 0.  1.
          4    1    6    6  503    0  0.47530855384E+02 -0.70856178750E+00  0.73179718795E+02  0.87263712483E+02  0.00000000000E+00 0. -1.
         -4    1    6    6    0  503  0.32359482312E+03  0.17827476061E+03  0.95285485656E+03  0.10219725424E+04  0.00000000000E+00 0.  1.
<mgrwt>
<rscale>  0 0.23557020E+04</rscale>
<asrwt>0</asrwt>
<pdfrwt beam="1">  1        1 0.30029699E+00 0.23557020E+04</pdfrwt>
<pdfrwt beam="2">  1       -2 0.10934603E+00 0.23557020E+04</pdfrwt>
<totfact> 0.16922909E+00</totfact>
</mgrwt>
</event>
<event>
12    5  0.5221187E-008  0.3149445E+04  0.7818608E-02  0.8202298E-01
          1   -1    0    0  501    0  0.00000000000E+00  0.00000000000E+00  0.18197108268E+04  0.18197108268E+04  0.00000000000E+00 0. -1.
         -2   -1    0    0    0  501 -0.00000000000E+00 -0.00000000000E+00 -0.13627172134E+04  0.13627172134E+04  0.00000000000E+00 0.  1.
        -24    2    1    2    0    0  0.59291783194E+03 -0.12250529802E+04  0.70132239546E+03  0.15331453604E+04  0.79845061499E+02 0.  0.
        254    2    1    2    0    0 -0.59291783194E+03  0.12250529802E+04 -0.24432878205E+03  0.16492826799E+04  0.89896075813E+03 0.  0.
         23    2    4    4    0    0 -0.37358139865E+03  0.67086946392E+03  0.30626742566E+03  0.83165528480E+03  0.90674570223E+02 0.  0.
         23    2    4    4    0    0 -0.21933643329E+03  0.55418351629E+03 -0.55059620771E+03  0.81762739508E+03  0.10065054660E+03 0.  0.
          1    1    3    3  502    0  0.53518060868E+03 -0.10557563098E+04  0.62678445682E+03  0.13393649334E+04  0.00000000000E+00 0. -1.
         -2    1    3    3    0  502  0.57737223256E+02 -0.16929667042E+03  0.74537938636E+02  0.19378042692E+03  0.00000000000E+00 0.  1.
         13    1    5    5    0    0 -0.34303257830E+01  0.63754550159E+01  0.15921383458E+02  0.17490111860E+02  0.00000000000E+00 0. -1.
        -13    1    5    5    0    0 -0.37015107286E+03  0.66449400890E+03  0.29034604220E+03  0.81416517294E+03  0.00000000000E+00 0.  1.
          2    1    6    6  503    0 -0.50523916349E+02  0.21148806869E+03 -0.25140734232E+03  0.33239362372E+03  0.00000000000E+00 0. -1.
         -2    1    6    6    0  503 -0.16881251694E+03  0.34269544761E+03 -0.29918886540E+03  0.48523377136E+03  0.00000000000E+00 0.  1.
<mgrwt>
<rscale>  0 0.31494452E+04</rscale>
<asrwt>0</asrwt>
<pdfrwt beam="1">  1        1 0.27995551E+00 0.31494452E+04</pdfrwt>
<pdfrwt beam="2">  1       -2 0.20964880E+00 0.31494452E+04</pdfrwt>
<totfact> 0.33581740E-01</totfact>
</mgrwt>
</event>
<event>
12    5  0.5221187E-008  0.1487033E+04  0.7818608E-02  0.8893122E-01
         -2   -1    0    0    0  501 -0.00000000000E+00  0.00000000000E+00  0.20944338889E+04  0.20944338889E+04  0.00000000000E+00 0.  1.
          1   -1    0    0  501    0  0.00000000000E+00 -0.00000000000E+00 -0.26394584041E+03  0.26394584041E+03  0.00000000000E+00 0. -1.
        -24    2    1    2    0    0  0.11013799473E+03  0.19614316677E+03  0.12337068153E+04  0.12566640696E+04  0.81052809217E+02 0.  0.
        254    2    1    2    0    0 -0.11013799473E+03 -0.19614316677E+03  0.59678123319E+03  0.11017156597E+04  0.89834683440E+03 0.  0.
         23    2    4    4    0    0  0.22827743452E+02 -0.56310735151E+02 -0.22577259262E+03  0.25194670828E+03  0.93871590321E+02 0.  0.
         23    2    4    4    0    0 -0.13296573818E+03 -0.13983243161E+03  0.82255382581E+03  0.84976895146E+03  0.90991637288E+02 0.  0.
          1    1    3    3  502    0  0.29778771958E+02  0.12424396510E+03  0.56055521623E+03  0.57493085547E+03  0.00000000000E+00 0. -1.
         -2    1    3    3    0  502  0.80359222774E+02  0.71899201664E+02  0.67315159911E+03  0.68173321414E+03  0.00000000000E+00 0.  1.
         13    1    5    5    0    0  0.55369749407E+02 -0.56588897941E+02 -0.15492649003E+03  0.17398370565E+03  0.00000000000E+00 0. -1.
        -13    1    5    5    0    0 -0.32542005955E+02  0.27816279063E+00 -0.70846102592E+02  0.77963002627E+02  0.00000000000E+00 0.  1.
          1    1    6    6  503    0 -0.70029621900E+02 -0.12579483504E+03  0.64486809356E+03  0.66074453956E+03  0.00000000000E+00 0. -1.
         -1    1    6    6    0  503 -0.62936116285E+02 -0.14037596570E+02  0.17768573225E+03  0.18902441190E+03  0.00000000000E+00 0.  1.
<mgrwt>
<rscale>  0 0.14870334E+04</rscale>
<asrwt>0</asrwt>
<pdfrwt beam="1">  1        1 0.40607054E-01 0.14870334E+04</pdfrwt>
<pdfrwt beam="2">  1       -2 0.32222059E+00 0.14870334E+04</pdfrwt>
<totfact> 0.20430901E+00</totfact>
</mgrwt>
</event>
<event>
12    5  0.5221187E-008  0.1674918E+04  0.7818608E-02  0.8775800E-01
          3   -1    0    0  501    0  0.00000000000E+00  0.00000000000E+00  0.80785522245E+03  0.80785522245E+03  0.00000000000E+00 0. -1.
         -4   -1    0    0    0  501 -0.00000000000E+00 -0.00000000000E+00 -0.86814722411E+03  0.86814722411E+03  0.00000000000E+00 0.  1.
        -24    2    1    2    0    0 -0.24437167116E+03 -0.76042913334E+02  0.51182821880E+03  0.57742191475E+03  0.77122653887E+02 0.  0.
        254    2    1    2    0    0  0.24437167116E+03  0.76042913334E+02 -0.57212022047E+03  0.10985805318E+04  0.90225140613E+03 0.  0.
         23    2    4    4    0    0  0.46387531074E+03 -0.32864114327E+02 -0.66834120008E+03  0.81940365547E+03  0.92097974713E+02 0.  0.
         23    2    4    4    0    0 -0.21950363958E+03  0.10890702766E+03  0.96220979615E+02  0.27917687633E+03  0.92944407570E+02 0.  0.
          1    1    3    3  502    0 -0.80559619537E+02 -0.64256916178E+02  0.20025276540E+03  0.22521095361E+03  0.00000000000E+00 0. -1.
         -2    1    3    3    0  502 -0.16381205162E+03 -0.11785997156E+02  0.31157545341E+03  0.35221096114E+03  0.00000000000E+00 0.  1.
         13    1    5    5    0    0  0.46732486735E+03 -0.33721493583E+02 -0.65329191225E+03  0.80394029218E+03  0.00000000000E+00 0.  1.
        -13    1    5    5    0    0 -0.34495566145E+01  0.85737925561E+00 -0.15049287833E+02  0.15463363292E+02  0.00000000000E+00 0. -1.
          3    1    6    6  503    0 -0.12513905377E+01 -0.10975545040E+02  0.11998831603E+02  0.16309522588E+02  0.00000000000E+00 0. -1.
         -3    1    6    6    0  503 -0.21825224904E+03  0.11988257270E+03  0.84222148011E+02  0.26286735375E+03  0.00000000000E+00 0.  1.
<mgrwt>
<rscale>  0 0.16749176E+04</rscale>
<asrwt>0</asrwt>
<pdfrwt beam="1">  1        3 0.12428542E+00 0.16749176E+04</pdfrwt>
<pdfrwt beam="2">  1       -4 0.13356111E+00 0.16749176E+04</pdfrwt>
<totfact> 0.45798842E-01</totfact>
</mgrwt>
</event>
<event>
12    5  0.5221187E-008  0.3904234E+04  0.7818608E-02  0.8024149E-01
          1   -1    0    0  501    0  0.00000000000E+00  0.00000000000E+00  0.27418914984E+04  0.27418914984E+04  0.00000000000E+00 0. -1.
         -2   -1    0    0    0  501 -0.00000000000E+00 -0.00000000000E+00 -0.13898290225E+04  0.13898290225E+04  0.00000000000E+00 0.  1.
        -24    2    1    2    0    0  0.17536508765E+04 -0.22613789907E+02  0.12561300675E+04  0.21587864862E+04  0.81814219173E+02 0.  0.
        254    2    1    2    0    0 -0.17536508765E+04  0.22613789907E+02  0.95932408343E+02  0.19729340347E+04  0.89858939360E+03 0.  0.
         23    2    4    4    0    0 -0.82329195558E+03  0.38768994050E+03  0.27199912882E+03  0.95406900446E+03  0.90282916993E+02 0.  0.
         23    2    4    4    0    0 -0.93035892087E+03 -0.36507615059E+03 -0.17606672047E+03  0.10188650302E+04  0.90764213234E+02 0.  0.
          3    1    3    3  502    0  0.14824765810E+04 -0.37686421493E+02  0.10327757897E+04  0.18071477281E+04  0.00000000000E+00 0. -1.
         -4    1    3    3    0  502  0.27117429549E+03  0.15072631586E+02  0.22335427778E+03  0.35163875805E+03  0.00000000000E+00 0.  1.
         13    1    5    5    0    0 -0.13838405214E+03  0.10358248772E+03  0.57552684756E+02  0.18218613880E+03  0.00000000000E+00 0. -1.
        -13    1    5    5    0    0 -0.68490790345E+03  0.28410745277E+03  0.21444644406E+03  0.77188286566E+03  0.00000000000E+00 0.  1.
          3    1    6    6  503    0 -0.22023490990E+03 -0.53086098246E+02 -0.17765563471E+02  0.22723812314E+03  0.00000000000E+00 0. -1.
         -3    1    6    6    0  503 -0.71012401098E+03 -0.31199005234E+03 -0.15830115700E+03  0.79162690709E+03  0.00000000000E+00 0.  1.
<mgrwt>
<rscale>  0 0.39042338E+04</rscale>
<asrwt>0</asrwt>
<pdfrwt beam="1">  1        1 0.42182946E+00 0.39042338E+04</pdfrwt>
<pdfrwt beam="2">  1       -2 0.21381985E+00 0.39042338E+04</pdfrwt>
<totfact> 0.68856957E-02</totfact>
</mgrwt>
</event>
<event>
12    5  0.5221187E-008  0.2089344E+04  0.7818608E-02  0.8565952E-01
         -2   -1    0    0    0  501 -0.00000000000E+00  0.00000000000E+00  0.19263525701E+04  0.19263525701E+04  0.00000000000E+00 0.  1.
          1   -1    0    0  501    0  0.00000000000E+00 -0.00000000000E+00 -0.56653135710E+03  0.56653135710E+03  0.00000000000E+00 0. -1.
        -24    2    1    2    0    0  0.76687085976E+03  0.37804788566E+03  0.61461953398E+03  0.10578379751E+04  0.10125655827E+03 0.  0.
        254    2    1    2    0    0 -0.76687085976E+03 -0.37804788566E+03  0.74520167905E+03  0.14350459521E+04  0.87921568621E+03 0.  0.
         23    2    4    4    0    0 -0.42075831056E+03 -0.64411318706E+03  0.40484310307E+03  0.87393663575E+03  0.89151284702E+02 0.  0.
         23    2    4    4    0    0 -0.34611254920E+03  0.26606530140E+03  0.34035857598E+03  0.56110931638E+03  0.91733654499E+02 0.  0.
          3    1    3    3  502    0  0.62368308588E+03  0.30091353544E+03  0.44665163756E+03  0.82403108725E+03  0.00000000000E+00 0. -1.
         -4    1    3    3    0  502  0.14318777388E+03  0.77134350215E+02  0.16796789642E+03  0.23380688784E+03  0.00000000000E+00 0.  1.
         13    1    5    5    0    0 -0.38241664278E+03 -0.56250382097E+03  0.38508873233E+03  0.78163058349E+03  0.00000000000E+00 0. -1.
        -13    1    5    5    0    0 -0.38341667780E+02 -0.81609366086E+02  0.19754370743E+02  0.92306052264E+02  0.00000000000E+00 0.  1.
          1    1    6    6  503    0 -0.83174808617E+01  0.18458946794E+01 -0.55237468263E+01  0.10153797026E+02  0.00000000000E+00 0. -1.
         -1    1    6    6    0  503 -0.33779506834E+03  0.26421940672E+03  0.34588232281E+03  0.55095551936E+03  0.00000000000E+00 0.  1.
<mgrwt>
<rscale>  0 0.20893436E+04</rscale>
<asrwt>0</asrwt>
<pdfrwt beam="1">  1        1 0.87158671E-01 0.20893436E+04</pdfrwt>
<pdfrwt beam="2">  1       -2 0.29636193E+00 0.20893436E+04</pdfrwt>
<totfact> 0.10037878E+00</totfact>
</mgrwt>
</event>
<event>
12    5  0.5221187E-008  0.1098838E+04  0.7818608E-02  0.9206325E-01
          1   -1    0    0  501    0  0.00000000000E+00  0.00000000000E+00  0.83693649180E+03  0.83693649180E+03  0.00000000000E+00 0. -1.
         -2   -1    0    0    0  501 -0.00000000000E+00 -0.00000000000E+00 -0.36067395707E+03  0.36067395707E+03  0.00000000000E+00 0.  1.
        -24    2    1    2    0    0 -0.88764318596E+02  0.21089278588E+02 -0.77393818571E+02  0.14458426305E+03  0.81184629337E+02 0.  0.
        254    2    1    2    0    0  0.88764318596E+02 -0.21089278588E+02  0.55365635330E+03  0.10530261858E+04  0.89106954192E+03 0.  0.
         23    2    4    4    0    0 -0.31488166138E+03  0.23920387807E+03  0.26625391917E+03  0.48539855407E+03  0.91387367061E+02 0.  0.
         23    2    4    4    0    0  0.40364597997E+03 -0.26029315666E+03  0.28740243413E+03  0.56762763175E+03  0.94437093518E+02 0.  0.
          1    1    3    3  502    0 -0.19056889992E+02  0.74585397233E+01  0.16894255510E+02  0.26536969311E+02  0.00000000000E+00 0. -1.
         -4    1    3    3    0  502 -0.69707428604E+02  0.13630738864E+02 -0.94288074081E+02  0.11804729374E+03  0.00000000000E+00 0.  1.
         13    1    5    5    0    0 -0.32025433718E+03  0.23870068409E+03  0.25789069622E+03  0.47544554711E+03  0.00000000000E+00 0. -1.
        -13    1    5    5    0    0  0.53726757988E+01  0.50319398201E+00  0.83632229512E+01  0.99530069604E+01  0.00000000000E+00 0.  1.
          1    1    6    6  503    0  0.34432718321E+03 -0.18285472814E+03  0.20821384298E+03  0.44198423626E+03  0.00000000000E+00 0. -1.
         -1    1    6    6    0  503  0.59318796769E+02 -0.77438428518E+02  0.79188591152E+02  0.12564339549E+03  0.00000000000E+00 0.  1.
<mgrwt>
<rscale>  0 0.10988379E+04</rscale>
<asrwt>0</asrwt>
<pdfrwt beam="1">  1        1 0.12875946E+00 0.10988379E+04</pdfrwt>
<pdfrwt beam="2">  1       -2 0.55488301E-01 0.10988379E+04</pdfrwt>
<totfact> 0.54767448E+01</totfact>
</mgrwt>
</event>
<event>
12    5  0.5221187E-008  0.2155664E+04  0.7818608E-02  0.8537112E-01
         -2   -1    0    0    0  501 -0.00000000000E+00  0.00000000000E+00  0.10948459153E+04  0.10948459153E+04  0.00000000000E+00 0.  1.
          1   -1    0    0  501    0  0.00000000000E+00 -0.00000000000E+00 -0.10610821937E+04  0.10610821937E+04  0.00000000000E+00 0. -1.
        -24    2    1    2    0    0  0.47171882388E+03  0.27418965607E+03  0.71495059783E+03  0.90298228703E+03  0.80771511470E+02 0.  0.
        254    2    1    2    0    0 -0.47171882388E+03 -0.27418965607E+03 -0.68118687618E+03  0.12529458219E+04  0.89897667161E+03 0.  0.
         23    2    4    4    0    0  0.10028193480E+03 -0.15633873040E+03 -0.62579618549E+03  0.65953033619E+03  0.94133593967E+02 0.  0.
         23    2    4    4    0    0 -0.57200075868E+03 -0.11785092567E+03 -0.55390690691E+02  0.59341548573E+03  0.89443286382E+02 0.  0.
          3    1    3    3  502    0  0.19352038989E+03  0.11574551314E+03  0.36175414439E+03  0.42627834346E+03  0.00000000000E+00 0. -1.
         -4    1    3    3    0  502  0.27819843399E+03  0.15844414293E+03  0.35319645344E+03  0.47670394358E+03  0.00000000000E+00 0.  1.
         13    1    5    5    0    0  0.67945155553E+02 -0.48791548029E+02 -0.16188411333E+03  0.18221861999E+03  0.00000000000E+00 0. -1.
        -13    1    5    5    0    0  0.32336779245E+02 -0.10754718238E+03 -0.46391207216E+03  0.47731171620E+03  0.00000000000E+00 0.  1.
          1    1    6    6  503    0 -0.49711538125E+03 -0.10093330378E+03 -0.78371872255E+02  0.51327710299E+03  0.00000000000E+00 0. -1.
         -1    1    6    6    0  503 -0.74885377427E+02 -0.16917621890E+02  0.22981181564E+02  0.80138382745E+02  0.00000000000E+00 0.  1.
<mgrwt>
<rscale>  0 0.21556637E+04</rscale>
<asrwt>0</asrwt>
<pdfrwt beam="1">  1        1 0.16324341E+00 0.21556637E+04</pdfrwt>
<pdfrwt beam="2">  1       -2 0.16843783E+00 0.21556637E+04</pdfrwt>
<totfact> 0.23816894E+00</totfact>
</mgrwt>
</event>
<event>
12    5  0.5221187E-008  0.2792787E+04  0.7818608E-02  0.8305511E-01
          1   -1    0    0  501    0  0.00000000000E+00  0.00000000000E+00  0.28341725652E+04  0.28341725652E+04  0.00000000000E+00 0. -1.
         -2   -1    0    0    0  501 -0.00000000000E+00 -0.00000000000E+00 -0.68800136227E+03  0.68800136227E+03  0.00000000000E+00 0.  1.
        -24    2    1    2    0    0  0.37680440245E+03 -0.54081931397E+03 -0.36561770671E+03  0.75812165657E+03  0.81271462580E+02 0.  0.
        254    2    1    2    0    0 -0.37680440245E+03  0.54081931397E+03  0.25117889096E+04  0.27640522709E+04  0.94680216603E+03 0.  0.
         23    2    4    4    0    0 -0.51640861692E+03  0.17534500826E+03  0.21615052612E+04  0.22311067526E+04  0.91151607513E+02 0.  0.
         23    2    4    4    0    0  0.13960421447E+03  0.36547430572E+03  0.35028364843E+03  0.53294551833E+03  0.90947711983E+02 0.  0.
          1    1    3    3  502    0  0.29088969306E+03 -0.35901164040E+03 -0.27346825237E+03  0.53692742203E+03  0.00000000000E+00 0. -1.
         -2    1    3    3    0  502  0.85914709386E+02 -0.18180767357E+03 -0.92149454337E+02  0.22119423454E+03  0.00000000000E+00 0.  1.
         13    1    5    5    0    0 -0.33363281998E+03  0.15269210223E+03  0.15226276564E+04  0.15662122195E+04  0.00000000000E+00 0. -1.
        -13    1    5    5    0    0 -0.18277579694E+03  0.22652906029E+02  0.63887760482E+03  0.66489453302E+03  0.00000000000E+00 0.  1.
          1    1    6    6  503    0  0.13930163171E+03  0.31238058553E+03  0.33233424727E+03  0.47689896909E+03  0.00000000000E+00 0. -1.
         -1    1    6    6    0  503  0.30258276038E+00  0.53093720187E+02  0.17949401162E+02  0.56046549240E+02  0.00000000000E+00 0.  1.
<mgrwt>
<rscale>  0 0.27927868E+04</rscale>
<asrwt>0</asrwt>
<pdfrwt beam="1">  1        1 0.43602654E+00 0.27927868E+04</pdfrwt>
<pdfrwt beam="2">  1       -2 0.10584636E+00 0.27927868E+04</pdfrwt>
<totfact> 0.43266546E-01</totfact>
</mgrwt>
</event>
<event>
12    5  0.5221187E-008  0.1497782E+04  0.7818608E-02  0.8885930E-01
          1   -1    0    0  501    0  0.00000000000E+00  0.00000000000E+00  0.10654592845E+04  0.10654592845E+04  0.00000000000E+00 0. -1.
         -2   -1    0    0    0  501 -0.00000000000E+00 -0.00000000000E+00 -0.52638085799E+03  0.52638085799E+03  0.00000000000E+00 0.  1.
        -24    2    1    2    0    0  0.45353616310E+03  0.69100122563E+02  0.40211334083E+02  0.46732472571E+03  0.79407617383E+02 0.  0.
        254    2    1    2    0    0 -0.45353616310E+03 -0.69100122563E+02  0.49886709241E+03  0.11245154168E+04  0.89732751460E+03 0.  0.
         23    2    4    4    0    0 -0.26217273089E+03 -0.44579870808E+03  0.44625778539E+03  0.68911471922E+03  0.90895854027E+02 0.  0.
         23    2    4    4    0    0 -0.19136343221E+03  0.37669858552E+03  0.52609307014E+02  0.43540069753E+03  0.91017804313E+02 0.  0.
          3    1    3    3  502    0  0.27098651781E+03  0.73960086362E+02  0.27711322955E+01  0.28091184807E+03  0.00000000000E+00 0. -1.
         -4    1    3    3    0  502  0.18254964529E+03 -0.48599637999E+01  0.37440201788E+02  0.18641287765E+03  0.00000000000E+00 0.  1.
         13    1    5    5    0    0 -0.22315901901E+03 -0.41547022949E+03  0.42661963707E+03  0.63594007115E+03  0.00000000000E+00 0. -1.
        -13    1    5    5    0    0 -0.39013711881E+02 -0.30328478589E+02  0.19638148318E+02  0.53174648072E+02  0.00000000000E+00 0.  1.
          2    1    6    6  503    0 -0.20144930307E+03  0.36315981525E+03  0.51649741389E+02  0.41849082297E+03  0.00000000000E+00 0. -1.
         -2    1    6    6    0  503  0.10085870862E+02  0.13538770270E+02  0.95956562514E+00  0.16909874561E+02  0.00000000000E+00 0.  1.
<mgrwt>
<rscale>  0 0.14977815E+04</rscale>
<asrwt>0</asrwt>
<pdfrwt beam="1">  1        1 0.16391681E+00 0.14977815E+04</pdfrwt>
<pdfrwt beam="2">  1       -2 0.80981671E-01 0.14977815E+04</pdfrwt>
<totfact> 0.15364731E+01</totfact>
</mgrwt>
</event>
<event>
12    5  0.5221187E-008  0.2290682E+04  0.7818608E-02  0.8481604E-01
          1   -1    0    0  501    0  0.00000000000E+00  0.00000000000E+00  0.19142007748E+04  0.19142007748E+04  0.00000000000E+00 0. -1.
         -4   -1    0    0    0  501 -0.00000000000E+00 -0.00000000000E+00 -0.68530203014E+03  0.68530203014E+03  0.00000000000E+00 0.  1.
        -24    2    1    2    0    0 -0.33473763908E+03  0.89259357260E+03  0.68123969072E+03  0.11744606846E+04  0.80608997544E+02 0.  0.
        254    2    1    2    0    0  0.33473763908E+03 -0.89259357260E+03  0.54765905392E+03  0.14250421204E+04  0.90666533662E+03 0.  0.
         23    2    4    4    0    0  0.20610868926E+02  0.50346721958E+02  0.40362965654E+03  0.41717851466E+03  0.90340539752E+02 0.  0.
         23    2    4    4    0    0  0.31412677015E+03 -0.94294029456E+03  0.14402939738E+03  0.10078636057E+04  0.85044421265E+02 0.  0.
          1    1    3    3  502    0 -0.48501375592E+02  0.20322214687E+03  0.17515636140E+03  0.27263780984E+03  0.00000000000E+00 0. -1.
         -2    1    3    3    0  502 -0.28623626349E+03  0.68937142573E+03  0.50608332932E+03  0.90182287472E+03  0.00000000000E+00 0.  1.
         13    1    5    5    0    0  0.28760792473E+02  0.69977955900E+02  0.36794524123E+03  0.37564317915E+03  0.00000000000E+00 0. -1.
        -13    1    5    5    0    0 -0.81499235462E+01 -0.19631233942E+02  0.35684415307E+02  0.41535335507E+02  0.00000000000E+00 0.  1.
          2    1    6    6  503    0  0.30637187874E+03 -0.83865642340E+03  0.13288331785E+03  0.90269945206E+03  0.00000000000E+00 0. -1.
         -2    1    6    6    0  503  0.77548914153E+01 -0.10428387116E+03  0.11146079531E+02  0.10516415366E+03  0.00000000000E+00 0.  1.
<mgrwt>
<rscale>  0 0.22906817E+04</rscale>
<asrwt>0</asrwt>
<pdfrwt beam="1">  1        1 0.29449243E+00 0.22906817E+04</pdfrwt>
<pdfrwt beam="2">  1       -4 0.10543108E+00 0.22906817E+04</pdfrwt>
<totfact> 0.11006698E+00</totfact>
</mgrwt>
</event>
<event>
12    5  0.5221187E-008  0.1586038E+04  0.7818608E-02  0.8829171E-01
         -2   -1    0    0    0  501 -0.00000000000E+00  0.00000000000E+00  0.70113634990E+03  0.70113634990E+03  0.00000000000E+00 0.  1.
          1   -1    0    0  501    0  0.00000000000E+00 -0.00000000000E+00 -0.89694325743E+03  0.89694325743E+03  0.00000000000E+00 0. -1.
        -24    2    1    2    0    0  0.89610836029E+02 -0.78031790650E+01 -0.59807723896E+03  0.60939694625E+03  0.74681073949E+02 0.  0.
        254    2    1    2    0    0 -0.89610836029E+02  0.78031790650E+01  0.40227033143E+03  0.98868266108E+03  0.89865510250E+03 0.  0.
         23    2    4    4    0    0 -0.38302962666E+03  0.24681985683E+03  0.56734842641E+02  0.46831269792E+03  0.92011977691E+02 0.  0.
         23    2    4    4    0    0  0.29341879063E+03 -0.23901667777E+03  0.34553548879E+03  0.52036996316E+03  0.90369052224E+02 0.  0.
          3    1    3    3  502    0  0.87418780972E+01 -0.19335825069E+02 -0.28665958158E+03  0.28744392544E+03  0.00000000000E+00 0. -1.
         -4    1    3    3    0  502  0.80868957932E+02  0.11532646004E+02 -0.31141765738E+03  0.32195302081E+03  0.00000000000E+00 0.  1.
         13    1    5    5    0    0 -0.29771401504E+03  0.22204971687E+03  0.71594050695E+02  0.37823989690E+03  0.00000000000E+00 0.  1.
        -13    1    5    5    0    0 -0.85315611616E+02  0.24770139967E+02 -0.14859208054E+02  0.90072801019E+02  0.00000000000E+00 0. -1.
          4    1    6    6  503    0  0.38567077720E+02 -0.63120038527E+02  0.10413981009E+03  0.12773667755E+03  0.00000000000E+00 0. -1.
         -4    1    6    6    0  503  0.25485171291E+03 -0.17589663924E+03  0.24139567870E+03  0.39263328561E+03  0.00000000000E+00 0.  1.
<mgrwt>
<rscale>  0 0.15860385E+04</rscale>
<asrwt>0</asrwt>
<pdfrwt beam="1">  1        1 0.13799127E+00 0.15860385E+04</pdfrwt>
<pdfrwt beam="2">  1       -2 0.10786713E+00 0.15860385E+04</pdfrwt>
<totfact> 0.10613952E+01</totfact>
</mgrwt>
</event>
<event>
12    5  0.5221187E-008  0.1521141E+04  0.7818608E-02  0.8870515E-01
         -2   -1    0    0    0  501 -0.00000000000E+00  0.00000000000E+00  0.50380698800E+03  0.50380698800E+03  0.00000000000E+00 0.  1.
          1   -1    0    0  501    0  0.00000000000E+00 -0.00000000000E+00 -0.11481931006E+04  0.11481931006E+04  0.00000000000E+00 0. -1.
        -24    2    1    2    0    0  0.47376202752E+03  0.80878886832E+02 -0.15138917566E+03  0.51365409497E+03  0.99649353806E+02 0.  0.
        254    2    1    2    0    0 -0.47376202752E+03 -0.80878886832E+02 -0.49299693694E+03  0.11383459936E+04  0.90652841562E+03 0.  0.
         23    2    4    4    0    0 -0.18156992227E+03 -0.29201208430E+03  0.15729580063E+03  0.38916944865E+03  0.92044537114E+02 0.  0.
         23    2    4    4    0    0 -0.29219210526E+03  0.21113319747E+03 -0.65029273757E+03  0.74917654498E+03  0.91822641905E+02 0.  0.
          3    1    3    3  502    0  0.47552827600E+03  0.78821663440E+02 -0.15739605303E+03  0.50706361870E+03  0.00000000000E+00 0. -1.
         -4    1    3    3    0  502 -0.17662484703E+01  0.20572233911E+01  0.60068773711E+01  0.65904762719E+01  0.00000000000E+00 0.  1.
         13    1    5    5    0    0 -0.14647078410E+03 -0.26566178807E+03  0.10528492312E+03  0.32111491910E+03  0.00000000000E+00 0.  1.
        -13    1    5    5    0    0 -0.35099138166E+02 -0.26350296238E+02  0.52010877516E+02  0.68054529547E+02  0.00000000000E+00 0. -1.
          3    1    6    6  503    0 -0.19103640533E+03  0.18021071646E+03 -0.41375910607E+03  0.49006877920E+03  0.00000000000E+00 0. -1.
         -3    1    6    6    0  503 -0.10115569993E+03  0.30922481013E+02 -0.23653363150E+03  0.25910776578E+03  0.00000000000E+00 0.  1.
<mgrwt>
<rscale>  0 0.15211413E+04</rscale>
<asrwt>0</asrwt>
<pdfrwt beam="1">  1        1 0.17664509E+00 0.15211413E+04</pdfrwt>
<pdfrwt beam="2">  1       -2 0.77508768E-01 0.15211413E+04</pdfrwt>
<totfact> 0.14664501E+01</totfact>
</mgrwt>
</event>
<event>
12    5  0.5221187E-008  0.1656370E+04  0.7818608E-02  0.8786647E-01
         -2   -1    0    0    0  501 -0.00000000000E+00  0.00000000000E+00  0.40369359299E+03  0.40369359299E+03  0.00000000000E+00 0.  1.
          1   -1    0    0  501    0  0.00000000000E+00 -0.00000000000E+00 -0.16990363060E+04  0.16990363060E+04  0.00000000000E+00 0. -1.
        -24    2    1    2    0    0  0.53044640983E+03 -0.21148326503E+03 -0.51231634318E+03  0.77104414437E+03  0.77087430785E+02 0.  0.
        254    2    1    2    0    0 -0.53044640983E+03  0.21148326503E+03 -0.78302636979E+03  0.13316857546E+04  0.91332255423E+03 0.  0.
         23    2    4    4    0    0 -0.77272010838E+03  0.21609195782E+03 -0.66930948266E+03  0.10487364422E+04  0.89893501075E+02 0.  0.
         23    2    4    4    0    0  0.24227369855E+03 -0.46086927873E+01 -0.11371688712E+03  0.28294931235E+03  0.91711492643E+02 0.  0.
          1    1    3    3  502    0  0.42537830257E+03 -0.15506003865E+03 -0.44127092077E+03  0.63222649533E+03  0.00000000000E+00 0. -1.
         -2    1    3    3    0  502  0.10506810726E+03 -0.56423226382E+02 -0.71045422415E+02  0.13881764904E+03  0.00000000000E+00 0.  1.
         13    1    5    5    0    0 -0.74091055884E+03  0.19228690169E+03 -0.65159433818E+03  0.10052352413E+04  0.00000000000E+00 0.  1.
        -13    1    5    5    0    0 -0.31809549544E+02  0.23805056135E+02 -0.17715144480E+02  0.43501200946E+02  0.00000000000E+00 0. -1.
          3    1    6    6  503    0 -0.15600562520E+01 -0.77851008489E+01  0.72392189267E+01  0.10744666649E+02  0.00000000000E+00 0. -1.
         -3    1    6    6    0  503  0.24383375481E+03  0.31764080616E+01 -0.12095610605E+03  0.27220464570E+03  0.00000000000E+00 0.  1.
<mgrwt>
<rscale>  0 0.16563696E+04</rscale>
<asrwt>0</asrwt>
<pdfrwt beam="1">  1        1 0.26139020E+00 0.16563696E+04</pdfrwt>
<pdfrwt beam="2">  1       -2 0.62106706E-01 0.16563696E+04</pdfrwt>
<totfact> 0.96308983E+00</totfact>
</mgrwt>
</event>
<event>
12    5  0.5221187E-008  0.1167192E+04  0.7818608E-02  0.9142068E-01
          1   -1    0    0  501    0  0.00000000000E+00  0.00000000000E+00  0.88698265187E+03  0.88698265187E+03  0.00000000000E+00 0. -1.
         -2   -1    0    0    0  501 -0.00000000000E+00 -0.00000000000E+00 -0.38398071926E+03  0.38398071926E+03  0.00000000000E+00 0.  1.
        -24    2    1    2    0    0 -0.72024587456E+02 -0.71749828088E+02 -0.12153621247E+03  0.17707305799E+03  0.79045796195E+02 0.  0.
        254    2    1    2    0    0  0.72024587456E+02  0.71749828088E+02  0.62453814507E+03  0.10938903131E+04  0.89230742657E+03 0.  0.
         23    2    4    4    0    0  0.11909388188E+03 -0.72584629322E+02  0.81635602773E+03  0.83324374313E+03  0.91684733411E+02 0.  0.
         23    2    4    4    0    0 -0.47069294427E+02  0.14433445741E+03 -0.19181788266E+03  0.26064657001E+03  0.89969885383E+02 0.  0.
          3    1    3    3  502    0 -0.20396566811E+02 -0.11373902538E+02  0.83652675999E+01  0.24806517261E+02  0.00000000000E+00 0. -1.
         -4    1    3    3    0  502 -0.51628020645E+02 -0.60375925551E+02 -0.12990148007E+03  0.15226654073E+03  0.00000000000E+00 0.  1.
         13    1    5    5    0    0  0.99500207233E+02 -0.52694735869E+02  0.77627002601E+03  0.78439287331E+03  0.00000000000E+00 0. -1.
        -13    1    5    5    0    0  0.19593674651E+02 -0.19889893453E+02  0.40086001724E+02  0.48850869819E+02  0.00000000000E+00 0.  1.
          4    1    6    6  503    0  0.24745366294E+02  0.48805692673E+02 -0.41889623328E+02  0.68913491660E+02  0.00000000000E+00 0.  1.
         -4    1    6    6    0  503 -0.71814660722E+02  0.95528764738E+02 -0.14992825933E+03  0.19173307835E+03  0.00000000000E+00 0. -1.
<mgrwt>
<rscale>  0 0.11671919E+04</rscale>
<asrwt>0</asrwt>
<pdfrwt beam="1">  1        1 0.13645887E+00 0.11671919E+04</pdfrwt>
<pdfrwt beam="2">  1       -2 0.59073957E-01 0.11671919E+04</pdfrwt>
<totfact> 0.43406025E+01</totfact>
</mgrwt>
</event>
<event>
12    5  0.5221187E-008  0.2399538E+04  0.7818608E-02  0.8439677E-01
          1   -1    0    0  501    0  0.00000000000E+00  0.00000000000E+00  0.15417039043E+04  0.15417039043E+04  0.00000000000E+00 0. -1.
         -2   -1    0    0    0  501 -0.00000000000E+00 -0.00000000000E+00 -0.93367167333E+03  0.93367167333E+03  0.00000000000E+00 0.  1.
        -24    2    1    2    0    0 -0.47548850124E+03 -0.76147751196E+03 -0.29818579376E+03  0.95059479817E+03  0.93693045002E+02 0.  0.
        254    2    1    2    0    0  0.47548850124E+03  0.76147751196E+03  0.90621802470E+03  0.15247807794E+04  0.83533705833E+03 0.  0.
         23    2    4    4    0    0 -0.22912737643E+03  0.23367846041E+03  0.29103734781E+03  0.44688517579E+03  0.88874321507E+02 0.  0.
         23    2    4    4    0    0  0.70461587767E+03  0.52779905154E+03  0.61518067689E+03  0.10778956037E+04  0.91412763254E+02 0.  0.
          1    1    3    3  502    0 -0.65661018121E+01 -0.50189552238E+02 -0.19011904376E+02  0.54069930228E+02  0.00000000000E+00 0. -1.
         -2    1    3    3    0  502 -0.46892239943E+03 -0.71128795972E+03 -0.27917388939E+03  0.89652486794E+03  0.00000000000E+00 0.  1.
         13    1    5    5    0    0 -0.19536361748E+03  0.23459006089E+03  0.25948699542E+03  0.40066562180E+03  0.00000000000E+00 0.  1.
        -13    1    5    5    0    0 -0.33763758952E+02 -0.91160047987E+00  0.31550352397E+02  0.46219553982E+02  0.00000000000E+00 0. -1.
          3    1    6    6  503    0  0.14531779224E+03  0.15035810594E+03  0.12156344029E+03  0.24187288144E+03  0.00000000000E+00 0. -1.
         -3    1    6    6    0  503  0.55929808543E+03  0.37744094560E+03  0.49361723660E+03  0.83602272221E+03  0.00000000000E+00 0.  1.
<mgrwt>
<rscale>  0 0.23995377E+04</rscale>
<asrwt>0</asrwt>
<pdfrwt beam="1">  1        1 0.23718522E+00 0.23995377E+04</pdfrwt>
<pdfrwt beam="2">  1       -2 0.14364180E+00 0.23995377E+04</pdfrwt>
<totfact> 0.16177947E+00</totfact>
</mgrwt>
</event>
<event>
12    5  0.5221187E-008  0.1365341E+04  0.7818608E-02  0.8979295E-01
          1   -1    0    0  501    0  0.00000000000E+00  0.00000000000E+00  0.12911271486E+04  0.12911271486E+04  0.00000000000E+00 0. -1.
         -2   -1    0    0    0  501 -0.00000000000E+00 -0.00000000000E+00 -0.36095534516E+03  0.36095534516E+03  0.00000000000E+00 0.  1.
        -24    2    1    2    0    0  0.16587517596E+03 -0.17819039882E+03 -0.11352192763E+03  0.27976799537E+03  0.78208125837E+02 0.  0.
        254    2    1    2    0    0 -0.16587517596E+03  0.17819039882E+03  0.10436937311E+04  0.13723144984E+04  0.85713714539E+03 0.  0.
         23    2    4    4    0    0 -0.29885914436E+03 -0.13316375649E+03  0.95113447825E+03  0.10099181842E+04  0.90711459576E+02 0.  0.
         23    2    4    4    0    0  0.13298396840E+03  0.31135415531E+03  0.92559252834E+02  0.36239631419E+03  0.90209353020E+02 0.  0.
          1    1    3    3  502    0  0.44627764680E+02 -0.38325264199E+02  0.64617323954E+01  0.59179533977E+02  0.00000000000E+00 0. -1.
         -2    1    3    3    0  502  0.12124741128E+03 -0.13986513462E+03 -0.11998366003E+03  0.22058846139E+03  0.00000000000E+00 0.  1.
         13    1    5    5    0    0 -0.20346885419E+03 -0.98227162788E+02  0.76740834286E+03  0.79997732144E+03  0.00000000000E+00 0.  1.
        -13    1    5    5    0    0 -0.95390290177E+02 -0.34936593700E+02  0.18372613539E+03  0.20994086278E+03  0.00000000000E+00 0. -1.
          4    1    6    6  503    0  0.13819088157E+03  0.23008863690E+03  0.62380227482E+02  0.27555179796E+03  0.00000000000E+00 0. -1.
         -4    1    6    6    0  503 -0.52069131711E+01  0.81265518411E+02  0.30179025352E+02  0.86844516226E+02  0.00000000000E+00 0.  1.
<mgrwt>
<rscale>  0 0.13653413E+04</rscale>
<asrwt>0</asrwt>
<pdfrwt beam="1">  1        1 0.19863494E+00 0.13653413E+04</pdfrwt>
<pdfrwt beam="2">  1       -2 0.55531592E-01 0.13653413E+04</pdfrwt>
<totfact> 0.23986762E+01</totfact>
</mgrwt>
</event>
<event>
12    5  0.5221187E-008  0.1886081E+04  0.7818608E-02  0.8661816E-01
         -2   -1    0    0    0  501 -0.00000000000E+00  0.00000000000E+00  0.27823298938E+03  0.27823298938E+03  0.00000000000E+00 0.  1.
          1   -1    0    0  501    0  0.00000000000E+00 -0.00000000000E+00 -0.31963337708E+04  0.31963337708E+04  0.00000000000E+00 0. -1.
        -24    2    1    2    0    0  0.46677451189E+03 -0.39723711242E+03 -0.41402924033E+03  0.74398391060E+03  0.80100430388E+02 0.  0.
        254    2    1    2    0    0 -0.46677451189E+03  0.39723711242E+03 -0.25040715411E+04  0.27305828496E+04  0.90001813710E+03 0.  0.
         23    2    4    4    0    0 -0.47179327043E+03 -0.31750367488E+02 -0.56466954764E+03  0.74219364967E+03  0.91666459082E+02 0.  0.
         23    2    4    4    0    0  0.50187585349E+01  0.42898747990E+03 -0.19394019934E+04  0.19883891999E+04  0.91411554506E+02 0.  0.
          1    1    3    3  502    0  0.22763728474E+02 -0.12401808628E+02 -0.13322265946E+01  0.25957022537E+02  0.00000000000E+00 0. -1.
         -2    1    3    3    0  502  0.44401078342E+03 -0.38483530379E+03 -0.41269701373E+03  0.71802688806E+03  0.00000000000E+00 0.  1.
         13    1    5    5    0    0 -0.37643954613E+02 -0.40590812957E+01 -0.13885766358E+02  0.40328128734E+02  0.00000000000E+00 0.  1.
        -13    1    5    5    0    0 -0.43414931582E+03 -0.27691286192E+02 -0.55078378129E+03  0.70186552094E+03  0.00000000000E+00 0. -1.
          4    1    6    6  503    0  0.39106627603E+02  0.27898266220E+03 -0.11373925996E+04  0.11717604617E+04  0.00000000000E+00 0. -1.
         -4    1    6    6    0  503 -0.34087869068E+02  0.15000481771E+03 -0.80200939387E+03  0.81662873818E+03  0.00000000000E+00 0.  1.
<mgrwt>
<rscale>  0 0.18860811E+04</rscale>
<asrwt>0</asrwt>
<pdfrwt beam="1">  1        1 0.49174365E+00 0.18860811E+04</pdfrwt>
<pdfrwt beam="2">  1       -2 0.42805076E-01 0.18860811E+04</pdfrwt>
<totfact> 0.18278394E+00</totfact>
</mgrwt>
</event>
<event>
12    5  0.5221187E-008  0.1498164E+04  0.7818608E-02  0.8885675E-01
         -2   -1    0    0    0  501 -0.00000000000E+00  0.00000000000E+00  0.39820111561E+03  0.39820111561E+03  0.00000000000E+00 0.  1.
          1   -1    0    0  501    0  0.00000000000E+00 -0.00000000000E+00 -0.14091465324E+04  0.14091465324E+04  0.00000000000E+00 0. -1.
        -24    2    1    2    0    0  0.58275461882E+02 -0.10527869224E+03 -0.86026421325E+03  0.87242547635E+03  0.81191518559E+02 0.  0.
        254    2    1    2    0    0 -0.58275461882E+02  0.10527869224E+03 -0.15068120358E+03  0.93492217170E+03  0.91481965956E+03 0.  0.
         23    2    4    4    0    0 -0.19407013406E+03  0.21162285383E+02 -0.49695508423E+03  0.54148613959E+03  0.90176628722E+02 0.  0.
         23    2    4    4    0    0  0.13579467218E+03  0.84116406853E+02  0.34627388065E+03  0.39343603210E+03  0.96801591111E+02 0.  0.
          1    1    3    3  502    0  0.70612341034E+02 -0.78799428099E+02 -0.50518316300E+03  0.51614482537E+03  0.00000000000E+00 0. -1.
         -2    1    3    3    0  502 -0.12336879152E+02 -0.26479264137E+02 -0.35508105025E+03  0.35628065098E+03  0.00000000000E+00 0.  1.
         13    1    5    5    0    0 -0.13414841420E+03  0.54836509276E+02 -0.30728259733E+03  0.33974318890E+03  0.00000000000E+00 0. -1.
        -13    1    5    5    0    0 -0.59921719860E+02 -0.33674223893E+02 -0.18967248690E+03  0.20174295069E+03  0.00000000000E+00 0.  1.
          3    1    6    6  503    0  0.14896476976E+03  0.73470504739E+02  0.28503786681E+03  0.32990150532E+03  0.00000000000E+00 0. -1.
         -3    1    6    6    0  503 -0.13170097585E+02  0.10645902114E+02  0.61236013847E+02  0.63534526787E+02  0.00000000000E+00 0.  1.
<mgrwt>
<rscale>  0 0.14981638E+04</rscale>
<asrwt>0</asrwt>
<pdfrwt beam="1">  1        1 0.21679178E+00 0.14981638E+04</pdfrwt>
<pdfrwt beam="2">  1       -2 0.61261709E-01 0.14981638E+04</pdfrwt>
<totfact> 0.15922880E+01</totfact>
</mgrwt>
</event>
<event>
12    5  0.5221187E-008  0.1775451E+04  0.7818608E-02  0.8719465E-01
          3   -1    0    0  501    0  0.00000000000E+00  0.00000000000E+00  0.72486899913E+03  0.72486899913E+03  0.00000000000E+00 0. -1.
         -4   -1    0    0    0  501 -0.00000000000E+00 -0.00000000000E+00 -0.10871706789E+04  0.10871706789E+04  0.00000000000E+00 0.  1.
        -24    2    1    2    0    0 -0.41960769729E+03  0.10414713201E+03  0.37244808588E+03  0.57614357428E+03  0.79414084265E+02 0.  0.
        254    2    1    2    0    0  0.41960769729E+03 -0.10414713201E+03 -0.73474976567E+03  0.12358961038E+04  0.89479870163E+03 0.  0.
         23    2    4    4    0    0  0.32006275729E+03 -0.47932625237E+03 -0.34672541122E+03  0.67944655867E+03  0.96100418756E+02 0.  0.
         23    2    4    4    0    0  0.99544939997E+02  0.37517912035E+03 -0.38802435444E+03  0.55644954510E+03  0.91676764644E+02 0.  0.
          3    1    3    3  502    0 -0.36657795680E+03  0.10053908401E+03  0.35524816951E+03  0.52027758722E+03  0.00000000000E+00 0. -1.
         -4    1    3    3    0  502 -0.53029740493E+02  0.36080480033E+01  0.17199916365E+02  0.55865987060E+02  0.00000000000E+00 0.  1.
         13    1    5    5    0    0  0.65670881934E+02 -0.17937130262E+03 -0.11357994272E+03  0.22223215862E+03  0.00000000000E+00 0. -1.
        -13    1    5    5    0    0  0.25439187536E+03 -0.29995494975E+03 -0.23314546850E+03  0.45721440004E+03  0.00000000000E+00 0.  1.
          1    1    6    6  503    0  0.52200683357E+02  0.31823861863E+03 -0.33749023266E+03  0.46679801506E+03  0.00000000000E+00 0. -1.
         -1    1    6    6    0  503  0.47344256640E+02  0.56940501728E+02 -0.50534121788E+02  0.89651530041E+02  0.00000000000E+00 0.  1.
<mgrwt>
<rscale>  0 0.17754507E+04</rscale>
<asrwt>0</asrwt>
<pdfrwt beam="1">  1        3 0.11151831E+00 0.17754507E+04</pdfrwt>
<pdfrwt beam="2">  1       -4 0.16725703E+00 0.17754507E+04</pdfrwt>
<totfact> 0.32368550E-01</totfact>
</mgrwt>
</event>
<event>
12    5  0.5221187E-008  0.1178931E+04  0.7818608E-02  0.9131501E-01
          1   -1    0    0  501    0  0.00000000000E+00  0.00000000000E+00  0.10263781188E+04  0.10263781188E+04  0.00000000000E+00 0. -1.
         -2   -1    0    0    0  501 -0.00000000000E+00 -0.00000000000E+00 -0.33853963081E+03  0.33853963081E+03  0.00000000000E+00 0.  1.
        -24    2    1    2    0    0 -0.75615008054E+02 -0.10139804906E+03 -0.17753344395E+03  0.23157949204E+03  0.78177641395E+02 0.  0.
        254    2    1    2    0    0  0.75615008054E+02  0.10139804906E+03  0.86537193195E+03  0.11333382576E+04  0.72082441114E+03 0.  0.
         23    2    4    4    0    0 -0.32413343490E+02  0.37295812276E+03  0.65907608196E+03  0.76338368133E+03  0.90691658608E+02 0.  0.
         23    2    4    4    0    0  0.10802835154E+03 -0.27156007371E+03  0.20629584999E+03  0.36995457625E+03  0.94304890632E+02 0.  0.
          1    1    3    3  502    0 -0.40311332752E+02 -0.13078064400E+02 -0.10088466374E+03  0.10942465305E+03  0.00000000000E+00 0. -1.
         -2    1    3    3    0  502 -0.35303675301E+02 -0.88319984656E+02 -0.76648780209E+02  0.12215483898E+03  0.00000000000E+00 0.  1.
         13    1    5    5    0    0 -0.46602909794E+02  0.30572218330E+03  0.58892117863E+03  0.66518120779E+03  0.00000000000E+00 0.  1.
        -13    1    5    5    0    0  0.14189566304E+02  0.67235939468E+02  0.70154903324E+02  0.98202473535E+02  0.00000000000E+00 0. -1.
          2    1    6    6  503    0  0.21379986502E+02 -0.50571121028E+02  0.90486684679E+02  0.10584130672E+03  0.00000000000E+00 0. -1.
         -2    1    6    6    0  503  0.86648365042E+02 -0.22098895268E+03  0.11580916531E+03  0.26411326953E+03  0.00000000000E+00 0.  1.
<mgrwt>
<rscale>  0 0.11789312E+04</rscale>
<asrwt>0</asrwt>
<pdfrwt beam="1">  1        1 0.15790432E+00 0.11789312E+04</pdfrwt>
<pdfrwt beam="2">  1       -2 0.52083020E-01 0.11789312E+04</pdfrwt>
<totfact> 0.43644971E+01</totfact>
</mgrwt>
</event>
<event>
12    5  0.5221187E-008  0.1957142E+04  0.7818608E-02  0.8626925E-01
          1   -1    0    0  501    0  0.00000000000E+00  0.00000000000E+00  0.14334632321E+04  0.14334632321E+04  0.00000000000E+00 0. -1.
         -2   -1    0    0    0  501 -0.00000000000E+00 -0.00000000000E+00 -0.66803318308E+03  0.66803318308E+03  0.00000000000E+00 0.  1.
        -24    2    1    2    0    0 -0.36203997441E+02  0.43005156767E+03  0.98556910939E+03  0.10793345259E+04  0.85799004708E+02 0.  0.
        254    2    1    2    0    0  0.36203997441E+02 -0.43005156767E+03 -0.22013906032E+03  0.10221618893E+04  0.90005479930E+03 0.  0.
         23    2    4    4    0    0  0.63956850527E+02 -0.14290160255E+03 -0.54733712012E+03  0.57670739805E+03  0.92207121018E+02 0.  0.
         23    2    4    4    0    0 -0.27752853086E+02 -0.28714996512E+03  0.32719805979E+03  0.44545449123E+03  0.90254141757E+02 0.  0.
          3    1    3    3  502    0 -0.59702450898E+02  0.37151333517E+03  0.86377748400E+03  0.94217730959E+03  0.00000000000E+00 0. -1.
         -4    1    3    3    0  502  0.23498453457E+02  0.58538232506E+02  0.12179162539E+03  0.13715721634E+03  0.00000000000E+00 0.  1.
         13    1    5    5    0    0  0.47591901480E+02 -0.12242346710E+03 -0.52810761949E+03  0.54419679542E+03  0.00000000000E+00 0.  1.
        -13    1    5    5    0    0  0.16364949047E+02 -0.20478135451E+02 -0.19229500625E+02  0.32510602627E+02  0.00000000000E+00 0. -1.
          3    1    6    6  503    0 -0.29876378941E+02 -0.45743889190E+02  0.29234889551E+02  0.61965959881E+02  0.00000000000E+00 0. -1.
         -3    1    6    6    0  503  0.21235258555E+01 -0.24140607593E+03  0.29796317024E+03  0.38348853135E+03  0.00000000000E+00 0.  1.
<mgrwt>
<rscale>  0 0.19571418E+04</rscale>
<asrwt>0</asrwt>
<pdfrwt beam="1">  1        1 0.22053280E+00 0.19571418E+04</pdfrwt>
<pdfrwt beam="2">  1       -2 0.10277434E+00 0.19571418E+04</pdfrwt>
<totfact> 0.46023367E+00</totfact>
</mgrwt>
</event>
<event>
12    5  0.5221187E-008  0.1349654E+04  0.7818608E-02  0.8991090E-01
          1   -1    0    0  501    0  0.00000000000E+00  0.00000000000E+00  0.14469032523E+04  0.14469032523E+04  0.00000000000E+00 0. -1.
         -2   -1    0    0    0  501 -0.00000000000E+00 -0.00000000000E+00 -0.31473503327E+03  0.31473503327E+03  0.00000000000E+00 0.  1.
        -24    2    1    2    0    0 -0.16757967101E+03  0.18559258112E+03 -0.45227907451E+02  0.26582396330E+03  0.78033733418E+02 0.  0.
        254    2    1    2    0    0  0.16757967101E+03 -0.18559258112E+03  0.11773961265E+04  0.14958143223E+04  0.88807167262E+03 0.  0.
         23    2    4    4    0    0  0.99478232730E+02  0.33048262316E+03  0.27655951964E+03  0.45130450380E+03  0.89866035011E+02 0.  0.
         23    2    4    4    0    0  0.68101438277E+02 -0.51607520429E+03  0.90083660684E+03  0.10445098185E+04  0.92318720996E+02 0.  0.
          3    1    3    3  502    0 -0.57736937010E+01 -0.30569338964E+01 -0.13852848052E+02  0.15316062906E+02  0.00000000000E+00 0. -1.
         -4    1    3    3    0  502 -0.16180597731E+03  0.18864951502E+03 -0.31375059399E+02  0.25050790040E+03  0.00000000000E+00 0.  1.
         13    1    5    5    0    0 -0.50292684649E+01 -0.22489627773E+01  0.13126570907E+02  0.14235808324E+02  0.00000000000E+00 0.  1.
        -13    1    5    5    0    0  0.10450750119E+03  0.33273158594E+03  0.26343294873E+03  0.43706869548E+03  0.00000000000E+00 0. -1.
          4    1    6    6  503    0  0.80817029160E+02 -0.44544584292E+03  0.81790791233E+03  0.93484049133E+03  0.00000000000E+00 0. -1.
         -4    1    6    6    0  503 -0.12715590884E+02 -0.70629361371E+02  0.82928694517E+02  0.10966932713E+03  0.00000000000E+00 0.  1.
<mgrwt>
<rscale>  0 0.13496535E+04</rscale>
<asrwt>0</asrwt>
<pdfrwt beam="1">  1        1 0.22260050E+00 0.13496535E+04</pdfrwt>
<pdfrwt beam="2">  1       -2 0.48420775E-01 0.13496535E+04</pdfrwt>
<totfact> 0.24711933E+01</totfact>
</mgrwt>
</event>
<event>
12    5  0.5221187E-008  0.2509197E+04  0.7818608E-02  0.8399716E-01
         -2   -1    0    0    0  501 -0.00000000000E+00  0.00000000000E+00  0.20403951719E+04  0.20403951719E+04  0.00000000000E+00 0.  1.
          1   -1    0    0  501    0  0.00000000000E+00 -0.00000000000E+00 -0.77142756702E+03  0.77142756702E+03  0.00000000000E+00 0. -1.
        -24    2    1    2    0    0 -0.44005317215E+03 -0.18893746800E+02  0.16705648425E+04  0.17294614674E+04  0.79033576820E+02 0.  0.
        254    2    1    2    0    0  0.44005317215E+03  0.18893746800E+02 -0.40159723760E+03  0.10823612715E+04  0.90344995040E+03 0.  0.
         23    2    4    4    0    0  0.36570562193E+03 -0.39564746238E+03 -0.34755324335E+03  0.64789595634E+03  0.93265196510E+02 0.  0.
         23    2    4    4    0    0  0.74347550214E+02  0.41454120918E+03 -0.54043994252E+02  0.43446531519E+03  0.92018391931E+02 0.  0.
          1    1    3    3  502    0 -0.12780399883E+02 -0.15253158224E+02  0.62165817767E+02  0.65273167194E+02  0.00000000000E+00 0. -1.
         -2    1    3    3    0  502 -0.42727277226E+03 -0.36405885769E+01  0.16083990247E+04  0.16641883002E+04  0.00000000000E+00 0.  1.
         13    1    5    5    0    0  0.22317769122E+03 -0.30472952344E+03 -0.23785647216E+03  0.44636763509E+03  0.00000000000E+00 0.  1.
        -13    1    5    5    0    0  0.14252793071E+03 -0.90917938943E+02 -0.10969677119E+03  0.20152832125E+03  0.00000000000E+00 0. -1.
          4    1    6    6  503    0 -0.20162264271E+02  0.54647086336E+02  0.13762792690E+01  0.58264183597E+02  0.00000000000E+00 0. -1.
         -4    1    6    6    0  503  0.94509814486E+02  0.35989412285E+03 -0.55420273521E+02  0.37620113159E+03  0.00000000000E+00 0.  1.
<mgrwt>
<rscale>  0 0.25091968E+04</rscale>
<asrwt>0</asrwt>
<pdfrwt beam="1">  1        1 0.11868116E+00 0.25091968E+04</pdfrwt>
<pdfrwt beam="2">  1       -2 0.31390695E+00 0.25091968E+04</pdfrwt>
<totfact> 0.47623974E-01</totfact>
</mgrwt>
</event>
<event>
12    5  0.5221187E-008  0.1358615E+04  0.7818608E-02  0.8984332E-01
          1   -1    0    0  501    0  0.00000000000E+00  0.00000000000E+00  0.33630381051E+04  0.33630381051E+04  0.00000000000E+00 0. -1.
         -2   -1    0    0    0  501 -0.00000000000E+00 -0.00000000000E+00 -0.13721481151E+03  0.13721481151E+03  0.00000000000E+00 0.  1.
        -24    2    1    2    0    0  0.98620537137E+02  0.34321909323E+03  0.13022711394E+04  0.13528775952E+04  0.82718261803E+02 0.  0.
        254    2    1    2    0    0 -0.98620537137E+02 -0.34321909323E+03  0.19235521542E+04  0.21473753214E+04  0.88523585825E+03 0.  0.
         23    2    4    4    0    0 -0.27111417988E+03 -0.31612682920E+03  0.32436218261E+03  0.53604878995E+03  0.93265261642E+02 0.  0.
         23    2    4    4    0    0  0.17249364275E+03 -0.27092264025E+02  0.15991899716E+04  0.16113265314E+04  0.92068334190E+02 0.  0.
          3    1    3    3  502    0  0.39081800783E+02  0.13877924897E+03  0.68206058729E+03  0.69713249231E+03  0.00000000000E+00 0. -1.
         -4    1    3    3    0  502  0.59538736354E+02  0.20443984426E+03  0.62021055213E+03  0.65574510293E+03  0.00000000000E+00 0.  1.
         13    1    5    5    0    0 -0.19868174278E+03 -0.26754603594E+03  0.29181717824E+03  0.44295889400E+03  0.00000000000E+00 0.  1.
        -13    1    5    5    0    0 -0.72432437106E+02 -0.48580793263E+02  0.32545004374E+02  0.93089895955E+02  0.00000000000E+00 0. -1.
          1    1    6    6  503    0  0.13057119908E+02 -0.20349083570E+02  0.50313538640E+03  0.50371598210E+03  0.00000000000E+00 0. -1.
         -1    1    6    6    0  503  0.15943652284E+03 -0.67431804553E+01  0.10960545852E+04  0.11076105493E+04  0.00000000000E+00 0.  1.
<mgrwt>
<rscale>  0 0.13586149E+04</rscale>
<asrwt>0</asrwt>
<pdfrwt beam="1">  1        1 0.51739042E+00 0.13586149E+04</pdfrwt>
<pdfrwt beam="2">  1       -2 0.21109974E-01 0.13586149E+04</pdfrwt>
<totfact> 0.54060351E+00</totfact>
</mgrwt>
</event>
<event>
12    5  0.5221187E-008  0.1587393E+04  0.7818608E-02  0.8828331E-01
         -4   -1    0    0    0  501 -0.00000000000E+00  0.00000000000E+00  0.10172803725E+04  0.10172803725E+04  0.00000000000E+00 0.  1.
          3   -1    0    0  501    0  0.00000000000E+00 -0.00000000000E+00 -0.61925324493E+03  0.61925324493E+03  0.00000000000E+00 0. -1.
        -24    2    1    2    0    0  0.26531488017E+03  0.33356000194E+03 -0.19922800333E+03  0.47716633130E+03  0.79634476690E+02 0.  0.
        254    2    1    2    0    0 -0.26531488017E+03 -0.33356000194E+03  0.59725513093E+03  0.11593672862E+04  0.89764388945E+03 0.  0.
         23    2    4    4    0    0  0.28758100393E+03 -0.30887176241E+03  0.28254756071E+03  0.51613035444E+03  0.91939215165E+02 0.  0.
         23    2    4    4    0    0 -0.55289588410E+03 -0.24688239533E+02  0.31470757022E+03  0.64323693172E+03  0.91703477293E+02 0.  0.
          3    1    3    3  502    0  0.86543990300E+02  0.14831024550E+03 -0.11346010853E+03  0.20581299134E+03  0.00000000000E+00 0. -1.
         -2    1    3    3    0  502  0.17877088987E+03  0.18524975643E+03 -0.85767894803E+02  0.27135333995E+03  0.00000000000E+00 0.  1.
         13    1    5    5    0    0  0.27183217018E+03 -0.24467823518E+03  0.23539241605E+03  0.43493649772E+03  0.00000000000E+00 0. -1.
        -13    1    5    5    0    0  0.15748833747E+02 -0.64193527221E+02  0.47155144661E+02  0.81193856722E+02  0.00000000000E+00 0.  1.
          2    1    6    6  503    0 -0.35554106804E+03 -0.59322624973E+02  0.19474887135E+03  0.40970202317E+03  0.00000000000E+00 0. -1.
         -2    1    6    6    0  503 -0.19735481606E+03  0.34634385440E+02  0.11995869887E+03  0.23353490855E+03  0.00000000000E+00 0.  1.
<mgrwt>
<rscale>  0 0.15873930E+04</rscale>
<asrwt>0</asrwt>
<pdfrwt beam="1">  1        3 0.95269730E-01 0.15873930E+04</pdfrwt>
<pdfrwt beam="2">  1       -4 0.15650467E+00 0.15873930E+04</pdfrwt>
<totfact> 0.57143047E-01</totfact>
</mgrwt>
</event>
<event>
12    5  0.5221187E-008  0.1671531E+04  0.7818608E-02  0.8777770E-01
         -2   -1    0    0    0  501 -0.00000000000E+00  0.00000000000E+00  0.28245407386E+03  0.28245407386E+03  0.00000000000E+00 0.  1.
          1   -1    0    0  501    0  0.00000000000E+00 -0.00000000000E+00 -0.24729817937E+04  0.24729817937E+04  0.00000000000E+00 0. -1.
        -24    2    1    2    0    0 -0.10119942097E+03  0.15363042885E+03  0.13726763556E+03  0.24298809997E+03  0.79731935147E+02 0.  0.
        254    2    1    2    0    0  0.10119942097E+03 -0.15363042885E+03 -0.23277953554E+04  0.25124477676E+04  0.92731814216E+03 0.  0.
         23    2    4    4    0    0  0.66819647225E+02 -0.43679337553E+03 -0.55936263675E+03  0.71859722553E+03  0.90785984519E+02 0.  0.
         23    2    4    4    0    0  0.34379773745E+02  0.28316294668E+03 -0.17684327186E+04  0.17938505420E+04  0.95824128806E+02 0.  0.
          1    1    3    3  502    0 -0.36270412810E+02  0.29193721235E+01  0.25911989861E+02  0.44670983844E+02  0.00000000000E+00 0. -1.
         -2    1    3    3    0  502 -0.64929008160E+02  0.15071105673E+03  0.11135564570E+03  0.19831711613E+03  0.00000000000E+00 0.  1.
         13    1    5    5    0    0 -0.30009472815E+01 -0.99607408451E+02 -0.76977393405E+02  0.12592124760E+03  0.00000000000E+00 0.  1.
        -13    1    5    5    0    0  0.69820594507E+02 -0.33718596708E+03 -0.48238524335E+03  0.59267597793E+03  0.00000000000E+00 0. -1.
          3    1    6    6  503    0  0.17490149835E+02  0.14545959495E+03 -0.11913945431E+04  0.12003688418E+04  0.00000000000E+00 0. -1.
         -3    1    6    6    0  503  0.16889623911E+02  0.13770335173E+03 -0.57703817551E+03  0.59348170020E+03  0.00000000000E+00 0.  1.
<mgrwt>
<rscale>  0 0.16715308E+04</rscale>
<asrwt>0</asrwt>
<pdfrwt beam="1">  1        1 0.38045876E+00 0.16715308E+04</pdfrwt>
<pdfrwt beam="2">  1       -2 0.43454470E-01 0.16715308E+04</pdfrwt>
<totfact> 0.59591658E+00</totfact>
</mgrwt>
</event>
<event>
12    5  0.5221187E-008  0.1997838E+04  0.7818608E-02  0.8607632E-01
         -2   -1    0    0    0  501 -0.00000000000E+00  0.00000000000E+00  0.16325798414E+04  0.16325798414E+04  0.00000000000E+00 0.  1.
          1   -1    0    0  501    0  0.00000000000E+00 -0.00000000000E+00 -0.61120403956E+03  0.61120403956E+03  0.00000000000E+00 0. -1.
        -24    2    1    2    0    0 -0.64258499025E+03  0.17293992027E+03  0.90497890881E+03  0.11261227008E+04  0.79635584035E+02 0.  0.
        254    2    1    2    0    0  0.64258499025E+03 -0.17293992027E+03  0.11639689308E+03  0.11176611802E+04  0.89039013427E+03 0.  0.
         23    2    4    4    0    0 -0.19784564041E+03 -0.14206267221E+03  0.70124428516E+02  0.27033352574E+03  0.94011059996E+02 0.  0.
         23    2    4    4    0    0  0.84043063066E+03 -0.30877248061E+02  0.46272464565E+02  0.84732765442E+03  0.92444380977E+02 0.  0.
          1    1    3    3  502    0 -0.89258177479E+02 -0.30842933036E+01  0.13103834694E+03  0.15857989621E+03  0.00000000000E+00 0. -1.
         -4    1    3    3    0  502 -0.55332681277E+03  0.17602421358E+03  0.77394056187E+03  0.96754280463E+03  0.00000000000E+00 0.  1.
         13    1    5    5    0    0 -0.19715282084E+03 -0.11215038146E+03  0.44947543498E+02  0.23122980883E+03  0.00000000000E+00 0. -1.
        -13    1    5    5    0    0 -0.69281956859E+00 -0.29912290751E+02  0.25176885018E+02  0.39103716910E+02  0.00000000000E+00 0.  1.
          2    1    6    6  503    0  0.23809127713E+03  0.10766225482E+02  0.50076266596E+02  0.24353849867E+03  0.00000000000E+00 0.  1.
         -2    1    6    6    0  503  0.60233935352E+03 -0.41643473543E+02 -0.38038020310E+01  0.60378915575E+03  0.00000000000E+00 0. -1.
<mgrwt>
<rscale>  0 0.19978382E+04</rscale>
<asrwt>0</asrwt>
<pdfrwt beam="1">  1        1 0.94031391E-01 0.19978382E+04</pdfrwt>
<pdfrwt beam="2">  1       -2 0.25116613E+00 0.19978382E+04</pdfrwt>
<totfact> 0.17120159E+00</totfact>
</mgrwt>
</event>
<event>
12    5  0.5221187E-008  0.2275342E+04  0.7818608E-02  0.8487707E-01
          1   -1    0    0  501    0  0.00000000000E+00  0.00000000000E+00  0.21339212226E+04  0.21339212226E+04  0.00000000000E+00 0. -1.
         -2   -1    0    0    0  501 -0.00000000000E+00 -0.00000000000E+00 -0.60653360264E+03  0.60653360264E+03  0.00000000000E+00 0.  1.
        -24    2    1    2    0    0  0.78826838391E+03  0.53557755451E+03  0.62341771592E+03  0.11415174599E+04  0.78753417457E+02 0.  0.
        254    2    1    2    0    0 -0.78826838391E+03 -0.53557755451E+03  0.90396990403E+03  0.15989373653E+04  0.91171747207E+03 0.  0.
         23    2    4    4    0    0  0.10624156045E+03  0.13036009729E+03  0.68185966509E+02  0.20235792849E+03  0.89545413398E+02 0.  0.
         23    2    4    4    0    0 -0.89450994436E+03 -0.66593765180E+03  0.83578393752E+03  0.13965794368E+04  0.90985364488E+02 0.  0.
          3    1    3    3  502    0  0.72085161952E+03  0.50084805793E+03  0.54928238076E+03  0.10354646147E+04  0.00000000000E+00 0. -1.
         -4    1    3    3    0  502  0.67416764387E+02  0.34729496579E+02  0.74135335164E+02  0.10605284519E+03  0.00000000000E+00 0.  1.
         13    1    5    5    0    0  0.26332591512E+02  0.70782357015E+02  0.69558998429E+02  0.10267425044E+03  0.00000000000E+00 0. -1.
        -13    1    5    5    0    0  0.79908968937E+02  0.59577740272E+02 -0.13730319201E+01  0.99683678048E+02  0.00000000000E+00 0.  1.
          3    1    6    6  503    0 -0.51263096415E+03 -0.37265580912E+03  0.41904649094E+03  0.75977813804E+03  0.00000000000E+00 0. -1.
         -3    1    6    6    0  503 -0.38187898020E+03 -0.29328184267E+03  0.41673744658E+03  0.63680129880E+03  0.00000000000E+00 0.  1.
<mgrwt>
<rscale>  0 0.22753417E+04</rscale>
<asrwt>0</asrwt>
<pdfrwt beam="1">  1        1 0.32829557E+00 0.22753417E+04</pdfrwt>
<pdfrwt beam="2">  1       -2 0.93312863E-01 0.22753417E+04</pdfrwt>
<totfact> 0.18688766E+00</totfact>
</mgrwt>
</event>
<event>
12    5  0.5221187E-008  0.1605311E+04  0.7818608E-02  0.8817292E-01
          1   -1    0    0  501    0  0.00000000000E+00  0.00000000000E+00  0.13680026004E+04  0.13680026004E+04  0.00000000000E+00 0. -1.
         -2   -1    0    0    0  501 -0.00000000000E+00 -0.00000000000E+00 -0.47094662575E+03  0.47094662575E+03  0.00000000000E+00 0.  1.
        -24    2    1    2    0    0 -0.68276784767E+02 -0.21893087347E+03  0.87631192399E+03  0.90934603965E+03  0.79969900525E+02 0.  0.
        254    2    1    2    0    0  0.68276784767E+02  0.21893087347E+03  0.20744050614E+02  0.92960318646E+03  0.90063273421E+03 0.  0.
         23    2    4    4    0    0 -0.18329275555E+03 -0.80057059703E+02 -0.33038319197E+03  0.39641231091E+03  0.89354908432E+02 0.  0.
         23    2    4    4    0    0  0.25156954032E+03  0.29898793317E+03  0.35112724258E+03  0.53319087554E+03  0.91220345737E+02 0.  0.
          1    1    3    3  502    0 -0.63093871231E+02 -0.14945910521E+03  0.47265081870E+03  0.49971757737E+03  0.00000000000E+00 0. -1.
         -2    1    3    3    0  502 -0.51829135360E+01 -0.69471768263E+02  0.40366110530E+03  0.40962846228E+03  0.00000000000E+00 0.  1.
         13    1    5    5    0    0 -0.82071884116E+02 -0.66321898419E+02 -0.10450980911E+03  0.14851494394E+03  0.00000000000E+00 0. -1.
        -13    1    5    5    0    0 -0.10122087144E+03 -0.13735161284E+02 -0.22587338286E+03  0.24789736697E+03  0.00000000000E+00 0.  1.
          3    1    6    6  503    0  0.36479230980E+02  0.35276808630E+02  0.10742996760E+02  0.51870988996E+02  0.00000000000E+00 0. -1.
         -3    1    6    6    0  503  0.21509030934E+03  0.26371112454E+03  0.34038424582E+03  0.48131988655E+03  0.00000000000E+00 0.  1.
<mgrwt>
<rscale>  0 0.16053114E+04</rscale>
<asrwt>0</asrwt>
<pdfrwt beam="1">  1        1 0.21046194E+00 0.16053114E+04</pdfrwt>
<pdfrwt beam="2">  1       -2 0.72453328E-01 0.16053114E+04</pdfrwt>
<totfact> 0.11736329E+01</totfact>
</mgrwt>
</event>
<event>
12    5  0.5221187E-008  0.1595803E+04  0.7818608E-02  0.8823131E-01
          1   -1    0    0  501    0  0.00000000000E+00  0.00000000000E+00  0.13952077140E+04  0.13952077140E+04  0.00000000000E+00 0. -1.
         -2   -1    0    0    0  501 -0.00000000000E+00 -0.00000000000E+00 -0.45630954096E+03  0.45630954096E+03  0.00000000000E+00 0.  1.
        -24    2    1    2    0    0  0.51036772295E+03  0.10691134426E+03  0.14786763550E+03  0.54791961131E+03  0.80285831056E+02 0.  0.
        254    2    1    2    0    0 -0.51036772295E+03 -0.10691134426E+03  0.79103053752E+03  0.13035976436E+04  0.89539502848E+03 0.  0.
         23    2    4    4    0    0 -0.17919405083E+02  0.77210604199E+02 -0.16656397246E+03  0.20743590448E+03  0.94886854015E+02 0.  0.
         23    2    4    4    0    0 -0.49244831787E+03 -0.18412194846E+03  0.95759450997E+03  0.10961617391E+04  0.90427181560E+02 0.  0.
          3    1    3    3  502    0  0.22710334259E+03  0.51154443171E+02  0.24895030479E+02  0.23412062663E+03  0.00000000000E+00 0. -1.
         -4    1    3    3    0  502  0.28326438037E+03  0.55756901088E+02  0.12297260502E+03  0.31379898468E+03  0.00000000000E+00 0.  1.
         13    1    5    5    0    0 -0.33040336047E+02  0.75605480197E+02 -0.65808918484E+02  0.10553987964E+03  0.00000000000E+00 0.  1.
        -13    1    5    5    0    0  0.15120930963E+02  0.16051240023E+01 -0.10075505397E+03  0.10189602484E+03  0.00000000000E+00 0. -1.
          1    1    6    6  503    0 -0.12290114775E+03 -0.94402244446E+01  0.18917346851E+03  0.22578842119E+03  0.00000000000E+00 0. -1.
         -1    1    6    6    0  503 -0.36954717012E+03 -0.17468172401E+03  0.76842104147E+03  0.87037331796E+03  0.00000000000E+00 0.  1.
<mgrwt>
<rscale>  0 0.15958027E+04</rscale>
<asrwt>0</asrwt>
<pdfrwt beam="1">  1        1 0.21464734E+00 0.15958027E+04</pdfrwt>
<pdfrwt beam="2">  1       -2 0.70201468E-01 0.15958027E+04</pdfrwt>
<totfact> 0.12044885E+01</totfact>
</mgrwt>
</event>
<event>
12    5  0.5221187E-008  0.1856315E+04  0.7818608E-02  0.8676912E-01
         -2   -1    0    0    0  501 -0.00000000000E+00  0.00000000000E+00  0.50569681762E+03  0.50569681762E+03  0.00000000000E+00 0.  1.
          1   -1    0    0  501    0  0.00000000000E+00 -0.00000000000E+00 -0.17035437229E+04  0.17035437229E+04  0.00000000000E+00 0. -1.
        -24    2    1    2    0    0 -0.36447329506E+03  0.54281365234E+03 -0.78331213342E+03  0.10237180805E+04  0.83266835586E+02 0.  0.
        254    2    1    2    0    0  0.36447329506E+03 -0.54281365234E+03 -0.41453477182E+03  0.11855224600E+04  0.89785131409E+03 0.  0.
         23    2    4    4    0    0 -0.38884132470E+02 -0.66857445064E+03 -0.21028959373E+03  0.70784078971E+03  0.91176195054E+02 0.  0.
         23    2    4    4    0    0  0.40335742753E+03  0.12576079830E+03 -0.20424517809E+03  0.47768167032E+03  0.89166656630E+02 0.  0.
          1    1    3    3  502    0 -0.74959286496E+02  0.17677027277E+03 -0.24478080615E+03  0.31110169885E+03  0.00000000000E+00 0. -1.
         -2    1    3    3    0  502 -0.28951400856E+03  0.36604337956E+03 -0.53853132727E+03  0.71261638160E+03  0.00000000000E+00 0.  1.
         13    1    5    5    0    0 -0.22630437020E+00 -0.31683280581E+03 -0.55719708776E+02  0.32169514139E+03  0.00000000000E+00 0.  1.
        -13    1    5    5    0    0 -0.38657828100E+02 -0.35174164483E+03 -0.15456988495E+03  0.38614564832E+03  0.00000000000E+00 0. -1.
          2    1    6    6  503    0  0.26493467488E+03  0.10800739498E+03 -0.98495457442E+02  0.30258442535E+03  0.00000000000E+00 0.  1.
         -2    1    6    6    0  503  0.13842275265E+03  0.17753403316E+02 -0.10574972065E+03  0.17509724497E+03  0.00000000000E+00 0. -1.
<mgrwt>
<rscale>  0 0.18563153E+04</rscale>
<asrwt>0</asrwt>
<pdfrwt beam="1">  1        1 0.26208365E+00 0.18563153E+04</pdfrwt>
<pdfrwt beam="2">  1       -2 0.77799509E-01 0.18563153E+04</pdfrwt>
<totfact> 0.57495362E+00</totfact>
</mgrwt>
</event>
<event>
12    5  0.5221187E-008  0.1489859E+04  0.7818608E-02  0.8891225E-01
          1   -1    0    0  501    0  0.00000000000E+00  0.00000000000E+00  0.95914723899E+03  0.95914723899E+03  0.00000000000E+00 0. -1.
         -2   -1    0    0    0  501 -0.00000000000E+00 -0.00000000000E+00 -0.57855523839E+03  0.57855523839E+03  0.00000000000E+00 0.  1.
        -24    2    1    2    0    0 -0.91991512844E+02 -0.23153773307E+03 -0.28722412260E+03  0.38855342346E+03  0.80024408853E+02 0.  0.
        254    2    1    2    0    0  0.91991512844E+02  0.23153773307E+03  0.66781612320E+03  0.11491490539E+04  0.90138394341E+03 0.  0.
         23    2    4    4    0    0 -0.25068170404E+03 -0.14421705380E+03  0.33564974120E+00  0.30489621518E+03  0.96549023949E+02 0.  0.
         23    2    4    4    0    0  0.34267321689E+03  0.37575478686E+03  0.66748047346E+03  0.84425283873E+03  0.92822841103E+02 0.  0.
          1    1    3    3  502    0  0.95534971163E+01 -0.15495335250E+02 -0.44650934594E+02  0.48219090429E+02  0.00000000000E+00 0. -1.
         -2    1    3    3    0  502 -0.10154500996E+03 -0.21604239782E+03 -0.24257318801E+03  0.34033433304E+03  0.00000000000E+00 0.  1.
         13    1    5    5    0    0 -0.44303116234E+02 -0.74169054065E+02 -0.82387276053E+01  0.86785317430E+02  0.00000000000E+00 0.  1.
        -13    1    5    5    0    0 -0.20637858781E+03 -0.70047999732E+02  0.85743773465E+01  0.21811089775E+03  0.00000000000E+00 0. -1.
          3    1    6    6  503    0  0.29775409538E+03  0.27013997569E+03  0.52728865516E+03  0.66307347529E+03  0.00000000000E+00 0. -1.
         -3    1    6    6    0  503  0.44919121510E+02  0.10561481117E+03  0.14019181831E+03  0.18117936344E+03  0.00000000000E+00 0.  1.
<mgrwt>
<rscale>  0 0.14898586E+04</rscale>
<asrwt>0</asrwt>
<pdfrwt beam="1">  1        1 0.14756111E+00 0.14898586E+04</pdfrwt>
<pdfrwt beam="2">  1       -2 0.89008498E-01 0.14898586E+04</pdfrwt>
<totfact> 0.14995938E+01</totfact>
</mgrwt>
</event>
<event>
12    5  0.5221187E-008  0.1224721E+04  0.7818608E-02  0.9091489E-01
         -2   -1    0    0    0  501 -0.00000000000E+00  0.00000000000E+00  0.51122426183E+03  0.51122426183E+03  0.00000000000E+00 0.  1.
          1   -1    0    0  501    0  0.00000000000E+00 -0.00000000000E+00 -0.73350465817E+03  0.73350465817E+03  0.00000000000E+00 0. -1.
        -24    2    1    2    0    0 -0.59989645156E+02 -0.97488134540E+02  0.20265518889E+03  0.25005095146E+03  0.91398352492E+02 0.  0.
        254    2    1    2    0    0  0.59989645156E+02  0.97488134540E+02 -0.42493558523E+03  0.99467796855E+03  0.89202652181E+03 0.  0.
         23    2    4    4    0    0  0.69736867780E+02  0.40092460317E+03 -0.51722619339E+03  0.66463941290E+03  0.92837739614E+02 0.  0.
         23    2    4    4    0    0 -0.97472226241E+01 -0.30343646863E+03  0.92290608163E+02  0.33003855565E+03  0.90770000654E+02 0.  0.
          1    1    3    3  502    0 -0.24320840916E+02 -0.10263830848E+03  0.11933109758E+03  0.15926718594E+03  0.00000000000E+00 0. -1.
         -2    1    3    3    0  502 -0.35668804239E+02  0.51501739359E+01  0.83324091315E+02  0.90783765514E+02  0.00000000000E+00 0.  1.
         13    1    5    5    0    0  0.47455941583E+02  0.29433168429E+03 -0.43856339599E+03  0.53030279942E+03  0.00000000000E+00 0. -1.
        -13    1    5    5    0    0  0.22280926197E+02  0.10659291887E+03 -0.78662797403E+02  0.13433661348E+03  0.00000000000E+00 0.  1.
          3    1    6    6  503    0 -0.17305339469E+01 -0.30729973329E+03  0.93113458133E+02  0.32110159905E+03  0.00000000000E+00 0. -1.
         -3    1    6    6    0  503 -0.80166886772E+01  0.38632646618E+01 -0.82284996976E+00  0.89369565998E+01  0.00000000000E+00 0.  1.
<mgrwt>
<rscale>  0 0.12247210E+04</rscale>
<asrwt>0</asrwt>
<pdfrwt beam="1">  1        1 0.11284687E+00 0.12247210E+04</pdfrwt>
<pdfrwt beam="2">  1       -2 0.78649887E-01 0.12247210E+04</pdfrwt>
<totfact> 0.31518867E+01</totfact>
</mgrwt>
</event>
<event>
12    5  0.5221187E-008  0.2306315E+04  0.7818608E-02  0.8475436E-01
         -2   -1    0    0    0  501 -0.00000000000E+00  0.00000000000E+00  0.60789201834E+03  0.60789201834E+03  0.00000000000E+00 0.  1.
          1   -1    0    0  501    0  0.00000000000E+00 -0.00000000000E+00 -0.21875130798E+04  0.21875130798E+04  0.00000000000E+00 0. -1.
        -24    2    1    2    0    0  0.56454113781E+03 -0.34063683664E+03  0.20155928422E+03  0.69411709330E+03  0.80201268047E+02 0.  0.
        254    2    1    2    0    0 -0.56454113781E+03  0.34063683664E+03 -0.17811803457E+04  0.21012880048E+04  0.89892586162E+03 0.  0.
         23    2    4    4    0    0 -0.74762971994E+03  0.11642827298E+03 -0.15143781475E+04  0.16954671198E+04  0.93604698856E+02 0.  0.
         23    2    4    4    0    0  0.18308858213E+03  0.22420856366E+03 -0.26680219814E+03  0.40582088505E+03  0.98571136184E+02 0.  0.
          3    1    3    3  502    0  0.16893305722E+03 -0.92996354742E+02  0.22185289858E+02  0.19411050178E+03  0.00000000000E+00 0. -1.
         -4    1    3    3    0  502  0.39560808059E+03 -0.24764048190E+03  0.17937399437E+03  0.50000659152E+03  0.00000000000E+00 0.  1.
         13    1    5    5    0    0 -0.71123273245E+03  0.88926789940E+02 -0.14266250345E+04  0.15965647381E+04  0.00000000000E+00 0.  1.
        -13    1    5    5    0    0 -0.36396987482E+02  0.27501483042E+02 -0.87753113002E+02  0.98902381715E+02  0.00000000000E+00 0. -1.
          3    1    6    6  503    0  0.11101321826E+02  0.11165584030E+02 -0.61812253546E+02  0.63786082349E+02  0.00000000000E+00 0. -1.
         -3    1    6    6    0  503  0.17198726030E+03  0.21304297963E+03 -0.20498994459E+03  0.34203480270E+03  0.00000000000E+00 0.  1.
<mgrwt>
<rscale>  0 0.23063146E+04</rscale>
<asrwt>0</asrwt>
<pdfrwt beam="1">  1        1 0.33654047E+00 0.23063146E+04</pdfrwt>
<pdfrwt beam="2">  1       -2 0.93521849E-01 0.23063146E+04</pdfrwt>
<totfact> 0.17048086E+00</totfact>
</mgrwt>
</event>
<event>
12    5  0.5221187E-008  0.1876689E+04  0.7818608E-02  0.8666547E-01
          1   -1    0    0  501    0  0.00000000000E+00  0.00000000000E+00  0.21343451917E+04  0.21343451917E+04  0.00000000000E+00 0. -1.
         -2   -1    0    0    0  501 -0.00000000000E+00 -0.00000000000E+00 -0.41253441817E+03  0.41253441817E+03  0.00000000000E+00 0.  1.
        -24    2    1    2    0    0 -0.47814364010E+03 -0.42247457194E+03  0.20923638664E+03  0.67659844369E+03  0.83063132623E+02 0.  0.
        254    2    1    2    0    0  0.47814364010E+03  0.42247457194E+03  0.15125743869E+04  0.18702811662E+04  0.89608273066E+03 0.  0.
         23    2    4    4    0    0  0.25485636274E+03  0.68116382755E+03  0.87977968990E+03  0.11451547078E+04  0.91820893226E+02 0.  0.
         23    2    4    4    0    0  0.22328727736E+03 -0.25868925562E+03  0.63279469699E+03  0.72512645838E+03  0.92746498104E+02 0.  0.
          3    1    3    3  502    0 -0.18457213430E+03 -0.11336915897E+03  0.83472084702E+02  0.23213579622E+03  0.00000000000E+00 0. -1.
         -4    1    3    3    0  502 -0.29357150581E+03 -0.30910541297E+03  0.12576430194E+03  0.44446264746E+03  0.00000000000E+00 0.  1.
         13    1    5    5    0    0  0.74185633750E+02  0.23310512392E+03  0.23273749309E+03  0.33765107396E+03  0.00000000000E+00 0.  1.
        -13    1    5    5    0    0  0.18067072899E+03  0.44805870363E+03  0.64704219681E+03  0.80750363384E+03  0.00000000000E+00 0. -1.
          2    1    6    6  503    0  0.15257918957E+03 -0.13335643459E+03  0.29435982935E+03  0.35736823708E+03  0.00000000000E+00 0. -1.
         -2    1    6    6    0  503  0.70708087784E+02 -0.12533282103E+03  0.33843486764E+03  0.36775822130E+03  0.00000000000E+00 0.  1.
<mgrwt>
<rscale>  0 0.18766895E+04</rscale>
<asrwt>0</asrwt>
<pdfrwt beam="1">  1        1 0.32836079E+00 0.18766895E+04</pdfrwt>
<pdfrwt beam="2">  1       -2 0.63466835E-01 0.18766895E+04</pdfrwt>
<totfact> 0.45695944E+00</totfact>
</mgrwt>
</event>
<event>
12    5  0.5221187E-008  0.1430584E+04  0.7818608E-02  0.8931973E-01
          1   -1    0    0  501    0  0.00000000000E+00  0.00000000000E+00  0.76231810111E+03  0.76231810111E+03  0.00000000000E+00 0. -1.
         -2   -1    0    0    0  501 -0.00000000000E+00 -0.00000000000E+00 -0.67116652058E+03  0.67116652058E+03  0.00000000000E+00 0.  1.
        -24    2    1    2    0    0 -0.21541208387E+03 -0.28706906929E+03 -0.20401768517E+03  0.42058860216E+03  0.80377484320E+02 0.  0.
        254    2    1    2    0    0  0.21541208387E+03  0.28706906929E+03  0.29516926570E+03  0.10128960195E+04  0.90001246355E+03 0.  0.
         23    2    4    4    0    0  0.17367323648E+03 -0.25968239223E+03  0.32024928600E+03  0.45657723769E+03  0.91136331350E+02 0.  0.
         23    2    4    4    0    0  0.41738847386E+02  0.54675146152E+03 -0.25080020299E+02  0.55631878184E+03  0.90455997905E+02 0.  0.
          3    1    3    3  502    0 -0.63532032008E+02 -0.80787265451E+02 -0.18805825162E+02  0.10448234497E+03  0.00000000000E+00 0. -1.
         -4    1    3    3    0  502 -0.15188005186E+03 -0.20628180384E+03 -0.18521186001E+03  0.31610625719E+03  0.00000000000E+00 0.  1.
         13    1    5    5    0    0  0.11568383696E+03 -0.98287648325E+02  0.12445984798E+03  0.19629942869E+03  0.00000000000E+00 0.  1.
        -13    1    5    5    0    0  0.57989399526E+02 -0.16139474390E+03  0.19578943802E+03  0.26027780900E+03  0.00000000000E+00 0. -1.
          2    1    6    6  503    0  0.49154076791E+02  0.53723339515E+03 -0.13576565574E+02  0.53964818841E+03  0.00000000000E+00 0. -1.
         -2    1    6    6    0  503 -0.74152294046E+01  0.95180663713E+01 -0.11503454725E+02  0.16670593426E+02  0.00000000000E+00 0.  1.
<mgrwt>
<rscale>  0 0.14305836E+04</rscale>
<asrwt>0</asrwt>
<pdfrwt beam="1">  1        1 0.11727971E+00 0.14305836E+04</pdfrwt>
<pdfrwt beam="2">  1       -2 0.10325639E+00 0.14305836E+04</pdfrwt>
<totfact> 0.15565313E+01</totfact>
</mgrwt>
</event>
<event>
12    5  0.5221187E-008  0.1530816E+04  0.7818608E-02  0.8864215E-01
          1   -1    0    0  501    0  0.00000000000E+00  0.00000000000E+00  0.80123698197E+03  0.80123698197E+03  0.00000000000E+00 0. -1.
         -2   -1    0    0    0  501 -0.00000000000E+00 -0.00000000000E+00 -0.73118110035E+03  0.73118110035E+03  0.00000000000E+00 0.  1.
        -24    2    1    2    0    0 -0.42984011042E+03  0.17919592638E+03  0.15853418227E+03  0.49835701372E+03  0.79705242058E+02 0.  0.
        254    2    1    2    0    0  0.42984011042E+03 -0.17919592638E+03 -0.88478300647E+02  0.10340610686E+04  0.91901043702E+03 0.  0.
         23    2    4    4    0    0  0.69567738077E+03 -0.10332628243E+02 -0.50186499767E+02  0.70353301312E+03  0.91467122314E+02 0.  0.
         23    2    4    4    0    0 -0.26583727034E+03 -0.16886329813E+03 -0.38291800880E+02  0.33052805548E+03  0.92726833693E+02 0.  0.
          3    1    3    3  502    0 -0.18281887997E+03  0.10432845681E+03  0.10296080458E+03  0.23432476834E+03  0.00000000000E+00 0. -1.
         -4    1    3    3    0  502 -0.24702123045E+03  0.74867469567E+02  0.55573377686E+02  0.26403224538E+03  0.00000000000E+00 0.  1.
         13    1    5    5    0    0  0.31431353791E+02  0.11768649272E+02  0.12846676880E+02  0.35937003404E+02  0.00000000000E+00 0.  1.
        -13    1    5    5    0    0  0.66424602698E+03 -0.22101277515E+02 -0.63033176647E+02  0.66759600971E+03  0.00000000000E+00 0. -1.
          1    1    6    6  503    0 -0.21214647630E+03 -0.84709774681E+02 -0.29205807114E+02  0.23029297102E+03  0.00000000000E+00 0. -1.
         -1    1    6    6    0  503 -0.53690794046E+02 -0.84153523452E+02 -0.90859937659E+01  0.10023508446E+03  0.00000000000E+00 0.  1.
<mgrwt>
<rscale>  0 0.15308159E+04</rscale>
<asrwt>0</asrwt>
<pdfrwt beam="1">  1        1 0.12326723E+00 0.15308159E+04</pdfrwt>
<pdfrwt beam="2">  1       -2 0.11248940E+00 0.15308159E+04</pdfrwt>
<totfact> 0.11599858E+01</totfact>
</mgrwt>
</event>
<event>
12    5  0.5221187E-008  0.1255041E+04  0.7818608E-02  0.9065998E-01
          1   -1    0    0  501    0  0.00000000000E+00  0.00000000000E+00  0.11264832076E+04  0.11264832076E+04  0.00000000000E+00 0. -1.
         -2   -1    0    0    0  501 -0.00000000000E+00 -0.00000000000E+00 -0.34956752659E+03  0.34956752659E+03  0.00000000000E+00 0.  1.
        -24    2    1    2    0    0 -0.26407062226E+03 -0.11829958690E+03  0.28805753645E+03  0.41548643490E+03  0.76965885159E+02 0.  0.
        254    2    1    2    0    0  0.26407062226E+03  0.11829958690E+03  0.48885814453E+03  0.10605642993E+04  0.89559268733E+03 0.  0.
         23    2    4    4    0    0 -0.29207436990E+03  0.15044760781E+02  0.36242414418E+03  0.47459254804E+03  0.91394988879E+02 0.  0.
         23    2    4    4    0    0  0.55614499216E+03  0.10325482612E+03  0.12643400035E+03  0.58597175122E+03  0.86130861879E+02 0.  0.
          3    1    3    3  502    0 -0.88638588119E+02 -0.54960842822E+02  0.15316914937E+03  0.18530591428E+03  0.00000000000E+00 0. -1.
         -4    1    3    3    0  502 -0.17543203414E+03 -0.63338744073E+02  0.13488838707E+03  0.23018052062E+03  0.00000000000E+00 0.  1.
         13    1    5    5    0    0 -0.75389159322E+02  0.34487097121E+02  0.61318693774E+02  0.10311579616E+03  0.00000000000E+00 0.  1.
        -13    1    5    5    0    0 -0.21668521058E+03 -0.19442336340E+02  0.30110545041E+03  0.37147675188E+03  0.00000000000E+00 0. -1.
          2    1    6    6  503    0  0.50577421544E+03  0.11540893301E+03  0.12723433815E+03  0.53414918855E+03  0.00000000000E+00 0. -1.
         -2    1    6    6    0  503  0.50370776717E+02 -0.12154106893E+02 -0.80033780261E+00  0.51822562674E+02  0.00000000000E+00 0.  1.
<mgrwt>
<rscale>  0 0.12550410E+04</rscale>
<asrwt>0</asrwt>
<pdfrwt beam="1">  1        1 0.17330511E+00 0.12550410E+04</pdfrwt>
<pdfrwt beam="2">  1       -2 0.53779620E-01 0.12550410E+04</pdfrwt>
<totfact> 0.34100795E+01</totfact>
</mgrwt>
</event>
<event>
12    5  0.5221187E-008  0.2485388E+04  0.7818608E-02  0.8408210E-01
         -2   -1    0    0    0  501 -0.00000000000E+00  0.00000000000E+00  0.12265087380E+04  0.12265087380E+04  0.00000000000E+00 0.  1.
          1   -1    0    0  501    0  0.00000000000E+00 -0.00000000000E+00 -0.12590930273E+04  0.12590930273E+04  0.00000000000E+00 0. -1.
        -24    2    1    2    0    0 -0.54057062336E+03 -0.25253264333E+03 -0.91085971396E+03  0.10943036488E+04  0.10883805595E+03 0.  0.
        254    2    1    2    0    0  0.54057062336E+03  0.25253264333E+03  0.87827542467E+03  0.13912981165E+04  0.89908475272E+03 0.  0.
         23    2    4    4    0    0  0.39836224982E+03  0.58068795031E+03  0.56500193124E+03  0.90726120037E+03  0.89469132474E+02 0.  0.
         23    2    4    4    0    0  0.14220837354E+03 -0.32815530698E+03  0.31327349344E+03  0.48403691612E+03  0.90787264962E+02 0.  0.
          1    1    3    3  502    0 -0.27168280974E+03 -0.13923324374E+03 -0.36933097565E+03  0.47916887925E+03  0.00000000000E+00 0. -1.
         -2    1    3    3    0  502 -0.26888781362E+03 -0.11329939960E+03 -0.54152873831E+03  0.61513476953E+03  0.00000000000E+00 0.  1.
         13    1    5    5    0    0  0.17048849290E+03  0.18476742671E+03  0.23039676452E+03  0.34101025979E+03  0.00000000000E+00 0. -1.
        -13    1    5    5    0    0  0.22787375693E+03  0.39592052360E+03  0.33460516672E+03  0.56625094058E+03  0.00000000000E+00 0.  1.
          1    1    6    6  503    0  0.32538019361E+02 -0.39499546575E+02  0.11867885277E+02  0.52533642407E+02  0.00000000000E+00 0. -1.
         -1    1    6    6    0  503  0.10967035418E+03 -0.28865576040E+03  0.30140560816E+03  0.43150327372E+03  0.00000000000E+00 0.  1.
<mgrwt>
<rscale>  0 0.24853882E+04</rscale>
<asrwt>0</asrwt>
<pdfrwt beam="1">  1        1 0.19370662E+00 0.24853882E+04</pdfrwt>
<pdfrwt beam="2">  1       -2 0.18869365E+00 0.24853882E+04</pdfrwt>
<totfact> 0.11950986E+00</totfact>
</mgrwt>
</event>
<event>
12    5  0.5221187E-008  0.2433376E+04  0.7818608E-02  0.8427113E-01
         -2   -1    0    0    0  501 -0.00000000000E+00  0.00000000000E+00  0.13291863206E+04  0.13291863206E+04  0.00000000000E+00 0.  1.
          1   -1    0    0  501    0  0.00000000000E+00 -0.00000000000E+00 -0.11137107765E+04  0.11137107765E+04  0.00000000000E+00 0. -1.
        -24    2    1    2    0    0  0.29311083787E+03  0.32710943779E+03 -0.86307972408E+03  0.97170518665E+03  0.79936300198E+02 0.  0.
        254    2    1    2    0    0 -0.29311083787E+03 -0.32710943779E+03  0.10785552682E+04  0.14711919104E+04  0.89900479593E+03 0.  0.
         23    2    4    4    0    0  0.21193115560E+03 -0.97189595647E+02 -0.56616614045E+01  0.24998127229E+03  0.89988609665E+02 0.  0.
         23    2    4    4    0    0 -0.50504199346E+03 -0.22991984214E+03  0.10842169296E+04  0.12212106381E+04  0.88873636410E+02 0.  0.
          3    1    3    3  502    0  0.25067641068E+03  0.25715588118E+03 -0.63672688402E+03  0.73101910709E+03  0.00000000000E+00 0. -1.
         -4    1    3    3    0  502  0.42434427183E+02  0.69953556607E+02 -0.22635284006E+03  0.24068607956E+03  0.00000000000E+00 0.  1.
         13    1    5    5    0    0  0.14104311725E+03 -0.24732392066E+02 -0.28668348549E+02  0.14603672945E+03  0.00000000000E+00 0.  1.
        -13    1    5    5    0    0  0.70888038348E+02 -0.72457203581E+02  0.23006687145E+02  0.10394454283E+03  0.00000000000E+00 0. -1.
          3    1    6    6  503    0 -0.17161610987E+03 -0.33145338744E+02  0.34391516768E+03  0.38578276946E+03  0.00000000000E+00 0. -1.
         -3    1    6    6    0  503 -0.33342588359E+03 -0.19677450340E+03  0.74030176189E+03  0.83542786864E+03  0.00000000000E+00 0.  1.
<mgrwt>
<rscale>  0 0.24333755E+04</rscale>
<asrwt>0</asrwt>
<pdfrwt beam="1">  1        1 0.17134012E+00 0.24333755E+04</pdfrwt>
<pdfrwt beam="2">  1       -2 0.20449020E+00 0.24333755E+04</pdfrwt>
<totfact> 0.12062542E+00</totfact>
</mgrwt>
</event>
<event>
12    5  0.5221187E-008  0.1178809E+04  0.7818608E-02  0.9131610E-01
          3   -1    0    0  501    0  0.00000000000E+00  0.00000000000E+00  0.11045320535E+03  0.11045320535E+03  0.00000000000E+00 0. -1.
         -4   -1    0    0    0  501 -0.00000000000E+00 -0.00000000000E+00 -0.31452024117E+04  0.31452024117E+04  0.00000000000E+00 0.  1.
        -24    2    1    2    0    0 -0.15214699004E+03 -0.16303039204E+03 -0.41870652175E+03  0.48106477777E+03  0.79878368474E+02 0.  0.
        254    2    1    2    0    0  0.15214699004E+03  0.16303039204E+03 -0.26160426846E+04  0.27745908392E+04  0.89718859917E+03 0.  0.
         23    2    4    4    0    0 -0.31058323147E+03  0.26967082100E+03 -0.15071112721E+04  0.15648196055E+04  0.89953966408E+02 0.  0.
         23    2    4    4    0    0  0.46273022152E+03 -0.10664042896E+03 -0.11089314125E+04  0.12097712337E+04  0.91247582581E+02 0.  0.
          3    1    3    3  502    0 -0.13010657751E+03 -0.13545632876E+03 -0.39812154260E+03  0.44020097819E+03  0.00000000000E+00 0. -1.
         -4    1    3    3    0  502 -0.22040412528E+02 -0.27574063276E+02 -0.20584979149E+02  0.40863799585E+02  0.00000000000E+00 0.  1.
         13    1    5    5    0    0  0.57879845514E+01  0.74207440744E+01 -0.49675043881E+02  0.50558660904E+02  0.00000000000E+00 0. -1.
        -13    1    5    5    0    0 -0.31637121603E+03  0.26225007693E+03 -0.14574362282E+04  0.15142609446E+04  0.00000000000E+00 0.  1.
          4    1    6    6  503    0  0.18149300244E+03  0.25968640891E+01 -0.43831854297E+03  0.47441500688E+03  0.00000000000E+00 0. -1.
         -4    1    6    6    0  503  0.28123721908E+03 -0.10923729305E+03 -0.67061286949E+03  0.73535622681E+03  0.00000000000E+00 0.  1.
<mgrwt>
<rscale>  0 0.11788090E+04</rscale>
<asrwt>0</asrwt>
<pdfrwt beam="1">  1        3 0.16992802E-01 0.11788090E+04</pdfrwt>
<pdfrwt beam="2">  1       -4 0.48387726E+00 0.11788090E+04</pdfrwt>
<totfact> 0.11737862E-01</totfact>
</mgrwt>
</event>
<event>
12    5  0.5221187E-008  0.2298865E+04  0.7818608E-02  0.8478369E-01
         -2   -1    0    0    0  501 -0.00000000000E+00  0.00000000000E+00  0.72362589529E+03  0.72362589529E+03  0.00000000000E+00 0.  1.
          3   -1    0    0  501    0  0.00000000000E+00 -0.00000000000E+00 -0.18257984015E+04  0.18257984015E+04  0.00000000000E+00 0. -1.
        -24    2    1    2    0    0 -0.45006298224E+03 -0.65054575844E+03 -0.10942748994E+04  0.13525821772E+04  0.79211860705E+02 0.  0.
        254    2    1    2    0    0  0.45006298224E+03  0.65054575844E+03 -0.78976068239E+01  0.11968421196E+04  0.89811035803E+03 0.  0.
         23    2    4    4    0    0  0.71396568734E+03  0.46020126749E+03  0.43047396676E+02  0.85524488700E+03  0.89769310381E+02 0.  0.
         23    2    4    4    0    0 -0.26390270511E+03  0.19034449096E+03 -0.50945003500E+02  0.34159723258E+03  0.90651050317E+02 0.  0.
          3    1    3    3  502    0 -0.35146911312E+03 -0.55760094975E+03 -0.89149501303E+03  0.11086986583E+04  0.00000000000E+00 0. -1.
         -4    1    3    3    0  502 -0.98593869115E+02 -0.92944808690E+02 -0.20277988635E+03  0.24388351891E+03  0.00000000000E+00 0.  1.
         13    1    5    5    0    0  0.75417761730E+02  0.18343678960E+02  0.58086112401E+01  0.77833600114E+02  0.00000000000E+00 0. -1.
        -13    1    5    5    0    0  0.63854792561E+03  0.44185758853E+03  0.37238785436E+02  0.77741128689E+03  0.00000000000E+00 0.  1.
          3    1    6    6  503    0 -0.52277281732E+02  0.84124352161E+02 -0.31858954123E+02  0.10404236526E+03  0.00000000000E+00 0. -1.
         -3    1    6    6    0  503 -0.21162542338E+03  0.10622013879E+03 -0.19086049377E+02  0.23755486732E+03  0.00000000000E+00 0.  1.
<mgrwt>
<rscale>  0 0.22988649E+04</rscale>
<asrwt>0</asrwt>
<pdfrwt beam="1">  1        3 0.28089205E+00 0.22988649E+04</pdfrwt>
<pdfrwt beam="2">  1       -2 0.11132706E+00 0.22988649E+04</pdfrwt>
<totfact> 0.11710307E-01</totfact>
</mgrwt>
</event>
<event>
12    5  0.5221187E-008  0.3206158E+04  0.7818608E-02  0.8187193E-01
          1   -1    0    0  501    0  0.00000000000E+00  0.00000000000E+00  0.20573143932E+04  0.20573143932E+04  0.00000000000E+00 0. -1.
         -2   -1    0    0    0  501 -0.00000000000E+00 -0.00000000000E+00 -0.12491343463E+04  0.12491343463E+04  0.00000000000E+00 0.  1.
        -24    2    1    2    0    0  0.43828426507E+03 -0.13958401888E+04  0.22132413190E+03  0.14813925274E+04  0.71249696145E+02 0.  0.
        254    2    1    2    0    0 -0.43828426507E+03  0.13958401888E+04  0.58685591503E+03  0.18250562121E+04  0.91976485179E+03 0.  0.
         23    2    4    4    0    0  0.96475877141E+02  0.59335204743E+03 -0.12764981209E+03  0.62138271860E+03  0.91911704317E+02 0.  0.
         23    2    4    4    0    0 -0.53476014221E+03  0.80248814136E+03  0.71450572712E+03  0.12036734935E+04  0.91410163997E+02 0.  0.
          1    1    3    3  502    0  0.41703168740E+03 -0.13316744122E+04  0.22603395895E+03  0.14136348606E+04  0.00000000000E+00 0. -1.
         -2    1    3    3    0  502  0.21252577669E+02 -0.64165776549E+02 -0.47098270512E+01  0.67757666788E+02  0.00000000000E+00 0.  1.
         13    1    5    5    0    0  0.44594997976E+01  0.69759237910E+02 -0.45628459684E+02  0.83475713506E+02  0.00000000000E+00 0.  1.
        -13    1    5    5    0    0  0.92016377344E+02  0.52359280952E+03 -0.82021352410E+02  0.53790700510E+03  0.00000000000E+00 0. -1.
          3    1    6    6  503    0 -0.48936376462E+03  0.68934896101E+03  0.60241703375E+03  0.10380679972E+04  0.00000000000E+00 0. -1.
         -3    1    6    6    0  503 -0.45396377585E+02  0.11313918035E+03  0.11208869337E+03  0.16560549631E+03  0.00000000000E+00 0.  1.
<mgrwt>
<rscale>  0 0.32061579E+04</rscale>
<asrwt>0</asrwt>
<pdfrwt beam="1">  1        1 0.31650991E+00 0.32061579E+04</pdfrwt>
<pdfrwt beam="2">  1       -2 0.19217451E+00 0.32061579E+04</pdfrwt>
<totfact> 0.30027441E-01</totfact>
</mgrwt>
</event>
<event>
12    5  0.5221187E-008  0.1418207E+04  0.7818608E-02  0.8940744E-01
         -2   -1    0    0    0  501 -0.00000000000E+00  0.00000000000E+00  0.39671720594E+03  0.39671720594E+03  0.00000000000E+00 0.  1.
          1   -1    0    0  501    0  0.00000000000E+00 -0.00000000000E+00 -0.12674707376E+04  0.12674707376E+04  0.00000000000E+00 0. -1.
        -24    2    1    2    0    0 -0.37663090285E+03  0.61833783269E+02 -0.61645225662E+02  0.39479820413E+03  0.79945196257E+02 0.  0.
        254    2    1    2    0    0  0.37663090285E+03 -0.61833783269E+02 -0.80910830596E+03  0.12693897394E+04  0.90056638062E+03 0.  0.
         23    2    4    4    0    0  0.19408932328E+03  0.66206354230E+02  0.15674017626E+03  0.27393067858E+03  0.91741959110E+02 0.  0.
         23    2    4    4    0    0  0.18254157957E+03 -0.12804013750E+03 -0.96584848222E+03  0.99545906079E+03  0.91431646716E+02 0.  0.
          3    1    3    3  502    0 -0.32809271530E+03  0.25559060876E+02 -0.46668689253E+02  0.33237939465E+03  0.00000000000E+00 0. -1.
         -4    1    3    3    0  502 -0.48538187543E+02  0.36274722392E+02 -0.14976536409E+02  0.62418809484E+02  0.00000000000E+00 0.  1.
         13    1    5    5    0    0  0.43844022501E+02  0.39642229883E+02  0.59369633950E+01  0.59405826596E+02  0.00000000000E+00 0. -1.
        -13    1    5    5    0    0  0.15024530078E+03  0.26564124347E+02  0.15080321286E+03  0.21452485198E+03  0.00000000000E+00 0.  1.
          4    1    6    6  503    0  0.11967494579E+02  0.96589534326E+01 -0.24537252893E+02  0.28958471773E+02  0.00000000000E+00 0. -1.
         -4    1    6    6    0  503  0.17057408499E+03 -0.13769909093E+03 -0.94131122932E+03  0.96650058901E+03  0.00000000000E+00 0.  1.
<mgrwt>
<rscale>  0 0.14182065E+04</rscale>
<asrwt>0</asrwt>
<pdfrwt beam="1">  1        1 0.19499550E+00 0.14182065E+04</pdfrwt>
<pdfrwt beam="2">  1       -2 0.61033416E-01 0.14182065E+04</pdfrwt>
<totfact> 0.20362820E+01</totfact>
</mgrwt>
</event>
<event>
12    5  0.5221187E-008  0.1747985E+04  0.7818608E-02  0.8734460E-01
         -2   -1    0    0    0  501 -0.00000000000E+00  0.00000000000E+00  0.59764545332E+03  0.59764545332E+03  0.00000000000E+00 0.  1.
          1   -1    0    0  501    0  0.00000000000E+00 -0.00000000000E+00 -0.12781197582E+04  0.12781197582E+04  0.00000000000E+00 0. -1.
        -24    2    1    2    0    0 -0.52587220948E+03  0.19943267994E+03  0.75276768653E+02  0.57296825079E+03  0.79442117221E+02 0.  0.
        254    2    1    2    0    0  0.52587220948E+03 -0.19943267994E+03 -0.75575107351E+03  0.13027969607E+04  0.89989180527E+03 0.  0.
         23    2    4    4    0    0  0.27366960609E+02 -0.47191071759E+03 -0.40188439336E+03  0.62726260401E+03  0.92188029883E+02 0.  0.
         23    2    4    4    0    0  0.49850524887E+03  0.27247803765E+03 -0.35386668015E+03  0.67553435670E+03  0.91505604296E+02 0.  0.
          3    1    3    3  502    0 -0.14855831620E+02  0.29651626262E+01  0.16404699610E+02  0.22329399719E+02  0.00000000000E+00 0. -1.
         -4    1    3    3    0  502 -0.51101637786E+03  0.19646751732E+03  0.58872069043E+02  0.55063885107E+03  0.00000000000E+00 0.  1.
         13    1    5    5    0    0 -0.18035187967E+02 -0.32521573095E+02 -0.15127652225E+02  0.40146812867E+02  0.00000000000E+00 0.  1.
        -13    1    5    5    0    0  0.45402148576E+02 -0.43938914449E+03 -0.38675674114E+03  0.58711579114E+03  0.00000000000E+00 0. -1.
          4    1    6    6  503    0  0.37871093917E+03  0.24834195870E+03 -0.28829593306E+03  0.53685216672E+03  0.00000000000E+00 0. -1.
         -4    1    6    6    0  503  0.11979430970E+03  0.24136078941E+02 -0.65570747090E+02  0.13868218998E+03  0.00000000000E+00 0.  1.
<mgrwt>
<rscale>  0 0.17479845E+04</rscale>
<asrwt>0</asrwt>
<pdfrwt beam="1">  1        1 0.19663381E+00 0.17479845E+04</pdfrwt>
<pdfrwt beam="2">  1       -2 0.91945454E-01 0.17479845E+04</pdfrwt>
<totfact> 0.78426609E+00</totfact>
</mgrwt>
</event>
<event>
12    5  0.5221187E-008  0.1956587E+04  0.7818608E-02  0.8627191E-01
         -4   -1    0    0    0  501 -0.00000000000E+00  0.00000000000E+00  0.12508015894E+04  0.12508015894E+04  0.00000000000E+00 0.  1.
          3   -1    0    0  501    0  0.00000000000E+00 -0.00000000000E+00 -0.76515552071E+03  0.76515552071E+03  0.00000000000E+00 0. -1.
        -24    2    1    2    0    0 -0.50336290653E+03  0.25932248150E+03  0.72805843792E+03  0.92587685728E+03  0.80972221960E+02 0.  0.
        254    2    1    2    0    0  0.50336290653E+03 -0.25932248150E+03 -0.24241236927E+03  0.10900802528E+04  0.89938247462E+03 0.  0.
         23    2    4    4    0    0 -0.22265162078E+02 -0.45051650890E+03  0.29275153663E+02  0.46133202499E+03  0.92246086248E+02 0.  0.
         23    2    4    4    0    0  0.52562806861E+03  0.19119402741E+03 -0.27168752294E+03  0.62874822779E+03  0.93113915219E+02 0.  0.
          3    1    3    3  502    0 -0.20453710769E+03  0.63160913797E+02  0.29101909070E+03  0.36127114555E+03  0.00000000000E+00 0. -1.
         -4    1    3    3    0  502 -0.29882579884E+03  0.19616156770E+03  0.43703934722E+03  0.56460571172E+03  0.00000000000E+00 0.  1.
         13    1    5    5    0    0  0.27926024621E+01 -0.46121457203E+02 -0.25011030080E+02  0.52540832395E+02  0.00000000000E+00 0. -1.
        -13    1    5    5    0    0 -0.25057764540E+02 -0.40439505170E+03  0.54286183743E+02  0.40879119260E+03  0.00000000000E+00 0.  1.
          1    1    6    6  503    0  0.86601142648E+02 -0.36746817062E+01 -0.42740211626E+02  0.96643607566E+02  0.00000000000E+00 0. -1.
         -1    1    6    6    0  503  0.43902692596E+03  0.19486870911E+03 -0.22894731131E+03  0.53210462023E+03  0.00000000000E+00 0.  1.
<mgrwt>
<rscale>  0 0.19565866E+04</rscale>
<asrwt>0</asrwt>
<pdfrwt beam="1">  1        3 0.11771623E+00 0.19565866E+04</pdfrwt>
<pdfrwt beam="2">  1       -4 0.19243101E+00 0.19565866E+04</pdfrwt>
<totfact> 0.18696786E-01</totfact>
</mgrwt>
</event>
<event>
12    5  0.5221187E-008  0.1075086E+04  0.7818608E-02  0.9229821E-01
          1   -1    0    0  501    0  0.00000000000E+00  0.00000000000E+00  0.39084361279E+03  0.39084361279E+03  0.00000000000E+00 0. -1.
         -2   -1    0    0    0  501 -0.00000000000E+00 -0.00000000000E+00 -0.73930458563E+03  0.73930458563E+03  0.00000000000E+00 0.  1.
        -24    2    1    2    0    0  0.88906258566E+02  0.78427183881E+02 -0.13191174705E+03  0.19433564088E+03  0.79438569498E+02 0.  0.
        254    2    1    2    0    0 -0.88906258566E+02 -0.78427183881E+02 -0.21654922579E+03  0.93581255754E+03  0.90266075004E+03 0.  0.
         23    2    4    4    0    0 -0.42682825847E+02 -0.19274948977E+03  0.31470797884E+03  0.38273474439E+03  0.92035771282E+02 0.  0.
         23    2    4    4    0    0 -0.46223432719E+02  0.11432230589E+03 -0.53125720462E+03  0.55307781314E+03  0.91949195591E+02 0.  0.
          3    1    3    3  502    0  0.31244742014E+02 -0.13054505452E+02 -0.23542109518E+02  0.41241786294E+02  0.00000000000E+00 0. -1.
         -4    1    3    3    0  502  0.57661516551E+02  0.91481689332E+02 -0.10836963753E+03  0.15309385459E+03  0.00000000000E+00 0.  1.
         13    1    5    5    0    0 -0.18877443089E+02 -0.61582602071E+02  0.36007573237E+02  0.73792411980E+02  0.00000000000E+00 0.  1.
        -13    1    5    5    0    0 -0.23805382757E+02 -0.13116688769E+03  0.27870040560E+03  0.30894233241E+03  0.00000000000E+00 0. -1.
          3    1    6    6  503    0 -0.65229911848E+02  0.40143574751E+02 -0.24020305276E+03  0.25211892937E+03  0.00000000000E+00 0. -1.
         -3    1    6    6    0  503  0.19006479129E+02  0.74178731135E+02 -0.29105415187E+03  0.30095888377E+03  0.00000000000E+00 0.  1.
<mgrwt>
<rscale>  0 0.10750860E+04</rscale>
<asrwt>0</asrwt>
<pdfrwt beam="1">  1        1 0.60129787E-01 0.10750860E+04</pdfrwt>
<pdfrwt beam="2">  1       -2 0.11373917E+00 0.10750860E+04</pdfrwt>
<totfact> 0.32672595E+01</totfact>
</mgrwt>
</event>
<event>
12    5  0.5221187E-008  0.1207026E+04  0.7818608E-02  0.9106729E-01
          1   -1    0    0  501    0  0.00000000000E+00  0.00000000000E+00  0.88208174857E+03  0.88208174857E+03  0.00000000000E+00 0. -1.
         -2   -1    0    0    0  501 -0.00000000000E+00 -0.00000000000E+00 -0.41291879717E+03  0.41291879717E+03  0.00000000000E+00 0.  1.
        -24    2    1    2    0    0 -0.17703020964E+03 -0.65927800331E+02  0.29732023241E+03  0.36093185620E+03  0.78653126067E+02 0.  0.
        254    2    1    2    0    0  0.17703020964E+03  0.65927800331E+02  0.17184271899E+03  0.93406868954E+03  0.89848106643E+03 0.  0.
         23    2    4    4    0    0  0.23180085836E+03  0.35627894130E+03  0.36662251340E+03  0.56880268698E+03  0.91967969600E+02 0.  0.
         23    2    4    4    0    0 -0.54770648719E+02 -0.29035114097E+03 -0.19477979441E+03  0.36526600256E+03  0.90423864634E+02 0.  0.
          3    1    3    3  502    0 -0.11565859826E+03 -0.49371437333E+02  0.12521631409E+03  0.17746429356E+03  0.00000000000E+00 0. -1.
         -4    1    3    3    0  502 -0.61371611377E+02 -0.16556362997E+02  0.17210391832E+03  0.18346756264E+03  0.00000000000E+00 0.  1.
         13    1    5    5    0    0  0.15427447546E+03  0.15420691362E+03  0.19496152358E+03  0.29255833891E+03  0.00000000000E+00 0. -1.
        -13    1    5    5    0    0  0.77526382900E+02  0.20207202768E+03  0.17166098982E+03  0.27624434807E+03  0.00000000000E+00 0.  1.
          2    1    6    6  503    0 -0.14650256045E+02 -0.62354030739E+02 -0.91696917265E+02  0.11185249120E+03  0.00000000000E+00 0. -1.
         -2    1    6    6    0  503 -0.40120392675E+02 -0.22799711023E+03 -0.10308287714E+03  0.25341351136E+03  0.00000000000E+00 0.  1.
<mgrwt>
<rscale>  0 0.12070263E+04</rscale>
<asrwt>0</asrwt>
<pdfrwt beam="1">  1        1 0.13570488E+00 0.12070263E+04</pdfrwt>
<pdfrwt beam="2">  1       -2 0.63525969E-01 0.12070263E+04</pdfrwt>
<totfact> 0.37437495E+01</totfact>
</mgrwt>
</event>
<event>
12    5  0.5221187E-008  0.1346854E+04  0.7818608E-02  0.8993213E-01
          1   -1    0    0  501    0  0.00000000000E+00  0.00000000000E+00  0.14092888086E+04  0.14092888086E+04  0.00000000000E+00 0. -1.
         -2   -1    0    0    0  501 -0.00000000000E+00 -0.00000000000E+00 -0.32179652401E+03  0.32179652401E+03  0.00000000000E+00 0.  1.
        -24    2    1    2    0    0 -0.33489054271E+03  0.12338450357E+03  0.22356536526E+03  0.42800569599E+03  0.76367479583E+02 0.  0.
        254    2    1    2    0    0  0.33489054271E+03 -0.12338450357E+03  0.86392691937E+03  0.13030796367E+04  0.90789393993E+03 0.  0.
         23    2    4    4    0    0  0.11135178427E+03 -0.44080118276E+03  0.15329417886E+03  0.48827611527E+03  0.90606605126E+02 0.  0.
         23    2    4    4    0    0  0.22353875844E+03  0.31741667919E+03  0.71063274052E+03  0.81480352140E+03  0.90459724946E+02 0.  0.
          3    1    3    3  502    0 -0.32155770899E+03  0.10803351777E+03  0.22587608214E+03  0.40754215200E+03  0.00000000000E+00 0. -1.
         -4    1    3    3    0  502 -0.13332833718E+02  0.15350985805E+02 -0.23107168814E+01  0.20463543990E+02  0.00000000000E+00 0.  1.
         13    1    5    5    0    0  0.81046388624E+02 -0.33598867620E+03  0.15585391683E+03  0.37914027883E+03  0.00000000000E+00 0. -1.
        -13    1    5    5    0    0  0.30305395645E+02 -0.10481250656E+03 -0.25597379740E+01  0.10913583644E+03  0.00000000000E+00 0.  1.
          4    1    6    6  503    0  0.76442488090E+02  0.55949545946E+02  0.22284134738E+03  0.24214060333E+03  0.00000000000E+00 0. -1.
         -4    1    6    6    0  503  0.14709627035E+03  0.26146713324E+03  0.48779139313E+03  0.57266291807E+03  0.00000000000E+00 0.  1.
<mgrwt>
<rscale>  0 0.13468545E+04</rscale>
<asrwt>0</asrwt>
<pdfrwt beam="1">  1        1 0.21681366E+00 0.13468545E+04</pdfrwt>
<pdfrwt beam="2">  1       -2 0.49507158E-01 0.13468545E+04</pdfrwt>
<totfact> 0.25101776E+01</totfact>
</mgrwt>
</event>
<event>
12    5  0.5221187E-008  0.1889042E+04  0.7818608E-02  0.8660330E-01
          3   -1    0    0  501    0  0.00000000000E+00  0.00000000000E+00  0.74921073627E+03  0.74921073627E+03  0.00000000000E+00 0. -1.
         -4   -1    0    0    0  501 -0.00000000000E+00 -0.00000000000E+00 -0.11907460228E+04  0.11907460228E+04  0.00000000000E+00 0.  1.
        -24    2    1    2    0    0  0.13859142300E+03  0.27820386548E+02  0.56180463693E+03  0.58504186770E+03  0.81657702944E+02 0.  0.
        254    2    1    2    0    0 -0.13859142300E+03 -0.27820386548E+02 -0.10033399234E+04  0.13549148913E+04  0.89951198122E+03 0.  0.
         23    2    4    4    0    0 -0.27683261384E+03 -0.34201827209E+03 -0.85712282783E+03  0.96856391860E+03  0.99215562780E+02 0.  0.
         23    2    4    4    0    0  0.13824119084E+03  0.31419788554E+03 -0.14621709559E+03  0.38635097272E+03  0.10028308411E+03 0.  0.
          1    1    3    3  502    0  0.81347912915E+02 -0.22744871776E+02  0.24469727192E+03  0.25886592479E+03  0.00000000000E+00 0. -1.
         -2    1    3    3    0  502  0.57243510088E+02  0.50565258324E+02  0.31710736500E+03  0.32617594292E+03  0.00000000000E+00 0.  1.
         13    1    5    5    0    0 -0.11830346477E+03 -0.21869249753E+03 -0.51396579442E+03  0.57094917119E+03  0.00000000000E+00 0. -1.
        -13    1    5    5    0    0 -0.15852914908E+03 -0.12332577455E+03 -0.34315703341E+03  0.39761474740E+03  0.00000000000E+00 0.  1.
          3    1    6    6  503    0  0.60277060178E+02  0.22812332128E+03 -0.65349580700E+02  0.24483492682E+03  0.00000000000E+00 0. -1.
         -3    1    6    6    0  503  0.77964130662E+02  0.86074564261E+02 -0.80867514890E+02  0.14151604590E+03  0.00000000000E+00 0.  1.
<mgrwt>
<rscale>  0 0.18890418E+04</rscale>
<asrwt>0</asrwt>
<pdfrwt beam="1">  1        3 0.11526319E+00 0.18890418E+04</pdfrwt>
<pdfrwt beam="2">  1       -4 0.18319170E+00 0.18890418E+04</pdfrwt>
<totfact> 0.22864078E-01</totfact>
</mgrwt>
</event>
<event>
12    5  0.5221187E-008  0.2073220E+04  0.7818608E-02  0.8573133E-01
         -2   -1    0    0    0  501 -0.00000000000E+00  0.00000000000E+00  0.71126621105E+03  0.71126621105E+03  0.00000000000E+00 0.  1.
          1   -1    0    0  501    0  0.00000000000E+00 -0.00000000000E+00 -0.15107707396E+04  0.15107707396E+04  0.00000000000E+00 0. -1.
        -24    2    1    2    0    0  0.32919284616E+03  0.36284276924E+03  0.40138234863E+03  0.63848585437E+03  0.80830633315E+02 0.  0.
        254    2    1    2    0    0 -0.32919284616E+03 -0.36284276924E+03 -0.12008868772E+04  0.15835510963E+04  0.90856038744E+03 0.  0.
         23    2    4    4    0    0 -0.22326088096E+03  0.26596467670E+03 -0.61846811849E+03  0.71487702991E+03  0.89239700132E+02 0.  0.
         23    2    4    4    0    0 -0.10593196519E+03 -0.62880744594E+03 -0.58241875872E+03  0.86867406641E+03  0.93608962258E+02 0.  0.
          3    1    3    3  502    0  0.91454590161E+02  0.55820897771E+02  0.69848064257E+02  0.12790100379E+03  0.00000000000E+00 0. -1.
         -4    1    3    3    0  502  0.23773825600E+03  0.30702187147E+03  0.33153428438E+03  0.51058485058E+03  0.00000000000E+00 0.  1.
         13    1    5    5    0    0 -0.37768779808E+01  0.16055202345E+01 -0.53307700715E+02  0.53465441717E+02  0.00000000000E+00 0. -1.
        -13    1    5    5    0    0 -0.21948400298E+03  0.26435915646E+03 -0.56516041777E+03  0.66141158819E+03  0.00000000000E+00 0.  1.
          2    1    6    6  503    0 -0.62812206524E+02 -0.14164257098E+03 -0.12590977987E+03  0.19965285841E+03  0.00000000000E+00 0. -1.
         -2    1    6    6    0  503 -0.43119758668E+02 -0.48716487496E+03 -0.45650897885E+03  0.66902120800E+03  0.00000000000E+00 0.  1.
<mgrwt>
<rscale>  0 0.20732199E+04</rscale>
<asrwt>0</asrwt>
<pdfrwt beam="1">  1        1 0.23242627E+00 0.20732199E+04</pdfrwt>
<pdfrwt beam="2">  1       -2 0.10942557E+00 0.20732199E+04</pdfrwt>
<totfact> 0.34621797E+00</totfact>
</mgrwt>
</event>
<event>
12    5  0.5221187E-008  0.1566644E+04  0.7818608E-02  0.8841306E-01
          1   -1    0    0  501    0  0.00000000000E+00  0.00000000000E+00  0.56710421704E+03  0.56710421704E+03  0.00000000000E+00 0. -1.
         -2   -1    0    0    0  501 -0.00000000000E+00 -0.00000000000E+00 -0.10819760359E+04  0.10819760359E+04  0.00000000000E+00 0.  1.
        -24    2    1    2    0    0 -0.31177646635E+03  0.24455857294E+03  0.18225345262E+03  0.44318949470E+03  0.78658417559E+02 0.  0.
        254    2    1    2    0    0  0.31177646635E+03 -0.24455857294E+03 -0.69712527152E+03  0.12058907583E+04  0.90065277226E+03 0.  0.
         23    2    4    4    0    0  0.15391387412E+02 -0.48224708469E+03 -0.11339750165E+03  0.50405823506E+03  0.91741841318E+02 0.  0.
         23    2    4    4    0    0  0.29638507894E+03  0.23768851176E+03 -0.58372776987E+03  0.70183252323E+03  0.86549625701E+02 0.  0.
          1    1    3    3  502    0 -0.29792947068E+03  0.20471713163E+03  0.16847539902E+03  0.39881704271E+03  0.00000000000E+00 0. -1.
         -2    1    3    3    0  502 -0.13846995676E+02  0.39841441308E+02  0.13778053599E+02  0.44372451992E+02  0.00000000000E+00 0.  1.
         13    1    5    5    0    0 -0.36721432820E+02 -0.22870466374E+03 -0.40514773010E+02  0.23515044903E+03  0.00000000000E+00 0.  1.
        -13    1    5    5    0    0  0.52112820232E+02 -0.25354242095E+03 -0.72882728639E+02  0.26890778603E+03  0.00000000000E+00 0. -1.
          2    1    6    6  503    0  0.15048495273E+03  0.17510868228E+03 -0.34870675241E+03  0.41821665531E+03  0.00000000000E+00 0. -1.
         -2    1    6    6    0  503  0.14590012621E+03  0.62579829480E+02 -0.23502101746E+03  0.28361586792E+03  0.00000000000E+00 0.  1.
<mgrwt>
<rscale>  0 0.15666438E+04</rscale>
<asrwt>0</asrwt>
<pdfrwt beam="1">  1        1 0.87246803E-01 0.15666438E+04</pdfrwt>
<pdfrwt beam="2">  1       -2 0.16645785E+00 0.15666438E+04</pdfrwt>
<totfact> 0.70590558E+00</totfact>
</mgrwt>
</event>
<event>
12    5  0.5221187E-008  0.1712729E+04  0.7818608E-02  0.8754138E-01
          1   -1    0    0  501    0  0.00000000000E+00  0.00000000000E+00  0.84992905600E+03  0.84992905600E+03  0.00000000000E+00 0. -1.
         -2   -1    0    0    0  501 -0.00000000000E+00 -0.00000000000E+00 -0.86284857808E+03  0.86284857808E+03  0.00000000000E+00 0.  1.
        -24    2    1    2    0    0 -0.42991503401E+03 -0.42676355723E+03 -0.11646825085E+03  0.62209733553E+03  0.80536769036E+02 0.  0.
        254    2    1    2    0    0  0.42991503401E+03  0.42676355723E+03  0.10354872877E+03  0.10906802985E+04  0.90105887940E+03 0.  0.
         23    2    4    4    0    0 -0.16713017420E+03  0.72919116783E+02  0.29996023871E+03  0.36276584403E+03  0.91505300775E+02 0.  0.
         23    2    4    4    0    0  0.59704520821E+03  0.35384444045E+03 -0.19641150994E+03  0.72791445452E+03  0.98046433752E+02 0.  0.
          3    1    3    3  502    0 -0.63032147689E+02 -0.81116504007E+02 -0.48074461893E+02  0.11341998391E+03  0.00000000000E+00 0. -1.
         -4    1    3    3    0  502 -0.36688288633E+03 -0.34564705322E+03 -0.68393788956E+02  0.50867735162E+03  0.00000000000E+00 0.  1.
         13    1    5    5    0    0 -0.36905536982E+02  0.63306721753E+02  0.10100990954E+03  0.12479087108E+03  0.00000000000E+00 0.  1.
        -13    1    5    5    0    0 -0.13022463722E+03  0.96123950304E+01  0.19895032916E+03  0.23797497295E+03  0.00000000000E+00 0. -1.
          2    1    6    6  503    0  0.42061598948E+03  0.29879728308E+03 -0.13785938447E+03  0.53404385295E+03  0.00000000000E+00 0. -1.
         -2    1    6    6    0  503  0.17642921873E+03  0.55047157370E+02 -0.58552125465E+02  0.19387060157E+03  0.00000000000E+00 0.  1.
<mgrwt>
<rscale>  0 0.17127289E+04</rscale>
<asrwt>0</asrwt>
<pdfrwt beam="1">  1        1 0.13075832E+00 0.17127289E+04</pdfrwt>
<pdfrwt beam="2">  1       -2 0.13274593E+00 0.17127289E+04</pdfrwt>
<totfact> 0.68693301E+00</totfact>
</mgrwt>
</event>
<event>
12    5  0.5221187E-008  0.1253776E+04  0.7818608E-02  0.9067047E-01
         -2   -1    0    0    0  501 -0.00000000000E+00  0.00000000000E+00  0.22636933606E+03  0.22636933606E+03  0.00000000000E+00 0.  1.
          1   -1    0    0  501    0  0.00000000000E+00 -0.00000000000E+00 -0.17360495658E+04  0.17360495658E+04  0.00000000000E+00 0. -1.
        -24    2    1    2    0    0  0.28190004868E+02 -0.12054532732E+03  0.33874591262E+02  0.15239422946E+03  0.82162405785E+02 0.  0.
        254    2    1    2    0    0 -0.28190004868E+02  0.12054532732E+03 -0.15435548211E+04  0.18100246725E+04  0.93717766565E+03 0.  0.
         23    2    4    4    0    0 -0.23098499058E+03  0.12602879679E+03 -0.15629658279E+04  0.15875633554E+04  0.90873013024E+02 0.  0.
         23    2    4    4    0    0  0.20279498571E+03 -0.54834694618E+01  0.19411006897E+02  0.22246131708E+03  0.89198518718E+02 0.  0.
          1    1    3    3  502    0 -0.18163287243E+02  0.64344424701E+00  0.89972388266E+01  0.20279776392E+02  0.00000000000E+00 0. -1.
         -2    1    3    3    0  502  0.46353292111E+02 -0.12118877157E+03  0.24877352436E+02  0.13211445306E+03  0.00000000000E+00 0.  1.
         13    1    5    5    0    0 -0.32093716195E+02  0.71968171200E+01 -0.78285257346E+02  0.84913970073E+02  0.00000000000E+00 0. -1.
        -13    1    5    5    0    0 -0.19889127439E+03  0.11883197967E+03 -0.14846805706E+04  0.15026493853E+04  0.00000000000E+00 0.  1.
          3    1    6    6  503    0  0.24827348601E+02  0.29745356099E+01  0.35660212148E+02  0.43553367621E+02  0.00000000000E+00 0. -1.
         -3    1    6    6    0  503  0.17796763711E+03 -0.84580050717E+01 -0.16249205251E+02  0.17890794946E+03  0.00000000000E+00 0.  1.
<mgrwt>
<rscale>  0 0.12537757E+04</rscale>
<asrwt>0</asrwt>
<pdfrwt beam="1">  1        1 0.26708456E+00 0.12537757E+04</pdfrwt>
<pdfrwt beam="2">  1       -2 0.34826051E-01 0.12537757E+04</pdfrwt>
<totfact> 0.30152169E+01</totfact>
</mgrwt>
</event>
<event>
12    5  0.5221187E-008  0.1291897E+04  0.7818608E-02  0.9036016E-01
          1   -1    0    0  501    0  0.00000000000E+00  0.00000000000E+00  0.21852316919E+04  0.21852316919E+04  0.00000000000E+00 0. -1.
         -2   -1    0    0    0  501 -0.00000000000E+00 -0.00000000000E+00 -0.19094067897E+03  0.19094067897E+03  0.00000000000E+00 0.  1.
        -24    2    1    2    0    0 -0.20370020601E+03  0.16341467924E+03  0.80751607156E+03  0.85239650794E+03  0.79369198085E+02 0.  0.
        254    2    1    2    0    0  0.20370020601E+03 -0.16341467924E+03  0.11867749413E+04  0.15237758629E+04  0.91938021928E+03 0.  0.
         23    2    4    4    0    0 -0.35539565550E+03 -0.48752612766E+02  0.55587555506E+03  0.66808351193E+03  0.93032558840E+02 0.  0.
         23    2    4    4    0    0  0.55909586151E+03 -0.11466206647E+03  0.63089938627E+03  0.85569235095E+03  0.91868340752E+02 0.  0.
          1    1    3    3  502    0 -0.20401850488E+03  0.13526173580E+03  0.72288148480E+03  0.76320176138E+03  0.00000000000E+00 0. -1.
         -2    1    3    3    0  502  0.31829887087E+00  0.28152943436E+02  0.84634586762E+02  0.89194746564E+02  0.00000000000E+00 0.  1.
         13    1    5    5    0    0 -0.26618785865E+02  0.15320385497E+02  0.21819114934E+02  0.37674231899E+02  0.00000000000E+00 0.  1.
        -13    1    5    5    0    0 -0.32877686963E+03 -0.64072998263E+02  0.53405644012E+03  0.63040928003E+03  0.00000000000E+00 0. -1.
          3    1    6    6  503    0  0.72096605727E+02 -0.22282395149E+02  0.43520789652E+02  0.87111909765E+02  0.00000000000E+00 0. -1.
         -3    1    6    6    0  503  0.48699925578E+03 -0.92379671323E+02  0.58737859662E+03  0.76858044118E+03  0.00000000000E+00 0.  1.
<mgrwt>
<rscale>  0 0.12918972E+04</rscale>
<asrwt>0</asrwt>
<pdfrwt beam="1">  1        1 0.33618947E+00 0.12918972E+04</pdfrwt>
<pdfrwt beam="2">  1       -2 0.29375491E-01 0.12918972E+04</pdfrwt>
<totfact> 0.20572268E+01</totfact>
</mgrwt>
</event>
<event>
12    5  0.5221187E-008  0.2790240E+04  0.7818608E-02  0.8306305E-01
         -2   -1    0    0    0  501 -0.00000000000E+00  0.00000000000E+00  0.31259348561E+04  0.31259348561E+04  0.00000000000E+00 0.  1.
          1   -1    0    0  501    0  0.00000000000E+00 -0.00000000000E+00 -0.62264888542E+03  0.62264888542E+03  0.00000000000E+00 0. -1.
        -24    2    1    2    0    0  0.29874516288E+03  0.11268027796E+04  0.52332545887E+03  0.12801779141E+04  0.77799610715E+02 0.  0.
        254    2    1    2    0    0 -0.29874516288E+03 -0.11268027796E+04  0.19799605118E+04  0.24684058274E+04  0.90213664380E+03 0.  0.
         23    2    4    4    0    0  0.36851684833E+02 -0.26705930558E+03  0.12675868188E+04  0.12991686180E+04  0.91564379303E+02 0.  0.
         23    2    4    4    0    0 -0.33559684771E+03 -0.85974347401E+03  0.71237369306E+03  0.11692372094E+04  0.88630062805E+02 0.  0.
          1    1    3    3  502    0  0.64613882078E+02  0.23850597930E+03  0.76748579351E+02  0.25874775429E+03  0.00000000000E+00 0. -1.
         -2    1    3    3    0  502  0.23413128080E+03  0.88829680029E+03  0.44657687952E+03  0.10214301598E+04  0.00000000000E+00 0.  1.
         13    1    5    5    0    0 -0.12373542120E+02 -0.89375783996E+01  0.16487028332E+03  0.16557534591E+03  0.00000000000E+00 0. -1.
        -13    1    5    5    0    0  0.49225226954E+02 -0.25812172718E+03  0.11027165354E+04  0.11335932721E+04  0.00000000000E+00 0.  1.
          2    1    6    6  503    0 -0.30926035277E+02 -0.85540042382E+02  0.10625934489E+03  0.13987339592E+03  0.00000000000E+00 0. -1.
         -2    1    6    6    0  503 -0.30467081244E+03 -0.77420343163E+03  0.60611434817E+03  0.10293638135E+04  0.00000000000E+00 0.  1.
<mgrwt>
<rscale>  0 0.27902400E+04</rscale>
<asrwt>0</asrwt>
<pdfrwt beam="1">  1        1 0.95792138E-01 0.27902400E+04</pdfrwt>
<pdfrwt beam="2">  1       -2 0.48091305E+00 0.27902400E+04</pdfrwt>
<totfact> 0.53564419E-02</totfact>
</mgrwt>
</event>
<event>
12    5  0.5221187E-008  0.2547398E+04  0.7818608E-02  0.8386292E-01
         -2   -1    0    0    0  501 -0.00000000000E+00  0.00000000000E+00  0.20256625926E+04  0.20256625926E+04  0.00000000000E+00 0.  1.
          1   -1    0    0  501    0  0.00000000000E+00 -0.00000000000E+00 -0.80087822497E+03  0.80087822497E+03  0.00000000000E+00 0. -1.
        -24    2    1    2    0    0  0.87477464272E+03  0.26911166083E+03  0.12393624964E+04  0.15427097739E+04  0.79260882668E+02 0.  0.
        254    2    1    2    0    0 -0.87477464272E+03 -0.26911166083E+03 -0.14578128800E+02  0.12838310436E+04  0.90019879204E+03 0.  0.
         23    2    4    4    0    0  0.16988290008E+03 -0.10220388934E+03  0.33507139786E+02  0.22081455487E+03  0.91271597395E+02 0.  0.
         23    2    4    4    0    0 -0.10446575428E+04 -0.16690777149E+03 -0.48085268587E+02  0.10630164888E+04  0.92327007997E+02 0.  0.
          3    1    3    3  502    0  0.21372754092E+02 -0.56579834232E+01  0.30592119106E+02  0.37745001594E+02  0.00000000000E+00 0. -1.
         -4    1    3    3    0  502  0.85340188863E+03  0.27476964425E+03  0.12087703773E+04  0.15049647723E+04  0.00000000000E+00 0.  1.
         13    1    5    5    0    0  0.50973977584E+02 -0.31614163009E+02  0.54382510900E+02  0.80964555117E+02  0.00000000000E+00 0.  1.
        -13    1    5    5    0    0  0.11890892249E+03 -0.70589726328E+02 -0.20875371113E+02  0.13984999975E+03  0.00000000000E+00 0. -1.
          2    1    6    6  503    0 -0.82558766602E+03 -0.12595568613E+03 -0.56002393755E+00  0.83514079219E+03  0.00000000000E+00 0. -1.
         -2    1    6    6    0  503 -0.21906987677E+03 -0.40952085364E+02 -0.47525244649E+02  0.22787569656E+03  0.00000000000E+00 0.  1.
<mgrwt>
<rscale>  0 0.25473979E+04</rscale>
<asrwt>0</asrwt>
<pdfrwt beam="1">  1        1 0.12321204E+00 0.25473979E+04</pdfrwt>
<pdfrwt beam="2">  1       -2 0.31164040E+00 0.25473979E+04</pdfrwt>
<totfact> 0.46172290E-01</totfact>
</mgrwt>
</event>
<event>
12    5  0.5221187E-008  0.3514601E+04  0.7818608E-02  0.8110338E-01
          1   -1    0    0  501    0  0.00000000000E+00  0.00000000000E+00  0.94058610752E+03  0.94058610752E+03  0.00000000000E+00 0. -1.
         -4   -1    0    0    0  501 -0.00000000000E+00 -0.00000000000E+00 -0.32831705786E+04  0.32831705786E+04  0.00000000000E+00 0.  1.
        -24    2    1    2    0    0 -0.40975413561E+03  0.27444884601E+03 -0.29840205850E+04  0.30257433203E+04  0.86736197935E+02 0.  0.
        254    2    1    2    0    0  0.40975413561E+03 -0.27444884601E+03  0.64143611392E+03  0.11980133658E+04  0.88350162176E+03 0.  0.
         23    2    4    4    0    0 -0.12581451958E+03  0.58711988995E+02  0.52428837609E+03  0.54999252885E+03  0.91307664008E+02 0.  0.
         23    2    4    4    0    0  0.53556865518E+03 -0.33316083501E+03  0.11714773784E+03  0.64802083694E+03  0.91528608794E+02 0.  0.
          1    1    3    3  502    0 -0.94775904112E+00 -0.52957281650E+01 -0.33517125660E+02  0.33946144060E+02  0.00000000000E+00 0. -1.
         -2    1    3    3    0  502 -0.40880637656E+03  0.27974457418E+03 -0.29505034593E+04  0.29917971762E+04  0.00000000000E+00 0.  1.
         13    1    5    5    0    0 -0.12601328348E+03  0.46591771168E+02  0.34411837896E+03  0.36941521286E+03  0.00000000000E+00 0.  1.
        -13    1    5    5    0    0  0.19876389961E+00  0.12120217828E+02  0.18016999712E+03  0.18057731599E+03  0.00000000000E+00 0. -1.
          4    1    6    6  503    0  0.28315397166E+03 -0.13029660465E+03  0.33011907462E+02  0.31343765390E+03  0.00000000000E+00 0. -1.
         -4    1    6    6    0  503  0.25241468353E+03 -0.20286423036E+03  0.84135830378E+02  0.33458318304E+03  0.00000000000E+00 0.  1.
<mgrwt>
<rscale>  0 0.35146008E+04</rscale>
<asrwt>0</asrwt>
<pdfrwt beam="1">  1        1 0.14470556E+00 0.35146008E+04</pdfrwt>
<pdfrwt beam="2">  1       -4 0.50510316E+00 0.35146008E+04</pdfrwt>
<totfact> 0.71277495E-03</totfact>
</mgrwt>
</event>
<event>
12    5  0.5221187E-008  0.2564843E+04  0.7818608E-02  0.8380242E-01
          1   -1    0    0  501    0  0.00000000000E+00  0.00000000000E+00  0.25302553143E+04  0.25302553143E+04  0.00000000000E+00 0. -1.
         -2   -1    0    0    0  501 -0.00000000000E+00 -0.00000000000E+00 -0.64997590309E+03  0.64997590309E+03  0.00000000000E+00 0.  1.
        -24    2    1    2    0    0  0.35155658516E+02  0.45684425341E+03  0.21091179698E+04  0.21597879330E+04  0.79766615707E+02 0.  0.
        254    2    1    2    0    0 -0.35155658516E+02 -0.45684425341E+03 -0.22883855860E+03  0.10204432843E+04  0.88260683119E+03 0.  0.
         23    2    4    4    0    0  0.69808672789E+02 -0.69516013579E+03 -0.85606444032E+02  0.70972564753E+03  0.90890958429E+02 0.  0.
         23    2    4    4    0    0 -0.10496433130E+03  0.23831588238E+03 -0.14323211457E+03  0.31071763681E+03  0.90653408874E+02 0.  0.
          3    1    3    3  502    0 -0.63921569647E+01  0.32267729648E+03  0.13766608444E+04  0.14139860600E+04  0.00000000000E+00 0. -1.
         -4    1    3    3    0  502  0.41547815481E+02  0.13416695693E+03  0.73245712537E+03  0.74580187303E+03  0.00000000000E+00 0.  1.
         13    1    5    5    0    0 -0.11340234311E+02 -0.56021815754E+02  0.11138111112E+02  0.58233171593E+02  0.00000000000E+00 0.  1.
        -13    1    5    5    0    0  0.81148907100E+02 -0.63913832003E+03 -0.96744555145E+02  0.65149247594E+03  0.00000000000E+00 0. -1.
          3    1    6    6  503    0 -0.32304134512E+02  0.14974756024E+03 -0.11810766062E+03  0.19343554069E+03  0.00000000000E+00 0. -1.
         -3    1    6    6    0  503 -0.72660196793E+02  0.88568322134E+02 -0.25124453951E+02  0.11728209612E+03  0.00000000000E+00 0.  1.
<mgrwt>
<rscale>  0 0.25648431E+04</rscale>
<asrwt>0</asrwt>
<pdfrwt beam="1">  1        1 0.38927004E+00 0.25648431E+04</pdfrwt>
<pdfrwt beam="2">  1       -2 0.99996294E-01 0.25648431E+04</pdfrwt>
<totfact> 0.82797954E-01</totfact>
</mgrwt>
</event>
<event>
12    5  0.5221187E-008  0.1120763E+04  0.7818608E-02  0.9185188E-01
         -2   -1    0    0    0  501 -0.00000000000E+00  0.00000000000E+00  0.15449890706E+03  0.15449890706E+03  0.00000000000E+00 0.  1.
          1   -1    0    0  501    0  0.00000000000E+00 -0.00000000000E+00 -0.20325541678E+04  0.20325541678E+04  0.00000000000E+00 0. -1.
        -24    2    1    2    0    0 -0.13430198380E+03 -0.78418456804E+02 -0.54077757949E+03  0.56798561386E+03  0.77335566571E+02 0.  0.
        254    2    1    2    0    0  0.13430198380E+03  0.78418456804E+02 -0.13372776812E+04  0.16190674610E+04  0.89937832378E+03 0.  0.
         23    2    4    4    0    0 -0.11261845729E+03 -0.36672067812E+03 -0.54674349100E+03  0.67414121702E+03  0.91492966176E+02 0.  0.
         23    2    4    4    0    0  0.24692044109E+03  0.44513913492E+03 -0.79053419022E+03  0.94492624395E+03  0.93929478499E+02 0.  0.
          1    1    3    3  502    0 -0.12833902024E+03 -0.53694848379E+02 -0.36934474093E+03  0.39467654923E+03  0.00000000000E+00 0. -1.
         -2    1    3    3    0  502 -0.59629635596E+01 -0.24723608425E+02 -0.17143283855E+03  0.17330906463E+03  0.00000000000E+00 0.  1.
         13    1    5    5    0    0 -0.32450677939E+02 -0.15998656725E+03 -0.16143288348E+03  0.22958511291E+03  0.00000000000E+00 0. -1.
        -13    1    5    5    0    0 -0.80167779350E+02 -0.20673411087E+03 -0.38531060752E+03  0.44455610412E+03  0.00000000000E+00 0.  1.
          1    1    6    6  503    0  0.48801256431E+02  0.15870366387E+03 -0.30697853217E+03  0.34900463431E+03  0.00000000000E+00 0. -1.
         -1    1    6    6    0  503  0.19811918465E+03  0.28643547105E+03 -0.48355565805E+03  0.59592160964E+03  0.00000000000E+00 0.  1.
<mgrwt>
<rscale>  0 0.11207629E+04</rscale>
<asrwt>0</asrwt>
<pdfrwt beam="1">  1        1 0.31270063E+00 0.11207629E+04</pdfrwt>
<pdfrwt beam="2">  1       -2 0.23769063E-01 0.11207629E+04</pdfrwt>
<totfact> 0.39002734E+01</totfact>
</mgrwt>
</event>
<event>
12    5  0.5221187E-008  0.1530985E+04  0.7818608E-02  0.8864106E-01
         -2   -1    0    0    0  501 -0.00000000000E+00  0.00000000000E+00  0.54857799967E+03  0.54857799967E+03  0.00000000000E+00 0.  1.
          1   -1    0    0  501    0  0.00000000000E+00 -0.00000000000E+00 -0.10681771022E+04  0.10681771022E+04  0.00000000000E+00 0. -1.
        -24    2    1    2    0    0 -0.40063109366E+03  0.15400750660E+03 -0.43567847867E+03  0.61684967364E+03  0.80400235078E+02 0.  0.
        254    2    1    2    0    0  0.40063109366E+03 -0.15400750660E+03 -0.83920623828E+02  0.99990542819E+03  0.89919108588E+03 0.  0.
         23    2    4    4    0    0 -0.14845410857E+03 -0.35112020673E+03 -0.11394267595E+03  0.40859680797E+03  0.92975244862E+02 0.  0.
         23    2    4    4    0    0  0.54908520222E+03  0.19711270013E+03  0.30022052123E+02  0.59130862022E+03  0.91632880983E+02 0.  0.
          1    1    3    3  502    0 -0.34081773774E+03  0.13779185719E+03 -0.32831236350E+03  0.49288166358E+03  0.00000000000E+00 0. -1.
         -2    1    3    3    0  502 -0.59813355920E+02  0.16215649411E+02 -0.10736611517E+03  0.12396801007E+03  0.00000000000E+00 0.  1.
         13    1    5    5    0    0 -0.12773509633E+03 -0.34773695852E+03 -0.11401335081E+03  0.38760326536E+03  0.00000000000E+00 0. -1.
        -13    1    5    5    0    0 -0.20719012240E+02 -0.33832482176E+01  0.70674863140E-01  0.20993542617E+02  0.00000000000E+00 0.  1.
          4    1    6    6  503    0  0.42065917736E+03  0.15510892770E+03 -0.15819421412E+02  0.44862364744E+03  0.00000000000E+00 0. -1.
         -4    1    6    6    0  503  0.12842602487E+03  0.42003772431E+02  0.45841473535E+02  0.14268497278E+03  0.00000000000E+00 0.  1.
<mgrwt>
<rscale>  0 0.15309846E+04</rscale>
<asrwt>0</asrwt>
<pdfrwt beam="1">  1        1 0.16433494E+00 0.15309846E+04</pdfrwt>
<pdfrwt beam="2">  1       -2 0.84396617E-01 0.15309846E+04</pdfrwt>
<totfact> 0.13887548E+01</totfact>
</mgrwt>
</event>
<event>
12    5  0.5221187E-008  0.1619422E+04  0.7818608E-02  0.8808704E-01
         -4   -1    0    0    0  501 -0.00000000000E+00  0.00000000000E+00  0.15186948397E+04  0.15186948397E+04  0.00000000000E+00 0.  1.
          3   -1    0    0  501    0  0.00000000000E+00 -0.00000000000E+00 -0.43170759976E+03  0.43170759976E+03  0.00000000000E+00 0. -1.
        -24    2    1    2    0    0  0.35644318669E+03 -0.22262686329E+03 -0.51316332584E+02  0.42994798837E+03  0.74882849290E+02 0.  0.
        254    2    1    2    0    0 -0.35644318669E+03  0.22262686329E+03  0.11383035725E+04  0.15204544510E+04  0.91620535306E+03 0.  0.
         23    2    4    4    0    0 -0.10057760220E+02  0.46051169766E+03  0.93230899665E+03  0.10437468130E+04  0.89639065752E+02 0.  0.
         23    2    4    4    0    0 -0.34638542647E+03 -0.23788483437E+03  0.20599457583E+03  0.47670763808E+03  0.90798396652E+02 0.  0.
          1    1    3    3  502    0  0.32033479458E+03 -0.22055487293E+03 -0.35707617429E+02  0.39055584304E+03  0.00000000000E+00 0. -1.
         -2    1    3    3    0  502  0.36108392112E+02 -0.20719903610E+01 -0.15608715154E+02  0.39392145330E+02  0.00000000000E+00 0.  1.
         13    1    5    5    0    0 -0.29747756897E+02  0.60938223119E+02  0.10871436687E+03  0.12812965949E+03  0.00000000000E+00 0.  1.
        -13    1    5    5    0    0  0.19689996677E+02  0.39957347454E+03  0.82359462978E+03  0.91561715347E+03  0.00000000000E+00 0. -1.
          3    1    6    6  503    0 -0.24900315498E+03 -0.11859031793E+03  0.12708208261E+03  0.30367102334E+03  0.00000000000E+00 0. -1.
         -3    1    6    6    0  503 -0.97382271495E+02 -0.11929451644E+03  0.78912493218E+02  0.17303661474E+03  0.00000000000E+00 0.  1.
<mgrwt>
<rscale>  0 0.16194222E+04</rscale>
<asrwt>0</asrwt>
<pdfrwt beam="1">  1        3 0.66416555E-01 0.16194222E+04</pdfrwt>
<pdfrwt beam="2">  1       -4 0.23364536E+00 0.16194222E+04</pdfrwt>
<totfact> 0.38299904E-01</totfact>
</mgrwt>
</event>
<event>
12    5  0.5221187E-008  0.2385060E+04  0.7818608E-02  0.8445118E-01
         -4   -1    0    0    0  501 -0.00000000000E+00  0.00000000000E+00  0.11643006799E+04  0.11643006799E+04  0.00000000000E+00 0.  1.
          3   -1    0    0  501    0  0.00000000000E+00 -0.00000000000E+00 -0.12214439289E+04  0.12214439289E+04  0.00000000000E+00 0. -1.
        -24    2    1    2    0    0  0.56404855335E+03 -0.50064658338E+02 -0.87924696651E+03  0.10488363308E+04  0.79531000501E+02 0.  0.
        254    2    1    2    0    0 -0.56404855335E+03  0.50064658338E+02  0.82210371758E+03  0.13369082781E+04  0.88927609938E+03 0.  0.
         23    2    4    4    0    0 -0.23789378870E+03 -0.15494605517E+03 -0.11568118939E+03  0.31896602940E+03  0.88065064685E+02 0.  0.
         23    2    4    4    0    0 -0.32615476465E+03  0.20501071351E+03  0.93778490697E+03  0.10179422487E+04  0.91430666131E+02 0.  0.
          3    1    3    3  502    0  0.31129754476E+03 -0.47131596959E+02 -0.55014443393E+03  0.63386626901E+03  0.00000000000E+00 0. -1.
         -4    1    3    3    0  502  0.25275100859E+03 -0.29330613795E+01 -0.32910253258E+03  0.41497006174E+03  0.00000000000E+00 0.  1.
         13    1    5    5    0    0 -0.10689150735E+02 -0.53763001628E+01  0.13324881175E+02  0.17908517671E+02  0.00000000000E+00 0. -1.
        -13    1    5    5    0    0 -0.22720463797E+03 -0.14956975501E+03 -0.12900607056E+03  0.30105751173E+03  0.00000000000E+00 0.  1.
          4    1    6    6  503    0 -0.27087282270E+03  0.12411257842E+03  0.70471230613E+03  0.76511139883E+03  0.00000000000E+00 0.  1.
         -4    1    6    6    0  503 -0.55281941949E+02  0.80898135086E+02  0.23307260083E+03  0.25283084983E+03  0.00000000000E+00 0. -1.
<mgrwt>
<rscale>  0 0.23850602E+04</rscale>
<asrwt>0</asrwt>
<pdfrwt beam="1">  1        3 0.18791445E+00 0.23850602E+04</pdfrwt>
<pdfrwt beam="2">  1       -4 0.17912318E+00 0.23850602E+04</pdfrwt>
<totfact> 0.65962900E-02</totfact>
</mgrwt>
</event>
<event>
12    5  0.5221187E-008  0.1520984E+04  0.7818608E-02  0.8870618E-01
         -2   -1    0    0    0  501 -0.00000000000E+00  0.00000000000E+00  0.23106915628E+03  0.23106915628E+03  0.00000000000E+00 0.  1.
          1   -1    0    0  501    0  0.00000000000E+00 -0.00000000000E+00 -0.25029205092E+04  0.25029205092E+04  0.00000000000E+00 0. -1.
        -24    2    1    2    0    0 -0.47974275875E+03 -0.51014625731E+02 -0.61908000974E+03  0.78889509905E+03  0.79622937846E+02 0.  0.
        254    2    1    2    0    0  0.47974275875E+03  0.51014625731E+02 -0.16527713432E+04  0.19450945664E+04  0.90497743225E+03 0.  0.
         23    2    4    4    0    0  0.70955514831E+03 -0.96303756446E+02 -0.10182595281E+04  0.12482262908E+04  0.92051532147E+02 0.  0.
         23    2    4    4    0    0 -0.22981238957E+03  0.14731838218E+03 -0.63451181508E+03  0.69686827558E+03  0.92215562218E+02 0.  0.
          1    1    3    3  502    0 -0.12916309432E+03 -0.49621226965E+02 -0.17164048966E+03  0.22046729642E+03  0.00000000000E+00 0. -1.
         -2    1    3    3    0  502 -0.35057966443E+03 -0.13933987665E+01 -0.44743952008E+03  0.56842780263E+03  0.00000000000E+00 0.  1.
         13    1    5    5    0    0  0.67985481346E+03 -0.95927094994E+02 -0.10011047997E+04  0.12139256134E+04  0.00000000000E+00 0. -1.
        -13    1    5    5    0    0  0.29700334853E+02 -0.37666145201E+00 -0.17154728375E+02  0.34300677397E+02  0.00000000000E+00 0.  1.
          3    1    6    6  503    0 -0.22341044585E+03  0.13141563557E+03 -0.62638980927E+03  0.67789858367E+03  0.00000000000E+00 0. -1.
         -3    1    6    6    0  503 -0.64019437138E+01  0.15902746603E+02 -0.81220058104E+01  0.18969691912E+02  0.00000000000E+00 0.  1.
<mgrwt>
<rscale>  0 0.15209835E+04</rscale>
<asrwt>0</asrwt>
<pdfrwt beam="1">  1        1 0.38506466E+00 0.15209835E+04</pdfrwt>
<pdfrwt beam="2">  1       -2 0.35549104E-01 0.15209835E+04</pdfrwt>
<totfact> 0.85231829E+00</totfact>
</mgrwt>
</event>
<event>
12    5  0.5221187E-008  0.3068113E+04  0.7818608E-02  0.8224544E-01
         -2   -1    0    0    0  501 -0.00000000000E+00  0.00000000000E+00  0.18561219093E+04  0.18561219093E+04  0.00000000000E+00 0.  1.
          1   -1    0    0  501    0  0.00000000000E+00 -0.00000000000E+00 -0.12678742567E+04  0.12678742567E+04  0.00000000000E+00 0. -1.
        -24    2    1    2    0    0  0.70415590519E+03  0.10834515253E+04 -0.28178727876E+03  0.13249511829E+04  0.79930094825E+02 0.  0.
        254    2    1    2    0    0 -0.70415590519E+03 -0.10834515253E+04  0.87003493131E+03  0.17990449831E+04  0.89994406655E+03 0.  0.
         23    2    4    4    0    0 -0.60758804737E+03 -0.32375440089E+03  0.87734259837E+02  0.70015151606E+03  0.92383427559E+02 0.  0.
         23    2    4    4    0    0 -0.96567857812E+02 -0.75969712443E+03  0.78230067147E+03  0.10988934670E+04  0.95432904384E+02 0.  0.
          3    1    3    3  502    0  0.65460764565E+03  0.97264012018E+03 -0.24120770312E+03  0.11969632948E+04  0.00000000000E+00 0. -1.
         -4    1    3    3    0  502  0.49548259540E+02  0.11081140514E+03 -0.40579575648E+02  0.12798788807E+03  0.00000000000E+00 0.  1.
         13    1    5    5    0    0 -0.43916141480E+03 -0.23429480122E+03  0.10484762411E+03  0.50867457811E+03  0.00000000000E+00 0. -1.
        -13    1    5    5    0    0 -0.16842663257E+03 -0.89459599666E+02 -0.17113364271E+02  0.19147693796E+03  0.00000000000E+00 0.  1.
          4    1    6    6  503    0 -0.48311938345E+02 -0.53507978013E+03  0.49032016905E+03  0.72736392725E+03  0.00000000000E+00 0. -1.
         -4    1    6    6    0  503 -0.48255919467E+02 -0.22461734430E+03  0.29198050242E+03  0.37152953976E+03  0.00000000000E+00 0.  1.
<mgrwt>
<rscale>  0 0.30681129E+04</rscale>
<asrwt>0</asrwt>
<pdfrwt beam="1">  1        1 0.19505758E+00 0.30681129E+04</pdfrwt>
<pdfrwt beam="2">  1       -2 0.28555722E+00 0.30681129E+04</pdfrwt>
<totfact> 0.27596722E-01</totfact>
</mgrwt>
</event>
<event>
12    5  0.5221187E-008  0.2464918E+04  0.7818608E-02  0.8415591E-01
          1   -1    0    0  501    0  0.00000000000E+00  0.00000000000E+00  0.18063435182E+04  0.18063435182E+04  0.00000000000E+00 0. -1.
         -2   -1    0    0    0  501 -0.00000000000E+00 -0.00000000000E+00 -0.84090058586E+03  0.84090058586E+03  0.00000000000E+00 0.  1.
        -24    2    1    2    0    0 -0.24253760256E+03  0.96066382023E+03 -0.45236936413E+01  0.99410894281E+03  0.80824886208E+02 0.  0.
        254    2    1    2    0    0  0.24253760256E+03 -0.96066382023E+03  0.96996662598E+03  0.16531351612E+04  0.90017839436E+03 0.  0.
         23    2    4    4    0    0  0.41735446982E+03 -0.11688945256E+03  0.17047320934E+03  0.47418049082E+03  0.89096156921E+02 0.  0.
         23    2    4    4    0    0 -0.17481686726E+03 -0.84377436766E+03  0.79949341664E+03  0.11789546704E+04  0.90709817820E+02 0.  0.
          1    1    3    3  502    0 -0.27436735531E+02  0.14401680369E+03  0.26760864875E+02  0.14902938667E+03  0.00000000000E+00 0. -1.
         -2    1    3    3    0  502 -0.21510086703E+03  0.81664701654E+03 -0.31284558516E+02  0.84507955615E+03  0.00000000000E+00 0.  1.
         13    1    5    5    0    0  0.90739652405E+02  0.53036839957E+01  0.57757403805E+02  0.10769276334E+03  0.00000000000E+00 0.  1.
        -13    1    5    5    0    0  0.32661481741E+03 -0.12219313656E+03  0.11271580553E+03  0.36648772748E+03  0.00000000000E+00 0. -1.
          3    1    6    6  503    0 -0.10727785881E+03 -0.43998922747E+03  0.47748384698E+03  0.65809564913E+03  0.00000000000E+00 0. -1.
         -3    1    6    6    0  503 -0.67539008450E+02 -0.40378514020E+03  0.32200956966E+03  0.52085902129E+03  0.00000000000E+00 0.  1.
<mgrwt>
<rscale>  0 0.24649181E+04</rscale>
<asrwt>0</asrwt>
<pdfrwt beam="1">  1        1 0.27789900E+00 0.24649181E+04</pdfrwt>
<pdfrwt beam="2">  1       -2 0.12936932E+00 0.24649181E+04</pdfrwt>
<totfact> 0.13884608E+00</totfact>
</mgrwt>
</event>
<event>
12    5  0.5221187E-008  0.1675870E+04  0.7818608E-02  0.8775247E-01
          1   -1    0    0  501    0  0.00000000000E+00  0.00000000000E+00  0.76005679141E+03  0.76005679141E+03  0.00000000000E+00 0. -1.
         -2   -1    0    0    0  501 -0.00000000000E+00 -0.00000000000E+00 -0.92379344403E+03  0.92379344403E+03  0.00000000000E+00 0.  1.
        -24    2    1    2    0    0  0.22687557933E+03  0.13664508773E+03  0.47679431100E+03  0.55154425507E+03  0.81999035395E+02 0.  0.
        254    2    1    2    0    0 -0.22687557933E+03 -0.13664508773E+03 -0.64053096362E+03  0.11323059804E+04  0.89537283258E+03 0.  0.
         23    2    4    4    0    0  0.18897761164E+03 -0.36230792604E+03 -0.44863481760E+03  0.61374827102E+03  0.91837735415E+02 0.  0.
         23    2    4    4    0    0 -0.41585319096E+03  0.22566283831E+03 -0.19189614602E+03  0.51855770935E+03  0.90666278408E+02 0.  0.
          1    1    3    3  502    0  0.10897834195E+03  0.59014660525E+02  0.30485015337E+03  0.32907844837E+03  0.00000000000E+00 0. -1.
         -2    1    3    3    0  502  0.11789723738E+03  0.77630427205E+02  0.17194415763E+03  0.22246580670E+03  0.00000000000E+00 0.  1.
         13    1    5    5    0    0  0.16117475749E+03 -0.23289419170E+03 -0.26899886816E+03  0.39061156927E+03  0.00000000000E+00 0. -1.
        -13    1    5    5    0    0  0.27802854145E+02 -0.12941373434E+03 -0.17963594944E+03  0.22313670175E+03  0.00000000000E+00 0.  1.
          3    1    6    6  503    0 -0.33606509000E+03  0.21684404274E+03 -0.14402365884E+03  0.42509281092E+03  0.00000000000E+00 0. -1.
         -3    1    6    6    0  503 -0.79788100962E+02  0.88187955746E+01 -0.47872487173E+02  0.93464898431E+02  0.00000000000E+00 0.  1.
<mgrwt>
<rscale>  0 0.16758705E+04</rscale>
<asrwt>0</asrwt>
<pdfrwt beam="1">  1        1 0.11693181E+00 0.16758705E+04</pdfrwt>
<pdfrwt beam="2">  1       -2 0.14212207E+00 0.16758705E+04</pdfrwt>
<totfact> 0.69154433E+00</totfact>
</mgrwt>
</event>
<event>
12    5  0.5221187E-008  0.1207799E+04  0.7818608E-02  0.9106057E-01
          1   -1    0    0  501    0  0.00000000000E+00  0.00000000000E+00  0.20012794476E+04  0.20012794476E+04  0.00000000000E+00 0. -1.
         -2   -1    0    0    0  501 -0.00000000000E+00 -0.00000000000E+00 -0.18223068598E+03  0.18223068598E+03  0.00000000000E+00 0.  1.
        -24    2    1    2    0    0  0.85110999848E+02  0.19220145583E+03  0.69198615401E+03  0.72768627251E+03  0.80605160707E+02 0.  0.
        254    2    1    2    0    0 -0.85110999848E+02 -0.19220145583E+03  0.11270626076E+04  0.14558238611E+04  0.89719992815E+03 0.  0.
         23    2    4    4    0    0 -0.19485313511E+03  0.18848627470E+03  0.98462220447E+03  0.10253196498E+04  0.91130009706E+02 0.  0.
         23    2    4    4    0    0  0.10974213526E+03 -0.38068773053E+03  0.14244040314E+03  0.43050421129E+03  0.89878379288E+02 0.  0.
          3    1    3    3  502    0  0.55750084245E+02  0.11879323013E+03  0.54725706266E+03  0.56277010942E+03  0.00000000000E+00 0. -1.
         -4    1    3    3    0  502  0.29360915603E+02  0.73408225705E+02  0.14472909135E+03  0.16491616309E+03  0.00000000000E+00 0.  1.
         13    1    5    5    0    0 -0.12758191844E+03  0.17511358925E+03  0.77842587357E+03  0.80801531898E+03  0.00000000000E+00 0. -1.
        -13    1    5    5    0    0 -0.67271216675E+02  0.13372685448E+02  0.20619633090E+03  0.21730433080E+03  0.00000000000E+00 0.  1.
          2    1    6    6  503    0  0.43796446600E+02 -0.28590212740E+03  0.11854903757E+03  0.31258923445E+03  0.00000000000E+00 0. -1.
         -2    1    6    6    0  503  0.65945688663E+02 -0.94785603134E+02  0.23891365569E+02  0.11791497684E+03  0.00000000000E+00 0.  1.
<mgrwt>
<rscale>  0 0.12077989E+04</rscale>
<asrwt>0</asrwt>
<pdfrwt beam="1">  1        1 0.30788913E+00 0.12077989E+04</pdfrwt>
<pdfrwt beam="2">  1       -2 0.28035492E-01 0.12077989E+04</pdfrwt>
<totfact> 0.30089479E+01</totfact>
</mgrwt>
</event>
<event>
12    5  0.5221187E-008  0.1710013E+04  0.7818608E-02  0.8755674E-01
         -2   -1    0    0    0  501 -0.00000000000E+00  0.00000000000E+00  0.54410143214E+03  0.54410143214E+03  0.00000000000E+00 0.  1.
          1   -1    0    0  501    0  0.00000000000E+00 -0.00000000000E+00 -0.13435661991E+04  0.13435661991E+04  0.00000000000E+00 0. -1.
        -24    2    1    2    0    0 -0.54741686386E+03 -0.71205363351E+02  0.12116004823E+02  0.55895464605E+03  0.86879641813E+02 0.  0.
        254    2    1    2    0    0  0.54741686386E+03  0.71205363351E+02 -0.81158077178E+03  0.13287129852E+04  0.89558886842E+03 0.  0.
         23    2    4    4    0    0  0.47439577955E+03  0.41107474667E+03 -0.71661541261E+03  0.95694282185E+03  0.90377606153E+02 0.  0.
         23    2    4    4    0    0  0.73021084318E+02 -0.33986938332E+03 -0.94965359169E+02  0.37177016333E+03  0.91385767083E+02 0.  0.
          3    1    3    3  502    0 -0.15900262847E+03  0.16451859440E+02 -0.99517703870E+01  0.16016097300E+03  0.00000000000E+00 0. -1.
         -4    1    3    3    0  502 -0.38841423539E+03 -0.87657222791E+02  0.22067775210E+02  0.39879367305E+03  0.00000000000E+00 0.  1.
         13    1    5    5    0    0 -0.12886152027E+01  0.47097178617E+01 -0.20188075560E+02  0.20770179737E+02  0.00000000000E+00 0. -1.
        -13    1    5    5    0    0  0.47568439475E+03  0.40636502881E+03 -0.69642733705E+03  0.93617264211E+03  0.00000000000E+00 0.  1.
          2    1    6    6  503    0  0.44064830178E+01 -0.11621359976E+03  0.71368932923E+01  0.11651589208E+03  0.00000000000E+00 0.  1.
         -2    1    6    6    0  503  0.68614601300E+02 -0.22365578356E+03 -0.10210225246E+03  0.25525427124E+03  0.00000000000E+00 0. -1.
<mgrwt>
<rscale>  0 0.17100132E+04</rscale>
<asrwt>0</asrwt>
<pdfrwt beam="1">  1        1 0.20670249E+00 0.17100132E+04</pdfrwt>
<pdfrwt beam="2">  1       -2 0.83707913E-01 0.17100132E+04</pdfrwt>
<totfact> 0.87647745E+00</totfact>
</mgrwt>
</event>
<event>
12    5  0.5221187E-008  0.2689012E+04  0.7818608E-02  0.8338579E-01
         -2   -1    0    0    0  501 -0.00000000000E+00  0.00000000000E+00  0.11045932943E+04  0.11045932943E+04  0.00000000000E+00 0.  1.
          1   -1    0    0  501    0  0.00000000000E+00 -0.00000000000E+00 -0.16365267948E+04  0.16365267948E+04  0.00000000000E+00 0. -1.
        -24    2    1    2    0    0 -0.50633601179E+03 -0.93909716045E+03  0.29586430063E+03  0.11101267562E+04  0.81031456234E+02 0.  0.
        254    2    1    2    0    0  0.50633601179E+03  0.93909716045E+03 -0.82779780114E+03  0.16309933328E+04  0.91466410142E+03 0.  0.
         23    2    4    4    0    0  0.52653460721E+03  0.57115847672E+03 -0.72365583431E+02  0.78549758902E+03  0.91153642633E+02 0.  0.
         23    2    4    4    0    0 -0.20198595424E+02  0.36793868373E+03 -0.75543221771E+03  0.84549574377E+03  0.91642560731E+02 0.  0.
          1    1    3    3  502    0 -0.91003317577E+00 -0.18489864246E+00  0.46868476277E+01  0.47779586199E+01  0.00000000000E+00 0. -1.
         -2    1    3    3    0  502 -0.50542597861E+03 -0.93891226181E+03  0.29117745300E+03  0.11053487976E+04  0.00000000000E+00 0.  1.
         13    1    5    5    0    0  0.26375187443E+03  0.33292842598E+03 -0.72004115886E+02  0.43080271679E+03  0.00000000000E+00 0.  1.
        -13    1    5    5    0    0  0.26278273279E+03  0.23823005074E+03 -0.36146754491E+00  0.35469487223E+03  0.00000000000E+00 0. -1.
          3    1    6    6  503    0  0.27084079193E+02  0.55940935101E+02 -0.94667078876E+02  0.11324659548E+03  0.00000000000E+00 0. -1.
         -3    1    6    6    0  503 -0.47282674616E+02  0.31199774863E+03 -0.66076513883E+03  0.73224914829E+03  0.00000000000E+00 0.  1.
<mgrwt>
<rscale>  0 0.26890121E+04</rscale>
<asrwt>0</asrwt>
<pdfrwt beam="1">  1        1 0.25177335E+00 0.26890121E+04</pdfrwt>
<pdfrwt beam="2">  1       -2 0.16993743E+00 0.26890121E+04</pdfrwt>
<totfact> 0.86277050E-01</totfact>
</mgrwt>
</event>
<event>
12    5  0.5221187E-008  0.1681231E+04  0.7818608E-02  0.8772142E-01
          1   -1    0    0  501    0  0.00000000000E+00  0.00000000000E+00  0.89126823806E+03  0.89126823806E+03  0.00000000000E+00 0. -1.
         -2   -1    0    0    0  501 -0.00000000000E+00 -0.00000000000E+00 -0.79284173258E+03  0.79284173258E+03  0.00000000000E+00 0.  1.
        -24    2    1    2    0    0 -0.34580361636E+03  0.85566517615E+02 -0.43493443978E+03  0.56742550723E+03  0.76824275619E+02 0.  0.
        254    2    1    2    0    0  0.34580361636E+03 -0.85566517615E+02  0.53336094526E+03  0.11166844634E+04  0.91411625238E+03 0.  0.
         23    2    4    4    0    0  0.57258587874E+03  0.10272682475E+03  0.55252933871E+03  0.80749415859E+03  0.91382476264E+02 0.  0.
         23    2    4    4    0    0 -0.22678226239E+03 -0.18829334237E+03 -0.19168393448E+02  0.30919030482E+03  0.91359947318E+02 0.  0.
          1    1    3    3  502    0 -0.51545011374E+02  0.10032258098E+02 -0.11396346837E+03  0.12547990486E+03  0.00000000000E+00 0. -1.
         -2    1    3    3    0  502 -0.29425860498E+03  0.75534259517E+02 -0.32097097141E+03  0.44194560237E+03  0.00000000000E+00 0.  1.
         13    1    5    5    0    0  0.12183322617E+03  0.37782610397E+02  0.76647832539E+02  0.14881448478E+03  0.00000000000E+00 0. -1.
        -13    1    5    5    0    0  0.45075265257E+03  0.64944214357E+02  0.47588150617E+03  0.65867967381E+03  0.00000000000E+00 0.  1.
          4    1    6    6  503    0 -0.37932648370E+02 -0.16520287137E+01 -0.21559728925E+02  0.43662763570E+02  0.00000000000E+00 0. -1.
         -4    1    6    6    0  503 -0.18884961402E+03 -0.18664131366E+03  0.23913354768E+01  0.26552754125E+03  0.00000000000E+00 0.  1.
<mgrwt>
<rscale>  0 0.16812313E+04</rscale>
<asrwt>0</asrwt>
<pdfrwt beam="1">  1        1 0.13711819E+00 0.16812313E+04</pdfrwt>
<pdfrwt beam="2">  1       -2 0.12197565E+00 0.16812313E+04</pdfrwt>
<totfact> 0.78767444E+00</totfact>
</mgrwt>
</event>
<event>
12    5  0.5221187E-008  0.1407903E+04  0.7818608E-02  0.8948117E-01
          1   -1    0    0  501    0  0.00000000000E+00  0.00000000000E+00  0.89684616798E+03  0.89684616798E+03  0.00000000000E+00 0. -1.
         -2   -1    0    0    0  501 -0.00000000000E+00 -0.00000000000E+00 -0.55254520432E+03  0.55254520432E+03  0.00000000000E+00 0.  1.
        -24    2    1    2    0    0 -0.62403017011E+02 -0.32107422246E+02 -0.31208892294E+03  0.33038629153E+03  0.82647339430E+02 0.  0.
        254    2    1    2    0    0  0.62403017011E+02  0.32107422246E+02  0.65638988660E+03  0.11190050808E+04  0.90354837418E+03 0.  0.
         23    2    4    4    0    0  0.37610342332E+03  0.44765497685E+02  0.68723110552E+03  0.78996594095E+03  0.91114546927E+02 0.  0.
         23    2    4    4    0    0 -0.31370040631E+03 -0.12658075440E+02 -0.30841218920E+02  0.32903913982E+03  0.93527551858E+02 0.  0.
          1    1    3    3  502    0 -0.29644687054E+02 -0.47206339135E+02 -0.93610784732E+02  0.10895056192E+03  0.00000000000E+00 0. -1.
         -2    1    3    3    0  502 -0.32758329957E+02  0.15098916889E+02 -0.21847813821E+03  0.22143572961E+03  0.00000000000E+00 0.  1.
         13    1    5    5    0    0  0.36419903900E+03  0.60561117210E+02  0.66092136808E+03  0.75705062163E+03  0.00000000000E+00 0. -1.
        -13    1    5    5    0    0  0.11904384324E+02 -0.15795619525E+02  0.26309737434E+02  0.32915319323E+02  0.00000000000E+00 0.  1.
          1    1    6    6  503    0 -0.28575108803E+03 -0.22975998931E+02 -0.53482069195E+02  0.29161946533E+03  0.00000000000E+00 0. -1.
         -1    1    6    6    0  503 -0.27949318283E+02  0.10317923491E+02  0.22640850274E+02  0.37419674488E+02  0.00000000000E+00 0.  1.
<mgrwt>
<rscale>  0 0.14079035E+04</rscale>
<asrwt>0</asrwt>
<pdfrwt beam="1">  1        1 0.13797633E+00 0.14079035E+04</pdfrwt>
<pdfrwt beam="2">  1       -2 0.85006955E-01 0.14079035E+04</pdfrwt>
<totfact> 0.18834565E+01</totfact>
</mgrwt>
</event>
<event>
12    5  0.5221187E-008  0.1773003E+04  0.7818608E-02  0.8720789E-01
         -2   -1    0    0    0  501 -0.00000000000E+00  0.00000000000E+00  0.48692002779E+03  0.48692002779E+03  0.00000000000E+00 0.  1.
          1   -1    0    0  501    0  0.00000000000E+00 -0.00000000000E+00 -0.16139921336E+04  0.16139921336E+04  0.00000000000E+00 0. -1.
        -24    2    1    2    0    0  0.27597393123E+03 -0.31835952854E+03 -0.10221397119E+04  0.11085459238E+04  0.81179273162E+02 0.  0.
        254    2    1    2    0    0 -0.27597393123E+03  0.31835952854E+03 -0.10493239395E+03  0.99236623763E+03  0.89233712361E+03 0.  0.
         23    2    4    4    0    0  0.30223375246E+03  0.21319235548E+03 -0.11313983183E+03  0.39743964164E+03  0.91440831336E+02 0.  0.
         23    2    4    4    0    0 -0.57820768369E+03  0.10516717305E+03  0.82074378769E+01  0.59492659599E+03  0.92119665769E+02 0.  0.
          1    1    3    3  502    0  0.21664113287E+03 -0.27218736980E+03 -0.90272426033E+03  0.96743497710E+03  0.00000000000E+00 0. -1.
         -2    1    3    3    0  502  0.59332798355E+02 -0.46172158737E+02 -0.11941545158E+03  0.14111094670E+03  0.00000000000E+00 0.  1.
         13    1    5    5    0    0  0.21592916882E+03  0.10011786126E+03 -0.82724723571E+02  0.25197692747E+03  0.00000000000E+00 0.  1.
        -13    1    5    5    0    0  0.86304583644E+02  0.11307449422E+03 -0.30415108258E+02  0.14546271416E+03  0.00000000000E+00 0. -1.
          4    1    6    6  503    0 -0.20439898460E+03  0.55242130793E+01 -0.27968437943E+02  0.20637755536E+03  0.00000000000E+00 0. -1.
         -4    1    6    6    0  503 -0.37380869909E+03  0.99642959975E+02  0.36175875820E+02  0.38854904063E+03  0.00000000000E+00 0.  1.
<mgrwt>
<rscale>  0 0.17730032E+04</rscale>
<asrwt>0</asrwt>
<pdfrwt beam="1">  1        1 0.24830648E+00 0.17730032E+04</pdfrwt>
<pdfrwt beam="2">  1       -2 0.74910775E-01 0.17730032E+04</pdfrwt>
<totfact> 0.72536066E+00</totfact>
</mgrwt>
</event>
<event>
12    5  0.5221187E-008  0.1553110E+04  0.7818608E-02  0.8849884E-01
         -2   -1    0    0    0  501 -0.00000000000E+00  0.00000000000E+00  0.43448641159E+03  0.43448641159E+03  0.00000000000E+00 0.  1.
          1   -1    0    0  501    0  0.00000000000E+00 -0.00000000000E+00 -0.13879315911E+04  0.13879315911E+04  0.00000000000E+00 0. -1.
        -24    2    1    2    0    0 -0.30058414114E+03 -0.71179191718E+02  0.15782201873E+03  0.35599806672E+03  0.80059544537E+02 0.  0.
        254    2    1    2    0    0  0.30058414114E+03  0.71179191718E+02 -0.11112671983E+04  0.14664199360E+04  0.90556906943E+03 0.  0.
         23    2    4    4    0    0  0.59006015255E+03  0.19390767438E+03 -0.69380754723E+03  0.93566604467E+03  0.91273570901E+02 0.  0.
         23    2    4    4    0    0 -0.28947601142E+03 -0.12272848266E+03 -0.41745965104E+03  0.53075389133E+03  0.92566145391E+02 0.  0.
          3    1    3    3  502    0 -0.11219342647E+03 -0.18527032718E+02  0.17013308471E+02  0.11497855692E+03  0.00000000000E+00 0. -1.
         -4    1    3    3    0  502 -0.18839071467E+03 -0.52652158999E+02  0.14080871026E+03  0.24101950980E+03  0.00000000000E+00 0.  1.
         13    1    5    5    0    0  0.47301541245E+03  0.18803191163E+03 -0.53708982389E+03  0.73997639093E+03  0.00000000000E+00 0. -1.
        -13    1    5    5    0    0  0.11704474010E+03  0.58757627541E+01 -0.15671772334E+03  0.19568965374E+03  0.00000000000E+00 0.  1.
          1    1    6    6  503    0 -0.25166374475E+03 -0.69214869011E+02 -0.31433380487E+03  0.40857200026E+03  0.00000000000E+00 0. -1.
         -1    1    6    6    0  503 -0.37812266665E+02 -0.53513613651E+02 -0.10312584617E+03  0.12218189107E+03  0.00000000000E+00 0.  1.
<mgrwt>
<rscale>  0 0.15531097E+04</rscale>
<asrwt>0</asrwt>
<pdfrwt beam="1">  1        1 0.21352794E+00 0.15531097E+04</pdfrwt>
<pdfrwt beam="2">  1       -2 0.66844063E-01 0.15531097E+04</pdfrwt>
<totfact> 0.13606560E+01</totfact>
</mgrwt>
</event>
<event>
12    5  0.5221187E-008  0.2290194E+04  0.7818608E-02  0.8481798E-01
          1   -1    0    0  501    0  0.00000000000E+00  0.00000000000E+00  0.67082726065E+03  0.67082726065E+03  0.00000000000E+00 0. -1.
         -2   -1    0    0    0  501 -0.00000000000E+00 -0.00000000000E+00 -0.19546715933E+04  0.19546715933E+04  0.00000000000E+00 0.  1.
        -24    2    1    2    0    0  0.61462449404E+03 -0.40444012046E+03 -0.12610682010E+04  0.14623094026E+04  0.81979885795E+02 0.  0.
        254    2    1    2    0    0 -0.61462449404E+03  0.40444012046E+03 -0.22776131611E+02  0.11631894513E+04  0.90064191982E+03 0.  0.
         23    2    4    4    0    0 -0.18957681727E+03  0.63471703857E+03  0.19828410420E+02  0.66879290905E+03  0.89920524051E+02 0.  0.
         23    2    4    4    0    0 -0.42504767677E+03 -0.23027691811E+03 -0.42604542030E+02  0.49439654225E+03  0.94444732231E+02 0.  0.
          1    1    3    3  502    0  0.17406961933E+03 -0.88132896968E+02 -0.27929053136E+03  0.34069170934E+03  0.00000000000E+00 0. -1.
         -2    1    3    3    0  502  0.44055487471E+03 -0.31630722349E+03 -0.98177766968E+03  0.11216176933E+04  0.00000000000E+00 0.  1.
         13    1    5    5    0    0 -0.11762131875E+03  0.48226022017E+03 -0.15108268806E+02  0.49662657437E+03  0.00000000000E+00 0.  1.
        -13    1    5    5    0    0 -0.71955498520E+02  0.15245681839E+03  0.34936679226E+02  0.17216633468E+03  0.00000000000E+00 0. -1.
          3    1    6    6  503    0  0.29302932030E+01 -0.10101911112E+02  0.30291234714E+01  0.10945812687E+02  0.00000000000E+00 0. -1.
         -3    1    6    6    0  503 -0.42797796997E+03 -0.22017500700E+03 -0.45633665502E+02  0.48345072956E+03  0.00000000000E+00 0.  1.
<mgrwt>
<rscale>  0 0.22901939E+04</rscale>
<asrwt>0</asrwt>
<pdfrwt beam="1">  1        1 0.10320419E+00 0.22901939E+04</pdfrwt>
<pdfrwt beam="2">  1       -2 0.30071870E+00 0.22901939E+04</pdfrwt>
<totfact> 0.72499719E-01</totfact>
</mgrwt>
</event>
<event>
12    5  0.5221187E-008  0.2602883E+04  0.7818608E-02  0.8367222E-01
          1   -1    0    0  501    0  0.00000000000E+00  0.00000000000E+00  0.10868820880E+04  0.10868820880E+04  0.00000000000E+00 0. -1.
         -2   -1    0    0    0  501 -0.00000000000E+00 -0.00000000000E+00 -0.15583571986E+04  0.15583571986E+04  0.00000000000E+00 0.  1.
        -24    2    1    2    0    0  0.10387324084E+04  0.35810897411E+03  0.11239165580E+03  0.11072480648E+04  0.78481457666E+02 0.  0.
        254    2    1    2    0    0 -0.10387324084E+04 -0.35810897411E+03 -0.58386676643E+03  0.15379912218E+04  0.90405173731E+03 0.  0.
         23    2    4    4    0    0 -0.35926398316E+03  0.29188519405E+03 -0.26864222895E+03  0.54252721071E+03  0.88879418836E+02 0.  0.
         23    2    4    4    0    0 -0.67946842523E+03 -0.64999416817E+03 -0.31522453748E+03  0.99546401106E+03  0.86094882237E+02 0.  0.
          1    1    3    3  502    0  0.81643001540E+03  0.30455933295E+03  0.11225216411E+03  0.87858687998E+03  0.00000000000E+00 0. -1.
         -2    1    3    3    0  502  0.22230239298E+03  0.53549641167E+02  0.13949169269E+00  0.22866118484E+03  0.00000000000E+00 0.  1.
         13    1    5    5    0    0 -0.34702226030E+03  0.28094230479E+03 -0.23377646790E+03  0.50398855613E+03  0.00000000000E+00 0. -1.
        -13    1    5    5    0    0 -0.12241722854E+02  0.10942889260E+02 -0.34865761046E+02  0.38538654584E+02  0.00000000000E+00 0.  1.
          3    1    6    6  503    0 -0.48804768572E+03 -0.48538046144E+03 -0.19239497880E+03  0.71470312980E+03  0.00000000000E+00 0. -1.
         -3    1    6    6    0  503 -0.19142073951E+03 -0.16461370673E+03 -0.12282955869E+03  0.28076088126E+03  0.00000000000E+00 0.  1.
<mgrwt>
<rscale>  0 0.26028834E+04</rscale>
<asrwt>0</asrwt>
<pdfrwt beam="1">  1        1 0.16721263E+00 0.26028834E+04</pdfrwt>
<pdfrwt beam="2">  1       -2 0.23974726E+00 0.26028834E+04</pdfrwt>
<totfact> 0.74490212E-01</totfact>
</mgrwt>
</event>
<event>
12    5  0.5221187E-008  0.1981804E+04  0.7818608E-02  0.8615176E-01
         -2   -1    0    0    0  501 -0.00000000000E+00  0.00000000000E+00  0.31402537297E+03  0.31402537297E+03  0.00000000000E+00 0.  1.
          1   -1    0    0  501    0  0.00000000000E+00 -0.00000000000E+00 -0.31267740169E+04  0.31267740169E+04  0.00000000000E+00 0. -1.
        -24    2    1    2    0    0 -0.54345381478E+03 -0.57632106409E+03 -0.10963817166E+04  0.13548690470E+04  0.78289516458E+02 0.  0.
        254    2    1    2    0    0  0.54345381478E+03  0.57632106409E+03 -0.17163669274E+04  0.20859303429E+04  0.88187411134E+03 0.  0.
         23    2    4    4    0    0  0.57592500329E+03  0.52942402146E+03 -0.17884892626E+04  0.19542309438E+04  0.91352808351E+02 0.  0.
         23    2    4    4    0    0 -0.32471188514E+02  0.46897042637E+02  0.72122335153E+02  0.13169939908E+03  0.94283560600E+02 0.  0.
          1    1    3    3  502    0 -0.70513255773E+02 -0.41215128830E+02 -0.12134090169E+03  0.14626831682E+03  0.00000000000E+00 0. -1.
         -2    1    3    3    0  502 -0.47294055900E+03 -0.53510593526E+03 -0.97504081487E+03  0.12086007302E+04  0.00000000000E+00 0.  1.
         13    1    5    5    0    0  0.54828868844E+03  0.50777460007E+03 -0.16496500048E+04  0.18110219956E+04  0.00000000000E+00 0.  1.
        -13    1    5    5    0    0  0.27636314854E+02  0.21649421390E+02 -0.13883925778E+03  0.14320894821E+03  0.00000000000E+00 0. -1.
          4    1    6    6  503    0 -0.22490150343E+02 -0.19192782979E+02 -0.46260941854E+01  0.29926084414E+02  0.00000000000E+00 0. -1.
         -4    1    6    6    0  503 -0.99810381715E+01  0.66089825616E+02  0.76748429338E+02  0.10177331467E+03  0.00000000000E+00 0.  1.
<mgrwt>
<rscale>  0 0.19818036E+04</rscale>
<asrwt>0</asrwt>
<pdfrwt beam="1">  1        1 0.48104217E+00 0.19818036E+04</pdfrwt>
<pdfrwt beam="2">  1       -2 0.48311595E-01 0.19818036E+04</pdfrwt>
<totfact> 0.16011943E+00</totfact>
</mgrwt>
</event>
<event>
12    5  0.5221187E-008  0.1908287E+04  0.7818608E-02  0.8650743E-01
          1   -1    0    0  501    0  0.00000000000E+00  0.00000000000E+00  0.81726546361E+03  0.81726546361E+03  0.00000000000E+00 0. -1.
         -2   -1    0    0    0  501 -0.00000000000E+00 -0.00000000000E+00 -0.11139457683E+04  0.11139457683E+04  0.00000000000E+00 0.  1.
        -24    2    1    2    0    0  0.34414929003E+03 -0.18592429279E+03 -0.74722066695E+03  0.84670916150E+03  0.74639818977E+02 0.  0.
        254    2    1    2    0    0 -0.34414929003E+03  0.18592429279E+03  0.45054036229E+03  0.10845020704E+04  0.90562218730E+03 0.  0.
         23    2    4    4    0    0  0.42812982374E+02 -0.28850541041E+03  0.34006842636E+03  0.45718507334E+03  0.91122628296E+02 0.  0.
         23    2    4    4    0    0 -0.38696227240E+03  0.47442970321E+03  0.11047193594E+03  0.62731699703E+03  0.80617756057E+02 0.  0.
          1    1    3    3  502    0  0.47793298277E+02 -0.91885822391E+01 -0.14104354692E+03  0.14920426110E+03  0.00000000000E+00 0. -1.
         -2    1    3    3    0  502  0.29635599175E+03 -0.17673571056E+03 -0.60617712003E+03  0.69750490040E+03  0.00000000000E+00 0.  1.
         13    1    5    5    0    0 -0.25782785993E+02 -0.39247486326E+02  0.48458584708E+02  0.67478527461E+02  0.00000000000E+00 0.  1.
        -13    1    5    5    0    0  0.68595768368E+02 -0.24925792409E+03  0.29160984165E+03  0.38970654588E+03  0.00000000000E+00 0. -1.
          3    1    6    6  503    0 -0.23927161747E+03  0.35050254845E+03  0.66415624860E+02  0.42955090341E+03  0.00000000000E+00 0. -1.
         -3    1    6    6    0  503 -0.14769065494E+03  0.12392715475E+03  0.44056311077E+02  0.19776609362E+03  0.00000000000E+00 0.  1.
<mgrwt>
<rscale>  0 0.19082866E+04</rscale>
<asrwt>0</asrwt>
<pdfrwt beam="1">  1        1 0.12573315E+00 0.19082866E+04</pdfrwt>
<pdfrwt beam="2">  1       -2 0.17137627E+00 0.19082866E+04</pdfrwt>
<totfact> 0.36445611E+00</totfact>
</mgrwt>
</event>
<event>
12    5  0.5221187E-008  0.1554816E+04  0.7818608E-02  0.8848798E-01
         -4   -1    0    0    0  501 -0.00000000000E+00  0.00000000000E+00  0.90730150196E+03  0.90730150196E+03  0.00000000000E+00 0.  1.
          3   -1    0    0  501    0  0.00000000000E+00 -0.00000000000E+00 -0.66611026741E+03  0.66611026741E+03  0.00000000000E+00 0. -1.
        -24    2    1    2    0    0  0.44481376498E+03 -0.95369805910E+02 -0.15132577387E+03  0.48570137181E+03  0.77792334737E+02 0.  0.
        254    2    1    2    0    0 -0.44481376498E+03  0.95369805910E+02  0.39251700842E+03  0.10877103976E+04  0.90669158024E+03 0.  0.
         23    2    4    4    0    0 -0.48592803737E+03 -0.23353989893E+03  0.48480973759E+03  0.73092335153E+03  0.92420356254E+02 0.  0.
         23    2    4    4    0    0  0.41114272389E+02  0.32890970484E+03 -0.92292729179E+02  0.35678704603E+03  0.94377280256E+02 0.  0.
          1    1    3    3  502    0  0.35376255283E+03 -0.47199192013E+02 -0.10016036877E+03  0.37068559048E+03  0.00000000000E+00 0. -1.
         -2    1    3    3    0  502  0.91051212149E+02 -0.48170613897E+02 -0.51165405100E+02  0.11501578133E+03  0.00000000000E+00 0.  1.
         13    1    5    5    0    0 -0.77334472795E+02 -0.54333161802E+02  0.13080265572E+03  0.16137548729E+03  0.00000000000E+00 0. -1.
        -13    1    5    5    0    0 -0.40859356458E+03 -0.17920673712E+03  0.35400708187E+03  0.56954786424E+03  0.00000000000E+00 0.  1.
          4    1    6    6  503    0  0.37724322722E+01  0.19685747682E+03 -0.96969157195E+02  0.21947691193E+03  0.00000000000E+00 0. -1.
         -4    1    6    6    0  503  0.37341840116E+02  0.13205222802E+03  0.46764280160E+01  0.13731013410E+03  0.00000000000E+00 0.  1.
<mgrwt>
<rscale>  0 0.15548155E+04</rscale>
<asrwt>0</asrwt>
<pdfrwt beam="1">  1        3 0.10247850E+00 0.15548155E+04</pdfrwt>
<pdfrwt beam="2">  1       -4 0.13958485E+00 0.15548155E+04</pdfrwt>
<totfact> 0.65520400E-01</totfact>
</mgrwt>
</event>
<event>
12    5  0.5221187E-008  0.1559709E+04  0.7818608E-02  0.8845690E-01
          1   -1    0    0  501    0  0.00000000000E+00  0.00000000000E+00  0.24211845328E+04  0.24211845328E+04  0.00000000000E+00 0. -1.
         -2   -1    0    0    0  501 -0.00000000000E+00 -0.00000000000E+00 -0.25118813469E+03  0.25118813469E+03  0.00000000000E+00 0.  1.
        -24    2    1    2    0    0  0.32906851118E+03 -0.26055741982E+02  0.36685649442E+02  0.34146875129E+03  0.79310052883E+02 0.  0.
        254    2    1    2    0    0 -0.32906851118E+03  0.26055741982E+02  0.21333107487E+04  0.23309039162E+04  0.87928000627E+03 0.  0.
         23    2    4    4    0    0  0.89937020620E+02  0.32862367108E+03  0.12909587774E+04  0.13382974672E+04  0.91560695761E+02 0.  0.
         23    2    4    4    0    0 -0.41900553180E+03 -0.30256792910E+03  0.84235197131E+03  0.99260644899E+03  0.92723953849E+02 0.  0.
          3    1    3    3  502    0  0.79996963044E+02  0.34029993278E+01  0.42386407971E+02  0.90596369030E+02  0.00000000000E+00 0. -1.
         -4    1    3    3    0  502  0.24907154814E+03 -0.29458741310E+02 -0.57007585292E+01  0.25087238226E+03  0.00000000000E+00 0.  1.
         13    1    5    5    0    0  0.66995585296E+02  0.31470132267E+03  0.11220783922E+04  0.11672982691E+04  0.00000000000E+00 0.  1.
        -13    1    5    5    0    0  0.22941435324E+02  0.13922348415E+02  0.16888038521E+03  0.17099919809E+03  0.00000000000E+00 0. -1.
          4    1    6    6  503    0 -0.17016779801E+03 -0.68898619777E+02  0.28364337767E+03  0.33787226134E+03  0.00000000000E+00 0. -1.
         -4    1    6    6    0  503 -0.24883773379E+03 -0.23366930932E+03  0.55870859364E+03  0.65473418766E+03  0.00000000000E+00 0.  1.
<mgrwt>
<rscale>  0 0.15597087E+04</rscale>
<asrwt>0</asrwt>
<pdfrwt beam="1">  1        1 0.37248991E+00 0.15597087E+04</pdfrwt>
<pdfrwt beam="2">  1       -2 0.38644330E-01 0.15597087E+04</pdfrwt>
<totfact> 0.82305785E+00</totfact>
</mgrwt>
</event>
<event>
12    5  0.5221187E-008  0.1822385E+04  0.7818608E-02  0.8694485E-01
         -4   -1    0    0    0  501 -0.00000000000E+00  0.00000000000E+00  0.38191555179E+03  0.38191555179E+03  0.00000000000E+00 0.  1.
          3   -1    0    0  501    0  0.00000000000E+00 -0.00000000000E+00 -0.21739665835E+04  0.21739665835E+04  0.00000000000E+00 0. -1.
        -24    2    1    2    0    0  0.18214890057E+03 -0.26694017821E+03 -0.15368228451E+04  0.15725190416E+04  0.80971588432E+02 0.  0.
        254    2    1    2    0    0 -0.18214890057E+03  0.26694017821E+03 -0.25522818657E+03  0.98336309368E+03  0.89298727095E+03 0.  0.
         23    2    4    4    0    0  0.39894316430E+02  0.46895314456E+03  0.12017619179E+03  0.49438633694E+03  0.92015894321E+02 0.  0.
         23    2    4    4    0    0 -0.22204321700E+03 -0.20201296635E+03 -0.37540437836E+03  0.48897675674E+03  0.89762979856E+02 0.  0.
          3    1    3    3  502    0  0.61493034203E+02 -0.83387798642E+02 -0.68691745776E+03  0.69468734838E+03  0.00000000000E+00 0. -1.
         -4    1    3    3    0  502  0.12065586637E+03 -0.18355237957E+03 -0.84990538738E+03  0.87783169323E+03  0.00000000000E+00 0.  1.
         13    1    5    5    0    0  0.54652884658E+02  0.45057355172E+03  0.10354292667E+03  0.46553689539E+03  0.00000000000E+00 0. -1.
        -13    1    5    5    0    0 -0.14758568228E+02  0.18379592840E+02  0.16633265120E+02  0.28849441548E+02  0.00000000000E+00 0.  1.
          3    1    6    6  503    0 -0.13625119954E+03 -0.17781212345E+03 -0.27568730535E+03  0.35522532420E+03  0.00000000000E+00 0. -1.
         -3    1    6    6    0  503 -0.85792017465E+02 -0.24200842898E+02 -0.99717073012E+02  0.13375143254E+03  0.00000000000E+00 0.  1.
<mgrwt>
<rscale>  0 0.18223849E+04</rscale>
<asrwt>0</asrwt>
<pdfrwt beam="1">  1        3 0.33445640E+00 0.18223849E+04</pdfrwt>
<pdfrwt beam="2">  1       -4 0.58756238E-01 0.18223849E+04</pdfrwt>
<totfact> 0.14894319E-01</totfact>
</mgrwt>
</event>
<event>
12    5  0.5221187E-008  0.1027401E+04  0.7818608E-02  0.9278992E-01
         -2   -1    0    0    0  501 -0.00000000000E+00  0.00000000000E+00  0.41371701924E+03  0.41371701924E+03  0.00000000000E+00 0.  1.
          1   -1    0    0  501    0  0.00000000000E+00 -0.00000000000E+00 -0.63784685148E+03  0.63784685148E+03  0.00000000000E+00 0. -1.
        -24    2    1    2    0    0  0.82258586906E+02  0.21895746130E+02 -0.34241797502E+02  0.12200519622E+03  0.80416841462E+02 0.  0.
        254    2    1    2    0    0 -0.82258586906E+02 -0.21895746130E+02 -0.18988803475E+03  0.92955867450E+03  0.90596686737E+03 0.  0.
         23    2    4    4    0    0  0.32499575292E+03 -0.13260148492E+03 -0.31483943058E+03  0.48007434983E+03  0.90233702708E+02 0.  0.
         23    2    4    4    0    0 -0.40725433982E+03  0.11070573879E+03  0.12495139583E+03  0.44948432467E+03  0.91167148115E+02 0.  0.
          3    1    3    3  502    0  0.37341235587E+02  0.20207479715E+02 -0.57435330012E+02  0.71424976340E+02  0.00000000000E+00 0. -1.
         -2    1    3    3    0  502  0.44917351319E+02  0.16882664151E+01  0.23193532511E+02  0.50580219882E+02  0.00000000000E+00 0.  1.
         13    1    5    5    0    0  0.89737252360E+02 -0.38129100066E+02 -0.14569385903E+03  0.17530916488E+03  0.00000000000E+00 0.  1.
        -13    1    5    5    0    0  0.23525850056E+03 -0.94472384849E+02 -0.16914557155E+03  0.30476518495E+03  0.00000000000E+00 0. -1.
          4    1    6    6  503    0 -0.51519783071E+02 -0.14128088653E+02  0.27530482272E+02  0.60098405892E+02  0.00000000000E+00 0.  1.
         -4    1    6    6    0  503 -0.35573455675E+03  0.12483382744E+03  0.97420913563E+02  0.38938591877E+03  0.00000000000E+00 0. -1.
<mgrwt>
<rscale>  0 0.10274008E+04</rscale>
<asrwt>0</asrwt>
<pdfrwt beam="1">  1        1 0.98130284E-01 0.10274008E+04</pdfrwt>
<pdfrwt beam="2">  1       -2 0.63648773E-01 0.10274008E+04</pdfrwt>
<totfact> 0.62717313E+01</totfact>
</mgrwt>
</event>
<event>
12    5  0.5221187E-008  0.1430091E+04  0.7818608E-02  0.8932321E-01
         -2   -1    0    0    0  501 -0.00000000000E+00  0.00000000000E+00  0.18448228951E+03  0.18448228951E+03  0.00000000000E+00 0.  1.
          1   -1    0    0  501    0  0.00000000000E+00 -0.00000000000E+00 -0.27714862996E+04  0.27714862996E+04  0.00000000000E+00 0. -1.
        -24    2    1    2    0    0 -0.28643111548E+03  0.73090257480E+02 -0.14826811011E+03  0.33974083129E+03  0.77816645507E+02 0.  0.
        254    2    1    2    0    0  0.28643111548E+03 -0.73090257480E+02 -0.24387359000E+04  0.26162277578E+04  0.89990550682E+03 0.  0.
         23    2    4    4    0    0  0.50011318919E+03 -0.19261898961E+03 -0.86992256382E+03  0.10257922804E+04  0.90935462081E+02 0.  0.
         23    2    4    4    0    0 -0.21368207371E+03  0.11952873213E+03 -0.15688133362E+04  0.15904354774E+04  0.91447130832E+02 0.  0.
          1    1    3    3  502    0 -0.47167727712E+02  0.28104520126E+02 -0.58583850794E+02  0.80291507415E+02  0.00000000000E+00 0. -1.
         -2    1    3    3    0  502 -0.23926338777E+03  0.44985737354E+02 -0.89684259313E+02  0.25944932388E+03  0.00000000000E+00 0.  1.
         13    1    5    5    0    0  0.28698466144E+02  0.27719471739E+01 -0.83255513718E+02  0.88106561700E+02  0.00000000000E+00 0.  1.
        -13    1    5    5    0    0  0.47141472305E+03 -0.19539093679E+03 -0.78666705010E+03  0.93768571867E+03  0.00000000000E+00 0. -1.
          1    1    6    6  503    0  0.85745192280E+01  0.11172990713E+02 -0.88389235741E+02  0.89504274179E+02  0.00000000000E+00 0.  1.
         -1    1    6    6    0  503 -0.22225659294E+03  0.10835574142E+03 -0.14804241004E+04  0.15009312033E+04  0.00000000000E+00 0. -1.
<mgrwt>
<rscale>  0 0.14300911E+04</rscale>
<asrwt>0</asrwt>
<pdfrwt beam="1">  1        1 0.42638251E+00 0.14300911E+04</pdfrwt>
<pdfrwt beam="2">  1       -2 0.28381891E-01 0.14300911E+04</pdfrwt>
<totfact> 0.85250091E+00</totfact>
</mgrwt>
</event>
<event>
12    5  0.5221187E-008  0.3325516E+04  0.7818608E-02  0.8156433E-01
          1   -1    0    0  501    0  0.00000000000E+00  0.00000000000E+00  0.11419003671E+04  0.11419003671E+04  0.00000000000E+00 0. -1.
         -2   -1    0    0    0  501 -0.00000000000E+00 -0.00000000000E+00 -0.24211950375E+04  0.24211950375E+04  0.00000000000E+00 0.  1.
        -24    2    1    2    0    0 -0.24982737766E+03 -0.84689842248E+03 -0.19431609638E+04  0.21358847039E+04  0.80487766445E+02 0.  0.
        254    2    1    2    0    0  0.24982737766E+03  0.84689842248E+03  0.66386629343E+03  0.14272107007E+04  0.90363779910E+03 0.  0.
         23    2    4    4    0    0 -0.24463766029E+03  0.11990677861E+03  0.42235131566E+03  0.51093283476E+03  0.91904882390E+02 0.  0.
         23    2    4    4    0    0  0.49446503796E+03  0.72699164387E+03  0.24151497778E+03  0.91627786592E+03  0.90681415306E+02 0.  0.
          3    1    3    3  502    0 -0.24929388646E+02 -0.28400607727E+02 -0.80250624773E+02  0.88703053577E+02  0.00000000000E+00 0. -1.
         -4    1    3    3    0  502 -0.22489798902E+03 -0.81849781475E+03 -0.18629103390E+04  0.20471816503E+04  0.00000000000E+00 0.  1.
         13    1    5    5    0    0 -0.19922507540E+03  0.12811441856E+03  0.38279738434E+03  0.45015305438E+03  0.00000000000E+00 0. -1.
        -13    1    5    5    0    0 -0.45412584891E+02 -0.82076399501E+01  0.39553931319E+02  0.60779780378E+02  0.00000000000E+00 0.  1.
          1    1    6    6  503    0  0.48312333041E+03  0.69506538264E+03  0.24739804021E+03  0.88188991877E+03  0.00000000000E+00 0. -1.
         -1    1    6    6    0  503  0.11341707543E+02  0.31926261223E+02 -0.58830624301E+01  0.34387947151E+02  0.00000000000E+00 0.  1.
<mgrwt>
<rscale>  0 0.33255156E+04</rscale>
<asrwt>0</asrwt>
<pdfrwt beam="1">  1        1 0.17567698E+00 0.33255156E+04</pdfrwt>
<pdfrwt beam="2">  1       -2 0.37249154E+00 0.33255156E+04</pdfrwt>
<totfact> 0.95850054E-02</totfact>
</mgrwt>
</event>
<event>
12    5  0.5221187E-008  0.1089957E+04  0.7818608E-02  0.9215036E-01
          1   -1    0    0  501    0  0.00000000000E+00  0.00000000000E+00  0.22838197964E+03  0.22838197964E+03  0.00000000000E+00 0. -1.
         -2   -1    0    0    0  501 -0.00000000000E+00 -0.00000000000E+00 -0.13004597955E+04  0.13004597955E+04  0.00000000000E+00 0.  1.
        -24    2    1    2    0    0  0.14014486959E+03 -0.68600554431E+02 -0.22547785524E+03  0.28537500201E+03  0.79069640348E+02 0.  0.
        254    2    1    2    0    0 -0.14014486959E+03  0.68600554431E+02 -0.84659996061E+03  0.12434667731E+04  0.89729120246E+03 0.  0.
         23    2    4    4    0    0 -0.23089367903E+03  0.10297942817E+03 -0.10024858567E+04  0.10381977137E+04  0.94656992755E+02 0.  0.
         23    2    4    4    0    0  0.90748809443E+02 -0.34378873740E+02  0.15588589607E+03  0.20526905940E+03  0.91748137748E+02 0.  0.
          1    1    3    3  502    0  0.11449255678E+03 -0.30604829701E+02 -0.11231476246E+03  0.16327831156E+03  0.00000000000E+00 0. -1.
         -2    1    3    3    0  502  0.25652312812E+02 -0.37995724730E+02 -0.11316309278E+03  0.12209669045E+03  0.00000000000E+00 0.  1.
         13    1    5    5    0    0 -0.51492691147E+02  0.71032775976E+02 -0.32599796408E+03  0.33759713430E+03  0.00000000000E+00 0. -1.
        -13    1    5    5    0    0 -0.17940098789E+03  0.31946652195E+02 -0.67648789260E+03  0.70060057941E+03  0.00000000000E+00 0.  1.
          1    1    6    6  503    0  0.11770731326E+02  0.28844406787E+02  0.25635111173E+02  0.40344873822E+02  0.00000000000E+00 0. -1.
         -1    1    6    6    0  503  0.78978078116E+02 -0.63223280527E+02  0.13025078490E+03  0.16492418558E+03  0.00000000000E+00 0.  1.
<mgrwt>
<rscale>  0 0.10899570E+04</rscale>
<asrwt>0</asrwt>
<pdfrwt beam="1">  1        1 0.35135689E-01 0.10899570E+04</pdfrwt>
<pdfrwt beam="2">  1       -2 0.20007074E+00 0.10899570E+04</pdfrwt>
<totfact> 0.14449746E+01</totfact>
</mgrwt>
</event>
<event>
12    5  0.6052995E-008  0.2152469E+04  0.7818608E-02  0.8538476E-01
          1   -1    0    0  501    0  0.00000000000E+00  0.00000000000E+00  0.11370997185E+04  0.11370997185E+04  0.00000000000E+00 0. -1.
         -2   -1    0    0    0  501 -0.00000000000E+00 -0.00000000000E+00 -0.10186273265E+04  0.10186273265E+04  0.00000000000E+00 0.  1.
        -24    2    1    2    0    0  0.65208765348E+03  0.58028713704E+03 -0.61041601664E+02  0.87858090590E+03  0.78910467191E+02 0.  0.
        254    2    1    2    0    0 -0.65208765348E+03 -0.58028713704E+03  0.17951399366E+03  0.12771461391E+04  0.91483633368E+03 0.  0.
         23    2    4    4    0    0 -0.58016061964E+03 -0.24418784521E+02 -0.16888834810E+03  0.61154558530E+03  0.91006083085E+02 0.  0.
         23    2    4    4    0    0 -0.71927033847E+02 -0.55586835252E+03  0.34840234176E+03  0.66560055379E+03  0.86468386859E+02 0.  0.
          1    1    3    3  502    0  0.37822406682E+02  0.22750666246E+02  0.12205469473E+02  0.45794112579E+02  0.00000000000E+00 0. -1.
         -2    1    3    3    0  502  0.61426524680E+03  0.55753647080E+03 -0.73247071137E+02  0.83278679332E+03  0.00000000000E+00 0.  1.
         13    1    5    5    0    0 -0.58365750206E+03 -0.23426213287E+02 -0.16785420789E+03  0.60776632210E+03  0.00000000000E+00 0. -1.
        -13    1    5    5    0    0  0.34968824205E+01 -0.99257123444E+00 -0.10341402155E+01  0.37792631959E+01  0.00000000000E+00 0.  1.
          3    1    6    6  503    0 -0.21507726215E+02 -0.43334344682E+03  0.28126839319E+03  0.51706966088E+03  0.00000000000E+00 0. -1.
         -3    1    6    6    0  503 -0.50419307632E+02 -0.12252490570E+03  0.67133948573E+02  0.14853089291E+03  0.00000000000E+00 0.  1.
<mgrwt>
<rscale>  0 0.21524691E+04</rscale>
<asrwt>0</asrwt>
<pdfrwt beam="1">  1        1 0.17493842E+00 0.21524691E+04</pdfrwt>
<pdfrwt beam="2">  1       -2 0.15671190E+00 0.21524691E+04</pdfrwt>
<totfact> 0.25448622E+00</totfact>
</mgrwt>
</event>
<event>
12    5  0.5221187E-008  0.1610563E+04  0.7818608E-02  0.8814085E-01
          1   -1    0    0  501    0  0.00000000000E+00  0.00000000000E+00  0.13309509349E+04  0.13309509349E+04  0.00000000000E+00 0. -1.
         -2   -1    0    0    0  501 -0.00000000000E+00 -0.00000000000E+00 -0.48722955982E+03  0.48722955982E+03  0.00000000000E+00 0.  1.
        -24    2    1    2    0    0  0.42439415569E+02  0.46883254361E+02  0.90855274838E+03  0.91418117105E+03  0.79119993587E+02 0.  0.
        254    2    1    2    0    0 -0.42439415569E+02 -0.46883254361E+02 -0.64831373320E+02  0.90399932364E+03  0.89945123639E+03 0.  0.
         23    2    4    4    0    0  0.29950896677E+03  0.14742129570E+03 -0.28211874327E+03  0.44547147653E+03  0.86111506174E+02 0.  0.
         23    2    4    4    0    0 -0.34194838234E+03 -0.19430455007E+03  0.21728736995E+03  0.45852784711E+03  0.91383976011E+02 0.  0.
          1    1    3    3  502    0  0.74131842663E+01  0.23716871981E+02  0.74199554744E+03  0.74241150162E+03  0.00000000000E+00 0. -1.
         -2    1    3    3    0  502  0.35026231303E+02  0.23166382381E+02  0.16655720094E+03  0.17176966943E+03  0.00000000000E+00 0.  1.
         13    1    5    5    0    0  0.87026899469E+02  0.60386990703E+02 -0.13953693993E+03  0.17518797756E+03  0.00000000000E+00 0.  1.
        -13    1    5    5    0    0  0.21248206730E+03  0.87034305002E+02 -0.14258180335E+03  0.27028349897E+03  0.00000000000E+00 0. -1.
          3    1    6    6  503    0 -0.17485092151E+03 -0.83893410500E+02  0.57392179047E+02  0.20224937897E+03  0.00000000000E+00 0. -1.
         -3    1    6    6    0  503 -0.16709746083E+03 -0.11041113957E+03  0.15989519091E+03  0.25627846814E+03  0.00000000000E+00 0.  1.
<mgrwt>
<rscale>  0 0.16105634E+04</rscale>
<asrwt>0</asrwt>
<pdfrwt beam="1">  1        1 0.20476168E+00 0.16105634E+04</pdfrwt>
<pdfrwt beam="2">  1       -2 0.74958394E-01 0.16105634E+04</pdfrwt>
<totfact> 0.11559987E+01</totfact>
</mgrwt>
</event>
<event>
12    5  0.5221187E-008  0.1502301E+04  0.7818608E-02  0.8882924E-01
          1   -1    0    0  501    0  0.00000000000E+00  0.00000000000E+00  0.12891870486E+04  0.12891870486E+04  0.00000000000E+00 0. -1.
         -2   -1    0    0    0  501 -0.00000000000E+00 -0.00000000000E+00 -0.43766093847E+03  0.43766093847E+03  0.00000000000E+00 0.  1.
        -24    2    1    2    0    0 -0.24171204385E+03 -0.38930835683E+03  0.44437411967E+03  0.64310228458E+03  0.78271842712E+02 0.  0.
        254    2    1    2    0    0  0.24171204385E+03  0.38930835683E+03  0.40715199047E+03  0.10837457025E+04  0.89372607407E+03 0.  0.
         23    2    4    4    0    0  0.29233920412E+03  0.56916861930E+03  0.22707963779E+02  0.64663361652E+03  0.90577342314E+02 0.  0.
         23    2    4    4    0    0 -0.50627160269E+02 -0.17986026246E+03  0.38444402669E+03  0.43711208596E+03  0.91416315107E+02 0.  0.
          3    1    3    3  502    0 -0.22284125835E+03 -0.35903119283E+03  0.43447547640E+03  0.60607801762E+03  0.00000000000E+00 0. -1.
         -4    1    3    3    0  502 -0.18870785506E+02 -0.30277164005E+02  0.98986432662E+01  0.37024266965E+02  0.00000000000E+00 0.  1.
         13    1    5    5    0    0  0.10040395119E+03  0.23268136449E+03  0.49957514727E+02  0.25829696876E+03  0.00000000000E+00 0.  1.
        -13    1    5    5    0    0  0.19193525293E+03  0.33648725481E+03 -0.27249550948E+02  0.38833664776E+03  0.00000000000E+00 0. -1.
          2    1    6    6  503    0 -0.49846673050E+02 -0.63054438593E+02  0.22882838620E+03  0.24253449934E+03  0.00000000000E+00 0. -1.
         -2    1    6    6    0  503 -0.78048721889E+00 -0.11680582387E+03  0.15561564049E+03  0.19457758662E+03  0.00000000000E+00 0.  1.
<mgrwt>
<rscale>  0 0.15023007E+04</rscale>
<asrwt>0</asrwt>
<pdfrwt beam="1">  1        1 0.19833647E+00 0.15023007E+04</pdfrwt>
<pdfrwt beam="2">  1       -2 0.67332453E-01 0.15023007E+04</pdfrwt>
<totfact> 0.15804628E+01</totfact>
</mgrwt>
</event>
<event>
12    5  0.5221187E-008  0.1417932E+04  0.7818608E-02  0.8940940E-01
         -2   -1    0    0    0  501 -0.00000000000E+00  0.00000000000E+00  0.21613570610E+03  0.21613570610E+03  0.00000000000E+00 0.  1.
          1   -1    0    0  501    0  0.00000000000E+00 -0.00000000000E+00 -0.23255413597E+04  0.23255413597E+04  0.00000000000E+00 0. -1.
        -24    2    1    2    0    0  0.19192842007E+03 -0.22157417829E+03 -0.98157304013E+02  0.31948974771E+03  0.80667265021E+02 0.  0.
        254    2    1    2    0    0 -0.19192842007E+03  0.22157417829E+03 -0.20112483496E+04  0.22221873181E+04  0.89836791908E+03 0.  0.
         23    2    4    4    0    0  0.32771127343E+03 -0.61062432507E+02 -0.70192142295E+03  0.78245349015E+03  0.91741380270E+02 0.  0.
         23    2    4    4    0    0 -0.51963969351E+03  0.28263661080E+03 -0.13093269266E+04  0.14397338279E+04  0.92669464501E+02 0.  0.
          3    1    3    3  502    0  0.25084475745E+02 -0.50904624116E+02  0.97079191739E+01  0.57573912273E+02  0.00000000000E+00 0. -1.
         -4    1    3    3    0  502  0.16684394433E+03 -0.17066955418E+03 -0.10786522319E+03  0.26191583544E+03  0.00000000000E+00 0.  1.
         13    1    5    5    0    0  0.16321280828E+03 -0.47827047689E+01 -0.25380264269E+03  0.30178978858E+03  0.00000000000E+00 0.  1.
        -13    1    5    5    0    0  0.16449846516E+03 -0.56279727738E+02 -0.44811878025E+03  0.48066370157E+03  0.00000000000E+00 0. -1.
          3    1    6    6  503    0 -0.26815035119E+03  0.14433842487E+03 -0.56226896646E+03  0.63944083572E+03  0.00000000000E+00 0. -1.
         -3    1    6    6    0  503 -0.25148934231E+03  0.13829818593E+03 -0.74705796017E+03  0.80029299221E+03  0.00000000000E+00 0.  1.
<mgrwt>
<rscale>  0 0.14179316E+04</rscale>
<asrwt>0</asrwt>
<pdfrwt beam="1">  1        1 0.35777559E+00 0.14179316E+04</pdfrwt>
<pdfrwt beam="2">  1       -2 0.33251648E-01 0.14179316E+04</pdfrwt>
<totfact> 0.12939015E+01</totfact>
</mgrwt>
</event>
<event>
12    5  0.5221187E-008  0.1807786E+04  0.7818608E-02  0.8702170E-01
          1   -1    0    0  501    0  0.00000000000E+00  0.00000000000E+00  0.55793722056E+03  0.55793722056E+03  0.00000000000E+00 0. -1.
         -2   -1    0    0    0  501 -0.00000000000E+00 -0.00000000000E+00 -0.14643635221E+04  0.14643635221E+04  0.00000000000E+00 0.  1.
        -24    2    1    2    0    0 -0.60944702608E+03  0.73878970820E+02 -0.19917418659E+02  0.61957012570E+03  0.81158222998E+02 0.  0.
        254    2    1    2    0    0  0.60944702608E+03 -0.73878970820E+02 -0.88650888291E+03  0.14027306170E+04  0.89714625586E+03 0.  0.
         23    2    4    4    0    0  0.54867428021E+03  0.29399600800E+03 -0.78519640174E+03  0.10058781215E+04  0.88205938015E+02 0.  0.
         23    2    4    4    0    0  0.60772745871E+02 -0.36787497882E+03 -0.10131248117E+03  0.39685249549E+03  0.90566868417E+02 0.  0.
          1    1    3    3  502    0 -0.33549145535E+03  0.67706123198E+02 -0.41168005218E+02  0.34472226558E+03  0.00000000000E+00 0. -1.
         -2    1    3    3    0  502 -0.27395557073E+03  0.61728476219E+01  0.21250586560E+02  0.27484786012E+03  0.00000000000E+00 0.  1.
         13    1    5    5    0    0  0.82792809675E+02  0.69143831910E+02 -0.98007543160E+02  0.14574291524E+03  0.00000000000E+00 0. -1.
        -13    1    5    5    0    0  0.46588147054E+03  0.22485217609E+03 -0.68718885858E+03  0.86013520626E+03  0.00000000000E+00 0.  1.
          2    1    6    6  503    0  0.54432846705E+01 -0.80526407753E+01 -0.22298854841E+02  0.24325157732E+02  0.00000000000E+00 0. -1.
         -2    1    6    6    0  503  0.55329461201E+02 -0.35982233804E+03 -0.79013626326E+02  0.37252733776E+03  0.00000000000E+00 0.  1.
<mgrwt>
<rscale>  0 0.18077864E+04</rscale>
<asrwt>0</asrwt>
<pdfrwt beam="1">  1        1 0.85836497E-01 0.18077864E+04</pdfrwt>
<pdfrwt beam="2">  1       -2 0.22528669E+00 0.18077864E+04</pdfrwt>
<totfact> 0.28697315E+00</totfact>
</mgrwt>
</event>
<event>
12    5  0.5221187E-008  0.1581085E+04  0.7818608E-02  0.8832253E-01
         -2   -1    0    0    0  501 -0.00000000000E+00  0.00000000000E+00  0.54229732350E+03  0.54229732350E+03  0.00000000000E+00 0.  1.
          1   -1    0    0  501    0  0.00000000000E+00 -0.00000000000E+00 -0.11524259083E+04  0.11524259083E+04  0.00000000000E+00 0. -1.
        -24    2    1    2    0    0 -0.36216718450E+03 -0.22849219634E+03  0.12238919396E+03  0.45264945965E+03  0.80862013341E+02 0.  0.
        254    2    1    2    0    0  0.36216718450E+03  0.22849219634E+03 -0.73251777871E+03  0.12420737721E+04  0.90707839017E+03 0.  0.
         23    2    4    4    0    0  0.18087906906E+03 -0.28767086562E+03 -0.39130004415E+02  0.35403454878E+03  0.91310130502E+02 0.  0.
         23    2    4    4    0    0  0.18128811543E+03  0.51616306197E+03 -0.69338777430E+03  0.88803922332E+03  0.92397885701E+02 0.  0.
          3    1    3    3  502    0 -0.68549315826E+02 -0.38141269500E+02 -0.88136940492E+01  0.78939510653E+02  0.00000000000E+00 0. -1.
         -4    1    3    3    0  502 -0.29361786867E+03 -0.19035092684E+03  0.13120288801E+03  0.37370994899E+03  0.00000000000E+00 0.  1.
         13    1    5    5    0    0  0.15746590533E+03 -0.28785199188E+03 -0.40407189730E+02  0.33058587622E+03  0.00000000000E+00 0. -1.
        -13    1    5    5    0    0  0.23413163728E+02  0.18112626304E+00  0.12771853146E+01  0.23448672560E+02  0.00000000000E+00 0.  1.
          4    1    6    6  503    0  0.18950941089E+03  0.46040668738E+03 -0.63458168252E+03  0.80658666391E+03  0.00000000000E+00 0. -1.
         -4    1    6    6    0  503 -0.82212954521E+01  0.55756374587E+02 -0.58806091774E+02  0.81452559418E+02  0.00000000000E+00 0.  1.
<mgrwt>
<rscale>  0 0.15810851E+04</rscale>
<asrwt>0</asrwt>
<pdfrwt beam="1">  1        1 0.17729629E+00 0.15810851E+04</pdfrwt>
<pdfrwt beam="2">  1       -2 0.83430359E-01 0.15810851E+04</pdfrwt>
<totfact> 0.12273434E+01</totfact>
</mgrwt>
</event>
<event>
12    5  0.5221187E-008  0.3383467E+04  0.7818608E-02  0.8141976E-01
         -2   -1    0    0    0  501 -0.00000000000E+00  0.00000000000E+00  0.98662946961E+03  0.98662946961E+03  0.00000000000E+00 0.  1.
          1   -1    0    0  501    0  0.00000000000E+00 -0.00000000000E+00 -0.29007475407E+04  0.29007475407E+04  0.00000000000E+00 0. -1.
        -24    2    1    2    0    0  0.14484478063E+04  0.42302405083E+03 -0.13909805412E+04  0.20537925397E+04  0.79287671350E+02 0.  0.
        254    2    1    2    0    0 -0.14484478063E+04 -0.42302405083E+03 -0.52313752989E+03  0.18335844706E+04  0.90078229359E+03 0.  0.
         23    2    4    4    0    0 -0.33820825064E+03 -0.34679179003E+03 -0.52075689154E+03  0.71710886836E+03  0.91695270103E+02 0.  0.
         23    2    4    4    0    0 -0.11102395557E+04 -0.76232260795E+02 -0.23806383477E+01  0.11164756023E+04  0.89826913402E+02 0.  0.
          3    1    3    3  502    0  0.15471543753E+03  0.41109663939E+02 -0.18186223342E+03  0.24228236218E+03  0.00000000000E+00 0. -1.
         -4    1    3    3    0  502  0.12937323688E+04  0.38191438689E+03 -0.12091183078E+04  0.18115101775E+04  0.00000000000E+00 0.  1.
         13    1    5    5    0    0 -0.20925053527E+02 -0.48518581135E+02 -0.91360087500E+02  0.10553945314E+03  0.00000000000E+00 0. -1.
        -13    1    5    5    0    0 -0.31728319712E+03 -0.29827320890E+03 -0.42939680404E+03  0.61156941523E+03  0.00000000000E+00 0.  1.
          3    1    6    6  503    0 -0.73381667880E+03 -0.89787580398E+02 -0.17640153463E+02  0.73949976517E+03  0.00000000000E+00 0. -1.
         -3    1    6    6    0  503 -0.37642287690E+03  0.13555319604E+02  0.15259515115E+02  0.37697583708E+03  0.00000000000E+00 0.  1.
<mgrwt>
<rscale>  0 0.33834675E+04</rscale>
<asrwt>0</asrwt>
<pdfrwt beam="1">  1        1 0.44626885E+00 0.33834675E+04</pdfrwt>
<pdfrwt beam="2">  1       -2 0.15178915E+00 0.33834675E+04</pdfrwt>
<totfact> 0.14848437E-01</totfact>
</mgrwt>
</event>
<event>
12    5  0.5221187E-008  0.1901696E+04  0.7818608E-02  0.8654012E-01
         -4   -1    0    0    0  501 -0.00000000000E+00  0.00000000000E+00  0.13459556494E+04  0.13459556494E+04  0.00000000000E+00 0.  1.
          3   -1    0    0  501    0  0.00000000000E+00 -0.00000000000E+00 -0.67172521260E+03  0.67172521260E+03  0.00000000000E+00 0. -1.
        -24    2    1    2    0    0 -0.60456740087E+03 -0.41398312318E+03  0.30481245810E+03  0.79751343850E+03  0.78951133533E+02 0.  0.
        254    2    1    2    0    0  0.60456740087E+03  0.41398312318E+03  0.36941797872E+03  0.12201674235E+04  0.90302554226E+03 0.  0.
         23    2    4    4    0    0  0.72624038348E+02 -0.22749248011E+03  0.27034349862E+03  0.37530942374E+03  0.10365556836E+03 0.  0.
         23    2    4    4    0    0  0.53194336253E+03  0.64147560329E+03  0.99074480103E+02  0.84485799980E+03  0.97542793977E+02 0.  0.
          3    1    3    3  502    0 -0.19249228483E+03 -0.14325538751E+03  0.61550360717E+02  0.24771724339E+03  0.00000000000E+00 0. -1.
         -4    1    3    3    0  502 -0.41207511605E+03 -0.27072773568E+03  0.24326209738E+03  0.54979619511E+03  0.00000000000E+00 0.  1.
         13    1    5    5    0    0  0.92231067035E+02 -0.21704509304E+03  0.23093471887E+03  0.33006966919E+03  0.00000000000E+00 0. -1.
        -13    1    5    5    0    0 -0.19607028687E+02 -0.10447387066E+02  0.39408779749E+02  0.45239754551E+02  0.00000000000E+00 0.  1.
          4    1    6    6  503    0  0.35499607997E+03  0.35608467030E+03  0.46247818266E+02  0.50493303508E+03  0.00000000000E+00 0. -1.
         -4    1    6    6    0  503  0.17694728255E+03  0.28539093300E+03  0.52826661837E+02  0.33992496472E+03  0.00000000000E+00 0.  1.
<mgrwt>
<rscale>  0 0.19016964E+04</rscale>
<asrwt>0</asrwt>
<pdfrwt beam="1">  1        3 0.10334234E+00 0.19016964E+04</pdfrwt>
<pdfrwt beam="2">  1       -4 0.20707010E+00 0.19016964E+04</pdfrwt>
<totfact> 0.20491764E-01</totfact>
</mgrwt>
</event>
<event>
12    5  0.5221187E-008  0.1475859E+04  0.7818608E-02  0.8900667E-01
         -2   -1    0    0    0  501 -0.00000000000E+00  0.00000000000E+00  0.11303848563E+04  0.11303848563E+04  0.00000000000E+00 0.  1.
          1   -1    0    0  501    0  0.00000000000E+00 -0.00000000000E+00 -0.48172961219E+03  0.48172961219E+03  0.00000000000E+00 0. -1.
        -24    2    1    2    0    0 -0.43259659710E+02 -0.38348664402E+03  0.44341067184E+03  0.59372061866E+03  0.83413097410E+02 0.  0.
        254    2    1    2    0    0  0.43259659710E+02  0.38348664402E+03  0.20524457225E+03  0.10183938498E+04  0.91981916407E+03 0.  0.
         23    2    4    4    0    0 -0.20555018813E+03  0.56520120359E+03 -0.44459861288E+02  0.61080047845E+03  0.96939490542E+02 0.  0.
         23    2    4    4    0    0  0.24880984784E+03 -0.18171455957E+03  0.24970443354E+03  0.40759337136E+03  0.94093202234E+02 0.  0.
          3    1    3    3  502    0 -0.22522861928E+02 -0.11234266549E+03  0.19079426634E+03  0.22255472556E+03  0.00000000000E+00 0. -1.
         -4    1    3    3    0  502 -0.20736797782E+02 -0.27114397853E+03  0.25261640549E+03  0.37116589310E+03  0.00000000000E+00 0.  1.
         13    1    5    5    0    0 -0.94445021521E+02  0.35806523028E+03 -0.60414014609E+02  0.37520717528E+03  0.00000000000E+00 0. -1.
        -13    1    5    5    0    0 -0.11110516661E+03  0.20713597332E+03  0.15954153321E+02  0.23559330317E+03  0.00000000000E+00 0.  1.
          3    1    6    6  503    0  0.15850970644E+03 -0.11151325906E+03  0.96778171741E+02  0.21662536441E+03  0.00000000000E+00 0.  1.
         -3    1    6    6    0  503  0.90300141404E+02 -0.70201300506E+02  0.15292626180E+03  0.19096800695E+03  0.00000000000E+00 0. -1.
<mgrwt>
<rscale>  0 0.14758589E+04</rscale>
<asrwt>0</asrwt>
<pdfrwt beam="1">  1        1 0.74112248E-01 0.14758589E+04</pdfrwt>
<pdfrwt beam="2">  1       -2 0.17390536E+00 0.14758589E+04</pdfrwt>
<totfact> 0.79005235E+00</totfact>
</mgrwt>
</event>
<event>
12    5  0.5221187E-008  0.2260795E+04  0.7818608E-02  0.8493541E-01
          1   -1    0    0  501    0  0.00000000000E+00  0.00000000000E+00  0.18526513725E+04  0.18526513725E+04  0.00000000000E+00 0. -1.
         -2   -1    0    0    0  501 -0.00000000000E+00 -0.00000000000E+00 -0.68971368624E+03  0.68971368624E+03  0.00000000000E+00 0.  1.
        -24    2    1    2    0    0  0.24442325905E+03 -0.44473773541E+03  0.13913848259E+04  0.14831370963E+04  0.78800568787E+02 0.  0.
        254    2    1    2    0    0 -0.24442325905E+03  0.44473773541E+03 -0.22844713970E+03  0.10592279624E+04  0.90124436082E+03 0.  0.
         23    2    4    4    0    0 -0.22988237480E+03  0.47578677651E+03 -0.52233418246E+03  0.74853880058E+03  0.90875601032E+02 0.  0.
         23    2    4    4    0    0 -0.14540884252E+02 -0.31049041098E+02  0.29388704276E+03  0.31068916186E+03  0.94777007398E+02 0.  0.
          1    1    3    3  502    0  0.22042730538E+03 -0.43079275830E+03  0.13405819305E+04  0.14252475259E+04  0.00000000000E+00 0. -1.
         -2    1    3    3    0  502  0.23995953667E+02 -0.13944977107E+02  0.50802895410E+02  0.57889570398E+02  0.00000000000E+00 0.  1.
         13    1    5    5    0    0 -0.10659673601E+03  0.13949329216E+03 -0.20607862939E+03  0.27072060169E+03  0.00000000000E+00 0. -1.
        -13    1    5    5    0    0 -0.12328563879E+03  0.33629348435E+03 -0.31625555306E+03  0.47781819889E+03  0.00000000000E+00 0.  1.
          3    1    6    6  503    0 -0.38510332667E+02  0.76461621959E+00  0.47745607354E+02  0.61345524545E+02  0.00000000000E+00 0. -1.
         -3    1    6    6    0  503  0.23969448415E+02 -0.31813657318E+02  0.24614143540E+03  0.24934363732E+03  0.00000000000E+00 0.  1.
<mgrwt>
<rscale>  0 0.22607954E+04</rscale>
<asrwt>0</asrwt>
<pdfrwt beam="1">  1        1 0.28502329E+00 0.22607954E+04</pdfrwt>
<pdfrwt beam="2">  1       -2 0.10610980E+00 0.22607954E+04</pdfrwt>
<totfact> 0.21421000E+00</totfact>
</mgrwt>
</event>
<event>
12    5  0.5221187E-008  0.1462632E+04  0.7818608E-02  0.8909690E-01
         -2   -1    0    0    0  501 -0.00000000000E+00  0.00000000000E+00  0.45918805471E+03  0.45918805471E+03  0.00000000000E+00 0.  1.
          1   -1    0    0  501    0  0.00000000000E+00 -0.00000000000E+00 -0.11647148953E+04  0.11647148953E+04  0.00000000000E+00 0. -1.
        -24    2    1    2    0    0  0.35616840408E+03 -0.26579235516E+03 -0.14915250917E+03  0.47555855050E+03  0.80049708522E+02 0.  0.
        254    2    1    2    0    0 -0.35616840408E+03  0.26579235516E+03 -0.55637433139E+03  0.11483443995E+04  0.90091118047E+03 0.  0.
         23    2    4    4    0    0 -0.15064094691E+03 -0.24976574564E+03 -0.49662486028E+03  0.58254651362E+03  0.87456081015E+02 0.  0.
         23    2    4    4    0    0 -0.20552745717E+03  0.51555810080E+03 -0.59749471114E+02  0.56579788587E+03  0.92279777873E+02 0.  0.
          1    1    3    3  502    0  0.37513570502E+02 -0.52296208544E+02 -0.97358806105E+00  0.64366989005E+02  0.00000000000E+00 0. -1.
         -2    1    3    3    0  502  0.31865483358E+03 -0.21349614662E+03 -0.14817892111E+03  0.41119156149E+03  0.00000000000E+00 0.  1.
         13    1    5    5    0    0 -0.12842689368E+03 -0.14462945325E+03 -0.27456215279E+03  0.33585044516E+03  0.00000000000E+00 0. -1.
        -13    1    5    5    0    0 -0.22214053225E+02 -0.10513629239E+03 -0.22206270749E+03  0.24669606847E+03  0.00000000000E+00 0.  1.
          1    1    6    6  503    0 -0.13841357834E+03  0.43637384484E+03 -0.35307391222E+02  0.45915908245E+03  0.00000000000E+00 0. -1.
         -1    1    6    6    0  503 -0.67113878831E+02  0.79184255966E+02 -0.24442079892E+02  0.10663880342E+03  0.00000000000E+00 0.  1.
<mgrwt>
<rscale>  0 0.14626321E+04</rscale>
<asrwt>0</asrwt>
<pdfrwt beam="1">  1        1 0.17918691E+00 0.14626321E+04</pdfrwt>
<pdfrwt beam="2">  1       -2 0.70644317E-01 0.14626321E+04</pdfrwt>
<totfact> 0.17587546E+01</totfact>
</mgrwt>
</event>
<event>
12    5  0.5221187E-008  0.1900140E+04  0.7818608E-02  0.8654787E-01
          1   -1    0    0  501    0  0.00000000000E+00  0.00000000000E+00  0.15672045367E+04  0.15672045367E+04  0.00000000000E+00 0. -1.
         -2   -1    0    0    0  501 -0.00000000000E+00 -0.00000000000E+00 -0.57595092648E+03  0.57595092648E+03  0.00000000000E+00 0.  1.
        -24    2    1    2    0    0  0.44611432374E+03 -0.95726741777E+02  0.10302425010E+04  0.11297674456E+04  0.82421304211E+02 0.  0.
        254    2    1    2    0    0 -0.44611432374E+03  0.95726741777E+02 -0.38988890796E+02  0.10133880175E+04  0.90402076390E+03 0.  0.
         23    2    4    4    0    0 -0.22664127167E+03  0.63981654043E+02 -0.46274583151E+03  0.52713844190E+03  0.91001726738E+02 0.  0.
         23    2    4    4    0    0 -0.21947305207E+03  0.31745087733E+02  0.42375694072E+03  0.48624957564E+03  0.87707091082E+02 0.  0.
          1    1    3    3  502    0  0.17751978306E+03 -0.66818943670E+02  0.35510951562E+03  0.40259261381E+03  0.00000000000E+00 0. -1.
         -2    1    3    3    0  502  0.26859454068E+03 -0.28907798106E+02  0.67513298539E+03  0.72717483183E+03  0.00000000000E+00 0.  1.
         13    1    5    5    0    0 -0.54497106268E+02 -0.21715883573E+02 -0.85219580793E+02  0.10345961116E+03  0.00000000000E+00 0.  1.
        -13    1    5    5    0    0 -0.17214416540E+03  0.85697537616E+02 -0.37752625072E+03  0.42367883074E+03  0.00000000000E+00 0. -1.
          3    1    6    6  503    0 -0.65853258853E+02 -0.25057209910E+02  0.17236927780E+03  0.18621407949E+03  0.00000000000E+00 0. -1.
         -3    1    6    6    0  503 -0.15361979322E+03  0.56802297643E+02  0.25138766291E+03  0.30003549615E+03  0.00000000000E+00 0.  1.
<mgrwt>
<rscale>  0 0.19001399E+04</rscale>
<asrwt>0</asrwt>
<pdfrwt beam="1">  1        1 0.24110839E+00 0.19001399E+04</pdfrwt>
<pdfrwt beam="2">  1       -2 0.88607835E-01 0.19001399E+04</pdfrwt>
<totfact> 0.52877369E+00</totfact>
</mgrwt>
</event>
<event>
12    5  0.5221187E-008  0.2028443E+04  0.7818608E-02  0.8593437E-01
          1   -1    0    0  501    0  0.00000000000E+00  0.00000000000E+00  0.99924977444E+03  0.99924977444E+03  0.00000000000E+00 0. -1.
         -2   -1    0    0    0  501 -0.00000000000E+00 -0.00000000000E+00 -0.10294176677E+04  0.10294176677E+04  0.00000000000E+00 0.  1.
        -24    2    1    2    0    0 -0.21401228047E+03 -0.74600300089E+03  0.23256503338E+03  0.81436185695E+03  0.82322571454E+02 0.  0.
        254    2    1    2    0    0  0.21401228047E+03  0.74600300089E+03 -0.26273292668E+03  0.12143055852E+04  0.89620741462E+03 0.  0.
         23    2    4    4    0    0 -0.31274820121E+02  0.52459659832E+03 -0.54982582933E+03  0.76648402930E+03  0.94919014070E+02 0.  0.
         23    2    4    4    0    0  0.24528710059E+03  0.22140640257E+03  0.28709290265E+03  0.44782155593E+03  0.94526474523E+02 0.  0.
          3    1    3    3  502    0 -0.16440302622E+03 -0.43013486315E+03  0.14686053870E+03  0.48333463911E+03  0.00000000000E+00 0. -1.
         -4    1    3    3    0  502 -0.49609254249E+02 -0.31586813774E+03  0.85704494674E+02  0.33102721784E+03  0.00000000000E+00 0.  1.
         13    1    5    5    0    0 -0.13471335756E+02  0.45710566393E+03 -0.42947038254E+03  0.62735306994E+03  0.00000000000E+00 0.  1.
        -13    1    5    5    0    0 -0.17803484365E+02  0.67490934387E+02 -0.12035544679E+03  0.13913095936E+03  0.00000000000E+00 0. -1.
          3    1    6    6  503    0  0.62830270163E+01  0.47962076075E+02  0.41616843933E+02  0.63810648553E+02  0.00000000000E+00 0. -1.
         -3    1    6    6    0  503  0.23900407358E+03  0.17344432650E+03  0.24547605872E+03  0.38401090738E+03  0.00000000000E+00 0.  1.
<mgrwt>
<rscale>  0 0.20284431E+04</rscale>
<asrwt>0</asrwt>
<pdfrwt beam="1">  1        1 0.15373073E+00 0.20284431E+04</pdfrwt>
<pdfrwt beam="2">  1       -2 0.15837195E+00 0.20284431E+04</pdfrwt>
<totfact> 0.31831661E+00</totfact>
</mgrwt>
</event>
<event>
12    5  0.5221187E-008  0.2015186E+04  0.7818608E-02  0.8599554E-01
          1   -1    0    0  501    0  0.00000000000E+00  0.00000000000E+00  0.16797365478E+04  0.16797365478E+04  0.00000000000E+00 0. -1.
         -2   -1    0    0    0  501 -0.00000000000E+00 -0.00000000000E+00 -0.60440636464E+03  0.60440636464E+03  0.00000000000E+00 0.  1.
        -24    2    1    2    0    0 -0.59393785013E+03  0.54974735505E+02 -0.18423773127E+03  0.62933169056E+03  0.79564085885E+02 0.  0.
        254    2    1    2    0    0  0.59393785013E+03 -0.54974735505E+02  0.12595679145E+04  0.16548112219E+04  0.89224685913E+03 0.  0.
         23    2    4    4    0    0  0.42423605986E+03  0.29496752423E+02  0.62123775739E+02  0.43896883716E+03  0.89375520152E+02 0.  0.
         23    2    4    4    0    0  0.16970179027E+03 -0.84471487927E+02  0.11974441387E+04  0.12158423847E+04  0.92011462683E+02 0.  0.
          3    1    3    3  502    0 -0.22184158803E+03  0.21998884298E+02 -0.10951440995E+03  0.24837682475E+03  0.00000000000E+00 0. -1.
         -4    1    3    3    0  502 -0.37209626210E+03  0.32975851207E+02 -0.74723321321E+02  0.38095486581E+03  0.00000000000E+00 0.  1.
         13    1    5    5    0    0  0.33450477416E+03  0.74215080675E+01  0.81910142924E+02  0.34446740663E+03  0.00000000000E+00 0.  1.
        -13    1    5    5    0    0  0.89731285699E+02  0.22075244355E+02 -0.19786367186E+02  0.94501430533E+02  0.00000000000E+00 0. -1.
          2    1    6    6  503    0  0.10645708568E+03 -0.85589700029E+02  0.61575618882E+03  0.63072529037E+03  0.00000000000E+00 0. -1.
         -2    1    6    6    0  503  0.63244704594E+02  0.11182121013E+01  0.58168794990E+03  0.58511709437E+03  0.00000000000E+00 0.  1.
<mgrwt>
<rscale>  0 0.20151858E+04</rscale>
<asrwt>0</asrwt>
<pdfrwt beam="1">  1        1 0.25842101E+00 0.20151858E+04</pdfrwt>
<pdfrwt beam="2">  1       -2 0.92985595E-01 0.20151858E+04</pdfrwt>
<totfact> 0.39211470E+00</totfact>
</mgrwt>
</event>
<event>
12    5  0.5221187E-008  0.1055713E+04  0.7818608E-02  0.9249465E-01
         -2   -1    0    0    0  501 -0.00000000000E+00  0.00000000000E+00  0.21742064961E+03  0.21742064961E+03  0.00000000000E+00 0.  1.
          1   -1    0    0  501    0  0.00000000000E+00 -0.00000000000E+00 -0.12815374210E+04  0.12815374210E+04  0.00000000000E+00 0. -1.
        -24    2    1    2    0    0  0.99486115683E+02 -0.25241787108E+02 -0.54152656372E+02  0.13728907482E+03  0.73356287000E+02 0.  0.
        254    2    1    2    0    0 -0.99486115683E+02  0.25241787108E+02 -0.10099641150E+04  0.13616689958E+04  0.90751325359E+03 0.  0.
         23    2    4    4    0    0 -0.17441266669E+03  0.24237730894E+02  0.11621361784E+03  0.22939616152E+03  0.90054139519E+02 0.  0.
         23    2    4    4    0    0  0.74926551011E+02  0.10040562143E+01 -0.11261777329E+04  0.11322728343E+04  0.90280059119E+02 0.  0.
          1    1    3    3  502    0  0.10140616481E+03 -0.16064483075E+02 -0.66095067003E+02  0.12210583835E+03  0.00000000000E+00 0. -1.
         -2    1    3    3    0  502 -0.19200491241E+01 -0.91773040336E+01  0.11942410631E+02  0.15183236468E+02  0.00000000000E+00 0.  1.
         13    1    5    5    0    0 -0.16367591229E+03  0.48913438973E+02  0.98770131843E+02  0.19732680437E+03  0.00000000000E+00 0. -1.
        -13    1    5    5    0    0 -0.10736754402E+02 -0.24675708079E+02  0.17443485998E+02  0.32069357150E+02  0.00000000000E+00 0.  1.
          1    1    6    6  503    0  0.90477018146E+02  0.11418590987E+02 -0.10447197454E+04  0.10486924342E+04  0.00000000000E+00 0. -1.
         -1    1    6    6    0  503 -0.15550467135E+02 -0.10414534773E+02 -0.81457987427E+02  0.83580400085E+02  0.00000000000E+00 0.  1.
<mgrwt>
<rscale>  0 0.10557134E+04</rscale>
<asrwt>0</asrwt>
<pdfrwt beam="1">  1        1 0.19715961E+00 0.10557134E+04</pdfrwt>
<pdfrwt beam="2">  1       -2 0.33449330E-01 0.10557134E+04</pdfrwt>
<totfact> 0.68244226E+01</totfact>
</mgrwt>
</event>
<event>
12    5  0.5221187E-008  0.1790590E+04  0.7818608E-02  0.8711320E-01
          1   -1    0    0  501    0  0.00000000000E+00  0.00000000000E+00  0.12655859842E+04  0.12655859842E+04  0.00000000000E+00 0. -1.
         -2   -1    0    0    0  501 -0.00000000000E+00 -0.00000000000E+00 -0.63334548814E+03  0.63334548814E+03  0.00000000000E+00 0.  1.
        -24    2    1    2    0    0 -0.65445817918E+03 -0.19287498583E+02  0.40419446400E+03  0.77363991040E+03  0.80361871241E+02 0.  0.
        254    2    1    2    0    0  0.65445817918E+03  0.19287498583E+02  0.22804603204E+03  0.11252915619E+04  0.88633435604E+03 0.  0.
         23    2    4    4    0    0  0.47648407740E+03 -0.31411616837E+03  0.39778676213E+03  0.70140483812E+03  0.89601314471E+02 0.  0.
         23    2    4    4    0    0  0.17797410178E+03  0.33340366696E+03 -0.16974073009E+03  0.42388672380E+03  0.89639573404E+02 0.  0.
          3    1    3    3  502    0 -0.65491072180E+03 -0.22047780240E+02  0.39758914999E+03  0.76646675749E+03  0.00000000000E+00 0. -1.
         -4    1    3    3    0  502  0.45254262352E+00  0.27602816569E+01  0.66053140027E+01  0.71731529138E+01  0.00000000000E+00 0.  1.
         13    1    5    5    0    0  0.38646499078E+03 -0.26200722679E+03  0.36403932498E+03  0.59205371895E+03  0.00000000000E+00 0. -1.
        -13    1    5    5    0    0  0.90019086618E+02 -0.52108941588E+02  0.33747437153E+02  0.10935111917E+03  0.00000000000E+00 0.  1.
          4    1    6    6  503    0 -0.79412573560E+01  0.22997842807E+02 -0.24730495435E+00  0.24331574176E+02  0.00000000000E+00 0.  1.
         -4    1    6    6    0  503  0.18591535913E+03  0.31040582415E+03 -0.16949342513E+03  0.39955514962E+03  0.00000000000E+00 0. -1.
<mgrwt>
<rscale>  0 0.17905900E+04</rscale>
<asrwt>0</asrwt>
<pdfrwt beam="1">  1        1 0.19470554E+00 0.17905900E+04</pdfrwt>
<pdfrwt beam="2">  1       -2 0.97437768E-01 0.17905900E+04</pdfrwt>
<totfact> 0.69667521E+00</totfact>
</mgrwt>
</event>
<event>
12    5  0.5221187E-008  0.1654068E+04  0.7818608E-02  0.8788003E-01
          1   -1    0    0  501    0  0.00000000000E+00  0.00000000000E+00  0.10764484147E+04  0.10764484147E+04  0.00000000000E+00 0. -1.
         -2   -1    0    0    0  501 -0.00000000000E+00 -0.00000000000E+00 -0.63540942073E+03  0.63540942073E+03  0.00000000000E+00 0.  1.
        -24    2    1    2    0    0 -0.22190955126E+03  0.52681453245E+03  0.67483429281E+02  0.58151465576E+03  0.82630993533E+02 0.  0.
        254    2    1    2    0    0  0.22190955126E+03 -0.52681453245E+03  0.37355556467E+03  0.11303431796E+04  0.90075220972E+03 0.  0.
         23    2    4    4    0    0 -0.11461673364E+03 -0.63828606029E+03  0.77389796146E+02  0.65939030312E+03  0.90886197598E+02 0.  0.
         23    2    4    4    0    0  0.33652628490E+03  0.11147152783E+03  0.29616576852E+03  0.47095287652E+03  0.91687553777E+02 0.  0.
          1    1    3    3  502    0 -0.60200995233E+02  0.80675733551E+02 -0.81202858939E+01  0.10098847882E+03  0.00000000000E+00 0. -1.
         -2    1    3    3    0  502 -0.16170855603E+03  0.44613879890E+03  0.75603715175E+02  0.48052617694E+03  0.00000000000E+00 0.  1.
         13    1    5    5    0    0  0.11163068193E+02 -0.15613543851E+03  0.20222198987E+02  0.15783480789E+03  0.00000000000E+00 0. -1.
        -13    1    5    5    0    0 -0.12577980183E+03 -0.48215062177E+03  0.57167597159E+02  0.50155549522E+03  0.00000000000E+00 0.  1.
          3    1    6    6  503    0  0.80005057998E+02  0.58782164245E+02  0.48418162822E+02  0.11045574059E+03  0.00000000000E+00 0. -1.
         -3    1    6    6    0  503  0.25652122690E+03  0.52689363586E+02  0.24774760570E+03  0.36049713593E+03  0.00000000000E+00 0.  1.
<mgrwt>
<rscale>  0 0.16540683E+04</rscale>
<asrwt>0</asrwt>
<pdfrwt beam="1">  1        1 0.16560745E+00 0.16540683E+04</pdfrwt>
<pdfrwt beam="2">  1       -2 0.97755296E-01 0.16540683E+04</pdfrwt>
<totfact> 0.96434670E+00</totfact>
</mgrwt>
</event>
<event>
12    5  0.5221187E-008  0.1890274E+04  0.7818608E-02  0.8659713E-01
         -2   -1    0    0    0  501 -0.00000000000E+00  0.00000000000E+00  0.84577998268E+03  0.84577998268E+03  0.00000000000E+00 0.  1.
          1   -1    0    0  501    0  0.00000000000E+00 -0.00000000000E+00 -0.10561662550E+04  0.10561662550E+04  0.00000000000E+00 0. -1.
        -24    2    1    2    0    0  0.17410364068E+03 -0.55279262566E+03 -0.52560375298E+03  0.78646164340E+03  0.79817584009E+02 0.  0.
        254    2    1    2    0    0 -0.17410364068E+03  0.55279262566E+03  0.31521748067E+03  0.11154845943E+04  0.89947320985E+03 0.  0.
         23    2    4    4    0    0 -0.32628191950E+03  0.72967258535E+03  0.31732155935E+03  0.86491675439E+03  0.92228234216E+02 0.  0.
         23    2    4    4    0    0  0.15217827881E+03 -0.17687995969E+03 -0.21040786820E+01  0.25056783988E+03  0.91296585673E+02 0.  0.
          1    1    3    3  502    0  0.16222150547E+03 -0.48567007056E+03 -0.42774101165E+03  0.66719832683E+03  0.00000000000E+00 0. -1.
         -2    1    3    3    0  502  0.11882135210E+02 -0.67122555106E+02 -0.97862741328E+02  0.11926331658E+03  0.00000000000E+00 0.  1.
         13    1    5    5    0    0 -0.14559848666E+03  0.30014156914E+03  0.18031766055E+03  0.37920751516E+03  0.00000000000E+00 0. -1.
        -13    1    5    5    0    0 -0.18068343283E+03  0.42953101621E+03  0.13700389880E+03  0.48570923923E+03  0.00000000000E+00 0.  1.
          1    1    6    6  503    0  0.54663977513E+02 -0.30719117799E+02 -0.34999367455E+02  0.71810656300E+02  0.00000000000E+00 0. -1.
         -1    1    6    6    0  503  0.97514301301E+02 -0.14616084189E+03  0.32895288773E+02  0.17875718358E+03  0.00000000000E+00 0.  1.
<mgrwt>
<rscale>  0 0.18902743E+04</rscale>
<asrwt>0</asrwt>
<pdfrwt beam="1">  1        1 0.16248712E+00 0.18902743E+04</pdfrwt>
<pdfrwt beam="2">  1       -2 0.13012000E+00 0.18902743E+04</pdfrwt>
<totfact> 0.48697201E+00</totfact>
</mgrwt>
</event>
<event>
12    5  0.5221187E-008  0.1112101E+04  0.7818608E-02  0.9193477E-01
         -2   -1    0    0    0  501 -0.00000000000E+00  0.00000000000E+00  0.68153776196E+03  0.68153776196E+03  0.00000000000E+00 0.  1.
          1   -1    0    0  501    0  0.00000000000E+00 -0.00000000000E+00 -0.45366861324E+03  0.45366861324E+03  0.00000000000E+00 0. -1.
        -24    2    1    2    0    0 -0.79781117901E+02  0.15881267640E+03 -0.34996295391E+02  0.19824413979E+03  0.80557465908E+02 0.  0.
        254    2    1    2    0    0  0.79781117901E+02 -0.15881267640E+03  0.26286544411E+03  0.93696223541E+03  0.88159712790E+03 0.  0.
         23    2    4    4    0    0 -0.15226231535E+03  0.20954034362E+03 -0.16451364728E+03  0.32052676054E+03  0.92637442746E+02 0.  0.
         23    2    4    4    0    0  0.23204343325E+03 -0.36835302002E+03  0.42737909140E+03  0.61643547487E+03  0.88383848276E+02 0.  0.
          3    1    3    3  502    0 -0.92458157300E+02  0.14682812375E+03 -0.18957132555E+02  0.17454621637E+03  0.00000000000E+00 0. -1.
         -4    1    3    3    0  502  0.12677039399E+02  0.11984552650E+02 -0.16039162835E+02  0.23697923423E+02  0.00000000000E+00 0.  1.
         13    1    5    5    0    0 -0.63823177376E+02  0.10012895048E+03 -0.22934447056E+02  0.12093466648E+03  0.00000000000E+00 0.  1.
        -13    1    5    5    0    0 -0.88439137976E+02  0.10941139315E+03 -0.14157920023E+03  0.19959209407E+03  0.00000000000E+00 0. -1.
          2    1    6    6  503    0  0.20562658213E+03 -0.25424741639E+03  0.30847928124E+03  0.44953699178E+03  0.00000000000E+00 0. -1.
         -2    1    6    6    0  503  0.26416851124E+02 -0.11410560363E+03  0.11889981016E+03  0.16689848309E+03  0.00000000000E+00 0.  1.
<mgrwt>
<rscale>  0 0.11121012E+04</rscale>
<asrwt>0</asrwt>
<pdfrwt beam="1">  1        1 0.69795171E-01 0.11121012E+04</pdfrwt>
<pdfrwt beam="2">  1       -2 0.10485196E+00 0.11121012E+04</pdfrwt>
<totfact> 0.32512299E+01</totfact>
</mgrwt>
</event>
<event>
12    5  0.5221187E-008  0.1903110E+04  0.7818608E-02  0.8653310E-01
         -2   -1    0    0    0  501 -0.00000000000E+00  0.00000000000E+00  0.17866110735E+04  0.17866110735E+04  0.00000000000E+00 0.  1.
          1   -1    0    0  501    0  0.00000000000E+00 -0.00000000000E+00 -0.50680161390E+03  0.50680161390E+03  0.00000000000E+00 0. -1.
        -24    2    1    2    0    0  0.24459854155E+02  0.20417019981E+03  0.13466887807E+04  0.13646262341E+04  0.79688967631E+02 0.  0.
        254    2    1    2    0    0 -0.24459854155E+02 -0.20417019981E+03 -0.66879321103E+02  0.92878645337E+03  0.90326500951E+03 0.  0.
         23    2    4    4    0    0 -0.17122280974E+03  0.13448821216E+03  0.31167155132E+03  0.39097678536E+03  0.91210531190E+02 0.  0.
         23    2    4    4    0    0  0.14676295559E+03 -0.33865841197E+03 -0.37855087243E+03  0.53780966801E+03  0.98537256178E+02 0.  0.
          1    1    3    3  502    0 -0.32154918213E+01  0.14567723307E+02  0.24943645681E+02  0.29064469888E+02  0.00000000000E+00 0. -1.
         -2    1    3    3    0  502  0.27675345976E+02  0.18960247650E+03  0.13217451351E+04  0.13355617642E+04  0.00000000000E+00 0.  1.
         13    1    5    5    0    0  0.11319383116E+02  0.84721671916E+01  0.21573880626E+02  0.25794153918E+02  0.00000000000E+00 0. -1.
        -13    1    5    5    0    0 -0.18254219286E+03  0.12601604497E+03  0.29009767070E+03  0.36518263144E+03  0.00000000000E+00 0.  1.
          1    1    6    6  503    0 -0.60894033769E+01 -0.12605181541E+02  0.17052170704E+01  0.14102453702E+02  0.00000000000E+00 0. -1.
         -1    1    6    6    0  503  0.15285235896E+03 -0.32605323043E+03 -0.38025608950E+03  0.52370721430E+03  0.00000000000E+00 0.  1.
<mgrwt>
<rscale>  0 0.19031105E+04</rscale>
<asrwt>0</asrwt>
<pdfrwt beam="1">  1        1 0.77969480E-01 0.19031105E+04</pdfrwt>
<pdfrwt beam="2">  1       -2 0.27486324E+00 0.19031105E+04</pdfrwt>
<totfact> 0.16127799E+00</totfact>
</mgrwt>
</event>
<event>
12    5  0.5221187E-008  0.3188392E+04  0.7818608E-02  0.8191890E-01
          1   -1    0    0  501    0  0.00000000000E+00  0.00000000000E+00  0.18110895794E+04  0.18110895794E+04  0.00000000000E+00 0. -1.
         -2   -1    0    0    0  501 -0.00000000000E+00 -0.00000000000E+00 -0.14032768570E+04  0.14032768570E+04  0.00000000000E+00 0.  1.
        -24    2    1    2    0    0 -0.75361974248E+03 -0.10315684301E+04 -0.53860800386E+03  0.13888426065E+04  0.81908861085E+02 0.  0.
        254    2    1    2    0    0  0.75361974248E+03  0.10315684301E+04  0.94642072626E+03  0.18255238300E+04  0.89707799021E+03 0.  0.
         23    2    4    4    0    0  0.87475931524E+03  0.10829806934E+04  0.79712608039E+03  0.16065819487E+04  0.87432991151E+02 0.  0.
         23    2    4    4    0    0 -0.12113957276E+03 -0.51412263291E+02  0.14929464587E+03  0.21894188130E+03  0.91261378454E+02 0.  0.
          3    1    3    3  502    0 -0.55083179299E+03 -0.73744321953E+03 -0.34908926871E+03  0.98442952197E+03  0.00000000000E+00 0. -1.
         -4    1    3    3    0  502 -0.20278794949E+03 -0.29412521055E+03 -0.18951873514E+03  0.40441308450E+03  0.00000000000E+00 0.  1.
         13    1    5    5    0    0  0.56953041190E+02  0.60052631422E+02  0.71333097207E+02  0.10926288573E+03  0.00000000000E+00 0. -1.
        -13    1    5    5    0    0  0.81780627405E+03  0.10229280620E+04  0.72579298318E+03  0.14973190629E+04  0.00000000000E+00 0.  1.
          3    1    6    6  503    0 -0.27899574247E+02 -0.17571792131E+02 -0.71156010127E+01  0.33731082100E+02  0.00000000000E+00 0. -1.
         -3    1    6    6    0  503 -0.93239998513E+02 -0.33840471160E+02  0.15641024688E+03  0.18521079920E+03  0.00000000000E+00 0.  1.
<mgrwt>
<rscale>  0 0.31883915E+04</rscale>
<asrwt>0</asrwt>
<pdfrwt beam="1">  1        1 0.27862917E+00 0.31883915E+04</pdfrwt>
<pdfrwt beam="2">  1       -2 0.21588875E+00 0.31883915E+04</pdfrwt>
<totfact> 0.30936979E-01</totfact>
</mgrwt>
</event>
<event>
12    5  0.7084910E-008  0.2340143E+04  0.7818608E-02  0.8462260E-01
         -4   -1    0    0    0  501 -0.00000000000E+00  0.00000000000E+00  0.87869735909E+03  0.87869735909E+03  0.00000000000E+00 0.  1.
          1   -1    0    0  501    0  0.00000000000E+00 -0.00000000000E+00 -0.15580640548E+04  0.15580640548E+04  0.00000000000E+00 0. -1.
        -24    2    1    2    0    0 -0.22196855769E+03 -0.39421784195E+03  0.63270792892E+03  0.78189271972E+03  0.79744305817E+02 0.  0.
        254    2    1    2    0    0  0.22196855769E+03  0.39421784195E+03 -0.13120746247E+04  0.16548686942E+04  0.90131727311E+03 0.  0.
         23    2    4    4    0    0  0.29400689695E+03 -0.15599235325E+03 -0.88135965693E+03  0.94652694126E+03  0.91349526174E+02 0.  0.
         23    2    4    4    0    0 -0.72038339259E+02  0.55021019521E+03 -0.43071496772E+03  0.70834175292E+03  0.91169481100E+02 0.  0.
          1    1    3    3  502    0 -0.11377886389E+03 -0.17303020013E+03  0.22663808770E+03  0.30700147039E+03  0.00000000000E+00 0. -1.
         -2    1    3    3    0  502 -0.10818969381E+03 -0.22118764182E+03  0.40606984122E+03  0.47489124933E+03  0.00000000000E+00 0.  1.
         13    1    5    5    0    0 -0.53791410961E+01  0.21899694248E+01 -0.85344432968E+01  0.10323170414E+02  0.00000000000E+00 0. -1.
        -13    1    5    5    0    0  0.29938603805E+03 -0.15818232268E+03 -0.87282521364E+03  0.93620377085E+03  0.00000000000E+00 0.  1.
          4    1    6    6  503    0 -0.37178576678E+01  0.12142511492E+02 -0.34173210567E+02  0.36456431139E+02  0.00000000000E+00 0. -1.
         -4    1    6    6    0  503 -0.68320481591E+02  0.53806768371E+03 -0.39654175715E+03  0.67188532178E+03  0.00000000000E+00 0.  1.
<mgrwt>
<rscale>  0 0.23401425E+04</rscale>
<asrwt>0</asrwt>
<pdfrwt beam="1">  1        1 0.23970216E+00 0.23401425E+04</pdfrwt>
<pdfrwt beam="2">  1       -4 0.13518421E+00 0.23401425E+04</pdfrwt>
<totfact> 0.10270447E+00</totfact>
</mgrwt>
</event>
<event>
12    5  0.5221187E-008  0.1697103E+04  0.7818608E-02  0.8763018E-01
         -2   -1    0    0    0  501 -0.00000000000E+00  0.00000000000E+00  0.15262027636E+04  0.15262027636E+04  0.00000000000E+00 0.  1.
          1   -1    0    0  501    0  0.00000000000E+00 -0.00000000000E+00 -0.47178527487E+03  0.47178527487E+03  0.00000000000E+00 0. -1.
        -24    2    1    2    0    0  0.26698243661E+03  0.54116774826E+03  0.41861093668E+03  0.73880109303E+03  0.80310556805E+02 0.  0.
        254    2    1    2    0    0 -0.26698243661E+03 -0.54116774826E+03  0.63580655204E+03  0.12591869454E+04  0.90396882619E+03 0.  0.
         23    2    4    4    0    0 -0.38301977442E+03 -0.16291141486E+02 -0.33771059520E+02  0.39570002632E+03  0.92024330890E+02 0.  0.
         23    2    4    4    0    0  0.11603733781E+03 -0.52487660678E+03  0.66957761156E+03  0.86348691912E+03  0.91188625831E+02 0.  0.
          3    1    3    3  502    0  0.31650997282E+02  0.39477203627E+02  0.13499536853E+02  0.52368623530E+02  0.00000000000E+00 0. -1.
         -4    1    3    3    0  502  0.23533143933E+03  0.50169054463E+03  0.40511139982E+03  0.68643246950E+03  0.00000000000E+00 0.  1.
         13    1    5    5    0    0 -0.24284067612E+02 -0.21218288232E+01 -0.27337071692E+02  0.36626951634E+02  0.00000000000E+00 0. -1.
        -13    1    5    5    0    0 -0.35873570681E+03 -0.14169312663E+02 -0.64339878279E+01  0.35907307468E+03  0.00000000000E+00 0.  1.
          4    1    6    6  503    0  0.36428397657E+02 -0.59777754508E+02  0.12191956630E+03  0.14058729935E+03  0.00000000000E+00 0. -1.
         -4    1    6    6    0  503  0.79608940153E+02 -0.46509885227E+03  0.54765804526E+03  0.72289961977E+03  0.00000000000E+00 0.  1.
<mgrwt>
<rscale>  0 0.16971034E+04</rscale>
<asrwt>0</asrwt>
<pdfrwt beam="1">  1        1 0.72582351E-01 0.16971034E+04</pdfrwt>
<pdfrwt beam="2">  1       -2 0.23480042E+00 0.16971034E+04</pdfrwt>
<totfact> 0.31886420E+00</totfact>
</mgrwt>
</event>
<event>
12    5  0.5221187E-008  0.1157801E+04  0.7818608E-02  0.9150616E-01
         -2   -1    0    0    0  501 -0.00000000000E+00  0.00000000000E+00  0.96855689499E+03  0.96855689499E+03  0.00000000000E+00 0.  1.
          1   -1    0    0  501    0  0.00000000000E+00 -0.00000000000E+00 -0.34600556749E+03  0.34600556749E+03  0.00000000000E+00 0. -1.
        -24    2    1    2    0    0 -0.81238667507E+02  0.75584997042E+02  0.34008215666E+03  0.36559639215E+03  0.75445581723E+02 0.  0.
        254    2    1    2    0    0  0.81238667507E+02 -0.75584997042E+02  0.28246917084E+03  0.94896607033E+03  0.89913011143E+03 0.  0.
         23    2    4    4    0    0  0.10941721824E+03 -0.85366833571E+02  0.59746033601E+03  0.62004868368E+03  0.90784872675E+02 0.  0.
         23    2    4    4    0    0 -0.28178550738E+02  0.97818365292E+01 -0.31499116517E+03  0.32891738665E+03  0.89874902277E+02 0.  0.
          1    1    3    3  502    0 -0.84363908005E+02  0.41843977465E+02  0.19416973827E+03  0.21580100714E+03  0.00000000000E+00 0. -1.
         -2    1    3    3    0  502  0.31252404980E+01  0.33741019577E+02  0.14591241839E+03  0.14979538501E+03  0.00000000000E+00 0.  1.
         13    1    5    5    0    0  0.51417950060E+02 -0.98250481884E+01  0.93397777363E+02  0.10706765140E+03  0.00000000000E+00 0.  1.
        -13    1    5    5    0    0  0.57999268185E+02 -0.75541785382E+02  0.50406255864E+03  0.51298103228E+03  0.00000000000E+00 0. -1.
          1    1    6    6  503    0  0.25558909136E+00 -0.16693625191E+02 -0.26537570513E+03  0.26590037105E+03  0.00000000000E+00 0. -1.
         -1    1    6    6    0  503 -0.28434139829E+02  0.26475461720E+02 -0.49615460035E+02  0.63017015604E+02  0.00000000000E+00 0.  1.
<mgrwt>
<rscale>  0 0.11578015E+04</rscale>
<asrwt>0</asrwt>
<pdfrwt beam="1">  1        1 0.53231626E-01 0.11578015E+04</pdfrwt>
<pdfrwt beam="2">  1       -2 0.14900875E+00 0.11578015E+04</pdfrwt>
<totfact> 0.19196758E+01</totfact>
</mgrwt>
</event>
<event>
12    5  0.5221187E-008  0.1840437E+04  0.7818608E-02  0.8685086E-01
          1   -1    0    0  501    0  0.00000000000E+00  0.00000000000E+00  0.88753018244E+03  0.88753018244E+03  0.00000000000E+00 0. -1.
         -2   -1    0    0    0  501 -0.00000000000E+00 -0.00000000000E+00 -0.95411031813E+03  0.95411031813E+03  0.00000000000E+00 0.  1.
        -24    2    1    2    0    0  0.53310642281E+03 -0.17072129405E+03 -0.44081605965E+03  0.71686487719E+03  0.78919170144E+02 0.  0.
        254    2    1    2    0    0 -0.53310642281E+03  0.17072129405E+03  0.37423592396E+03  0.11247756234E+04  0.90095474796E+03 0.  0.
         23    2    4    4    0    0 -0.23771122634E+03 -0.28241760729E+03  0.42921970936E+03  0.57348582840E+03  0.91597513299E+02 0.  0.
         23    2    4    4    0    0 -0.29539519647E+03  0.45313890134E+03 -0.54983785403E+02  0.55128979497E+03  0.91126480138E+02 0.  0.
          3    1    3    3  502    0  0.99969919447E+01 -0.53824413193E-01 -0.25759430875E+02  0.27631341336E+02  0.00000000000E+00 0. -1.
         -4    1    3    3    0  502  0.52310943087E+03 -0.17066746963E+03 -0.41505662878E+03  0.68923353586E+03  0.00000000000E+00 0.  1.
         13    1    5    5    0    0 -0.23046686531E+03 -0.23880282193E+03  0.40307436539E+03  0.52212135352E+03  0.00000000000E+00 0. -1.
        -13    1    5    5    0    0 -0.72443610275E+01 -0.43614785362E+02  0.26145343972E+02  0.51364474886E+02  0.00000000000E+00 0.  1.
          3    1    6    6  503    0 -0.23967468526E+03  0.29773483390E+03 -0.21391463598E+02  0.38281533510E+03  0.00000000000E+00 0. -1.
         -3    1    6    6    0  503 -0.55720511209E+02  0.15540406744E+03 -0.33592321805E+02  0.16847445988E+03  0.00000000000E+00 0.  1.
<mgrwt>
<rscale>  0 0.18404366E+04</rscale>
<asrwt>0</asrwt>
<pdfrwt beam="1">  1        1 0.13654310E+00 0.18404366E+04</pdfrwt>
<pdfrwt beam="2">  1       -2 0.14678620E+00 0.18404366E+04</pdfrwt>
<totfact> 0.48704754E+00</totfact>
</mgrwt>
</event>
<event>
12    5  0.5221187E-008  0.1599993E+04  0.7818608E-02  0.8820552E-01
          1   -1    0    0  501    0  0.00000000000E+00  0.00000000000E+00  0.37835569135E+03  0.37835569135E+03  0.00000000000E+00 0. -1.
         -2   -1    0    0    0  501 -0.00000000000E+00 -0.00000000000E+00 -0.16915156293E+04  0.16915156293E+04  0.00000000000E+00 0.  1.
        -24    2    1    2    0    0 -0.21500429369E+03 -0.21829048460E+03 -0.10091552120E+04  0.10578242253E+04  0.81977238243E+02 0.  0.
        254    2    1    2    0    0  0.21500429369E+03  0.21829048460E+03 -0.30400472592E+03  0.10120470954E+04  0.91539219352E+03 0.  0.
         23    2    4    4    0    0  0.28297353077E+03  0.38676723838E+03 -0.52069373374E+03  0.71354686389E+03  0.91456256305E+02 0.  0.
         23    2    4    4    0    0 -0.67969237084E+02 -0.16847675378E+03  0.21668900782E+03  0.29850023151E+03  0.95624412927E+02 0.  0.
          3    1    3    3  502    0 -0.73508584957E+02 -0.47470637323E+02 -0.19022329360E+03  0.20938451447E+03  0.00000000000E+00 0. -1.
         -4    1    3    3    0  502 -0.14149570873E+03 -0.17081984728E+03 -0.81893191845E+03  0.84843971080E+03  0.00000000000E+00 0.  1.
         13    1    5    5    0    0  0.10511983395E+03  0.21115006244E+03 -0.22009849935E+03  0.32261103170E+03  0.00000000000E+00 0. -1.
        -13    1    5    5    0    0  0.17785369682E+03  0.17561717595E+03 -0.30059523438E+03  0.39093583219E+03  0.00000000000E+00 0.  1.
          4    1    6    6  503    0  0.14540387978E+01 -0.85405469043E+02  0.47775930697E+02  0.97871078084E+02  0.00000000000E+00 0. -1.
         -4    1    6    6    0  503 -0.69423275881E+02 -0.83071284741E+02  0.16891307712E+03  0.20062915343E+03  0.00000000000E+00 0.  1.
<mgrwt>
<rscale>  0 0.15999932E+04</rscale>
<asrwt>0</asrwt>
<pdfrwt beam="1">  1        1 0.58208569E-01 0.15999932E+04</pdfrwt>
<pdfrwt beam="2">  1       -2 0.26023317E+00 0.15999932E+04</pdfrwt>
<totfact> 0.30156410E+00</totfact>
</mgrwt>
</event>
<event>
12    5  0.5221187E-008  0.1869830E+04  0.7818608E-02  0.8670021E-01
         -2   -1    0    0    0  501 -0.00000000000E+00  0.00000000000E+00  0.11311052434E+04  0.11311052434E+04  0.00000000000E+00 0.  1.
          1   -1    0    0  501    0  0.00000000000E+00 -0.00000000000E+00 -0.77275401509E+03  0.77275401509E+03  0.00000000000E+00 0. -1.
        -24    2    1    2    0    0  0.69521738431E+03  0.69979295709E+02 -0.19112345281E+02  0.70358074427E+03  0.80226359091E+02 0.  0.
        254    2    1    2    0    0 -0.69521738431E+03 -0.69979295709E+02  0.37746357360E+03  0.12002785142E+04  0.89998080480E+03 0.  0.
         23    2    4    4    0    0 -0.45923104162E+03 -0.14122768186E+02  0.66488633141E+03  0.81354674658E+03  0.93230215101E+02 0.  0.
         23    2    4    4    0    0 -0.23598634270E+03 -0.55856527523E+02 -0.28742275781E+03  0.38673176764E+03  0.90222573589E+02 0.  0.
          3    1    3    3  502    0  0.54471136596E+03  0.33012326692E+02 -0.40121916410E+02  0.54718374802E+03  0.00000000000E+00 0. -1.
         -4    1    3    3    0  502  0.15050601835E+03  0.36966969016E+02  0.21009571130E+02  0.15639699625E+03  0.00000000000E+00 0.  1.
         13    1    5    5    0    0 -0.26922145563E+03 -0.42457597774E+02  0.33575975818E+03  0.43245514796E+03  0.00000000000E+00 0. -1.
        -13    1    5    5    0    0 -0.19000958598E+03  0.28334829589E+02  0.32912657323E+03  0.38109159862E+03  0.00000000000E+00 0.  1.
          4    1    6    6  503    0 -0.22196759944E+03 -0.68762458447E+02 -0.28468286557E+03  0.36748091766E+03  0.00000000000E+00 0. -1.
         -4    1    6    6    0  503 -0.14018743252E+02  0.12905930924E+02 -0.27398922435E+01  0.19250849979E+02  0.00000000000E+00 0.  1.
<mgrwt>
<rscale>  0 0.18698301E+04</rscale>
<asrwt>0</asrwt>
<pdfrwt beam="1">  1        1 0.11888523E+00 0.18698301E+04</pdfrwt>
<pdfrwt beam="2">  1       -2 0.17401619E+00 0.18698301E+04</pdfrwt>
<totfact> 0.38312296E+00</totfact>
</mgrwt>
</event>
<event>
12    5  0.5221187E-008  0.1569747E+04  0.7818608E-02  0.8839352E-01
         -2   -1    0    0    0  501 -0.00000000000E+00  0.00000000000E+00  0.29900602857E+03  0.29900602857E+03  0.00000000000E+00 0.  1.
          1   -1    0    0  501    0  0.00000000000E+00 -0.00000000000E+00 -0.20602472097E+04  0.20602472097E+04  0.00000000000E+00 0. -1.
        -24    2    1    2    0    0  0.27681704394E+03  0.27898638454E+03 -0.11219545182E+04  0.11914567022E+04  0.79536492571E+02 0.  0.
        254    2    1    2    0    0 -0.27681704394E+03 -0.27898638454E+03 -0.63928666289E+03  0.11677965361E+04  0.89476266895E+03 0.  0.
         23    2    4    4    0    0 -0.50038757566E+03 -0.33815745587E+03 -0.16697031569E+03  0.63316026368E+03  0.90965061126E+02 0.  0.
         23    2    4    4    0    0  0.22357053172E+03  0.59171071334E+02 -0.47231634720E+03  0.53463627240E+03  0.96271561730E+02 0.  0.
          3    1    3    3  502    0  0.19688466960E+03  0.24411491951E+03 -0.89139390062E+03  0.94495436563E+03  0.00000000000E+00 0. -1.
         -4    1    3    3    0  502  0.79932374338E+02  0.34871465027E+02 -0.23056061759E+03  0.24650233654E+03  0.00000000000E+00 0.  1.
         13    1    5    5    0    0 -0.87926355426E+02 -0.29002535504E+02 -0.44830513467E+01  0.92694599593E+02  0.00000000000E+00 0.  1.
        -13    1    5    5    0    0 -0.41246122023E+03 -0.30915492037E+03 -0.16248726434E+03  0.54046566408E+03  0.00000000000E+00 0. -1.
          1    1    6    6  503    0  0.18441893822E+03  0.84762466708E+02 -0.39929319612E+03  0.44791748906E+03  0.00000000000E+00 0. -1.
         -1    1    6    6    0  503  0.39151593496E+02 -0.25591395374E+02 -0.73023151080E+02  0.86718783341E+02  0.00000000000E+00 0.  1.
<mgrwt>
<rscale>  0 0.15697469E+04</rscale>
<asrwt>0</asrwt>
<pdfrwt beam="1">  1        1 0.31696111E+00 0.15697469E+04</pdfrwt>
<pdfrwt beam="2">  1       -2 0.46000927E-01 0.15697469E+04</pdfrwt>
<totfact> 0.10269241E+01</totfact>
</mgrwt>
</event>
<event>
12    5  0.5221187E-008  0.1422225E+04  0.7818608E-02  0.8937887E-01
         -2   -1    0    0    0  501 -0.00000000000E+00  0.00000000000E+00  0.29151803045E+03  0.29151803045E+03  0.00000000000E+00 0.  1.
          1   -1    0    0  501    0  0.00000000000E+00 -0.00000000000E+00 -0.17346463512E+04  0.17346463512E+04  0.00000000000E+00 0. -1.
        -24    2    1    2    0    0 -0.40380556740E+03  0.47255031987E+02 -0.58466267422E+03  0.71683365258E+03  0.82024804375E+02 0.  0.
        254    2    1    2    0    0  0.40380556740E+03 -0.47255031987E+02 -0.85846564650E+03  0.13093307290E+04  0.90116131602E+03 0.  0.
         23    2    4    4    0    0  0.57028495261E+03  0.25149330288E+03 -0.60918706937E+03  0.87668793079E+03  0.94863238038E+02 0.  0.
         23    2    4    4    0    0 -0.16647938521E+03 -0.29874833487E+03 -0.24927857713E+03  0.43264279826E+03  0.89855598492E+02 0.  0.
          1    1    3    3  502    0 -0.22375507682E+03  0.11607307419E+02 -0.25443706913E+03  0.33902696963E+03  0.00000000000E+00 0. -1.
         -2    1    3    3    0  502 -0.18005049058E+03  0.35647724567E+02 -0.33022560509E+03  0.37780668295E+03  0.00000000000E+00 0.  1.
         13    1    5    5    0    0  0.29923450652E+03  0.17304702860E+03 -0.37480164244E+03  0.50986550695E+03  0.00000000000E+00 0. -1.
        -13    1    5    5    0    0  0.27105044609E+03  0.78446274289E+02 -0.23438542693E+03  0.36682242384E+03  0.00000000000E+00 0.  1.
          3    1    6    6  503    0 -0.10074115848E+02 -0.11367149893E+02  0.72987036698E+01  0.16851438576E+02  0.00000000000E+00 0. -1.
         -3    1    6    6    0  503 -0.15640526936E+03 -0.28738118498E+03 -0.25657728080E+03  0.41579135968E+03  0.00000000000E+00 0.  1.
<mgrwt>
<rscale>  0 0.14222246E+04</rscale>
<asrwt>0</asrwt>
<pdfrwt beam="1">  1        1 0.26686867E+00 0.14222246E+04</pdfrwt>
<pdfrwt beam="2">  1       -2 0.44848928E-01 0.14222246E+04</pdfrwt>
<totfact> 0.18183996E+01</totfact>
</mgrwt>
</event>
<event>
12    5  0.5221187E-008  0.1248056E+04  0.7818608E-02  0.9071803E-01
          1   -1    0    0  501    0  0.00000000000E+00  0.00000000000E+00  0.17936900174E+04  0.17936900174E+04  0.00000000000E+00 0. -1.
         -2   -1    0    0    0  501 -0.00000000000E+00 -0.00000000000E+00 -0.21710037364E+03  0.21710037364E+03  0.00000000000E+00 0.  1.
        -24    2    1    2    0    0  0.84446563468E+02 -0.80868439136E+02  0.81981096158E+03  0.83237643531E+03  0.84199707816E+02 0.  0.
        254    2    1    2    0    0 -0.84446563468E+02  0.80868439136E+02  0.75677868213E+03  0.11784139557E+04  0.89569780098E+03 0.  0.
         23    2    4    4    0    0  0.29172536405E+03 -0.10976712078E+03  0.66086544211E+03  0.73643039950E+03  0.91837312131E+02 0.  0.
         23    2    4    4    0    0 -0.37617192752E+03  0.19063555992E+03  0.95913240018E+02  0.44198355618E+03  0.91120132610E+02 0.  0.
          3    1    3    3  502    0  0.94945639305E+02 -0.79185452359E+02  0.80316099189E+03  0.81262081513E+03  0.00000000000E+00 0. -1.
         -4    1    3    3    0  502 -0.10499075837E+02 -0.16829867770E+01  0.16649969698E+02  0.19755620185E+02  0.00000000000E+00 0.  1.
         13    1    5    5    0    0  0.16642819611E+02 -0.17267876574E+02  0.14819568071E+02  0.28191888971E+02  0.00000000000E+00 0.  1.
        -13    1    5    5    0    0  0.27508254444E+03 -0.92499244206E+02  0.64604587404E+03  0.70823851053E+03  0.00000000000E+00 0. -1.
          4    1    6    6  503    0 -0.34697683869E+03  0.15464186559E+03  0.10633741634E+03  0.39448026477E+03  0.00000000000E+00 0. -1.
         -4    1    6    6    0  503 -0.29195088828E+02  0.35993694323E+02 -0.10424176322E+02  0.47503291409E+02  0.00000000000E+00 0.  1.
<mgrwt>
<rscale>  0 0.12480557E+04</rscale>
<asrwt>0</asrwt>
<pdfrwt beam="1">  1        1 0.27595230E+00 0.12480557E+04</pdfrwt>
<pdfrwt beam="2">  1       -2 0.33400059E-01 0.12480557E+04</pdfrwt>
<totfact> 0.29854016E+01</totfact>
</mgrwt>
</event>
<event>
12    5  0.5221187E-008  0.1730117E+04  0.7818608E-02  0.8744372E-01
         -2   -1    0    0    0  501 -0.00000000000E+00  0.00000000000E+00  0.94253737972E+03  0.94253737972E+03  0.00000000000E+00 0.  1.
          1   -1    0    0  501    0  0.00000000000E+00 -0.00000000000E+00 -0.79394829466E+03  0.79394829466E+03  0.00000000000E+00 0. -1.
        -24    2    1    2    0    0 -0.34820445463E+03  0.56995077927E+02  0.53334671692E+03  0.64549289066E+03  0.87792769119E+02 0.  0.
        254    2    1    2    0    0  0.34820445463E+03 -0.56995077927E+02 -0.38475763186E+03  0.10909927837E+04  0.95798331808E+03 0.  0.
         23    2    4    4    0    0  0.36944265760E+02 -0.41017700707E+03  0.73393652688E+02  0.42804786403E+03  0.90709920897E+02 0.  0.
         23    2    4    4    0    0  0.31126018887E+03  0.35318192914E+03 -0.45815128455E+03  0.66294491969E+03  0.89291582764E+02 0.  0.
          1    1    3    3  502    0 -0.45465642931E+02  0.39534691504E+02  0.94250194876E+02  0.11186248591E+03  0.00000000000E+00 0. -1.
         -2    1    3    3    0  502 -0.30273881170E+03  0.17460386423E+02  0.43909652205E+03  0.53363040475E+03  0.00000000000E+00 0.  1.
         13    1    5    5    0    0 -0.18391350806E+02 -0.16800342261E+03  0.59751001564E+02  0.17925840003E+03  0.00000000000E+00 0.  1.
        -13    1    5    5    0    0  0.55335616566E+02 -0.24217358446E+03  0.13642651124E+02  0.24878946400E+03  0.00000000000E+00 0. -1.
          3    1    6    6  503    0  0.20511632413E+03  0.28113089839E+03 -0.30131872806E+03  0.46032625858E+03  0.00000000000E+00 0. -1.
         -3    1    6    6    0  503  0.10614386474E+03  0.72051030751E+02 -0.15683255649E+03  0.20261866111E+03  0.00000000000E+00 0.  1.
<mgrwt>
<rscale>  0 0.17301167E+04</rscale>
<asrwt>0</asrwt>
<pdfrwt beam="1">  1        1 0.12214589E+00 0.17301167E+04</pdfrwt>
<pdfrwt beam="2">  1       -2 0.14500575E+00 0.17301167E+04</pdfrwt>
<totfact> 0.60950982E+00</totfact>
</mgrwt>
</event>
<event>
12    5  0.5221187E-008  0.3035974E+04  0.7818608E-02  0.8233532E-01
         -2   -1    0    0    0  501 -0.00000000000E+00  0.00000000000E+00  0.66736145532E+03  0.66736145532E+03  0.00000000000E+00 0.  1.
          1   -1    0    0  501    0  0.00000000000E+00 -0.00000000000E+00 -0.34528291764E+04  0.34528291764E+04  0.00000000000E+00 0. -1.
        -24    2    1    2    0    0  0.11948446969E+04  0.69685764445E+03 -0.12180924121E+04  0.18448025522E+04  0.79264782408E+02 0.  0.
        254    2    1    2    0    0 -0.11948446969E+04 -0.69685764445E+03 -0.15673753089E+04  0.22753880795E+04  0.89858840794E+03 0.  0.
         23    2    4    4    0    0 -0.86436362194E+03 -0.28049724151E+03 -0.14651888553E+04  0.17264330152E+04  0.89383449487E+02 0.  0.
         23    2    4    4    0    0 -0.33048107499E+03 -0.41636040294E+03 -0.10218645367E+03  0.54895506428E+03  0.91300959612E+02 0.  0.
          3    1    3    3  502    0  0.17296484812E+03  0.91042664397E+02 -0.13836407360E+03  0.23947906440E+03  0.00000000000E+00 0. -1.
         -4    1    3    3    0  502  0.10218798488E+04  0.60581498005E+03 -0.10797283385E+04  0.16053234878E+04  0.00000000000E+00 0.  1.
         13    1    5    5    0    0 -0.85287717776E+03 -0.27633604136E+03 -0.14597130252E+04  0.17130450093E+04  0.00000000000E+00 0. -1.
        -13    1    5    5    0    0 -0.11486444173E+02 -0.41612001556E+01 -0.54758300593E+01  0.13388005875E+02  0.00000000000E+00 0.  1.
          1    1    6    6  503    0 -0.32699530582E+03 -0.37614612911E+03 -0.87682460227E+02  0.50606329081E+03  0.00000000000E+00 0. -1.
         -1    1    6    6    0  503 -0.34857691766E+01 -0.40214273824E+02 -0.14503993447E+02  0.42891773475E+02  0.00000000000E+00 0.  1.
<mgrwt>
<rscale>  0 0.30359744E+04</rscale>
<asrwt>0</asrwt>
<pdfrwt beam="1">  1        1 0.53120450E+00 0.30359744E+04</pdfrwt>
<pdfrwt beam="2">  1       -2 0.10267099E+00 0.30359744E+04</pdfrwt>
<totfact> 0.15752746E-01</totfact>
</mgrwt>
</event>
<event>
12    5  0.5221187E-008  0.1138708E+04  0.7818608E-02  0.9168264E-01
         -4   -1    0    0    0  501 -0.00000000000E+00  0.00000000000E+00  0.11802345730E+04  0.11802345730E+04  0.00000000000E+00 0.  1.
          3   -1    0    0  501    0  0.00000000000E+00 -0.00000000000E+00 -0.27466086422E+03  0.27466086422E+03  0.00000000000E+00 0. -1.
        -24    2    1    2    0    0 -0.79847777947E+02  0.18576038846E+03  0.26816821489E+03  0.34485449471E+03  0.78280530657E+02 0.  0.
        254    2    1    2    0    0  0.79847777947E+02 -0.18576038846E+03  0.63740549384E+03  0.11100409425E+04  0.88601497776E+03 0.  0.
         23    2    4    4    0    0 -0.39144709244E+03 -0.30043281079E+02  0.25895680761E+03  0.47899629816E+03  0.90804187820E+02 0.  0.
         23    2    4    4    0    0  0.47129487039E+03 -0.15571710738E+03  0.37844868623E+03  0.63104464431E+03  0.92883058824E+02 0.  0.
          1    1    3    3  502    0 -0.21646958038E+01  0.17933887768E+02  0.76146389232E+02  0.78259713975E+02  0.00000000000E+00 0. -1.
         -2    1    3    3    0  502 -0.77683082143E+02  0.16782650069E+03  0.19202182566E+03  0.26659478074E+03  0.00000000000E+00 0.  1.
         13    1    5    5    0    0 -0.29965116947E+03 -0.22705081454E+02  0.24091318849E+03  0.38515647272E+03  0.00000000000E+00 0.  1.
        -13    1    5    5    0    0 -0.91795922969E+02 -0.73381996254E+01  0.18043619116E+02  0.93839825438E+02  0.00000000000E+00 0. -1.
          3    1    6    6  503    0  0.18454345200E+02 -0.16792402041E+02  0.46064032023E+02  0.52387428542E+02  0.00000000000E+00 0. -1.
         -3    1    6    6    0  503  0.45284052519E+03 -0.13892470534E+03  0.33238465421E+03  0.57865721577E+03  0.00000000000E+00 0.  1.
<mgrwt>
<rscale>  0 0.11387085E+04</rscale>
<asrwt>0</asrwt>
<pdfrwt beam="1">  1        3 0.42255518E-01 0.11387085E+04</pdfrwt>
<pdfrwt beam="2">  1       -4 0.18157455E+00 0.11387085E+04</pdfrwt>
<totfact> 0.22127181E+00</totfact>
</mgrwt>
</event>
<event>
12    5  0.5221187E-008  0.2044201E+04  0.7818608E-02  0.8586230E-01
          1   -1    0    0  501    0  0.00000000000E+00  0.00000000000E+00  0.85247515699E+03  0.85247515699E+03  0.00000000000E+00 0. -1.
         -2   -1    0    0    0  501 -0.00000000000E+00 -0.00000000000E+00 -0.12254773491E+04  0.12254773491E+04  0.00000000000E+00 0.  1.
        -24    2    1    2    0    0  0.11445422955E+03  0.36633951071E+03  0.58446417125E+03  0.70349141026E+03  0.77442811571E+02 0.  0.
        254    2    1    2    0    0 -0.11445422955E+03 -0.36633951071E+03 -0.95746636336E+03  0.13744610958E+04  0.90834853399E+03 0.  0.
         23    2    4    4    0    0  0.27569163253E+02  0.10003650752E+03 -0.85724631239E+03  0.86809574996E+03  0.89171909249E+02 0.  0.
         23    2    4    4    0    0 -0.14202339280E+03 -0.46637601822E+03 -0.10022005097E+03  0.50636534586E+03  0.93191042481E+02 0.  0.
          1    1    3    3  502    0  0.48178561759E+02  0.27206247581E+03  0.41305097192E+03  0.49694091194E+03  0.00000000000E+00 0. -1.
         -2    1    3    3    0  502  0.66275667788E+02  0.94277034895E+02  0.17141319934E+03  0.20655049832E+03  0.00000000000E+00 0.  1.
         13    1    5    5    0    0  0.22351232573E+02 -0.94386996721E+01 -0.23718913478E+03  0.23842682799E+03  0.00000000000E+00 0.  1.
        -13    1    5    5    0    0  0.52179306796E+01  0.10947520719E+03 -0.62005717761E+03  0.62966892197E+03  0.00000000000E+00 0. -1.
          3    1    6    6  503    0 -0.71363723386E+02 -0.35367358119E+03 -0.95653520803E+02  0.37326582899E+03  0.00000000000E+00 0. -1.
         -3    1    6    6    0  503 -0.70659669415E+02 -0.11270243703E+03 -0.45665301687E+01  0.13309951688E+03  0.00000000000E+00 0.  1.
<mgrwt>
<rscale>  0 0.20442006E+04</rscale>
<asrwt>0</asrwt>
<pdfrwt beam="1">  1        1 0.13115002E+00 0.20442006E+04</pdfrwt>
<pdfrwt beam="2">  1       -2 0.18853498E+00 0.20442006E+04</pdfrwt>
<totfact> 0.25584288E+00</totfact>
</mgrwt>
</event>
<event>
12    5  0.5221187E-008  0.1215770E+04  0.7818608E-02  0.9099164E-01
         -2   -1    0    0    0  501 -0.00000000000E+00  0.00000000000E+00  0.10281801692E+04  0.10281801692E+04  0.00000000000E+00 0.  1.
          1   -1    0    0  501    0  0.00000000000E+00 -0.00000000000E+00 -0.35939611941E+03  0.35939611941E+03  0.00000000000E+00 0. -1.
        -24    2    1    2    0    0  0.27681078918E+03 -0.83341726575E+02  0.38300338721E+02  0.30250614420E+03  0.80454924857E+02 0.  0.
        254    2    1    2    0    0 -0.27681078918E+03  0.83341726575E+02  0.63048371109E+03  0.10850701444E+04  0.83444439717E+03 0.  0.
         23    2    4    4    0    0 -0.49130935449E+03 -0.11317124797E+03  0.18431679979E+03  0.54424593463E+03  0.89656798426E+02 0.  0.
         23    2    4    4    0    0  0.21449856530E+03  0.19651297454E+03  0.44616691130E+03  0.54082420980E+03  0.93802609151E+02 0.  0.
          1    1    3    3  502    0  0.22947939728E+03 -0.97388072389E+02  0.20924400990E+02  0.25016606680E+03  0.00000000000E+00 0. -1.
         -4    1    3    3    0  502  0.47331391902E+02  0.14046345813E+02  0.17375937731E+02  0.52340077399E+02  0.00000000000E+00 0.  1.
         13    1    5    5    0    0 -0.47497017332E+03 -0.12589947757E+03  0.17696570268E+03  0.52226832560E+03  0.00000000000E+00 0. -1.
        -13    1    5    5    0    0 -0.16339181166E+02  0.12728229605E+02  0.73510971072E+01  0.21977609031E+02  0.00000000000E+00 0.  1.
          3    1    6    6  503    0  0.16172928614E+03  0.88747227534E+02  0.24670577085E+03  0.30805221921E+03  0.00000000000E+00 0. -1.
         -3    1    6    6    0  503  0.52769279161E+02  0.10776574701E+03  0.19946114045E+03  0.23277199059E+03  0.00000000000E+00 0.  1.
<mgrwt>
<rscale>  0 0.12157697E+04</rscale>
<asrwt>0</asrwt>
<pdfrwt beam="1">  1        1 0.55291711E-01 0.12157697E+04</pdfrwt>
<pdfrwt beam="2">  1       -2 0.15818156E+00 0.12157697E+04</pdfrwt>
<totfact> 0.15498041E+01</totfact>
</mgrwt>
</event>
<event>
12    5  0.5221187E-008  0.1468399E+04  0.7818608E-02  0.8905743E-01
          1   -1    0    0  501    0  0.00000000000E+00  0.00000000000E+00  0.90933128190E+03  0.90933128190E+03  0.00000000000E+00 0. -1.
         -2   -1    0    0    0  501 -0.00000000000E+00 -0.00000000000E+00 -0.59279718274E+03  0.59279718274E+03  0.00000000000E+00 0.  1.
        -24    2    1    2    0    0  0.24345691572E+03  0.39160417788E+03  0.13981102252E+03  0.48861975639E+03  0.81098966496E+02 0.  0.
        254    2    1    2    0    0 -0.24345691572E+03 -0.39160417788E+03  0.17672307663E+03  0.10135087083E+04  0.88506709008E+03 0.  0.
         23    2    4    4    0    0 -0.54556117362E+03 -0.29187687666E+03  0.25133417734E+03  0.67407157048E+03  0.91512338733E+02 0.  0.
         23    2    4    4    0    0  0.30210425789E+03 -0.99727301219E+02 -0.74611100713E+02  0.33943713778E+03  0.91859876475E+02 0.  0.
          1    1    3    3  502    0  0.13921875865E+03  0.18720394876E+03  0.33310417381E+02  0.23566239644E+03  0.00000000000E+00 0. -1.
         -2    1    3    3    0  502  0.10423815707E+03  0.20440022912E+03  0.10650060514E+03  0.25295735994E+03  0.00000000000E+00 0.  1.
         13    1    5    5    0    0 -0.25398006803E+02 -0.38935902932E+02  0.26484700780E+02  0.53502361276E+02  0.00000000000E+00 0. -1.
        -13    1    5    5    0    0 -0.52016316681E+03 -0.25294097373E+03  0.22484947656E+03  0.62056920920E+03  0.00000000000E+00 0.  1.
          1    1    6    6  503    0  0.13774216850E+01 -0.64240222367E+01 -0.18468885154E+02  0.19602680200E+02  0.00000000000E+00 0. -1.
         -1    1    6    6    0  503  0.30072683621E+03 -0.93303278982E+02 -0.56142215559E+02  0.31983445758E+03  0.00000000000E+00 0.  1.
<mgrwt>
<rscale>  0 0.14683992E+04</rscale>
<asrwt>0</asrwt>
<pdfrwt beam="1">  1        1 0.13989712E+00 0.14683992E+04</pdfrwt>
<pdfrwt beam="2">  1       -2 0.91199567E-01 0.14683992E+04</pdfrwt>
<totfact> 0.15576174E+01</totfact>
</mgrwt>
</event>
<event>
12    5  0.5221187E-008  0.2135584E+04  0.7818608E-02  0.8545728E-01
         -2   -1    0    0    0  501 -0.00000000000E+00  0.00000000000E+00  0.17997157233E+04  0.17997157233E+04  0.00000000000E+00 0.  1.
          1   -1    0    0  501    0  0.00000000000E+00 -0.00000000000E+00 -0.63353307193E+03  0.63353307193E+03  0.00000000000E+00 0. -1.
        -24    2    1    2    0    0  0.53976411819E+03  0.20290007898E+03 -0.27139860770E+03  0.64228192821E+03  0.79719042352E+02 0.  0.
        254    2    1    2    0    0 -0.53976411819E+03 -0.20290007898E+03  0.14375812591E+04  0.17909668670E+04  0.89911550816E+03 0.  0.
         23    2    4    4    0    0 -0.44039190148E+03 -0.22041745275E+03  0.15407226881E+04  0.16200137635E+04  0.89940601831E+02 0.  0.
         23    2    4    4    0    0 -0.99372216704E+02  0.17517373773E+02 -0.10314142901E+03  0.17095310357E+03  0.91679405574E+02 0.  0.
          3    1    3    3  502    0  0.38133222489E+03  0.14502292866E+03 -0.15090620629E+03  0.43499264209E+03  0.00000000000E+00 0. -1.
         -4    1    3    3    0  502  0.15843189330E+03  0.57877150322E+02 -0.12049240141E+03  0.20728928612E+03  0.00000000000E+00 0.  1.
         13    1    5    5    0    0 -0.42613204129E+03 -0.22610923110E+03  0.15160877139E+04  0.15909858130E+04  0.00000000000E+00 0.  1.
        -13    1    5    5    0    0 -0.14259860191E+02  0.56917783464E+01  0.24634974157E+02  0.29027950412E+02  0.00000000000E+00 0. -1.
          1    1    6    6  503    0  0.70162854796E+01  0.52502776971E+01  0.11246303294E+02  0.14257384599E+02  0.00000000000E+00 0. -1.
         -1    1    6    6    0  503 -0.10638850218E+03  0.12267096076E+02 -0.11438773230E+03  0.15669571897E+03  0.00000000000E+00 0.  1.
<mgrwt>
<rscale>  0 0.21355837E+04</rscale>
<asrwt>0</asrwt>
<pdfrwt beam="1">  1        1 0.97466627E-01 0.21355837E+04</pdfrwt>
<pdfrwt beam="2">  1       -2 0.27687934E+00 0.21355837E+04</pdfrwt>
<totfact> 0.11181181E+00</totfact>
</mgrwt>
</event>
<event>
12    5  0.5221187E-008  0.1820831E+04  0.7818608E-02  0.8695300E-01
          1   -1    0    0  501    0  0.00000000000E+00  0.00000000000E+00  0.48650449132E+03  0.48650449132E+03  0.00000000000E+00 0. -1.
         -2   -1    0    0    0  501 -0.00000000000E+00 -0.00000000000E+00 -0.17036968992E+04  0.17036968992E+04  0.00000000000E+00 0.  1.
        -24    2    1    2    0    0 -0.24992953957E+02 -0.14602393418E+03  0.34498130813E+03  0.38318097162E+03  0.76602329921E+02 0.  0.
        254    2    1    2    0    0  0.24992953957E+02  0.14602393418E+03 -0.15621737160E+04  0.18070204189E+04  0.89609622152E+03 0.  0.
         23    2    4    4    0    0  0.29387412820E+03 -0.20000587890E+03 -0.11177820083E+04  0.11763426181E+04  0.89336343697E+02 0.  0.
         23    2    4    4    0    0 -0.26888117424E+03  0.34602981308E+03 -0.44439170769E+03  0.63067780076E+03  0.90756713845E+02 0.  0.
          3    1    3    3  502    0  0.30775538558E+00 -0.86422792762E+02  0.27304773266E+03  0.28639842551E+03  0.00000000000E+00 0. -1.
         -4    1    3    3    0  502 -0.25300709342E+02 -0.59601141419E+02  0.71933575469E+02  0.96782546109E+02  0.00000000000E+00 0.  1.
         13    1    5    5    0    0  0.24280350949E+02  0.16087134667E+01 -0.14328299225E+03  0.14533457699E+03  0.00000000000E+00 0. -1.
        -13    1    5    5    0    0  0.26959377725E+03 -0.20161459237E+03 -0.97449901603E+03  0.10310080411E+04  0.00000000000E+00 0.  1.
          3    1    6    6  503    0 -0.92279925785E+01  0.22460011090E+01  0.26183200015E+01  0.98516987185E+01  0.00000000000E+00 0. -1.
         -3    1    6    6    0  503 -0.25965318166E+03  0.34378381197E+03 -0.44701002769E+03  0.62082610204E+03  0.00000000000E+00 0.  1.
<mgrwt>
<rscale>  0 0.18208308E+04</rscale>
<asrwt>0</asrwt>
<pdfrwt beam="1">  1        1 0.74846842E-01 0.18208308E+04</pdfrwt>
<pdfrwt beam="2">  1       -2 0.26210722E+00 0.18208308E+04</pdfrwt>
<totfact> 0.20552575E+00</totfact>
</mgrwt>
</event>
<event>
12    5  0.5221187E-008  0.2477800E+04  0.7818608E-02  0.8410937E-01
          1   -1    0    0  501    0  0.00000000000E+00  0.00000000000E+00  0.84951431637E+03  0.84951431637E+03  0.00000000000E+00 0. -1.
         -2   -1    0    0    0  501 -0.00000000000E+00 -0.00000000000E+00 -0.18067649306E+04  0.18067649306E+04  0.00000000000E+00 0.  1.
        -24    2    1    2    0    0 -0.25992694081E+01 -0.75354790742E+03 -0.12392047104E+04  0.14525832660E+04  0.80799910229E+02 0.  0.
        254    2    1    2    0    0  0.25992694081E+01  0.75354790742E+03  0.28195409621E+03  0.12036959809E+04  0.89529028649E+03 0.  0.
         23    2    4    4    0    0  0.31599889033E+03  0.48330103194E+03  0.45980642895E+03  0.74383302700E+03  0.91817393730E+02 0.  0.
         23    2    4    4    0    0 -0.31339962092E+03  0.27024687548E+03 -0.17785233274E+03  0.45986295390E+03  0.92681109239E+02 0.  0.
          1    1    3    3  502    0 -0.22116336312E+02 -0.33983406710E+03 -0.62544807652E+03  0.71215280798E+03  0.00000000000E+00 0. -1.
         -2    1    3    3    0  502  0.19517066904E+02 -0.41371384032E+03 -0.61375663387E+03  0.74043045804E+03  0.00000000000E+00 0.  1.
         13    1    5    5    0    0  0.72135211286E+02  0.15335273326E+03  0.17994995732E+03  0.24718927292E+03  0.00000000000E+00 0. -1.
        -13    1    5    5    0    0  0.24386367904E+03  0.32994829868E+03  0.27985647162E+03  0.49664375408E+03  0.00000000000E+00 0.  1.
          2    1    6    6  503    0 -0.17483509914E+01  0.25378594798E+02 -0.23160365896E+02  0.34402505048E+02  0.00000000000E+00 0. -1.
         -2    1    6    6    0  503 -0.31165126993E+03  0.24486828068E+03 -0.15469196684E+03  0.42546044885E+03  0.00000000000E+00 0.  1.
<mgrwt>
<rscale>  0 0.24777996E+04</rscale>
<asrwt>0</asrwt>
<pdfrwt beam="1">  1        1 0.13069451E+00 0.24777996E+04</pdfrwt>
<pdfrwt beam="2">  1       -2 0.27796383E+00 0.24777996E+04</pdfrwt>
<totfact> 0.67802292E-01</totfact>
</mgrwt>
</event>
<event>
12    5  0.5221187E-008  0.1625270E+04  0.7818608E-02  0.8805172E-01
          1   -1    0    0  501    0  0.00000000000E+00  0.00000000000E+00  0.34647963981E+04  0.34647963981E+04  0.00000000000E+00 0. -1.
         -2   -1    0    0    0  501 -0.00000000000E+00 -0.00000000000E+00 -0.19059578013E+03  0.19059578013E+03  0.00000000000E+00 0.  1.
        -24    2    1    2    0    0  0.15877500527E+03 -0.19854003051E+03  0.42130587975E+02  0.26968321621E+03  0.79538699092E+02 0.  0.
        254    2    1    2    0    0 -0.15877500527E+03  0.19854003051E+03  0.32320700300E+04  0.33857089620E+04  0.97576680136E+03 0.  0.
         23    2    4    4    0    0  0.93735073566E+01 -0.29534637461E+02 -0.35983073235E+02  0.10419241675E+03  0.92742227160E+02 0.  0.
         23    2    4    4    0    0 -0.16814851262E+03  0.22807466797E+03  0.32680531032E+04  0.32815165452E+04  0.88813145582E+02 0.  0.
          3    1    3    3  502    0  0.98514928513E+02 -0.78235520068E+02  0.48873694625E+02  0.13496157144E+03  0.00000000000E+00 0. -1.
         -4    1    3    3    0  502  0.60260076754E+02 -0.12030451044E+03 -0.67431066505E+01  0.13472164477E+03  0.00000000000E+00 0.  1.
         13    1    5    5    0    0  0.37023993241E+02 -0.43344842629E+02 -0.32767173446E+00  0.57005778890E+02  0.00000000000E+00 0. -1.
        -13    1    5    5    0    0 -0.27650485885E+02  0.13810205168E+02 -0.35655401500E+02  0.47186637860E+02  0.00000000000E+00 0.  1.
          2    1    6    6  503    0 -0.96991741768E+02  0.18180752778E+03  0.19874525173E+04  0.19981063244E+04  0.00000000000E+00 0. -1.
         -2    1    6    6    0  503 -0.71156770855E+02  0.46267140184E+02  0.12806005859E+04  0.12834102208E+04  0.00000000000E+00 0.  1.
<mgrwt>
<rscale>  0 0.16252699E+04</rscale>
<asrwt>0</asrwt>
<pdfrwt beam="1">  1        1 0.53304555E+00 0.16252699E+04</pdfrwt>
<pdfrwt beam="2">  1       -2 0.29322430E-01 0.16252699E+04</pdfrwt>
<totfact> 0.24181604E+00</totfact>
</mgrwt>
</event>
<event>
12    5  0.5221187E-008  0.1655195E+04  0.7818608E-02  0.8787339E-01
         -2   -1    0    0    0  501 -0.00000000000E+00  0.00000000000E+00  0.13241848226E+04  0.13241848226E+04  0.00000000000E+00 0.  1.
          1   -1    0    0  501    0  0.00000000000E+00 -0.00000000000E+00 -0.51723722138E+03  0.51723722138E+03  0.00000000000E+00 0. -1.
        -24    2    1    2    0    0 -0.23419910375E+03  0.71672787475E+02  0.85418773079E+03  0.89216296918E+03  0.79573082650E+02 0.  0.
        254    2    1    2    0    0  0.23419910375E+03 -0.71672787475E+02 -0.47240129615E+02  0.94925907476E+03  0.91590116961E+03 0.  0.
         23    2    4    4    0    0  0.39705631500E+03  0.19746084642E+02  0.32577657997E+03  0.52198260424E+03  0.91059507640E+02 0.  0.
         23    2    4    4    0    0 -0.16285721125E+03 -0.91418872117E+02 -0.37301670959E+03  0.42727647052E+03  0.92432868578E+02 0.  0.
          1    1    3    3  502    0 -0.11897323125E+03  0.19882468210E+02  0.29155927809E+03  0.31552615571E+03  0.00000000000E+00 0. -1.
         -2    1    3    3    0  502 -0.11522587250E+03  0.51790319264E+02  0.56262845270E+03  0.57663681347E+03  0.00000000000E+00 0.  1.
         13    1    5    5    0    0  0.30749414072E+03  0.50880607850E+02  0.26716640482E+03  0.41051110910E+03  0.00000000000E+00 0. -1.
        -13    1    5    5    0    0  0.89562174275E+02 -0.31134523207E+02  0.58610175154E+02  0.11147149514E+03  0.00000000000E+00 0.  1.
          2    1    6    6  503    0 -0.13759229904E+03 -0.31145179736E+02 -0.28084665685E+03  0.31428730111E+03  0.00000000000E+00 0. -1.
         -2    1    6    6    0  503 -0.25264912211E+02 -0.60273692380E+02 -0.92170052737E+02  0.11298916941E+03  0.00000000000E+00 0.  1.
<mgrwt>
<rscale>  0 0.16551951E+04</rscale>
<asrwt>0</asrwt>
<pdfrwt beam="1">  1        1 0.79574958E-01 0.16551951E+04</pdfrwt>
<pdfrwt beam="2">  1       -2 0.20372074E+00 0.16551951E+04</pdfrwt>
<totfact> 0.44395731E+00</totfact>
</mgrwt>
</event>
<event>
12    5  0.5221187E-008  0.2099006E+04  0.7818608E-02  0.8561681E-01
         -2   -1    0    0    0  501 -0.00000000000E+00  0.00000000000E+00  0.10150248762E+04  0.10150248762E+04  0.00000000000E+00 0.  1.
          1   -1    0    0  501    0  0.00000000000E+00 -0.00000000000E+00 -0.10851523852E+04  0.10851523852E+04  0.00000000000E+00 0. -1.
        -24    2    1    2    0    0 -0.39024099043E+03 -0.49282743364E+03 -0.61084677371E+03  0.88023957056E+03  0.80752774985E+02 0.  0.
        254    2    1    2    0    0  0.39024099043E+03  0.49282743364E+03  0.54071926469E+03  0.12199376908E+04  0.89482050508E+03 0.  0.
         23    2    4    4    0    0  0.62959315521E+03  0.33267692580E+03  0.16322422910E+03  0.73607759366E+03  0.90036641920E+02 0.  0.
         23    2    4    4    0    0 -0.23935216478E+03  0.16015050784E+03  0.37749503560E+03  0.48386009716E+03  0.93168920659E+02 0.  0.
          1    1    3    3  502    0 -0.36726567983E+03 -0.42969368003E+03 -0.52723338009E+03  0.77297850896E+03  0.00000000000E+00 0. -1.
         -2    1    3    3    0  502 -0.22975310598E+02 -0.63133753609E+02 -0.83613393617E+02  0.10726106159E+03  0.00000000000E+00 0.  1.
         13    1    5    5    0    0  0.30330806495E+03  0.18304172111E+03  0.12237211196E+03  0.37479993025E+03  0.00000000000E+00 0. -1.
        -13    1    5    5    0    0  0.32628509026E+03  0.14963520469E+03  0.40852117133E+02  0.36127766341E+03  0.00000000000E+00 0.  1.
          2    1    6    6  503    0 -0.14999255137E+03  0.59783857412E+02  0.25617222811E+03  0.30281361516E+03  0.00000000000E+00 0. -1.
         -2    1    6    6    0  503 -0.89359613406E+02  0.10036665043E+03  0.12132280749E+03  0.18104648199E+03  0.00000000000E+00 0.  1.
<mgrwt>
<rscale>  0 0.20990061E+04</rscale>
<asrwt>0</asrwt>
<pdfrwt beam="1">  1        1 0.16694652E+00 0.20990061E+04</pdfrwt>
<pdfrwt beam="2">  1       -2 0.15615767E+00 0.20990061E+04</pdfrwt>
<totfact> 0.28234720E+00</totfact>
</mgrwt>
</event>
<event>
12    5  0.5221187E-008  0.1285584E+04  0.7818608E-02  0.9041076E-01
          1   -1    0    0  501    0  0.00000000000E+00  0.00000000000E+00  0.24801210769E+03  0.24801210769E+03  0.00000000000E+00 0. -1.
         -2   -1    0    0    0  501 -0.00000000000E+00 -0.00000000000E+00 -0.16659736441E+04  0.16659736441E+04  0.00000000000E+00 0.  1.
        -24    2    1    2    0    0  0.24941076056E+02  0.66576458112E+02  0.10815866364E+03  0.15127294282E+03  0.78298944181E+02 0.  0.
        254    2    1    2    0    0 -0.24941076056E+02 -0.66576458112E+02 -0.15261202000E+04  0.17627128090E+04  0.87923779484E+03 0.  0.
         23    2    4    4    0    0 -0.27064562686E+01 -0.45662757062E+03 -0.98155412621E+03  0.10863084221E+04  0.90007900183E+02 0.  0.
         23    2    4    4    0    0 -0.22234619787E+02  0.39005111251E+03 -0.54456607381E+03  0.67640438685E+03  0.91304091462E+02 0.  0.
          3    1    3    3  502    0  0.20128928543E+02  0.64496316261E+02  0.12034097196E+03  0.13801049999E+03  0.00000000000E+00 0. -1.
         -4    1    3    3    0  502  0.48121475131E+01  0.20801418515E+01 -0.12182308321E+02  0.13262442830E+02  0.00000000000E+00 0.  1.
         13    1    5    5    0    0  0.43351856477E+02 -0.22079451687E+03 -0.46218901007E+03  0.51405085660E+03  0.00000000000E+00 0.  1.
        -13    1    5    5    0    0 -0.46058312746E+02 -0.23583305375E+03 -0.51936511614E+03  0.57225756551E+03  0.00000000000E+00 0. -1.
          1    1    6    6  503    0  0.10687270408E+02  0.85576106948E+02 -0.18486600674E+03  0.20399247112E+03  0.00000000000E+00 0. -1.
         -1    1    6    6    0  503 -0.32921890195E+02  0.30447500556E+03 -0.35970006707E+03  0.47241191572E+03  0.00000000000E+00 0.  1.
<mgrwt>
<rscale>  0 0.12855841E+04</rscale>
<asrwt>0</asrwt>
<pdfrwt beam="1">  1        1 0.38155708E-01 0.12855841E+04</pdfrwt>
<pdfrwt beam="2">  1       -2 0.25630364E+00 0.12855841E+04</pdfrwt>
<totfact> 0.56811362E+00</totfact>
</mgrwt>
</event>
<event>
12    5  0.6286460E-008  0.2005234E+04  0.7818608E-02  0.8604177E-01
         -2   -1    0    0    0  501 -0.00000000000E+00  0.00000000000E+00  0.74752970937E+03  0.74752970937E+03  0.00000000000E+00 0.  1.
          1   -1    0    0  501    0  0.00000000000E+00 -0.00000000000E+00 -0.13447508476E+04  0.13447508476E+04  0.00000000000E+00 0. -1.
        -24    2    1    2    0    0 -0.65775643249E+03  0.26726590403E+03 -0.62358569027E+03  0.94827051621E+03  0.79267085626E+02 0.  0.
        254    2    1    2    0    0  0.65775643249E+03 -0.26726590403E+03  0.26364551997E+02  0.11440100408E+04  0.89665450198E+03 0.  0.
         23    2    4    4    0    0 -0.13406090654E+03  0.14621770374E+03 -0.94885545199E+02  0.23796280082E+03  0.90945502028E+02 0.  0.
         23    2    4    4    0    0  0.79181733903E+03 -0.41348360777E+03  0.12125009720E+03  0.90604723998E+03  0.90975945878E+02 0.  0.
          1    1    3    3  502    0 -0.60047673130E+03  0.22259202160E+03 -0.54146293719E+03  0.83863080391E+03  0.00000000000E+00 0. -1.
         -2    1    3    3    0  502 -0.57279701186E+02  0.44673882431E+02 -0.82122753088E+02  0.10963971230E+03  0.00000000000E+00 0.  1.
         13    1    5    5    0    0 -0.50965574816E+02  0.12010779880E+03 -0.65854407236E+02  0.14615120971E+03  0.00000000000E+00 0.  1.
        -13    1    5    5    0    0 -0.83095331725E+02  0.26109904937E+02 -0.29031137964E+02  0.91811591108E+02  0.00000000000E+00 0. -1.
          4    1    6    6  503    0  0.53269113380E+03 -0.32139687198E+03  0.10119591624E+03  0.63031453006E+03  0.00000000000E+00 0.  1.
         -4    1    6    6    0  503  0.25912620523E+03 -0.92086735794E+02  0.20054180954E+02  0.27573270992E+03  0.00000000000E+00 0. -1.
<mgrwt>
<rscale>  0 0.20052344E+04</rscale>
<asrwt>0</asrwt>
<pdfrwt beam="1">  1        1 0.20688474E+00 0.20052344E+04</pdfrwt>
<pdfrwt beam="2">  1       -2 0.11500457E+00 0.20052344E+04</pdfrwt>
<totfact> 0.40321949E+00</totfact>
</mgrwt>
</event>
<event>
12    5  0.5221187E-008  0.1850369E+04  0.7818608E-02  0.8679963E-01
          1   -1    0    0  501    0  0.00000000000E+00  0.00000000000E+00  0.19986957485E+04  0.19986957485E+04  0.00000000000E+00 0. -1.
         -2   -1    0    0    0  501 -0.00000000000E+00 -0.00000000000E+00 -0.42826262678E+03  0.42826262678E+03  0.00000000000E+00 0.  1.
        -24    2    1    2    0    0 -0.52504055512E+03  0.36337025389E+03  0.21994936389E+03  0.68003851004E+03  0.79806807567E+02 0.  0.
        254    2    1    2    0    0  0.52504055512E+03 -0.36337025389E+03  0.13504837578E+04  0.17469198652E+04  0.90565838451E+03 0.  0.
         23    2    4    4    0    0  0.31602381465E+03  0.27436389250E+03  0.55868157926E+03  0.70485090673E+03  0.97688775081E+02 0.  0.
         23    2    4    4    0    0  0.20901674047E+03 -0.63773414639E+03  0.79180217855E+03  0.10420689585E+04  0.92542882065E+02 0.  0.
          1    1    3    3  502    0 -0.12269230370E+03  0.88321668373E+02  0.17123315979E+02  0.15214245444E+03  0.00000000000E+00 0. -1.
         -2    1    3    3    0  502 -0.40234825142E+03  0.27504858552E+03  0.20282604791E+03  0.52789605561E+03  0.00000000000E+00 0.  1.
         13    1    5    5    0    0  0.21316460074E+02  0.51329545106E+02  0.11246781410E+03  0.12545167548E+03  0.00000000000E+00 0.  1.
        -13    1    5    5    0    0  0.29470735458E+03  0.22303434739E+03  0.44621376516E+03  0.57939923125E+03  0.00000000000E+00 0. -1.
          2    1    6    6  503    0  0.18534156010E+03 -0.61509927368E+03  0.76965131554E+03  0.10025276844E+04  0.00000000000E+00 0. -1.
         -2    1    6    6    0  503  0.23675180370E+02 -0.22634872702E+02  0.22150863010E+02  0.39541274130E+02  0.00000000000E+00 0.  1.
<mgrwt>
<rscale>  0 0.18503694E+04</rscale>
<asrwt>0</asrwt>
<pdfrwt beam="1">  1        1 0.30749165E+00 0.18503694E+04</pdfrwt>
<pdfrwt beam="2">  1       -2 0.65886559E-01 0.18503694E+04</pdfrwt>
<totfact> 0.52239837E+00</totfact>
</mgrwt>
</event>
<event>
12    5  0.5221187E-008  0.1345560E+04  0.7818608E-02  0.8994196E-01
         -2   -1    0    0    0  501 -0.00000000000E+00  0.00000000000E+00  0.46220683223E+03  0.46220683223E+03  0.00000000000E+00 0.  1.
          1   -1    0    0  501    0  0.00000000000E+00 -0.00000000000E+00 -0.97928722497E+03  0.97928722497E+03  0.00000000000E+00 0. -1.
        -24    2    1    2    0    0  0.22033084598E+02  0.24136709168E+03 -0.43441263414E+03  0.50432379959E+03  0.82973660741E+02 0.  0.
        254    2    1    2    0    0 -0.22033084598E+02 -0.24136709168E+03 -0.82667758603E+02  0.93717025761E+03  0.90150463320E+03 0.  0.
         23    2    4    4    0    0  0.80655047922E+02 -0.11301679521E+03  0.39242096547E+03  0.42630361868E+03  0.91992001816E+02 0.  0.
         23    2    4    4    0    0 -0.10268813252E+03 -0.12835029646E+03 -0.47508872408E+03  0.51086663894E+03  0.90866802899E+02 0.  0.
          3    1    3    3  502    0 -0.16926862116E+02  0.41483315583E+02 -0.13482952773E+03  0.14207880096E+03  0.00000000000E+00 0. -1.
         -4    1    3    3    0  502  0.38959946714E+02  0.19988377609E+03 -0.29958310640E+03  0.36224499863E+03  0.00000000000E+00 0.  1.
         13    1    5    5    0    0 -0.82122283508E+01 -0.36880422507E+02  0.17861746097E+03  0.18256999650E+03  0.00000000000E+00 0. -1.
        -13    1    5    5    0    0  0.88867276273E+02 -0.76136372707E+02  0.21380350450E+03  0.24373362217E+03  0.00000000000E+00 0.  1.
          3    1    6    6  503    0  0.15920731758E+02 -0.11422503841E+02 -0.32168564159E+02  0.37666428206E+02  0.00000000000E+00 0. -1.
         -3    1    6    6    0  503 -0.11860886428E+03 -0.11692779262E+03 -0.44292015992E+03  0.47320021073E+03  0.00000000000E+00 0.  1.
<mgrwt>
<rscale>  0 0.13455605E+04</rscale>
<asrwt>0</asrwt>
<pdfrwt beam="1">  1        1 0.15065957E+00 0.13455605E+04</pdfrwt>
<pdfrwt beam="2">  1       -2 0.71108744E-01 0.13455605E+04</pdfrwt>
<totfact> 0.24219799E+01</totfact>
</mgrwt>
</event>
<event>
12    5  0.5221187E-008  0.1439263E+04  0.7818608E-02  0.8925879E-01
         -2   -1    0    0    0  501 -0.00000000000E+00  0.00000000000E+00  0.41828532343E+03  0.41828532343E+03  0.00000000000E+00 0.  1.
          1   -1    0    0  501    0  0.00000000000E+00 -0.00000000000E+00 -0.12380764731E+04  0.12380764731E+04  0.00000000000E+00 0. -1.
        -24    2    1    2    0    0 -0.45147780685E+03  0.22815153040E+03 -0.23342608582E+03  0.56279294693E+03  0.79767365999E+02 0.  0.
        254    2    1    2    0    0  0.45147780685E+03 -0.22815153040E+03 -0.58636506391E+03  0.10935688496E+04  0.77212920541E+03 0.  0.
         23    2    4    4    0    0  0.14842908780E+02 -0.16213376091E+02  0.16877298686E+03  0.19133079804E+03  0.87406908631E+02 0.  0.
         23    2    4    4    0    0  0.43663489807E+03 -0.21193815431E+03 -0.75513805077E+03  0.90223805161E+03  0.90731530297E+02 0.  0.
          3    1    3    3  502    0 -0.40547328540E+03  0.19404688309E+03 -0.17917116518E+03  0.48390606986E+03  0.00000000000E+00 0. -1.
         -4    1    3    3    0  502 -0.46004521441E+02  0.34104647308E+02 -0.54254920636E+02  0.78886877073E+02  0.00000000000E+00 0.  1.
         13    1    5    5    0    0  0.25455331277E+01  0.26431810176E+02  0.13401042491E+02  0.29744045924E+02  0.00000000000E+00 0.  1.
        -13    1    5    5    0    0  0.12297375652E+02 -0.42645186267E+02  0.15537194437E+03  0.16158675211E+03  0.00000000000E+00 0. -1.
          3    1    6    6  503    0  0.43515159971E+03 -0.20173010344E+03 -0.75105765042E+03  0.89114507439E+03  0.00000000000E+00 0. -1.
         -3    1    6    6    0  503  0.14832983559E+01 -0.10208050864E+02 -0.40804003522E+01  0.11092977215E+02  0.00000000000E+00 0.  1.
<mgrwt>
<rscale>  0 0.14392626E+04</rscale>
<asrwt>0</asrwt>
<pdfrwt beam="1">  1        1 0.19047330E+00 0.14392626E+04</pdfrwt>
<pdfrwt beam="2">  1       -2 0.64351589E-01 0.14392626E+04</pdfrwt>
<totfact> 0.19065117E+01</totfact>
</mgrwt>
</event>
<event>
12    5  0.5221187E-008  0.1493534E+04  0.7818608E-02  0.8888764E-01
          1   -1    0    0  501    0  0.00000000000E+00  0.00000000000E+00  0.85716178833E+03  0.85716178833E+03  0.00000000000E+00 0. -1.
         -2   -1    0    0    0  501 -0.00000000000E+00 -0.00000000000E+00 -0.65058997281E+03  0.65058997281E+03  0.00000000000E+00 0.  1.
        -24    2    1    2    0    0 -0.40109469339E+03 -0.13190277653E+03 -0.14762184932E+03  0.45310165769E+03  0.72343667841E+02 0.  0.
        254    2    1    2    0    0  0.40109469339E+03  0.13190277653E+03  0.35419366484E+03  0.10546501035E+04  0.89919875054E+03 0.  0.
         23    2    4    4    0    0  0.99888774060E+02  0.22979825256E+03  0.59134638103E+03  0.64870267789E+03  0.91321508321E+02 0.  0.
         23    2    4    4    0    0  0.30120591933E+03 -0.97895476027E+02 -0.23715271619E+03  0.40594742556E+03  0.90793014365E+02 0.  0.
          1    1    3    3  502    0 -0.19051739890E+01 -0.79240575905E+01 -0.10278252557E+02  0.13117273050E+02  0.00000000000E+00 0. -1.
         -2    1    3    3    0  502 -0.39918951941E+03 -0.12397871894E+03 -0.13734359676E+03  0.43998438464E+03  0.00000000000E+00 0.  1.
         13    1    5    5    0    0  0.17217230641E+02  0.70670594701E+02  0.28112234811E+03  0.29037999344E+03  0.00000000000E+00 0. -1.
        -13    1    5    5    0    0  0.82671543419E+02  0.15912765786E+03  0.31022403292E+03  0.35832268444E+03  0.00000000000E+00 0.  1.
          3    1    6    6  503    0  0.22189297286E+03 -0.32151801335E+02 -0.13990686912E+03  0.26428046042E+03  0.00000000000E+00 0. -1.
         -3    1    6    6    0  503  0.79312946473E+02 -0.65743674692E+02 -0.97245847066E+02  0.14166696514E+03  0.00000000000E+00 0.  1.
<mgrwt>
<rscale>  0 0.14935339E+04</rscale>
<asrwt>0</asrwt>
<pdfrwt beam="1">  1        1 0.13187104E+00 0.14935339E+04</pdfrwt>
<pdfrwt beam="2">  1       -2 0.10009077E+00 0.14935339E+04</pdfrwt>
<totfact> 0.13806652E+01</totfact>
</mgrwt>
</event>
<event>
12    5  0.5221187E-008  0.1999363E+04  0.7818608E-02  0.8606919E-01
         -2   -1    0    0    0  501 -0.00000000000E+00  0.00000000000E+00  0.93785587015E+03  0.93785587015E+03  0.00000000000E+00 0.  1.
          1   -1    0    0  501    0  0.00000000000E+00 -0.00000000000E+00 -0.10655825883E+04  0.10655825883E+04  0.00000000000E+00 0. -1.
        -24    2    1    2    0    0  0.89434835481E+02  0.41632651806E+03 -0.71380781398E+03  0.83490659743E+03  0.78873770604E+02 0.  0.
        254    2    1    2    0    0 -0.89434835481E+02 -0.41632651806E+03  0.58608109583E+03  0.11685318610E+04  0.91686929269E+03 0.  0.
         23    2    4    4    0    0 -0.28024428521E+03 -0.24234032570E+03  0.75555076742E+03  0.84618130682E+03  0.88882782325E+02 0.  0.
         23    2    4    4    0    0  0.19080944973E+03 -0.17398619236E+03 -0.16946967159E+03  0.32235055420E+03  0.92252203032E+02 0.  0.
          3    1    3    3  502    0  0.82650293265E+02  0.33775414877E+03 -0.63157368034E+03  0.72096757880E+03  0.00000000000E+00 0. -1.
         -4    1    3    3    0  502  0.67845422162E+01  0.78572369294E+02 -0.82234133641E+02  0.11393901863E+03  0.00000000000E+00 0.  1.
         13    1    5    5    0    0 -0.21524509928E+03 -0.13079827304E+03  0.50508882848E+03  0.56440532036E+03  0.00000000000E+00 0. -1.
        -13    1    5    5    0    0 -0.64999185937E+02 -0.11154205267E+03  0.25046193895E+03  0.28177598646E+03  0.00000000000E+00 0.  1.
          2    1    6    6  503    0  0.10791122828E+03 -0.89763111644E+02 -0.14472299406E+03  0.20161099774E+03  0.00000000000E+00 0. -1.
         -2    1    6    6    0  503  0.82898221453E+02 -0.84223080713E+02 -0.24746677537E+02  0.12073955646E+03  0.00000000000E+00 0.  1.
<mgrwt>
<rscale>  0 0.19993628E+04</rscale>
<asrwt>0</asrwt>
<pdfrwt beam="1">  1        1 0.16393578E+00 0.19993628E+04</pdfrwt>
<pdfrwt beam="2">  1       -2 0.14428552E+00 0.19993628E+04</pdfrwt>
<totfact> 0.36355694E+00</totfact>
</mgrwt>
</event>
<event>
12    5  0.5221187E-008  0.1300108E+04  0.7818608E-02  0.9029479E-01
          1   -1    0    0  501    0  0.00000000000E+00  0.00000000000E+00  0.11926484310E+04  0.11926484310E+04  0.00000000000E+00 0. -1.
         -2   -1    0    0    0  501 -0.00000000000E+00 -0.00000000000E+00 -0.35431270125E+03  0.35431270125E+03  0.00000000000E+00 0.  1.
        -24    2    1    2    0    0  0.85139926982E+01 -0.29181516764E+03  0.38885507863E+03  0.49343230175E+03  0.83896269873E+02 0.  0.
        254    2    1    2    0    0 -0.85139926982E+01  0.29181516764E+03  0.44948065113E+03  0.10535288305E+04  0.90700692437E+03 0.  0.
         23    2    4    4    0    0 -0.35561238052E+03  0.19582589904E+03 -0.62192640072E+02  0.42177677822E+03  0.96019676385E+02 0.  0.
         23    2    4    4    0    0  0.34709838782E+03  0.95989268597E+02  0.51167329121E+03  0.63175205229E+03  0.87234558135E+02 0.  0.
          3    1    3    3  502    0  0.75869684519E+01 -0.12528269718E+03  0.23639674455E+03  0.26765040097E+03  0.00000000000E+00 0. -1.
         -4    1    3    3    0  502  0.92702424632E+00 -0.16653247046E+03  0.15245833407E+03  0.22578190078E+03  0.00000000000E+00 0.  1.
         13    1    5    5    0    0 -0.35686009471E+03  0.17730604793E+03 -0.61532686863E+02  0.40320321598E+03  0.00000000000E+00 0.  1.
        -13    1    5    5    0    0  0.12477141874E+01  0.18519851115E+02 -0.65995320927E+00  0.18573562239E+02  0.00000000000E+00 0. -1.
          4    1    6    6  503    0  0.17144761020E+03  0.52565852154E+02  0.18087275686E+03  0.25470062040E+03  0.00000000000E+00 0. -1.
         -4    1    6    6    0  503  0.17565077762E+03  0.43423416443E+02  0.33080053434E+03  0.37705143190E+03  0.00000000000E+00 0.  1.
<mgrwt>
<rscale>  0 0.13001084E+04</rscale>
<asrwt>0</asrwt>
<pdfrwt beam="1">  1        1 0.18348437E+00 0.13001084E+04</pdfrwt>
<pdfrwt beam="2">  1       -2 0.54509647E-01 0.13001084E+04</pdfrwt>
<totfact> 0.29527440E+01</totfact>
</mgrwt>
</event>
<event>
12    5  0.5221187E-008  0.2374725E+04  0.7818608E-02  0.8449027E-01
          1   -1    0    0  501    0  0.00000000000E+00  0.00000000000E+00  0.20891039459E+04  0.20891039459E+04  0.00000000000E+00 0. -1.
         -4   -1    0    0    0  501 -0.00000000000E+00 -0.00000000000E+00 -0.67484926052E+03  0.67484926052E+03  0.00000000000E+00 0.  1.
        -24    2    1    2    0    0  0.47352322450E+03 -0.82145739548E+03  0.19257074875E+03  0.97084928707E+03  0.80301607702E+02 0.  0.
        254    2    1    2    0    0 -0.47352322450E+03  0.82145739548E+03  0.12216839367E+04  0.17931039194E+04  0.90757563203E+03 0.  0.
         23    2    4    4    0    0 -0.17797935570E+03 -0.58692756402E+02 -0.51180948092E+02  0.21490657583E+03  0.91890457492E+02 0.  0.
         23    2    4    4    0    0 -0.29554386880E+03  0.88015015189E+03  0.12728648847E+04  0.15781973435E+04  0.92257097799E+02 0.  0.
          3    1    3    3  502    0  0.16527431874E+03 -0.28247426674E+03  0.27773840731E+02  0.32844892759E+03  0.00000000000E+00 0. -1.
         -4    1    3    3    0  502  0.30824890577E+03 -0.53898312874E+03  0.16479690802E+03  0.64240035949E+03  0.00000000000E+00 0.  1.
         13    1    5    5    0    0 -0.58868584327E+02  0.11852637736E+02  0.14357131938E+02  0.61742388028E+02  0.00000000000E+00 0.  1.
        -13    1    5    5    0    0 -0.11911077137E+03 -0.70545394138E+02 -0.65538080030E+02  0.15316418780E+03  0.00000000000E+00 0. -1.
          3    1    6    6  503    0 -0.14688116064E+03  0.29922890058E+03  0.44767305327E+03  0.55814260984E+03  0.00000000000E+00 0. -1.
         -3    1    6    6    0  503 -0.14866270816E+03  0.58092125130E+03  0.82519183147E+03  0.10200547337E+04  0.00000000000E+00 0.  1.
<mgrwt>
<rscale>  0 0.23747255E+04</rscale>
<asrwt>0</asrwt>
<pdfrwt beam="1">  1        1 0.32140060E+00 0.23747255E+04</pdfrwt>
<pdfrwt beam="2">  1       -4 0.10382296E+00 0.23747255E+04</pdfrwt>
<totfact> 0.86401133E-01</totfact>
</mgrwt>
</event>
<event>
12    5  0.5221187E-008  0.1621453E+04  0.7818608E-02  0.8807476E-01
         -2   -1    0    0    0  501 -0.00000000000E+00  0.00000000000E+00  0.68581299705E+03  0.68581299705E+03  0.00000000000E+00 0.  1.
          1   -1    0    0  501    0  0.00000000000E+00 -0.00000000000E+00 -0.95839171578E+03  0.95839171578E+03  0.00000000000E+00 0. -1.
        -24    2    1    2    0    0 -0.50353091889E+03 -0.78543319080E+02  0.13501146121E+03  0.53330425642E+03  0.80454310066E+02 0.  0.
        254    2    1    2    0    0  0.50353091889E+03  0.78543319080E+02 -0.40759017995E+03  0.11109004564E+04  0.89903149556E+03 0.  0.
         23    2    4    4    0    0 -0.10662123369E+02 -0.20610848928E+03  0.16956665706E+03  0.28152391024E+03  0.88929582374E+02 0.  0.
         23    2    4    4    0    0  0.51419304226E+03  0.28465180836E+03 -0.57715683701E+03  0.82937654617E+03  0.96614202475E+02 0.  0.
          3    1    3    3  502    0 -0.24917924066E+03 -0.49022134137E+02  0.10750107362E+03  0.27577154393E+03  0.00000000000E+00 0. -1.
         -4    1    3    3    0  502 -0.25435167823E+03 -0.29521184943E+02  0.27510387596E+02  0.25753271250E+03  0.00000000000E+00 0.  1.
         13    1    5    5    0    0  0.91973284447E+00 -0.10353624174E+03  0.29746910944E+02  0.10772872399E+03  0.00000000000E+00 0. -1.
        -13    1    5    5    0    0 -0.11581856213E+02 -0.10257224754E+03  0.13981974612E+03  0.17379518625E+03  0.00000000000E+00 0.  1.
          4    1    6    6  503    0  0.26788571197E+03  0.14503059158E+03 -0.23175208601E+03  0.38276057339E+03  0.00000000000E+00 0. -1.
         -4    1    6    6    0  503  0.24630733028E+03  0.13962121678E+03 -0.34540475100E+03  0.44661597278E+03  0.00000000000E+00 0.  1.
<mgrwt>
<rscale>  0 0.16214530E+04</rscale>
<asrwt>0</asrwt>
<pdfrwt beam="1">  1        1 0.14744488E+00 0.16214530E+04</pdfrwt>
<pdfrwt beam="2">  1       -2 0.10550969E+00 0.16214530E+04</pdfrwt>
<totfact> 0.99559070E+00</totfact>
</mgrwt>
</event>
<event>
12    5  0.5221187E-008  0.1705226E+04  0.7818608E-02  0.8758389E-01
         -2   -1    0    0    0  501 -0.00000000000E+00  0.00000000000E+00  0.11926398390E+04  0.11926398390E+04  0.00000000000E+00 0.  1.
          1   -1    0    0  501    0  0.00000000000E+00 -0.00000000000E+00 -0.60952927084E+03  0.60952927084E+03  0.00000000000E+00 0. -1.
        -24    2    1    2    0    0  0.33128481279E+03 -0.32409974759E+03 -0.20107829395E+03  0.51146103628E+03  0.79810010415E+02 0.  0.
        254    2    1    2    0    0 -0.33128481279E+03  0.32409974759E+03  0.78418886210E+03  0.12907080736E+04  0.91443145513E+03 0.  0.
         23    2    4    4    0    0 -0.48835313653E+03  0.30915258733E+03  0.11410768861E+03  0.59609512899E+03  0.90800495567E+02 0.  0.
         23    2    4    4    0    0  0.15706832374E+03  0.14947160267E+02  0.67008117349E+03  0.69461294457E+03  0.92652510902E+02 0.  0.
          1    1    3    3  502    0  0.22381727723E+03 -0.20988628157E+03 -0.17267835518E+03  0.35208555654E+03  0.00000000000E+00 0. -1.
         -2    1    3    3    0  502  0.10746753556E+03 -0.11421346602E+03 -0.28399938768E+02  0.15937547974E+03  0.00000000000E+00 0.  1.
         13    1    5    5    0    0 -0.38760450628E+03  0.28000448004E+03  0.74234690916E+02  0.48389105331E+03  0.00000000000E+00 0.  1.
        -13    1    5    5    0    0 -0.10074863025E+03  0.29148107289E+02  0.39872997697E+02  0.11220407568E+03  0.00000000000E+00 0. -1.
          3    1    6    6  503    0  0.77035194408E+02 -0.50520575844E+01  0.15713135129E+03  0.17507200240E+03  0.00000000000E+00 0. -1.
         -3    1    6    6    0  503  0.80033129337E+02  0.19999217852E+02  0.51294982220E+03  0.51954094217E+03  0.00000000000E+00 0.  1.
<mgrwt>
<rscale>  0 0.17052260E+04</rscale>
<asrwt>0</asrwt>
<pdfrwt beam="1">  1        1 0.93773734E-01 0.17052260E+04</pdfrwt>
<pdfrwt beam="2">  1       -2 0.18348305E+00 0.17052260E+04</pdfrwt>
<totfact> 0.47784297E+00</totfact>
</mgrwt>
</event>
<event>
12    5  0.5221187E-008  0.1526520E+04  0.7818608E-02  0.8867007E-01
         -2   -1    0    0    0  501 -0.00000000000E+00  0.00000000000E+00  0.43521292278E+03  0.43521292278E+03  0.00000000000E+00 0.  1.
          1   -1    0    0  501    0  0.00000000000E+00 -0.00000000000E+00 -0.13385761197E+04  0.13385761197E+04  0.00000000000E+00 0. -1.
        -24    2    1    2    0    0 -0.71931905770E+02 -0.37544851942E+03  0.60506996372E+02  0.39527200709E+03  0.80268755900E+02 0.  0.
        254    2    1    2    0    0  0.71931905770E+02  0.37544851942E+03 -0.96387019332E+03  0.13785170354E+04  0.90836538769E+03 0.  0.
         23    2    4    4    0    0 -0.13979543322E+03 -0.23339245047E+03 -0.50738249552E+03  0.58348988373E+03  0.94913900837E+02 0.  0.
         23    2    4    4    0    0  0.21172733899E+03  0.60884096989E+03 -0.45648769780E+03  0.79502715169E+03  0.90395580569E+02 0.  0.
          1    1    3    3  502    0  0.17650384157E+02 -0.55775937895E+02  0.12635455088E+02  0.59851032023E+02  0.00000000000E+00 0. -1.
         -2    1    3    3    0  502 -0.89582289927E+02 -0.31967258153E+03  0.47871541284E+02  0.33542097507E+03  0.00000000000E+00 0.  1.
         13    1    5    5    0    0 -0.67064791720E+02 -0.14048506640E+03 -0.19467467815E+03  0.24926285420E+03  0.00000000000E+00 0. -1.
        -13    1    5    5    0    0 -0.72730641500E+02 -0.92907384068E+02 -0.31270781737E+03  0.33422702953E+03  0.00000000000E+00 0.  1.
          4    1    6    6  503    0  0.19569940465E+03  0.58765079486E+03 -0.45476386999E+03  0.76840216757E+03  0.00000000000E+00 0. -1.
         -4    1    6    6    0  503  0.16027934344E+02  0.21190175034E+02 -0.17238278165E+01  0.26624984125E+02  0.00000000000E+00 0.  1.
<mgrwt>
<rscale>  0 0.15265197E+04</rscale>
<asrwt>0</asrwt>
<pdfrwt beam="1">  1        1 0.20593479E+00 0.15265197E+04</pdfrwt>
<pdfrwt beam="2">  1       -2 0.66955835E-01 0.15265197E+04</pdfrwt>
<totfact> 0.14722798E+01</totfact>
</mgrwt>
</event>
<event>
12    5  0.5221187E-008  0.1784441E+04  0.7818608E-02  0.8714618E-01
          1   -1    0    0  501    0  0.00000000000E+00  0.00000000000E+00  0.12963965709E+04  0.12963965709E+04  0.00000000000E+00 0. -1.
         -2   -1    0    0    0  501 -0.00000000000E+00 -0.00000000000E+00 -0.61405371512E+03  0.61405371512E+03  0.00000000000E+00 0.  1.
        -24    2    1    2    0    0  0.19941666503E+03  0.28492589225E+03 -0.35244042638E+03  0.50145203363E+03  0.79310261100E+02 0.  0.
        254    2    1    2    0    0 -0.19941666503E+03 -0.28492589225E+03  0.10347832822E+04  0.14089982524E+04  0.89081415785E+03 0.  0.
         23    2    4    4    0    0 -0.38115010158E+03  0.19108859132E+03  0.42412429834E+03  0.60868308901E+03  0.93933129093E+02 0.  0.
         23    2    4    4    0    0  0.18173343655E+03 -0.47601448356E+03  0.61065898385E+03  0.80031516340E+03  0.89348394984E+02 0.  0.
          3    1    3    3  502    0  0.71441784649E+02  0.12825599037E+03 -0.98536316127E+02  0.17681327228E+03  0.00000000000E+00 0. -1.
         -4    1    3    3    0  502  0.12797488039E+03  0.15666990188E+03 -0.25390411026E+03  0.32463876135E+03  0.00000000000E+00 0.  1.
         13    1    5    5    0    0 -0.55840233305E+02  0.69217449848E+02  0.77966735327E+02  0.11827087062E+03  0.00000000000E+00 0.  1.
        -13    1    5    5    0    0 -0.32530986828E+03  0.12187114147E+03  0.34615756301E+03  0.49041221840E+03  0.00000000000E+00 0. -1.
          1    1    6    6  503    0  0.15530826578E+02 -0.15099176196E+03  0.16419274914E+03  0.22360451164E+03  0.00000000000E+00 0. -1.
         -1    1    6    6    0  503  0.16620260997E+03 -0.32502272160E+03  0.44646623471E+03  0.57671065176E+03  0.00000000000E+00 0.  1.
<mgrwt>
<rscale>  0 0.17844407E+04</rscale>
<asrwt>0</asrwt>
<pdfrwt beam="1">  1        1 0.19944563E+00 0.17844407E+04</pdfrwt>
<pdfrwt beam="2">  1       -2 0.94469803E-01 0.17844407E+04</pdfrwt>
<totfact> 0.71226262E+00</totfact>
</mgrwt>
</event>
<event>
12    5  0.5962658E-008  0.1698028E+04  0.7818608E-02  0.8762490E-01
         -2   -1    0    0    0  501 -0.00000000000E+00  0.00000000000E+00  0.29786222461E+03  0.29786222461E+03  0.00000000000E+00 0.  1.
          1   -1    0    0  501    0  0.00000000000E+00 -0.00000000000E+00 -0.24199952594E+04  0.24199952594E+04  0.00000000000E+00 0. -1.
        -24    2    1    2    0    0 -0.35182330252E+03 -0.48907134340E+03 -0.97523378405E+03  0.11490775823E+04  0.79548359786E+02 0.  0.
        254    2    1    2    0    0  0.35182330252E+03  0.48907134340E+03 -0.11468992507E+04  0.15687799016E+04  0.88471581505E+03 0.  0.
         23    2    4    4    0    0  0.56349174467E+03  0.38961012520E+03 -0.44163128466E+03  0.82017553619E+03  0.91272792290E+02 0.  0.
         23    2    4    4    0    0 -0.21166844215E+03  0.99461218197E+02 -0.70526796605E+03  0.74860436545E+03  0.91156616374E+02 0.  0.
          1    1    3    3  502    0 -0.33879429237E+03 -0.48646209968E+03 -0.93886911449E+03  0.11103612750E+04  0.00000000000E+00 0. -1.
         -2    1    3    3    0  502 -0.13029010146E+02 -0.26092437155E+01 -0.36364669559E+02  0.38716307292E+02  0.00000000000E+00 0.  1.
         13    1    5    5    0    0  0.30291996280E+03  0.15564132877E+03 -0.20453961931E+03  0.39726714305E+03  0.00000000000E+00 0. -1.
        -13    1    5    5    0    0  0.26057178187E+03  0.23396879643E+03 -0.23709166535E+03  0.42290839314E+03  0.00000000000E+00 0.  1.
          1    1    6    6  503    0 -0.10861852306E+03  0.94335436518E+02 -0.34348721878E+03  0.37239847959E+03  0.00000000000E+00 0. -1.
         -1    1    6    6    0  503 -0.10304991909E+03  0.51257816793E+01 -0.36178074727E+03  0.37620588586E+03  0.00000000000E+00 0.  1.
<mgrwt>
<rscale>  0 0.16980285E+04</rscale>
<asrwt>0</asrwt>
<pdfrwt beam="1">  1        1 0.37230698E+00 0.16980285E+04</pdfrwt>
<pdfrwt beam="2">  1       -2 0.45824955E-01 0.16980285E+04</pdfrwt>
<totfact> 0.58158656E+00</totfact>
</mgrwt>
</event>
<event>
12    5  0.5221187E-008  0.3165862E+04  0.7818608E-02  0.8197892E-01
          1   -1    0    0  501    0  0.00000000000E+00  0.00000000000E+00  0.22631909600E+04  0.22631909600E+04  0.00000000000E+00 0. -1.
         -2   -1    0    0    0  501 -0.00000000000E+00 -0.00000000000E+00 -0.11071403082E+04  0.11071403082E+04  0.00000000000E+00 0.  1.
        -24    2    1    2    0    0 -0.12741960958E+04 -0.53811313141E+03  0.94760987448E+03  0.16780025331E+04  0.67724397454E+02 0.  0.
        254    2    1    2    0    0  0.12741960958E+04  0.53811313141E+03  0.20844077738E+03  0.16923287351E+04  0.95256892514E+03 0.  0.
         23    2    4    4    0    0  0.66604989887E+03  0.55477437229E+03  0.50684200399E+03  0.10085850282E+04  0.94646025546E+02 0.  0.
         23    2    4    4    0    0  0.60814619696E+03 -0.16661240879E+02 -0.29840122660E+03  0.68374370691E+03  0.91338769807E+02 0.  0.
          1    1    3    3  502    0 -0.89358367729E+03 -0.40426695483E+03  0.69336783203E+03  0.12011171923E+04  0.00000000000E+00 0. -1.
         -2    1    3    3    0  502 -0.38061241854E+03 -0.13384617658E+03  0.25424204246E+03  0.47688534082E+03  0.00000000000E+00 0.  1.
         13    1    5    5    0    0  0.12525642997E+03  0.15586759845E+03  0.11312476278E+03  0.22974136208E+03  0.00000000000E+00 0.  1.
        -13    1    5    5    0    0  0.54079346890E+03  0.39890677384E+03  0.39371724121E+03  0.77884366611E+03  0.00000000000E+00 0. -1.
          3    1    6    6  503    0  0.23832418483E+03  0.24676786811E+02 -0.15264521302E+03  0.28409139716E+03  0.00000000000E+00 0. -1.
         -3    1    6    6    0  503  0.36982201213E+03 -0.41338027690E+02 -0.14575601358E+03  0.39965230974E+03  0.00000000000E+00 0.  1.
<mgrwt>
<rscale>  0 0.31658616E+04</rscale>
<asrwt>0</asrwt>
<pdfrwt beam="1">  1        1 0.34818322E+00 0.31658616E+04</pdfrwt>
<pdfrwt beam="2">  1       -2 0.17032928E+00 0.31658616E+04</pdfrwt>
<totfact> 0.30856339E-01</totfact>
</mgrwt>
</event>
<event>
12    5  0.5221187E-008  0.1085031E+04  0.7818608E-02  0.9219905E-01
          1   -1    0    0  501    0  0.00000000000E+00  0.00000000000E+00  0.12979774923E+03  0.12979774923E+03  0.00000000000E+00 0. -1.
         -2   -1    0    0    0  501 -0.00000000000E+00 -0.00000000000E+00 -0.22675529309E+04  0.22675529309E+04  0.00000000000E+00 0.  1.
        -24    2    1    2    0    0  0.15951688350E+03 -0.14092854618E+02 -0.26452148652E+03  0.31936374851E+03  0.79858264158E+02 0.  0.
        254    2    1    2    0    0 -0.15951688350E+03  0.14092854618E+02 -0.18732336951E+04  0.20779869316E+04  0.88508811239E+03 0.  0.
         23    2    4    4    0    0 -0.34485784094E+03 -0.63194960717E+02 -0.18134748832E+04  0.18493568333E+04  0.92244303236E+02 0.  0.
         23    2    4    4    0    0  0.18534095744E+03  0.77287815335E+02 -0.59758811982E+02  0.22863009833E+03  0.91520103520E+02 0.  0.
          1    1    3    3  502    0  0.35564363623E+02  0.14176686427E+02 -0.18692694160E+02  0.42605389482E+02  0.00000000000E+00 0. -1.
         -2    1    3    3    0  502  0.12395251988E+03 -0.28269541045E+02 -0.24582879236E+03  0.27675835902E+03  0.00000000000E+00 0.  1.
         13    1    5    5    0    0 -0.22254138887E+03 -0.80931561576E+01 -0.96646985602E+03  0.99179340164E+03  0.00000000000E+00 0. -1.
        -13    1    5    5    0    0 -0.12231645207E+03 -0.55101804559E+02 -0.84700502714E+03  0.85756343165E+03  0.00000000000E+00 0.  1.
          3    1    6    6  503    0  0.10066490471E+03  0.88512716888E+02 -0.24714334686E+02  0.13630378729E+03  0.00000000000E+00 0. -1.
         -3    1    6    6    0  503  0.84676052726E+02 -0.11224901553E+02 -0.35044477295E+02  0.92326311034E+02  0.00000000000E+00 0.  1.
<mgrwt>
<rscale>  0 0.10850314E+04</rscale>
<asrwt>0</asrwt>
<pdfrwt beam="1">  1        1 0.19968885E-01 0.10850314E+04</pdfrwt>
<pdfrwt beam="2">  1       -2 0.34885428E+00 0.10850314E+04</pdfrwt>
<totfact> 0.36792730E+00</totfact>
</mgrwt>
</event>
<event>
12    5  0.5221187E-008  0.2083337E+04  0.7818608E-02  0.8568619E-01
          1   -1    0    0  501    0  0.00000000000E+00  0.00000000000E+00  0.10156836964E+04  0.10156836964E+04  0.00000000000E+00 0. -1.
         -2   -1    0    0    0  501 -0.00000000000E+00 -0.00000000000E+00 -0.10683179027E+04  0.10683179027E+04  0.00000000000E+00 0.  1.
        -24    2    1    2    0    0 -0.46977322510E+03  0.67513536916E+03  0.17320449874E+03  0.84563211275E+03  0.92731990268E+02 0.  0.
        254    2    1    2    0    0  0.46977322510E+03 -0.67513536916E+03 -0.22583870502E+03  0.12383694864E+04  0.89780911919E+03 0.  0.
         23    2    4    4    0    0  0.62549142340E+03 -0.60380065144E+03  0.78374589629E+02  0.87876179287E+03  0.10131616302E+03 0.  0.
         23    2    4    4    0    0 -0.15571819829E+03 -0.71334717718E+02 -0.30421329465E+03  0.35960769355E+03  0.86227405061E+02 0.  0.
          3    1    3    3  502    0 -0.34953503965E+03  0.55590495728E+03  0.11552550639E+03  0.66674673460E+03  0.00000000000E+00 0. -1.
         -4    1    3    3    0  502 -0.12023818545E+03  0.11923041187E+03  0.57678992350E+02  0.17888537815E+03  0.00000000000E+00 0.  1.
         13    1    5    5    0    0  0.29332782922E+03 -0.24688910641E+03 -0.86246280465E+01  0.38349684545E+03  0.00000000000E+00 0.  1.
        -13    1    5    5    0    0  0.33216359418E+03 -0.35691154503E+03  0.86999217675E+02  0.49526494743E+03  0.00000000000E+00 0. -1.
          4    1    6    6  503    0 -0.18686422586E+02 -0.10797284557E+02 -0.12116460366E+03  0.12307162517E+03  0.00000000000E+00 0. -1.
         -4    1    6    6    0  503 -0.13703177571E+03 -0.60537433160E+02 -0.18304869099E+03  0.23653606837E+03  0.00000000000E+00 0.  1.
<mgrwt>
<rscale>  0 0.20833368E+04</rscale>
<asrwt>0</asrwt>
<pdfrwt beam="1">  1        1 0.15625903E+00 0.20833368E+04</pdfrwt>
<pdfrwt beam="2">  1       -2 0.16435660E+00 0.20833368E+04</pdfrwt>
<totfact> 0.27795338E+00</totfact>
</mgrwt>
</event>
<event>
12    5  0.5221187E-008  0.1441454E+04  0.7818608E-02  0.8924347E-01
         -2   -1    0    0    0  501 -0.00000000000E+00  0.00000000000E+00  0.44625069249E+03  0.44625069249E+03  0.00000000000E+00 0.  1.
          1   -1    0    0  501    0  0.00000000000E+00 -0.00000000000E+00 -0.11640253043E+04  0.11640253043E+04  0.00000000000E+00 0. -1.
        -24    2    1    2    0    0  0.17927965938E+03 -0.34252218351E+03 -0.44041379908E+03  0.59136943577E+03  0.79314895728E+02 0.  0.
        254    2    1    2    0    0 -0.17927965938E+03  0.34252218351E+03 -0.27736081271E+03  0.10189065610E+04  0.90098774529E+03 0.  0.
         23    2    4    4    0    0 -0.15229328865E+03 -0.81981167273E+02 -0.49677987912E+03  0.53192370048E+03  0.78983651934E+02 0.  0.
         23    2    4    4    0    0 -0.26986370728E+02  0.42450335078E+03  0.21941906641E+03  0.48698286053E+03  0.89867795763E+02 0.  0.
          3    1    3    3  502    0  0.88026756225E+02 -0.10651268616E+03 -0.19394564194E+03  0.23813562134E+03  0.00000000000E+00 0. -1.
         -4    1    3    3    0  502  0.91252903152E+02 -0.23600949735E+03 -0.24646815714E+03  0.35323381443E+03  0.00000000000E+00 0.  1.
         13    1    5    5    0    0 -0.57720628637E+02 -0.67404172419E+02 -0.17495233252E+03  0.19617163935E+03  0.00000000000E+00 0. -1.
        -13    1    5    5    0    0 -0.94572660012E+02 -0.14576994854E+02 -0.32182754660E+03  0.33575206113E+03  0.00000000000E+00 0.  1.
          3    1    6    6  503    0  0.22257030206E+02  0.67038117039E+02  0.59231108115E+02  0.92183559805E+02  0.00000000000E+00 0. -1.
         -3    1    6    6    0  503 -0.49243400934E+02  0.35746523374E+03  0.16018795830E+03  0.39479930072E+03  0.00000000000E+00 0.  1.
<mgrwt>
<rscale>  0 0.14414536E+04</rscale>
<asrwt>0</asrwt>
<pdfrwt beam="1">  1        1 0.17908082E+00 0.14414536E+04</pdfrwt>
<pdfrwt beam="2">  1       -2 0.68653952E-01 0.14414536E+04</pdfrwt>
<totfact> 0.18773851E+01</totfact>
</mgrwt>
</event>
<event>
12    5  0.5221187E-008  0.2052744E+04  0.7818608E-02  0.8582351E-01
          1   -1    0    0  501    0  0.00000000000E+00  0.00000000000E+00  0.14882603329E+04  0.14882603329E+04  0.00000000000E+00 0. -1.
         -2   -1    0    0    0  501 -0.00000000000E+00 -0.00000000000E+00 -0.70783278032E+03  0.70783278032E+03  0.00000000000E+00 0.  1.
        -24    2    1    2    0    0  0.37951609817E+02 -0.21585632367E+03  0.11589862585E+04  0.11826985151E+04  0.86558379322E+02 0.  0.
        254    2    1    2    0    0 -0.37951609817E+02  0.21585632367E+03 -0.37855870597E+03  0.10133945981E+04  0.91412670917E+03 0.  0.
         23    2    4    4    0    0 -0.63584931056E+02 -0.27449414716E+03 -0.41971049832E+03  0.51355417323E+03  0.90503625124E+02 0.  0.
         23    2    4    4    0    0  0.25633321239E+02  0.49035047083E+03  0.41151792358E+02  0.49984042486E+03  0.83942414220E+02 0.  0.
          1    1    3    3  502    0  0.62959184235E+02 -0.11585993845E+03  0.69539579356E+03  0.70778718123E+03  0.00000000000E+00 0. -1.
         -2    1    3    3    0  502 -0.25007574419E+02 -0.99996385220E+02  0.46359046498E+03  0.47491133389E+03  0.00000000000E+00 0.  1.
         13    1    5    5    0    0 -0.63237727591E+02 -0.19757186495E+03 -0.23497685328E+03  0.31344500887E+03  0.00000000000E+00 0.  1.
        -13    1    5    5    0    0 -0.34720346493E+00 -0.76922282216E+02 -0.18473364504E+03  0.20010916436E+03  0.00000000000E+00 0. -1.
          3    1    6    6  503    0 -0.10603253418E+02  0.15732984352E+03  0.47850736697E+02  0.16478714042E+03  0.00000000000E+00 0. -1.
         -3    1    6    6    0  503  0.36236574657E+02  0.33302062731E+03 -0.66989443388E+01  0.33505328444E+03  0.00000000000E+00 0.  1.
<mgrwt>
<rscale>  0 0.20527440E+04</rscale>
<asrwt>0</asrwt>
<pdfrwt beam="1">  1        1 0.22896313E+00 0.20527440E+04</pdfrwt>
<pdfrwt beam="2">  1       -2 0.10889735E+00 0.20527440E+04</pdfrwt>
<totfact> 0.36375025E+00</totfact>
</mgrwt>
</event>
<event>
12    5  0.5221187E-008  0.2393316E+04  0.7818608E-02  0.8442010E-01
          1   -1    0    0  501    0  0.00000000000E+00  0.00000000000E+00  0.17062011859E+04  0.17062011859E+04  0.00000000000E+00 0. -1.
         -2   -1    0    0    0  501 -0.00000000000E+00 -0.00000000000E+00 -0.83928593701E+03  0.83928593701E+03  0.00000000000E+00 0.  1.
        -24    2    1    2    0    0  0.24547491334E+03  0.99405815982E+03  0.42704851446E+03  0.11122304988E+04  0.79225567845E+02 0.  0.
        254    2    1    2    0    0 -0.24547491334E+03 -0.99405815982E+03  0.43986673443E+03  0.14332566241E+04  0.90129476215E+03 0.  0.
         23    2    4    4    0    0 -0.20462800503E+03  0.11391438147E+03  0.93813696761E+02  0.26829493553E+03  0.91280096299E+02 0.  0.
         23    2    4    4    0    0 -0.40846908313E+02 -0.11079725413E+04  0.34605303767E+03  0.11649616886E+04  0.90063359812E+02 0.  0.
          3    1    3    3  502    0  0.12441229200E+03  0.58681489406E+03  0.21346297678E+03  0.63670761009E+03  0.00000000000E+00 0. -1.
         -4    1    3    3    0  502  0.12106262134E+03  0.40724326576E+03  0.21358553767E+03  0.47552288872E+03  0.00000000000E+00 0.  1.
         13    1    5    5    0    0 -0.15491729512E+03  0.12488384737E+03  0.86070271007E+02  0.21680275647E+03  0.00000000000E+00 0. -1.
        -13    1    5    5    0    0 -0.49710709912E+02 -0.10969465896E+02  0.77434257535E+01  0.51492179060E+02  0.00000000000E+00 0.  1.
          1    1    6    6  503    0 -0.55576984359E+02 -0.72110742507E+03  0.19204932132E+03  0.74830986997E+03  0.00000000000E+00 0. -1.
         -1    1    6    6    0  503  0.14730076046E+02 -0.38686511622E+03  0.15400371635E+03  0.41665181860E+03  0.00000000000E+00 0.  1.
<mgrwt>
<rscale>  0 0.23933162E+04</rscale>
<asrwt>0</asrwt>
<pdfrwt beam="1">  1        1 0.26249249E+00 0.23933162E+04</pdfrwt>
<pdfrwt beam="2">  1       -2 0.12912091E+00 0.23933162E+04</pdfrwt>
<totfact> 0.16423202E+00</totfact>
</mgrwt>
</event>
<event>
12    5  0.5221187E-008  0.4134238E+04  0.7818608E-02  0.7978001E-01
         -2   -1    0    0    0  501 -0.00000000000E+00  0.00000000000E+00  0.19320323163E+04  0.19320323163E+04  0.00000000000E+00 0.  1.
          1   -1    0    0  501    0  0.00000000000E+00 -0.00000000000E+00 -0.22116504232E+04  0.22116504232E+04  0.00000000000E+00 0. -1.
        -24    2    1    2    0    0 -0.15811207895E+04  0.61759743763E+03 -0.11313382678E+04  0.20415294755E+04  0.80912156303E+02 0.  0.
        254    2    1    2    0    0  0.15811207895E+04 -0.61759743763E+03  0.85172016088E+03  0.21021532640E+04  0.90125000254E+03 0.  0.
         23    2    4    4    0    0  0.15956413536E+04 -0.67516042255E+03  0.92999996006E+03  0.19685766030E+04  0.92092294195E+02 0.  0.
         23    2    4    4    0    0 -0.14520564123E+02  0.57562984922E+02 -0.78279799180E+02  0.13357666102E+03  0.90502228662E+02 0.  0.
          1    1    3    3  502    0 -0.14390924644E+04  0.56521946391E+03 -0.10569591472E+04  0.18728648649E+04  0.00000000000E+00 0. -1.
         -2    1    3    3    0  502 -0.14202832511E+03  0.52377973715E+02 -0.74379120605E+02  0.16866461053E+03  0.00000000000E+00 0.  1.
         13    1    5    5    0    0  0.33564349403E+03 -0.17356342152E+03  0.23078247646E+03  0.44276559014E+03  0.00000000000E+00 0.  1.
        -13    1    5    5    0    0  0.12599978596E+04 -0.50159700103E+03  0.69921748360E+03  0.15258110129E+04  0.00000000000E+00 0. -1.
          1    1    6    6  503    0 -0.26762891535E+02  0.61506466362E+02 -0.92591375507E+02  0.11433486164E+03  0.00000000000E+00 0. -1.
         -1    1    6    6    0  503  0.12242327412E+02 -0.39434814400E+01  0.14311576327E+02  0.19241799377E+02  0.00000000000E+00 0.  1.
<mgrwt>
<rscale>  0 0.41342376E+04</rscale>
<asrwt>0</asrwt>
<pdfrwt beam="1">  1        1 0.34025391E+00 0.41342376E+04</pdfrwt>
<pdfrwt beam="2">  1       -2 0.29723574E+00 0.41342376E+04</pdfrwt>
<totfact> 0.48113815E-02</totfact>
</mgrwt>
</event>
<event>
12    5  0.5221187E-008  0.1749365E+04  0.7818608E-02  0.8733700E-01
          1   -1    0    0  501    0  0.00000000000E+00  0.00000000000E+00  0.22511709535E+04  0.22511709535E+04  0.00000000000E+00 0. -1.
         -2   -1    0    0    0  501 -0.00000000000E+00 -0.00000000000E+00 -0.33985391601E+03  0.33985391601E+03  0.00000000000E+00 0.  1.
        -24    2    1    2    0    0  0.51715123718E+03 -0.11023522113E+03  0.12720358442E+04  0.13797692584E+04  0.78043651358E+02 0.  0.
        254    2    1    2    0    0 -0.51715123718E+03  0.11023522113E+03  0.63928119331E+03  0.12112556111E+04  0.88253187204E+03 0.  0.
         23    2    4    4    0    0 -0.56635496826E+03  0.14163832529E+03  0.81415189133E+03  0.10059006362E+04  0.90406982858E+02 0.  0.
         23    2    4    4    0    0  0.49203731074E+02 -0.31403104162E+02 -0.17487069802E+03  0.20535497485E+03  0.90464040190E+02 0.  0.
          3    1    3    3  502    0  0.45529337331E+03 -0.72238474962E+02  0.11250892894E+04  0.12158685629E+04  0.00000000000E+00 0. -1.
         -4    1    3    3    0  502  0.61857863878E+02 -0.37996746170E+02  0.14694655475E+03  0.16390069553E+03  0.00000000000E+00 0.  1.
         13    1    5    5    0    0 -0.46168809371E+03  0.98329035518E+02  0.59791802649E+03  0.76179423830E+03  0.00000000000E+00 0.  1.
        -13    1    5    5    0    0 -0.10466687455E+03  0.43309289776E+02  0.21623386484E+03  0.24410639794E+03  0.00000000000E+00 0. -1.
          1    1    6    6  503    0 -0.24835424406E+02 -0.21513449221E+02 -0.49279912733E+02  0.59229524747E+02  0.00000000000E+00 0. -1.
         -1    1    6    6    0  503  0.74039155480E+02 -0.98896549411E+01 -0.12559078529E+03  0.14612545011E+03  0.00000000000E+00 0.  1.
<mgrwt>
<rscale>  0 0.17493648E+04</rscale>
<asrwt>0</asrwt>
<pdfrwt beam="1">  1        1 0.34633398E+00 0.17493648E+04</pdfrwt>
<pdfrwt beam="2">  1       -2 0.52285219E-01 0.17493648E+04</pdfrwt>
<totfact> 0.57791422E+00</totfact>
</mgrwt>
</event>
<event>
12    5  0.5221187E-008  0.1285627E+04  0.7818608E-02  0.9041041E-01
          1   -1    0    0  501    0  0.00000000000E+00  0.00000000000E+00  0.13577454220E+04  0.13577454220E+04  0.00000000000E+00 0. -1.
         -2   -1    0    0    0  501 -0.00000000000E+00 -0.00000000000E+00 -0.30433489420E+03  0.30433489420E+03  0.00000000000E+00 0.  1.
        -24    2    1    2    0    0 -0.16872144866E+02 -0.26714305152E+03  0.16291655221E+02  0.28150382947E+03  0.85609045838E+02 0.  0.
        254    2    1    2    0    0  0.16872144866E+02  0.26714305152E+03  0.10371188726E+04  0.13805764868E+04  0.87104867867E+03 0.  0.
         23    2    4    4    0    0 -0.19965751305E+03  0.47241401283E+03  0.35500708494E+03  0.63036807304E+03  0.91081036000E+02 0.  0.
         23    2    4    4    0    0  0.21652965792E+03 -0.20527096131E+03  0.68211178767E+03  0.75020841371E+03  0.92276285177E+02 0.  0.
          3    1    3    3  502    0 -0.22972857114E+02 -0.10839583243E+03  0.45846297094E+02  0.11991368400E+03  0.00000000000E+00 0. -1.
         -4    1    3    3    0  502  0.61007122482E+01 -0.15874721908E+03 -0.29554641873E+02  0.16159014547E+03  0.00000000000E+00 0.  1.
         13    1    5    5    0    0 -0.20862829360E+03  0.43631149448E+03  0.33229885991E+03  0.58678447270E+03  0.00000000000E+00 0. -1.
        -13    1    5    5    0    0  0.89707805462E+01  0.36102518354E+02  0.22708225032E+02  0.43583600347E+02  0.00000000000E+00 0.  1.
          3    1    6    6  503    0  0.18249051798E+03 -0.20861049142E+03  0.62384915370E+03  0.68264844016E+03  0.00000000000E+00 0. -1.
         -3    1    6    6    0  503  0.34039139934E+02  0.33395301011E+01  0.58262633966E+02  0.67559973545E+02  0.00000000000E+00 0.  1.
<mgrwt>
<rscale>  0 0.12856272E+04</rscale>
<asrwt>0</asrwt>
<pdfrwt beam="1">  1        1 0.20888391E+00 0.12856272E+04</pdfrwt>
<pdfrwt beam="2">  1       -2 0.46820754E-01 0.12856272E+04</pdfrwt>
<totfact> 0.30699688E+01</totfact>
</mgrwt>
</event>
<event>
12    5  0.5221187E-008  0.1624085E+04  0.7818608E-02  0.8805887E-01
         -2   -1    0    0    0  501 -0.00000000000E+00  0.00000000000E+00  0.32454507036E+03  0.32454507036E+03  0.00000000000E+00 0.  1.
          1   -1    0    0  501    0  0.00000000000E+00 -0.00000000000E+00 -0.20318078702E+04  0.20318078702E+04  0.00000000000E+00 0. -1.
        -24    2    1    2    0    0  0.27107258724E+03  0.22744900703E+03 -0.12500934902E+04  0.13017463507E+04  0.81218402821E+02 0.  0.
        254    2    1    2    0    0 -0.27107258724E+03 -0.22744900703E+03 -0.45716930968E+03  0.10546065899E+04  0.88203054562E+03 0.  0.
         23    2    4    4    0    0  0.27837972352E+03 -0.16359668722E+03 -0.34876534214E+03  0.48368901977E+03  0.89770025254E+02 0.  0.
         23    2    4    4    0    0 -0.54945231076E+03 -0.63852319811E+02 -0.10840396754E+03  0.57091757014E+03  0.90666924333E+02 0.  0.
          1    1    3    3  502    0  0.19013911161E+03  0.14013235928E+03 -0.69536732236E+03  0.73438795802E+03  0.00000000000E+00 0. -1.
         -2    1    3    3    0  502  0.80933475636E+02  0.87316647748E+02 -0.55472616782E+03  0.56735839266E+03  0.00000000000E+00 0.  1.
         13    1    5    5    0    0  0.24250009658E+03 -0.13567895174E+03 -0.24522603016E+03  0.37060879732E+03  0.00000000000E+00 0.  1.
        -13    1    5    5    0    0  0.35879626941E+02 -0.27917735471E+02 -0.10353931198E+03  0.11308022244E+03  0.00000000000E+00 0. -1.
          4    1    6    6  503    0 -0.79295800489E+01  0.11205799342E+02 -0.43776965014E+01  0.14408761407E+02  0.00000000000E+00 0. -1.
         -4    1    6    6    0  503 -0.54152273071E+03 -0.75058119153E+02 -0.10402627104E+03  0.55650880873E+03  0.00000000000E+00 0.  1.
<mgrwt>
<rscale>  0 0.16240853E+04</rscale>
<asrwt>0</asrwt>
<pdfrwt beam="1">  1        1 0.31258582E+00 0.16240853E+04</pdfrwt>
<pdfrwt beam="2">  1       -2 0.49930011E-01 0.16240853E+04</pdfrwt>
<totfact> 0.90513668E+00</totfact>
</mgrwt>
</event>
<event>
12    5  0.5221187E-008  0.2976545E+04  0.7818608E-02  0.8250461E-01
          1   -1    0    0  501    0  0.00000000000E+00  0.00000000000E+00  0.14695659728E+04  0.14695659728E+04  0.00000000000E+00 0. -1.
         -2   -1    0    0    0  501 -0.00000000000E+00 -0.00000000000E+00 -0.15072168209E+04  0.15072168209E+04  0.00000000000E+00 0.  1.
        -24    2    1    2    0    0  0.33414220671E+02 -0.78386416023E+03  0.10701977903E+04  0.13292408129E+04  0.77448669474E+02 0.  0.
        254    2    1    2    0    0 -0.33414220671E+02  0.78386416023E+03 -0.11078486384E+04  0.16475419807E+04  0.93354509310E+03 0.  0.
         23    2    4    4    0    0  0.26255444094E+03 -0.57238064464E+02 -0.10560967243E+03  0.30296297632E+03  0.91772172401E+02 0.  0.
         23    2    4    4    0    0 -0.29596866161E+03  0.84110222470E+03 -0.10022389660E+04  0.13445790044E+04  0.91429498424E+02 0.  0.
          3    1    3    3  502    0  0.45141346172E+02 -0.46673208441E+03  0.68560675169E+03  0.83062217507E+03  0.00000000000E+00 0. -1.
         -4    1    3    3    0  502 -0.11727125501E+02 -0.31713207583E+03  0.38459103865E+03  0.49861863784E+03  0.00000000000E+00 0.  1.
         13    1    5    5    0    0  0.13960996895E+03 -0.23035228453E+02 -0.69659292542E+01  0.14166894279E+03  0.00000000000E+00 0.  1.
        -13    1    5    5    0    0  0.12294447199E+03 -0.34202836010E+02 -0.98643743179E+02  0.16129403353E+03  0.00000000000E+00 0. -1.
          1    1    6    6  503    0 -0.19903611804E+02  0.16562222107E+02 -0.19706582765E+02  0.32539366439E+02  0.00000000000E+00 0. -1.
         -1    1    6    6    0  503 -0.27606504980E+03  0.82454000259E+03 -0.98253238321E+03  0.13120396380E+04  0.00000000000E+00 0.  1.
<mgrwt>
<rscale>  0 0.29765447E+04</rscale>
<asrwt>0</asrwt>
<pdfrwt beam="1">  1        1 0.22608707E+00 0.29765447E+04</pdfrwt>
<pdfrwt beam="2">  1       -2 0.23187951E+00 0.29765447E+04</pdfrwt>
<totfact> 0.42804111E-01</totfact>
</mgrwt>
</event>
<event>
12    5  0.5221187E-008  0.1807208E+04  0.7818608E-02  0.8702475E-01
         -2   -1    0    0    0  501 -0.00000000000E+00  0.00000000000E+00  0.33284721824E+03  0.33284721824E+03  0.00000000000E+00 0.  1.
          1   -1    0    0  501    0  0.00000000000E+00 -0.00000000000E+00 -0.24530792274E+04  0.24530792274E+04  0.00000000000E+00 0. -1.
        -24    2    1    2    0    0 -0.16347264892E+03 -0.27766603696E+03  0.11824619771E+03  0.35231074809E+03  0.79491917329E+02 0.  0.
        254    2    1    2    0    0  0.16347264892E+03  0.27766603696E+03 -0.22384782068E+04  0.24336156975E+04  0.89882086408E+03 0.  0.
         23    2    4    4    0    0 -0.30628327975E+03  0.16634066117E+03 -0.43624289935E+03  0.56553049749E+03  0.89656083759E+02 0.  0.
         23    2    4    4    0    0  0.46975592867E+03  0.11132537579E+03 -0.18022353075E+04  0.18680852000E+04  0.92877549350E+02 0.  0.
          1    1    3    3  502    0 -0.18099434172E+02 -0.88742007723E+02  0.53913511404E+02  0.10540113929E+03  0.00000000000E+00 0. -1.
         -2    1    3    3    0  502 -0.14537321475E+03 -0.18892402924E+03  0.64332686301E+02  0.24690960880E+03  0.00000000000E+00 0.  1.
         13    1    5    5    0    0 -0.21523699166E+03  0.69826166844E+02 -0.25516630630E+03  0.34104618460E+03  0.00000000000E+00 0. -1.
        -13    1    5    5    0    0 -0.91046288088E+02  0.96514494327E+02 -0.18107659304E+03  0.22448431290E+03  0.00000000000E+00 0.  1.
          2    1    6    6  503    0  0.19868927966E+03  0.89322554079E+02 -0.88205949951E+03  0.90856200074E+03  0.00000000000E+00 0. -1.
         -2    1    6    6    0  503  0.27106664900E+03  0.22002821714E+02 -0.92017580799E+03  0.95952319929E+03  0.00000000000E+00 0.  1.
<mgrwt>
<rscale>  0 0.18072085E+04</rscale>
<asrwt>0</asrwt>
<pdfrwt beam="1">  1        1 0.37739679E+00 0.18072085E+04</pdfrwt>
<pdfrwt beam="2">  1       -2 0.51207266E-01 0.18072085E+04</pdfrwt>
<totfact> 0.43621169E+00</totfact>
</mgrwt>
</event>
<event>
12    5  0.5221187E-008  0.2927022E+04  0.7818608E-02  0.8264883E-01
         -2   -1    0    0    0  501 -0.00000000000E+00  0.00000000000E+00  0.15626130766E+04  0.15626130766E+04  0.00000000000E+00 0.  1.
          1   -1    0    0  501    0  0.00000000000E+00 -0.00000000000E+00 -0.13706938772E+04  0.13706938772E+04  0.00000000000E+00 0. -1.
        -24    2    1    2    0    0  0.80629670187E+03 -0.84154795047E+03 -0.54432051463E+03  0.12887955613E+04  0.79949057726E+02 0.  0.
        254    2    1    2    0    0 -0.80629670187E+03  0.84154795047E+03  0.73623971396E+03  0.16445113925E+04  0.89668917646E+03 0.  0.
         23    2    4    4    0    0 -0.98411445853E+03  0.59673213149E+03  0.58273813203E+03  0.12932891239E+04  0.91883204923E+02 0.  0.
         23    2    4    4    0    0  0.17781775666E+03  0.24481581898E+03  0.15350158192E+03  0.35122226853E+03  0.90776684510E+02 0.  0.
          3    1    3    3  502    0  0.17829593975E+03 -0.20659084387E+03 -0.94023160814E+02  0.28863397872E+03  0.00000000000E+00 0. -1.
         -4    1    3    3    0  502  0.62800076212E+03 -0.63495710660E+03 -0.45029735381E+03  0.10001615826E+04  0.00000000000E+00 0.  1.
         13    1    5    5    0    0 -0.97725580320E+03  0.58941784444E+03  0.56627589026E+03  0.12740136122E+04  0.00000000000E+00 0. -1.
        -13    1    5    5    0    0 -0.68586553263E+01  0.73142870532E+01  0.16462241773E+02  0.19275511723E+02  0.00000000000E+00 0.  1.
          2    1    6    6  503    0  0.11043320683E+03  0.10510344201E+03  0.11619356030E+03  0.19168508066E+03  0.00000000000E+00 0. -1.
         -2    1    6    6    0  503  0.67384549834E+02  0.13971237697E+03  0.37308021620E+02  0.15953718787E+03  0.00000000000E+00 0.  1.
<mgrwt>
<rscale>  0 0.29270218E+04</rscale>
<asrwt>0</asrwt>
<pdfrwt beam="1">  1        1 0.21087598E+00 0.29270218E+04</pdfrwt>
<pdfrwt beam="2">  1       -2 0.24040201E+00 0.29270218E+04</pdfrwt>
<totfact> 0.44620311E-01</totfact>
</mgrwt>
</event>
<event>
12    5  0.5221187E-008  0.2230292E+04  0.7818608E-02  0.8505925E-01
          1   -1    0    0  501    0  0.00000000000E+00  0.00000000000E+00  0.10871183070E+04  0.10871183070E+04  0.00000000000E+00 0. -1.
         -2   -1    0    0    0  501 -0.00000000000E+00 -0.00000000000E+00 -0.11438960721E+04  0.11438960721E+04  0.00000000000E+00 0.  1.
        -24    2    1    2    0    0 -0.33398568784E+03 -0.28271694190E+03  0.79640304731E+03  0.91208787784E+03  0.78556821551E+02 0.  0.
        254    2    1    2    0    0  0.33398568784E+03  0.28271694190E+03 -0.85318081239E+03  0.13189265012E+04  0.90563475419E+03 0.  0.
         23    2    4    4    0    0  0.38560954297E+03  0.48679325211E+03 -0.25111218864E+03  0.67534148056E+03  0.85827700371E+02 0.  0.
         23    2    4    4    0    0 -0.51623855123E+02 -0.20407631022E+03 -0.60206862375E+03  0.64358502063E+03  0.86040038731E+02 0.  0.
          3    1    3    3  502    0 -0.33774802688E+03 -0.27745212044E+03  0.77541143652E+03  0.89012151119E+03  0.00000000000E+00 0. -1.
         -4    1    3    3    0  502  0.37623390393E+01 -0.52648214547E+01  0.20991610791E+02  0.21966366646E+02  0.00000000000E+00 0.  1.
         13    1    5    5    0    0  0.32879428503E+03  0.37081671534E+03 -0.17584392962E+03  0.52586291543E+03  0.00000000000E+00 0.  1.
        -13    1    5    5    0    0  0.56815257941E+02  0.11597653677E+03 -0.75268259024E+02  0.14947856513E+03  0.00000000000E+00 0. -1.
          1    1    6    6  503    0  0.19756202774E+02 -0.14061795663E+02 -0.72553118199E+02  0.76498343810E+02  0.00000000000E+00 0. -1.
         -1    1    6    6    0  503 -0.71380057898E+02 -0.19001451455E+03 -0.52951550556E+03  0.56708667682E+03  0.00000000000E+00 0.  1.
<mgrwt>
<rscale>  0 0.22302918E+04</rscale>
<asrwt>0</asrwt>
<pdfrwt beam="1">  1        1 0.16724897E+00 0.22302918E+04</pdfrwt>
<pdfrwt beam="2">  1       -2 0.17598401E+00 0.22302918E+04</pdfrwt>
<totfact> 0.19995125E+00</totfact>
</mgrwt>
</event>
<event>
12    5  0.5221187E-008  0.2180498E+04  0.7818608E-02  0.8526589E-01
          1   -1    0    0  501    0  0.00000000000E+00  0.00000000000E+00  0.17214269762E+04  0.17214269762E+04  0.00000000000E+00 0. -1.
         -2   -1    0    0    0  501 -0.00000000000E+00 -0.00000000000E+00 -0.69049869069E+03  0.69049869069E+03  0.00000000000E+00 0.  1.
        -24    2    1    2    0    0 -0.72477477876E+03 -0.30155788624E+02  0.10226899255E+04  0.12564628805E+04  0.81218438188E+02 0.  0.
        254    2    1    2    0    0  0.72477477876E+03  0.30155788624E+02  0.82383599643E+01  0.11554627864E+04  0.89934338753E+03 0.  0.
         23    2    4    4    0    0  0.59479643611E+03  0.21602696119E+03  0.35427858474E+03  0.73149761405E+03  0.95524841693E+02 0.  0.
         23    2    4    4    0    0  0.12997834264E+03 -0.18587117256E+03 -0.34604022477E+03  0.42396517236E+03  0.92521175239E+02 0.  0.
          1    1    3    3  502    0 -0.71525874476E+03 -0.38856409745E+02  0.10111111861E+04  0.12391330531E+04  0.00000000000E+00 0. -1.
         -2    1    3    3    0  502 -0.95160339955E+01  0.87006211208E+01  0.11578739393E+02  0.17329827374E+02  0.00000000000E+00 0.  1.
         13    1    5    5    0    0  0.51452256139E+03  0.16303089345E+03  0.32877063690E+03  0.63198312485E+03  0.00000000000E+00 0. -1.
        -13    1    5    5    0    0  0.80273874717E+02  0.52996067734E+02  0.25507947833E+02  0.99514489196E+02  0.00000000000E+00 0.  1.
          1    1    6    6  503    0  0.28896458998E+02 -0.44871334319E+02 -0.16412956719E+03  0.17258898230E+03  0.00000000000E+00 0. -1.
         -1    1    6    6    0  503  0.10108188365E+03 -0.14099983824E+03 -0.18191065758E+03  0.25137619006E+03  0.00000000000E+00 0.  1.
<mgrwt>
<rscale>  0 0.21804982E+04</rscale>
<asrwt>0</asrwt>
<pdfrwt beam="1">  1        1 0.26483492E+00 0.21804982E+04</pdfrwt>
<pdfrwt beam="2">  1       -2 0.10623057E+00 0.21804982E+04</pdfrwt>
<totfact> 0.26415759E+00</totfact>
</mgrwt>
</event>
<event>
12    5  0.5221187E-008  0.2060281E+04  0.7818608E-02  0.8578945E-01
          3   -1    0    0  501    0  0.00000000000E+00  0.00000000000E+00  0.12384005633E+04  0.12384005633E+04  0.00000000000E+00 0. -1.
         -4   -1    0    0    0  501 -0.00000000000E+00 -0.00000000000E+00 -0.85690287919E+03  0.85690287919E+03  0.00000000000E+00 0.  1.
        -24    2    1    2    0    0  0.49340950603E+03 -0.62111762934E+03 -0.71604697780E+02  0.80056769639E+03  0.80878635300E+02 0.  0.
        254    2    1    2    0    0 -0.49340950603E+03  0.62111762934E+03  0.45310238192E+03  0.12947357461E+04  0.91749595840E+03 0.  0.
         23    2    4    4    0    0 -0.63979456764E+03  0.31154346789E+03 -0.26616351031E+01  0.71745353885E+03  0.91302108069E+02 0.  0.
         23    2    4    4    0    0  0.14638506161E+03  0.30957416144E+03  0.45576401702E+03  0.57728220728E+03  0.90934921435E+02 0.  0.
          1    1    3    3  502    0  0.21475658652E+03 -0.27128236189E+03  0.89896092522E+01  0.34611461165E+03  0.00000000000E+00 0. -1.
         -2    1    3    3    0  502  0.27865291951E+03 -0.34983526745E+03 -0.80594307032E+02  0.45445308474E+03  0.00000000000E+00 0.  1.
         13    1    5    5    0    0 -0.37878857399E+02  0.14368076339E+02  0.21252710071E+02  0.45748520642E+02  0.00000000000E+00 0. -1.
        -13    1    5    5    0    0 -0.60191571024E+03  0.29717539156E+03 -0.23914345174E+02  0.67170501820E+03  0.00000000000E+00 0.  1.
          2    1    6    6  503    0  0.53361975084E+02  0.13597608128E+03  0.12468089065E+03  0.19204770125E+03  0.00000000000E+00 0. -1.
         -2    1    6    6    0  503  0.93023086522E+02  0.17359808017E+03  0.33108312638E+03  0.38523450603E+03  0.00000000000E+00 0.  1.
<mgrwt>
<rscale>  0 0.20602806E+04</rscale>
<asrwt>0</asrwt>
<pdfrwt beam="1">  1        3 0.19052316E+00 0.20602806E+04</pdfrwt>
<pdfrwt beam="2">  1       -4 0.13183121E+00 0.20602806E+04</pdfrwt>
<totfact> 0.14953651E-01</totfact>
</mgrwt>
</event>
<event>
12    5  0.5221187E-008  0.1182983E+04  0.7818608E-02  0.9127883E-01
          1   -1    0    0  501    0  0.00000000000E+00  0.00000000000E+00  0.10706762833E+04  0.10706762833E+04  0.00000000000E+00 0. -1.
         -2   -1    0    0    0  501 -0.00000000000E+00 -0.00000000000E+00 -0.32676736173E+03  0.32676736173E+03  0.00000000000E+00 0.  1.
        -24    2    1    2    0    0  0.20508407593E+02  0.45107034539E+02  0.43639784157E+03  0.44637300362E+03  0.79690293554E+02 0.  0.
        254    2    1    2    0    0 -0.20508407593E+02 -0.45107034539E+02  0.30751108000E+03  0.95107064142E+03  0.89861953089E+03 0.  0.
         23    2    4    4    0    0 -0.34880048490E+03 -0.22859724332E+03 -0.42011291589E+02  0.42973406437E+03  0.94804744277E+02 0.  0.
         23    2    4    4    0    0  0.32829207730E+03  0.18349020879E+03  0.34952237159E+03  0.52133657705E+03  0.90452161893E+02 0.  0.
          3    1    3    3  502    0  0.72108871903E+01  0.53236155610E+02  0.42117270470E+03  0.42458512968E+03  0.00000000000E+00 0. -1.
         -4    1    3    3    0  502  0.13297520402E+02 -0.81291210711E+01  0.15225136869E+02  0.21787873942E+02  0.00000000000E+00 0.  1.
         13    1    5    5    0    0 -0.18407285569E+03 -0.74277485393E+02  0.75448258723E+01  0.19863757307E+03  0.00000000000E+00 0.  1.
        -13    1    5    5    0    0 -0.16472762921E+03 -0.15431975793E+03 -0.49556117461E+02  0.23109649130E+03  0.00000000000E+00 0. -1.
          2    1    6    6  503    0  0.23388120565E+03  0.17086621399E+03  0.28455875509E+03  0.40604108972E+03  0.00000000000E+00 0. -1.
         -2    1    6    6    0  503  0.94410871656E+02  0.12623994791E+02  0.64963616499E+02  0.11529548734E+03  0.00000000000E+00 0.  1.
<mgrwt>
<rscale>  0 0.11829828E+04</rscale>
<asrwt>0</asrwt>
<pdfrwt beam="1">  1        1 0.16471943E+00 0.11829828E+04</pdfrwt>
<pdfrwt beam="2">  1       -2 0.50271902E-01 0.11829828E+04</pdfrwt>
<totfact> 0.43386578E+01</totfact>
</mgrwt>
</event>
<event>
12    5  0.5221187E-008  0.1834841E+04  0.7818608E-02  0.8687988E-01
         -2   -1    0    0    0  501 -0.00000000000E+00  0.00000000000E+00  0.96320824363E+03  0.96320824363E+03  0.00000000000E+00 0.  1.
          1   -1    0    0  501    0  0.00000000000E+00 -0.00000000000E+00 -0.87380960459E+03  0.87380960459E+03  0.00000000000E+00 0. -1.
        -24    2    1    2    0    0 -0.42708815969E+03 -0.25404029503E+03  0.54707656241E+03  0.74317824653E+03  0.77976748679E+02 0.  0.
        254    2    1    2    0    0  0.42708815969E+03  0.25404029503E+03 -0.45767792338E+03  0.10938396017E+04  0.86027624925E+03 0.  0.
         23    2    4    4    0    0  0.52961743333E+02 -0.26078799481E+03 -0.33756173892E+03  0.43968926566E+03  0.92538631186E+02 0.  0.
         23    2    4    4    0    0  0.37412641635E+03  0.51482828985E+03 -0.12011618446E+03  0.65415033602E+03  0.92010982556E+02 0.  0.
          1    1    3    3  502    0 -0.17912205640E+03 -0.68940052032E+02  0.23906736252E+03  0.30657893875E+03  0.00000000000E+00 0. -1.
         -2    1    3    3    0  502 -0.24796610328E+03 -0.18510024300E+03  0.30800919989E+03  0.43659930778E+03  0.00000000000E+00 0.  1.
         13    1    5    5    0    0  0.72620256395E+02 -0.15224569342E+03 -0.17339935334E+03  0.24190863677E+03  0.00000000000E+00 0. -1.
        -13    1    5    5    0    0 -0.19658513062E+02 -0.10854230139E+03 -0.16416238558E+03  0.19778062889E+03  0.00000000000E+00 0.  1.
          1    1    6    6  503    0  0.23059044725E+03  0.37053638750E+03 -0.11148291466E+03  0.45044157123E+03  0.00000000000E+00 0. -1.
         -1    1    6    6    0  503  0.14353596910E+03  0.14429190235E+03 -0.86332697938E+01  0.20370876480E+03  0.00000000000E+00 0.  1.
<mgrwt>
<rscale>  0 0.18348413E+04</rscale>
<asrwt>0</asrwt>
<pdfrwt beam="1">  1        1 0.13443225E+00 0.18348413E+04</pdfrwt>
<pdfrwt beam="2">  1       -2 0.14818588E+00 0.18348413E+04</pdfrwt>
<totfact> 0.48781025E+00</totfact>
</mgrwt>
</event>
<event>
12    5  0.5221187E-008  0.1581473E+04  0.7818608E-02  0.8832012E-01
         -2   -1    0    0    0  501 -0.00000000000E+00  0.00000000000E+00  0.10999074091E+04  0.10999074091E+04  0.00000000000E+00 0.  1.
          1   -1    0    0  501    0  0.00000000000E+00 -0.00000000000E+00 -0.56846950788E+03  0.56846950788E+03  0.00000000000E+00 0. -1.
        -24    2    1    2    0    0 -0.22269350384E+03  0.26192575075E+03  0.58902703862E+03  0.68673826366E+03  0.80368495015E+02 0.  0.
        254    2    1    2    0    0  0.22269350384E+03 -0.26192575075E+03 -0.57589137359E+02  0.98163865337E+03  0.91766030833E+03 0.  0.
         23    2    4    4    0    0  0.47313512596E+03 -0.39852974159E+03  0.11704977852E+03  0.63516747786E+03  0.83989713238E+02 0.  0.
         23    2    4    4    0    0 -0.25044162212E+03  0.13660399084E+03 -0.17463891588E+03  0.34647117551E+03  0.90343057914E+02 0.  0.
          3    1    3    3  502    0 -0.15383052934E+02 -0.34420315600E+01  0.19147888884E+02  0.24801765009E+02  0.00000000000E+00 0. -1.
         -4    1    3    3    0  502 -0.20731045090E+03  0.26536778231E+03  0.56987914973E+03  0.66193649865E+03  0.00000000000E+00 0.  1.
         13    1    5    5    0    0  0.12615446237E+03 -0.74862168052E+02  0.54796521072E+02  0.15659486359E+03  0.00000000000E+00 0.  1.
        -13    1    5    5    0    0  0.34698066359E+03 -0.32366757354E+03  0.62253257448E+02  0.47857261427E+03  0.00000000000E+00 0. -1.
          2    1    6    6  503    0 -0.23371646057E+03  0.10834626689E+03 -0.17850084737E+03  0.31340843959E+03  0.00000000000E+00 0. -1.
         -2    1    6    6    0  503 -0.16725161550E+02  0.28257723949E+02  0.38619314939E+01  0.33062735920E+02  0.00000000000E+00 0.  1.
<mgrwt>
<rscale>  0 0.15814725E+04</rscale>
<asrwt>0</asrwt>
<pdfrwt beam="1">  1        1 0.87456848E-01 0.15814725E+04</pdfrwt>
<pdfrwt beam="2">  1       -2 0.16921652E+00 0.15814725E+04</pdfrwt>
<totfact> 0.67133098E+00</totfact>
</mgrwt>
</event>
<event>
12    5  0.5221187E-008  0.1997006E+04  0.7818608E-02  0.8608022E-01
         -2   -1    0    0    0  501 -0.00000000000E+00  0.00000000000E+00  0.16180126114E+04  0.16180126114E+04  0.00000000000E+00 0.  1.
          1   -1    0    0  501    0  0.00000000000E+00 -0.00000000000E+00 -0.61619290875E+03  0.61619290875E+03  0.00000000000E+00 0. -1.
        -24    2    1    2    0    0 -0.31949572149E+03 -0.94345955894E+02 -0.41040212921E+03  0.53461983301E+03  0.80061118779E+02 0.  0.
        254    2    1    2    0    0  0.31949572149E+03  0.94345955894E+02  0.14122218318E+04  0.16995856871E+04  0.88500979093E+03 0.  0.
         23    2    4    4    0    0  0.29814124614E+03  0.37883849970E+03  0.37192946036E+03  0.61715099995E+03  0.10068277785E+03 0.  0.
         23    2    4    4    0    0  0.21354475354E+02 -0.28449254381E+03  0.10402923715E+04  0.10824346871E+04  0.89803188683E+02 0.  0.
          1    1    3    3  502    0 -0.22751970364E+03 -0.10381126591E+03 -0.29464266503E+03  0.38646642096E+03  0.00000000000E+00 0. -1.
         -2    1    3    3    0  502 -0.91976017850E+02  0.94653100196E+01 -0.11575946419E+03  0.14815341205E+03  0.00000000000E+00 0.  1.
         13    1    5    5    0    0  0.20467671287E+03  0.31648995133E+03  0.25545061613E+03  0.45531688236E+03  0.00000000000E+00 0. -1.
        -13    1    5    5    0    0  0.93464533268E+02  0.62348548375E+02  0.11647884423E+03  0.16183411759E+03  0.00000000000E+00 0.  1.
          2    1    6    6  503    0  0.57190820188E+01 -0.28003687730E+03  0.94035083390E+03  0.98117941854E+03  0.00000000000E+00 0. -1.
         -2    1    6    6    0  503  0.15635393335E+02 -0.44556665053E+01  0.99941537565E+02  0.10125526860E+03  0.00000000000E+00 0.  1.
<mgrwt>
<rscale>  0 0.19970057E+04</rscale>
<asrwt>0</asrwt>
<pdfrwt beam="1">  1        1 0.94798910E-01 0.19970057E+04</pdfrwt>
<pdfrwt beam="2">  1       -2 0.24892502E+00 0.19970057E+04</pdfrwt>
<totfact> 0.17465308E+00</totfact>
</mgrwt>
</event>
<event>
12    5  0.5221187E-008  0.1470888E+04  0.7818608E-02  0.8904046E-01
         -2   -1    0    0    0  501 -0.00000000000E+00  0.00000000000E+00  0.67494899112E+03  0.67494899112E+03  0.00000000000E+00 0.  1.
          1   -1    0    0  501    0  0.00000000000E+00 -0.00000000000E+00 -0.80136162333E+03  0.80136162333E+03  0.00000000000E+00 0. -1.
        -24    2    1    2    0    0 -0.23575433825E+03  0.37389305497E+03  0.87816395457E+02  0.45741308702E+03  0.78351058087E+02 0.  0.
        254    2    1    2    0    0  0.23575433825E+03 -0.37389305497E+03 -0.21422902767E+03  0.10188975274E+04  0.89268245785E+03 0.  0.
         23    2    4    4    0    0  0.38709449135E+02 -0.31776917561E+03 -0.53317252494E+03  0.62857278437E+03  0.91406419290E+02 0.  0.
         23    2    4    4    0    0  0.19704488911E+03 -0.56123879364E+02  0.31894349726E+03  0.39032474306E+03  0.93015441954E+02 0.  0.
          3    1    3    3  502    0 -0.50482181885E+02  0.13113623966E+03  0.52472431312E+02  0.14999506688E+03  0.00000000000E+00 0. -1.
         -4    1    3    3    0  502 -0.18527215636E+03  0.24275681531E+03  0.35343964145E+02  0.30741802013E+03  0.00000000000E+00 0.  1.
         13    1    5    5    0    0  0.11477586788E+02 -0.67149705999E+02 -0.19652874684E+03  0.20800088065E+03  0.00000000000E+00 0.  1.
        -13    1    5    5    0    0  0.27231862347E+02 -0.25061946961E+03 -0.33664377809E+03  0.42057190372E+03  0.00000000000E+00 0. -1.
          1    1    6    6  503    0  0.34038661075E+02  0.93831755850E+01  0.11919250196E+03  0.12431221563E+03  0.00000000000E+00 0. -1.
         -1    1    6    6    0  503  0.16300622804E+03 -0.65507054950E+02  0.19975099531E+03  0.26601252744E+03  0.00000000000E+00 0.  1.
<mgrwt>
<rscale>  0 0.14708885E+04</rscale>
<asrwt>0</asrwt>
<pdfrwt beam="1">  1        1 0.12328640E+00 0.14708885E+04</pdfrwt>
<pdfrwt beam="2">  1       -2 0.10383831E+00 0.14708885E+04</pdfrwt>
<totfact> 0.14139860E+01</totfact>
</mgrwt>
</event>
<event>
12    5  0.5221187E-008  0.1566190E+04  0.7818608E-02  0.8841592E-01
          1   -1    0    0  501    0  0.00000000000E+00  0.00000000000E+00  0.27313820914E+04  0.27313820914E+04  0.00000000000E+00 0. -1.
         -2   -1    0    0    0  501 -0.00000000000E+00 -0.00000000000E+00 -0.22451556193E+03  0.22451556193E+03  0.00000000000E+00 0.  1.
        -24    2    1    2    0    0  0.18613435610E+03  0.10062379365E+03 -0.50246717971E+02  0.23543603701E+03  0.90190068671E+02 0.  0.
        254    2    1    2    0    0 -0.18613435610E+03 -0.10062379365E+03  0.25571132474E+04  0.27204616163E+04  0.90405315067E+03 0.  0.
         23    2    4    4    0    0 -0.40089245278E+03 -0.26902434996E+03  0.79055776935E+03  0.93074814423E+03  0.90673379470E+02 0.  0.
         23    2    4    4    0    0  0.21475809668E+03  0.16840055631E+03  0.17665554781E+04  0.17897134721E+04  0.88748338158E+02 0.  0.
          1    1    3    3  502    0 -0.52043705940E+01  0.20854464413E+02 -0.12063491056E+02  0.24647960883E+02  0.00000000000E+00 0. -1.
         -2    1    3    3    0  502  0.19133872669E+03  0.79769329239E+02 -0.38183226915E+02  0.21078807612E+03  0.00000000000E+00 0.  1.
         13    1    5    5    0    0 -0.32666085678E+03 -0.23584463554E+03  0.70962351924E+03  0.81602423158E+03  0.00000000000E+00 0. -1.
        -13    1    5    5    0    0 -0.74231595993E+02 -0.33179714422E+02  0.80934250103E+02  0.11472391264E+03  0.00000000000E+00 0.  1.
          3    1    6    6  503    0  0.19588422602E+03  0.13301150982E+03  0.12959816342E+04  0.13174335232E+04  0.00000000000E+00 0. -1.
         -3    1    6    6    0  503  0.18873870658E+02  0.35389046494E+02  0.47057384388E+03  0.47227994891E+03  0.00000000000E+00 0.  1.
<mgrwt>
<rscale>  0 0.15661900E+04</rscale>
<asrwt>0</asrwt>
<pdfrwt beam="1">  1        1 0.42021261E+00 0.15661900E+04</pdfrwt>
<pdfrwt beam="2">  1       -2 0.34540858E-01 0.15661900E+04</pdfrwt>
<totfact> 0.62119025E+00</totfact>
</mgrwt>
</event>
<event>
12    5  0.5221187E-008  0.2532927E+04  0.7818608E-02  0.8391348E-01
         -2   -1    0    0    0  501 -0.00000000000E+00  0.00000000000E+00  0.70975886584E+03  0.70975886584E+03  0.00000000000E+00 0.  1.
          1   -1    0    0  501    0  0.00000000000E+00 -0.00000000000E+00 -0.22598229804E+04  0.22598229804E+04  0.00000000000E+00 0. -1.
        -24    2    1    2    0    0 -0.13545762862E+03 -0.52447224297E+02 -0.19609917380E+04  0.19676485982E+04  0.71083958230E+02 0.  0.
        254    2    1    2    0    0  0.13545762862E+03  0.52447224297E+02  0.41092762344E+03  0.10019332480E+04  0.90216918660E+03 0.  0.
         23    2    4    4    0    0 -0.15733250539E+03 -0.65316257424E+02 -0.21895334167E+03  0.29173433699E+03  0.90269744728E+02 0.  0.
         23    2    4    4    0    0  0.29279013402E+03  0.11776348172E+03  0.62988096511E+03  0.71019891101E+03  0.89655801706E+02 0.  0.
          3    1    3    3  502    0 -0.10487984028E+02  0.13795605837E+02 -0.36156854738E+03  0.36198360598E+03  0.00000000000E+00 0. -1.
         -4    1    3    3    0  502 -0.12496964460E+03 -0.66242830134E+02 -0.15994231906E+04  0.16056649922E+04  0.00000000000E+00 0.  1.
         13    1    5    5    0    0 -0.10150546649E+03 -0.32837285511E+02 -0.65361536926E+02  0.12511505727E+03  0.00000000000E+00 0. -1.
        -13    1    5    5    0    0 -0.55827038907E+02 -0.32478971914E+02 -0.15359180475E+03  0.16661927972E+03  0.00000000000E+00 0.  1.
          3    1    6    6  503    0  0.17436547366E+03  0.93188491306E+02  0.30436856490E+03  0.36294302116E+03  0.00000000000E+00 0. -1.
         -3    1    6    6    0  503  0.11842466036E+03  0.24574990415E+02  0.32551240022E+03  0.34725588985E+03  0.00000000000E+00 0.  1.
<mgrwt>
<rscale>  0 0.25329267E+04</rscale>
<asrwt>0</asrwt>
<pdfrwt beam="1">  1        1 0.34766507E+00 0.25329267E+04</pdfrwt>
<pdfrwt beam="2">  1       -2 0.10919367E+00 0.25329267E+04</pdfrwt>
<totfact> 0.10325572E+00</totfact>
</mgrwt>
</event>
<event>
12    5  0.5221187E-008  0.1274530E+04  0.7818608E-02  0.9050010E-01
          1   -1    0    0  501    0  0.00000000000E+00  0.00000000000E+00  0.15039386858E+04  0.15039386858E+04  0.00000000000E+00 0. -1.
         -2   -1    0    0    0  501 -0.00000000000E+00 -0.00000000000E+00 -0.27002878755E+03  0.27002878755E+03  0.00000000000E+00 0.  1.
        -24    2    1    2    0    0 -0.87598657519E+02  0.20875910339E+03  0.68175380025E+03  0.72338124435E+03  0.85078155108E+02 0.  0.
        254    2    1    2    0    0  0.87598657519E+02 -0.20875910339E+03  0.55215609802E+03  0.10505862290E+04  0.86463933521E+03 0.  0.
         23    2    4    4    0    0  0.38527886040E+03  0.42360503000E+02  0.51248757813E+03  0.64884308371E+03  0.90108917703E+02 0.  0.
         23    2    4    4    0    0 -0.29768020289E+03 -0.25111960639E+03  0.39668519894E+02  0.40174314532E+03  0.90274046309E+02 0.  0.
          3    1    3    3  502    0 -0.80016724091E+02  0.17602050043E+03  0.45835137805E+03  0.49746545454E+03  0.00000000000E+00 0. -1.
         -4    1    3    3    0  502 -0.75819334282E+01  0.32738602956E+02  0.22340242220E+03  0.22591578981E+03  0.00000000000E+00 0.  1.
         13    1    5    5    0    0  0.66942322201E+02 -0.99743616163E+01  0.14383887291E+03  0.15896661206E+03  0.00000000000E+00 0.  1.
        -13    1    5    5    0    0  0.31833653820E+03  0.52334864617E+02  0.36864870522E+03  0.48987647164E+03  0.00000000000E+00 0. -1.
          3    1    6    6  503    0 -0.20396504561E+03 -0.17489890659E+03  0.69066626797E+02  0.27741947713E+03  0.00000000000E+00 0. -1.
         -3    1    6    6    0  503 -0.93715157275E+02 -0.76220699802E+02 -0.29398106903E+02  0.12432366818E+03  0.00000000000E+00 0.  1.
<mgrwt>
<rscale>  0 0.12745301E+04</rscale>
<asrwt>0</asrwt>
<pdfrwt beam="1">  1        1 0.23137518E+00 0.12745301E+04</pdfrwt>
<pdfrwt beam="2">  1       -2 0.41542891E-01 0.12745301E+04</pdfrwt>
<totfact> 0.30823335E+01</totfact>
</mgrwt>
</event>
<event>
12    5  0.5221187E-008  0.2023446E+04  0.7818608E-02  0.8595737E-01
          1   -1    0    0  501    0  0.00000000000E+00  0.00000000000E+00  0.20318765754E+04  0.20318765754E+04  0.00000000000E+00 0. -1.
         -2   -1    0    0    0  501 -0.00000000000E+00 -0.00000000000E+00 -0.50376244504E+03  0.50376244504E+03  0.00000000000E+00 0.  1.
        -24    2    1    2    0    0 -0.14487309593E+02  0.57373099256E+03  0.13281885012E+04  0.14489431588E+04  0.77294558529E+02 0.  0.
        254    2    1    2    0    0  0.14487309593E+02 -0.57373099256E+03  0.19992562912E+03  0.10866958616E+04  0.90086652977E+03 0.  0.
         23    2    4    4    0    0  0.11124293823E+03 -0.79106941732E+03  0.98811534675E+02  0.81065432665E+03  0.96077591557E+02 0.  0.
         23    2    4    4    0    0 -0.96755628633E+02  0.21733842476E+03  0.10111409445E+03  0.27604153495E+03  0.96836079896E+02 0.  0.
          1    1    3    3  502    0  0.24724203035E+02  0.29474675160E+03  0.62658246509E+03  0.69288708990E+03  0.00000000000E+00 0. -1.
         -2    1    3    3    0  502 -0.39211512627E+02  0.27898424097E+03  0.70160603612E+03  0.75605606892E+03  0.00000000000E+00 0.  1.
         13    1    5    5    0    0  0.15037386063E+02 -0.44005753536E+03  0.42396734773E+02  0.44235081160E+03  0.00000000000E+00 0. -1.
        -13    1    5    5    0    0  0.96205552163E+02 -0.35101188196E+03  0.56414799901E+02  0.36830351504E+03  0.00000000000E+00 0.  1.
          3    1    6    6  503    0 -0.51181353573E+02  0.20254885152E+03  0.80696832706E+02  0.22395880651E+03  0.00000000000E+00 0. -1.
         -3    1    6    6    0  503 -0.45574275060E+02  0.14789573238E+02  0.20417261744E+02  0.52082728432E+02  0.00000000000E+00 0.  1.
<mgrwt>
<rscale>  0 0.20234457E+04</rscale>
<asrwt>0</asrwt>
<pdfrwt beam="1">  1        1 0.31259639E+00 0.20234457E+04</pdfrwt>
<pdfrwt beam="2">  1       -2 0.77501916E-01 0.20234457E+04</pdfrwt>
<totfact> 0.34214451E+00</totfact>
</mgrwt>
</event>
<event>
12    5  0.5221187E-008  0.1296747E+04  0.7818608E-02  0.9032149E-01
          1   -1    0    0  501    0  0.00000000000E+00  0.00000000000E+00  0.95279304587E+03  0.95279304587E+03  0.00000000000E+00 0. -1.
         -2   -1    0    0    0  501 -0.00000000000E+00 -0.00000000000E+00 -0.44121675766E+03  0.44121675766E+03  0.00000000000E+00 0.  1.
        -24    2    1    2    0    0 -0.93518931617E+02 -0.20554201914E+03  0.40531311411E+03  0.47113979880E+03  0.81857665150E+02 0.  0.
        254    2    1    2    0    0  0.93518931617E+02  0.20554201914E+03  0.10626317410E+03  0.92287000473E+03  0.88848402983E+03 0.  0.
         23    2    4    4    0    0 -0.22509099262E+03 -0.24038282695E+03  0.13449980978E+03  0.36655614041E+03  0.88449685066E+02 0.  0.
         23    2    4    4    0    0  0.31860992424E+03  0.44592484609E+03 -0.28236635682E+02  0.55631386432E+03  0.91249963608E+02 0.  0.
          3    1    3    3  502    0 -0.12895629052E+02 -0.48536313790E+02  0.16827969916E+03  0.17561357622E+03  0.00000000000E+00 0. -1.
         -4    1    3    3    0  502 -0.80623302564E+02 -0.15700570535E+03  0.23703341495E+03  0.29552622258E+03  0.00000000000E+00 0.  1.
         13    1    5    5    0    0 -0.29516829292E+02 -0.88547776631E+02  0.39795326568E+02  0.10146733452E+03  0.00000000000E+00 0.  1.
        -13    1    5    5    0    0 -0.19557416333E+03 -0.15183505032E+03  0.94704483211E+02  0.26508880589E+03  0.00000000000E+00 0. -1.
          4    1    6    6  503    0  0.11666242673E+02  0.13643337777E+02 -0.18891445890E+02  0.26060096155E+02  0.00000000000E+00 0.  1.
         -4    1    6    6    0  503  0.30694368156E+03  0.43228150831E+03 -0.93451897915E+01  0.53025376816E+03  0.00000000000E+00 0. -1.
<mgrwt>
<rscale>  0 0.12967471E+04</rscale>
<asrwt>0</asrwt>
<pdfrwt beam="1">  1        1 0.14658354E+00 0.12967471E+04</pdfrwt>
<pdfrwt beam="2">  1       -2 0.67879502E-01 0.12967471E+04</pdfrwt>
<totfact> 0.28240074E+01</totfact>
</mgrwt>
</event>
<event>
12    5  0.5221187E-008  0.1706785E+04  0.7818608E-02  0.8757504E-01
         -2   -1    0    0    0  501 -0.00000000000E+00  0.00000000000E+00  0.92139748608E+03  0.92139748608E+03  0.00000000000E+00 0.  1.
          1   -1    0    0  501    0  0.00000000000E+00 -0.00000000000E+00 -0.79040634067E+03  0.79040634067E+03  0.00000000000E+00 0. -1.
        -24    2    1    2    0    0 -0.64811718624E+02  0.55201276054E+03 -0.23054230927E+03  0.60700262988E+03  0.79898621083E+02 0.  0.
        254    2    1    2    0    0  0.64811718624E+02 -0.55201276054E+03  0.36153345467E+03  0.11048011969E+04  0.88371975144E+03 0.  0.
         23    2    4    4    0    0  0.21314387107E+03 -0.61987918416E+03  0.53425404246E+03  0.85022141093E+03  0.88139395192E+02 0.  0.
         23    2    4    4    0    0 -0.14833215244E+03  0.67866423625E+02 -0.17272058778E+03  0.25457978594E+03  0.91488726413E+02 0.  0.
          1    1    3    3  502    0 -0.18811516457E+02  0.42793451758E+03 -0.16185134712E+03  0.45790575783E+03  0.00000000000E+00 0. -1.
         -2    1    3    3    0  502 -0.46000202166E+02  0.12407824296E+03 -0.68690962147E+02  0.14909687205E+03  0.00000000000E+00 0.  1.
         13    1    5    5    0    0  0.95116378990E+02 -0.16082963318E+03  0.16713392565E+03  0.25069313027E+03  0.00000000000E+00 0. -1.
        -13    1    5    5    0    0  0.11802749208E+03 -0.45904955098E+03  0.36712011680E+03  0.59952828066E+03  0.00000000000E+00 0.  1.
          2    1    6    6  503    0 -0.10901826106E+03  0.16510369846E+01 -0.11394093069E+03  0.15770302107E+03  0.00000000000E+00 0. -1.
         -2    1    6    6    0  503 -0.39313891378E+02  0.66215386640E+02 -0.58779657097E+02  0.96876764870E+02  0.00000000000E+00 0.  1.
<mgrwt>
<rscale>  0 0.17067846E+04</rscale>
<asrwt>0</asrwt>
<pdfrwt beam="1">  1        1 0.12160097E+00 0.17067846E+04</pdfrwt>
<pdfrwt beam="2">  1       -2 0.14175346E+00 0.17067846E+04</pdfrwt>
<totfact> 0.65274253E+00</totfact>
</mgrwt>
</event>
<event>
12    5  0.5221187E-008  0.1854856E+04  0.7818608E-02  0.8677659E-01
         -2   -1    0    0    0  501 -0.00000000000E+00  0.00000000000E+00  0.11975084300E+04  0.11975084300E+04  0.00000000000E+00 0.  1.
          1   -1    0    0  501    0  0.00000000000E+00 -0.00000000000E+00 -0.71826052274E+03  0.71826052274E+03  0.00000000000E+00 0. -1.
        -24    2    1    2    0    0 -0.25328673778E+03 -0.65120216641E+03  0.79487487496E+02  0.70760221223E+03  0.78512400358E+02 0.  0.
        254    2    1    2    0    0  0.25328673778E+03  0.65120216641E+03  0.39976041977E+03  0.12081667405E+04  0.90091067626E+03 0.  0.
         23    2    4    4    0    0  0.29697755311E+03  0.68834397755E+03  0.61079959715E+03  0.97145623418E+03  0.92940672263E+02 0.  0.
         23    2    4    4    0    0 -0.43690815321E+02 -0.37141811144E+02 -0.21103917738E+03  0.23671050634E+03  0.90586577059E+02 0.  0.
          3    1    3    3  502    0 -0.43152087127E+02 -0.51120116256E+02  0.46519418080E+00  0.66899815509E+02  0.00000000000E+00 0. -1.
         -4    1    3    3    0  502 -0.21013465066E+03 -0.60008205015E+03  0.79022293315E+02  0.64070239672E+03  0.00000000000E+00 0.  1.
         13    1    5    5    0    0  0.26702183620E+03  0.58080783830E+03  0.47938922351E+03  0.79903218562E+03  0.00000000000E+00 0. -1.
        -13    1    5    5    0    0  0.29955716909E+02  0.10753613925E+03  0.13141037364E+03  0.17242404856E+03  0.00000000000E+00 0.  1.
          4    1    6    6  503    0 -0.52205940042E+02 -0.34500670824E+02 -0.64379696220E+02  0.89780297106E+02  0.00000000000E+00 0. -1.
         -4    1    6    6    0  503  0.85151247204E+01 -0.26411403205E+01 -0.14665948116E+03  0.14693020923E+03  0.00000000000E+00 0.  1.
<mgrwt>
<rscale>  0 0.18548564E+04</rscale>
<asrwt>0</asrwt>
<pdfrwt beam="1">  1        1 0.11050162E+00 0.18548564E+04</pdfrwt>
<pdfrwt beam="2">  1       -2 0.18423207E+00 0.18548564E+04</pdfrwt>
<totfact> 0.36513242E+00</totfact>
</mgrwt>
</event>
<event>
12    5  0.5221187E-008  0.2398759E+04  0.7818608E-02  0.8439968E-01
          1   -1    0    0  501    0  0.00000000000E+00  0.00000000000E+00  0.17321125183E+04  0.17321125183E+04  0.00000000000E+00 0. -1.
         -2   -1    0    0    0  501 -0.00000000000E+00 -0.00000000000E+00 -0.83049515521E+03  0.83049515521E+03  0.00000000000E+00 0.  1.
        -24    2    1    2    0    0  0.20607106400E+03  0.77347496055E+03  0.10680453480E+04  0.13370729229E+04  0.79462807217E+02 0.  0.
        254    2    1    2    0    0 -0.20607106400E+03 -0.77347496055E+03 -0.16642798497E+03  0.12255347506E+04  0.91296678617E+03 0.  0.
         23    2    4    4    0    0  0.20001222165E+02 -0.26152186564E+03  0.35793942405E+03  0.45301402522E+03  0.91144614040E+02 0.  0.
         23    2    4    4    0    0 -0.22607228616E+03 -0.51195309491E+03 -0.52436740902E+03  0.77252072534E+03  0.92857102479E+02 0.  0.
          3    1    3    3  502    0  0.13122452450E+03  0.61847516320E+03  0.84353378991E+03  0.10541729735E+04  0.00000000000E+00 0. -1.
         -4    1    3    3    0  502  0.74846539497E+02  0.15499979735E+03  0.22451155813E+03  0.28289994943E+03  0.00000000000E+00 0.  1.
         13    1    5    5    0    0  0.40351577599E+02 -0.25172434065E+03  0.33268219087E+03  0.41913104587E+03  0.00000000000E+00 0.  1.
        -13    1    5    5    0    0 -0.20350355434E+02 -0.97975249880E+01  0.25257233180E+02  0.33882979357E+02  0.00000000000E+00 0. -1.
          4    1    6    6  503    0 -0.85222041783E+02 -0.12778970571E+03 -0.10153054143E+03  0.18412348067E+03  0.00000000000E+00 0. -1.
         -4    1    6    6    0  503 -0.14085024438E+03 -0.38416338920E+03 -0.42283686759E+03  0.58839724467E+03  0.00000000000E+00 0.  1.
<mgrwt>
<rscale>  0 0.23987589E+04</rscale>
<asrwt>0</asrwt>
<pdfrwt beam="1">  1        1 0.26647885E+00 0.23987589E+04</pdfrwt>
<pdfrwt beam="2">  1       -2 0.12776849E+00 0.23987589E+04</pdfrwt>
<totfact> 0.16186509E+00</totfact>
</mgrwt>
</event>
<event>
12    5  0.5221187E-008  0.1865131E+04  0.7818608E-02  0.8672410E-01
          1   -1    0    0  501    0  0.00000000000E+00  0.00000000000E+00  0.49101805073E+04  0.49101805073E+04  0.00000000000E+00 0. -1.
         -2   -1    0    0    0  501 -0.00000000000E+00 -0.00000000000E+00 -0.17711747354E+03  0.17711747354E+03  0.00000000000E+00 0.  1.
        -24    2    1    2    0    0 -0.18502715740E+03 -0.14004257184E+03  0.37444151547E+04  0.37524500973E+04  0.79936918211E+02 0.  0.
        254    2    1    2    0    0  0.18502715740E+03  0.14004257184E+03  0.98864787900E+03  0.13348478835E+04  0.86634131412E+03 0.  0.
         23    2    4    4    0    0  0.47026575499E+02  0.41896933748E+03  0.18813818676E+03  0.47104046754E+03  0.93468391398E+02 0.  0.
         23    2    4    4    0    0  0.13800058190E+03 -0.27892676565E+03  0.80050969224E+03  0.86380741596E+03  0.92212706878E+02 0.  0.
          1    1    3    3  502    0 -0.13866819506E+03 -0.71289326359E+02  0.28263946386E+04  0.28306920866E+04  0.00000000000E+00 0. -1.
         -2    1    3    3    0  502 -0.46358962336E+02 -0.68753245477E+02  0.91802051613E+03  0.92175801065E+03  0.00000000000E+00 0.  1.
         13    1    5    5    0    0  0.22458699596E+02  0.23767061313E+03  0.55590396416E+02  0.24511631057E+03  0.00000000000E+00 0. -1.
        -13    1    5    5    0    0  0.24567875903E+02  0.18129872435E+03  0.13254779035E+03  0.22592415697E+03  0.00000000000E+00 0.  1.
          4    1    6    6  503    0  0.58347094640E+02 -0.17438731126E+03  0.56416676874E+03  0.59337969356E+03  0.00000000000E+00 0. -1.
         -4    1    6    6    0  503  0.79653487258E+02 -0.10453945439E+03  0.23634292350E+03  0.27042772240E+03  0.00000000000E+00 0.  1.
<mgrwt>
<rscale>  0 0.18651314E+04</rscale>
<asrwt>0</asrwt>
<pdfrwt beam="1">  1        1 0.75541228E+00 0.18651314E+04</pdfrwt>
<pdfrwt beam="2">  1       -2 0.27248846E-01 0.18651314E+04</pdfrwt>
<totfact> 0.11593684E-01</totfact>
</mgrwt>
</event>
<event>
12    5  0.5221187E-008  0.2660742E+04  0.7818608E-02  0.8347856E-01
          1   -1    0    0  501    0  0.00000000000E+00  0.00000000000E+00  0.19380880943E+04  0.19380880943E+04  0.00000000000E+00 0. -1.
         -2   -1    0    0    0  501 -0.00000000000E+00 -0.00000000000E+00 -0.91321285335E+03  0.91321285335E+03  0.00000000000E+00 0.  1.
        -24    2    1    2    0    0  0.71456355351E+03  0.86591028878E+03  0.84965050968E+03  0.14100550751E+04  0.77120853225E+02 0.  0.
        254    2    1    2    0    0 -0.71456355351E+03 -0.86591028878E+03  0.17522473122E+03  0.14412458725E+04  0.88661392857E+03 0.  0.
         23    2    4    4    0    0 -0.82593996689E+03 -0.87164961384E+03  0.30813942808E+03  0.12428889109E+04  0.88730262769E+02 0.  0.
         23    2    4    4    0    0  0.11137641337E+03  0.57393250556E+01 -0.13291469686E+03  0.19835696158E+03  0.96132836532E+02 0.  0.
          1    1    3    3  502    0  0.63375003680E+03  0.75962086704E+03  0.71650299621E+03  0.12214906935E+04  0.00000000000E+00 0. -1.
         -2    1    3    3    0  502  0.80813516711E+02  0.10628942174E+03  0.13314751347E+03  0.18856438158E+03  0.00000000000E+00 0.  1.
         13    1    5    5    0    0 -0.42769001898E+03 -0.40762849051E+03  0.18508356201E+03  0.61914106917E+03  0.00000000000E+00 0. -1.
        -13    1    5    5    0    0 -0.39824994791E+03 -0.46402112333E+03  0.12305586607E+03  0.62374784174E+03  0.00000000000E+00 0.  1.
          3    1    6    6  503    0  0.77533303117E+02 -0.42348206516E+02 -0.83198704445E+02  0.12135406095E+03  0.00000000000E+00 0. -1.
         -3    1    6    6    0  503  0.33843110257E+02  0.48087531572E+02 -0.49715992410E+02  0.77002900633E+02  0.00000000000E+00 0.  1.
<mgrwt>
<rscale>  0 0.26607420E+04</rscale>
<asrwt>0</asrwt>
<pdfrwt beam="1">  1        1 0.29816740E+00 0.26607420E+04</pdfrwt>
<pdfrwt beam="2">  1       -2 0.14049429E+00 0.26607420E+04</pdfrwt>
<totfact> 0.89952522E-01</totfact>
</mgrwt>
</event>
<event>
12    5  0.5221187E-008  0.1621899E+04  0.7818608E-02  0.8807206E-01
          1   -1    0    0  501    0  0.00000000000E+00  0.00000000000E+00  0.52182610344E+03  0.52182610344E+03  0.00000000000E+00 0. -1.
         -2   -1    0    0    0  501 -0.00000000000E+00 -0.00000000000E+00 -0.12602650669E+04  0.12602650669E+04  0.00000000000E+00 0.  1.
        -24    2    1    2    0    0 -0.46494329257E+02 -0.75363497437E+02  0.33777368290E+03  0.36392345588E+03  0.10250776304E+03 0.  0.
        254    2    1    2    0    0  0.46494329257E+02  0.75363497437E+02 -0.10762126464E+04  0.14181677145E+04  0.91930660107E+03 0.  0.
         23    2    4    4    0    0 -0.28327962457E+03 -0.13711193272E+03 -0.70863786621E+02  0.33526602296E+03  0.91294041991E+02 0.  0.
         23    2    4    4    0    0  0.32977395383E+03  0.21247543016E+03 -0.10053488598E+04  0.10829016915E+04  0.89738924895E+02 0.  0.
          3    1    3    3  502    0 -0.44027900744E+02 -0.59779297231E+02  0.33997981431E+03  0.34799180243E+03  0.00000000000E+00 0. -1.
         -4    1    3    3    0  502 -0.24664285130E+01 -0.15584200205E+02 -0.22061314181E+01  0.15931653445E+02  0.00000000000E+00 0.  1.
         13    1    5    5    0    0 -0.19721576667E+03 -0.13685463158E+03 -0.37493995204E+02  0.24295894403E+03  0.00000000000E+00 0. -1.
        -13    1    5    5    0    0 -0.86063857900E+02 -0.25730114234E+00 -0.33369791417E+02  0.92307078925E+02  0.00000000000E+00 0.  1.
          2    1    6    6  503    0  0.25012162130E+03  0.17244076166E+03 -0.86330265868E+03  0.91519840592E+03  0.00000000000E+00 0. -1.
         -2    1    6    6    0  503  0.79652332535E+02  0.40034668498E+02 -0.14204620107E+03  0.16770328559E+03  0.00000000000E+00 0.  1.
<mgrwt>
<rscale>  0 0.16218991E+04</rscale>
<asrwt>0</asrwt>
<pdfrwt beam="1">  1        1 0.80280941E-01 0.16218991E+04</pdfrwt>
<pdfrwt beam="2">  1       -2 0.19388693E+00 0.16218991E+04</pdfrwt>
<totfact> 0.51045628E+00</totfact>
</mgrwt>
</event>
<event>
12    5  0.5221187E-008  0.1809953E+04  0.7818608E-02  0.8701024E-01
         -2   -1    0    0    0  501 -0.00000000000E+00  0.00000000000E+00  0.16066672543E+03  0.16066672543E+03  0.00000000000E+00 0.  1.
          1   -1    0    0  501    0  0.00000000000E+00 -0.00000000000E+00 -0.50974018307E+04  0.50974018307E+04  0.00000000000E+00 0. -1.
        -24    2    1    2    0    0  0.13284081012E+03 -0.95571843035E+02  0.48039417091E+02  0.19027426756E+03  0.84355517240E+02 0.  0.
        254    2    1    2    0    0 -0.13284081012E+03  0.95571843035E+02 -0.49847745224E+04  0.50677942886E+04  0.89876651829E+03 0.  0.
         23    2    4    4    0    0  0.23520627807E+03  0.83115254955E+02 -0.49268171762E+03  0.55972348885E+03  0.91241274911E+02 0.  0.
         23    2    4    4    0    0 -0.36804708819E+03  0.12456588080E+02 -0.44920928047E+04  0.45080707997E+04  0.90502724093E+02 0.  0.
          1    1    3    3  502    0  0.38091448424E+02 -0.18033322159E+02 -0.23720936768E+02  0.48361575577E+02  0.00000000000E+00 0. -1.
         -2    1    3    3    0  502  0.94749361693E+02 -0.77538520876E+02  0.71760353860E+02  0.14191269199E+03  0.00000000000E+00 0.  1.
         13    1    5    5    0    0  0.45819119702E+02  0.91606071307E+01 -0.18592473369E+03  0.19170632501E+03  0.00000000000E+00 0. -1.
        -13    1    5    5    0    0  0.18938715837E+03  0.73954647824E+02 -0.30675698393E+03  0.36801716384E+03  0.00000000000E+00 0.  1.
          1    1    6    6  503    0 -0.12766198510E+03  0.25449057109E+02 -0.11567531245E+04  0.11640545640E+04  0.00000000000E+00 0. -1.
         -1    1    6    6    0  503 -0.24038510309E+03 -0.12992469029E+02 -0.33353396803E+04  0.33440162357E+04  0.00000000000E+00 0.  1.
<mgrwt>
<rscale>  0 0.18099534E+04</rscale>
<asrwt>0</asrwt>
<pdfrwt beam="1">  1        1 0.78421576E+00 0.18099534E+04</pdfrwt>
<pdfrwt beam="2">  1       -2 0.24717955E-01 0.18099534E+04</pdfrwt>
<totfact> 0.80461405E-02</totfact>
</mgrwt>
</event>
<event>
12    5  0.5221187E-008  0.2273567E+04  0.7818608E-02  0.8488417E-01
         -2   -1    0    0    0  501 -0.00000000000E+00  0.00000000000E+00  0.71856813798E+03  0.71856813798E+03  0.00000000000E+00 0.  1.
          1   -1    0    0  501    0  0.00000000000E+00 -0.00000000000E+00 -0.17984059317E+04  0.17984059317E+04  0.00000000000E+00 0. -1.
        -24    2    1    2    0    0  0.36436123040E+03 -0.71410256289E+03  0.26834153255E+01  0.80569160023E+03  0.80188387080E+02 0.  0.
        254    2    1    2    0    0 -0.36436123040E+03  0.71410256289E+03 -0.10825212091E+04  0.17112824695E+04  0.10554306920E+04 0.  0.
         23    2    4    4    0    0  0.15829708817E+03  0.26858663559E+03 -0.95326810648E+03  0.10071807535E+04  0.92175042103E+02 0.  0.
         23    2    4    4    0    0 -0.52265831857E+03  0.44551592730E+03 -0.12925310261E+03  0.70410171602E+03  0.86004084291E+02 0.  0.
          1    1    3    3  502    0  0.53501665634E+01 -0.22140074769E+01 -0.60195001031E+01  0.83522747115E+01  0.00000000000E+00 0. -1.
         -2    1    3    3    0  502  0.35901106384E+03 -0.71188855541E+03  0.87029154286E+01  0.79733932552E+03  0.00000000000E+00 0.  1.
         13    1    5    5    0    0  0.16278806620E+03  0.26456054770E+03 -0.95146050020E+03  0.10008842697E+04  0.00000000000E+00 0. -1.
        -13    1    5    5    0    0 -0.44909780272E+01  0.40260878895E+01 -0.18076062756E+01  0.62964837634E+01  0.00000000000E+00 0.  1.
          4    1    6    6  503    0 -0.27272195850E+03  0.26915644158E+03 -0.10471817485E+03  0.39722582096E+03  0.00000000000E+00 0. -1.
         -4    1    6    6    0  503 -0.24993636007E+03  0.17635948572E+03 -0.24534927765E+02  0.30687589506E+03  0.00000000000E+00 0.  1.
<mgrwt>
<rscale>  0 0.22735674E+04</rscale>
<asrwt>0</asrwt>
<pdfrwt beam="1">  1        1 0.27667783E+00 0.22735674E+04</pdfrwt>
<pdfrwt beam="2">  1       -2 0.11054895E+00 0.22735674E+04</pdfrwt>
<totfact> 0.21095804E+00</totfact>
</mgrwt>
</event>
<event>
12    5  0.5221187E-008  0.1722999E+04  0.7818608E-02  0.8748355E-01
          1   -1    0    0  501    0  0.00000000000E+00  0.00000000000E+00  0.21685678821E+04  0.21685678821E+04  0.00000000000E+00 0. -1.
         -2   -1    0    0    0  501 -0.00000000000E+00 -0.00000000000E+00 -0.34224488766E+03  0.34224488766E+03  0.00000000000E+00 0.  1.
        -24    2    1    2    0    0 -0.45259114878E+03  0.11022731439E+03  0.12342755371E+04  0.13218534758E+04  0.82895725312E+02 0.  0.
        254    2    1    2    0    0  0.45259114878E+03 -0.11022731439E+03  0.59204745734E+03  0.11889592939E+04  0.91984520551E+03 0.  0.
         23    2    4    4    0    0  0.38478211690E+03  0.80599719334E+02  0.79295139584E+03  0.88974651418E+03  0.91232401549E+02 0.  0.
         23    2    4    4    0    0  0.67809031878E+02 -0.19082703372E+03 -0.20090393850E+03  0.29921277975E+03  0.90293263645E+02 0.  0.
          3    1    3    3  502    0 -0.23085656047E+03  0.31774267779E+02  0.70922312013E+03  0.74652648294E+03  0.00000000000E+00 0. -1.
         -4    1    3    3    0  502 -0.22173458831E+03  0.78453046609E+02  0.52505241697E+03  0.57532699289E+03  0.00000000000E+00 0.  1.
         13    1    5    5    0    0  0.32414726205E+03  0.78682237061E+02  0.72851146105E+03  0.80124359018E+03  0.00000000000E+00 0. -1.
        -13    1    5    5    0    0  0.60634854852E+02  0.19174822737E+01  0.64439934783E+02  0.88502923998E+02  0.00000000000E+00 0.  1.
          2    1    6    6  503    0  0.34979166942E+02 -0.49029014439E+02 -0.13143987571E+02  0.61645363055E+02  0.00000000000E+00 0. -1.
         -2    1    6    6    0  503  0.32829864935E+02 -0.14179801928E+03 -0.18775995093E+03  0.23756741670E+03  0.00000000000E+00 0.  1.
<mgrwt>
<rscale>  0 0.17229989E+04</rscale>
<asrwt>0</asrwt>
<pdfrwt beam="1">  1        1 0.33362582E+00 0.17229989E+04</pdfrwt>
<pdfrwt beam="2">  1       -2 0.52653061E-01 0.17229989E+04</pdfrwt>
<totfact> 0.64992152E+00</totfact>
</mgrwt>
</event>
<event>
12    5  0.5221187E-008  0.1153030E+04  0.7818608E-02  0.9154993E-01
          1   -1    0    0  501    0  0.00000000000E+00  0.00000000000E+00  0.83201941675E+03  0.83201941675E+03  0.00000000000E+00 0. -1.
         -2   -1    0    0    0  501 -0.00000000000E+00 -0.00000000000E+00 -0.39947340804E+03  0.39947340804E+03  0.00000000000E+00 0.  1.
        -24    2    1    2    0    0  0.62768637177E+02  0.98489272991E+02  0.28811032111E+03  0.32142854234E+03  0.81662182158E+02 0.  0.
        254    2    1    2    0    0 -0.62768637177E+02 -0.98489272991E+02  0.14443568761E+03  0.91006428245E+03  0.89090700504E+03 0.  0.
         23    2    4    4    0    0 -0.14184813462E+03 -0.78429104469E+01 -0.35265606477E+03  0.39081353826E+03  0.90479374021E+02 0.  0.
         23    2    4    4    0    0  0.79079497447E+02 -0.90646362544E+02  0.49709175238E+03  0.51925074419E+03  0.89726223012E+02 0.  0.
          1    1    3    3  502    0  0.53333282706E+02  0.64053904670E+02  0.26753810200E+03  0.28022130142E+03  0.00000000000E+00 0. -1.
         -2    1    3    3    0  502  0.94353544706E+01  0.34435368322E+02  0.20572219113E+02  0.41207240925E+02  0.00000000000E+00 0.  1.
         13    1    5    5    0    0 -0.64516235100E+02 -0.40267177820E+02 -0.22988687174E+03  0.24213996779E+03  0.00000000000E+00 0.  1.
        -13    1    5    5    0    0 -0.77331899524E+02  0.32424267373E+02 -0.12276919303E+03  0.14867357047E+03  0.00000000000E+00 0. -1.
          2    1    6    6  503    0  0.76220395084E+01  0.10477498723E+02  0.91979736160E+01  0.15889499186E+02  0.00000000000E+00 0. -1.
         -2    1    6    6    0  503  0.71457457938E+02 -0.10112386127E+03  0.48789377876E+03  0.50336124500E+03  0.00000000000E+00 0.  1.
<mgrwt>
<rscale>  0 0.11530302E+04</rscale>
<asrwt>0</asrwt>
<pdfrwt beam="1">  1        1 0.12800299E+00 0.11530302E+04</pdfrwt>
<pdfrwt beam="2">  1       -2 0.61457447E-01 0.11530302E+04</pdfrwt>
<totfact> 0.44434189E+01</totfact>
</mgrwt>
</event>
<event>
12    5  0.5221187E-008  0.1003577E+04  0.7818608E-02  0.9304630E-01
          1   -1    0    0  501    0  0.00000000000E+00  0.00000000000E+00  0.15047141143E+04  0.15047141143E+04  0.00000000000E+00 0. -1.
         -2   -1    0    0    0  501 -0.00000000000E+00 -0.00000000000E+00 -0.16733527606E+03  0.16733527606E+03  0.00000000000E+00 0.  1.
        -24    2    1    2    0    0  0.65904924821E+01 -0.36287006632E+02  0.45912738499E+02  0.99085053899E+02  0.79684922716E+02 0.  0.
        254    2    1    2    0    0 -0.65904924821E+01  0.36287006632E+02  0.12914660997E+04  0.15729643364E+04  0.89720228240E+03 0.  0.
         23    2    4    4    0    0  0.30219662790E+03  0.25006392725E+02  0.11915898399E+04  0.12333685455E+04  0.96765184745E+02 0.  0.
         23    2    4    4    0    0 -0.30878712038E+03  0.11280613908E+02  0.99876259804E+02  0.33959579089E+03  0.99364460217E+02 0.  0.
          3    1    3    3  502    0  0.14847185054E+02 -0.24299946124E+02  0.67378863851E+02  0.73149419543E+02  0.00000000000E+00 0. -1.
         -4    1    3    3    0  502 -0.82566925716E+01 -0.11987060508E+02 -0.21466125352E+02  0.25935634356E+02  0.00000000000E+00 0.  1.
         13    1    5    5    0    0  0.22724665603E+03 -0.24127056482E+02  0.83854067975E+03  0.86912233266E+03  0.00000000000E+00 0. -1.
        -13    1    5    5    0    0  0.74949971874E+02  0.49133449206E+02  0.35304916016E+03  0.36424621289E+03  0.00000000000E+00 0.  1.
          3    1    6    6  503    0  0.26870594753E+01  0.11404674705E+02 -0.19951632078E+01  0.11885603476E+02  0.00000000000E+00 0. -1.
         -3    1    6    6    0  503 -0.31147417986E+03 -0.12406079789E+00  0.10187142301E+03  0.32771018741E+03  0.00000000000E+00 0.  1.
<mgrwt>
<rscale>  0 0.10035771E+04</rscale>
<asrwt>0</asrwt>
<pdfrwt beam="1">  1        1 0.23149447E+00 0.10035771E+04</pdfrwt>
<pdfrwt beam="2">  1       -2 0.25743890E-01 0.10035771E+04</pdfrwt>
<totfact> 0.77687229E+01</totfact>
</mgrwt>
</event>
<event>
12    5  0.5221187E-008  0.1531090E+04  0.7818608E-02  0.8864038E-01
          1   -1    0    0  501    0  0.00000000000E+00  0.00000000000E+00  0.11777702621E+04  0.11777702621E+04  0.00000000000E+00 0. -1.
         -2   -1    0    0    0  501 -0.00000000000E+00 -0.00000000000E+00 -0.49760063824E+03  0.49760063824E+03  0.00000000000E+00 0.  1.
        -24    2    1    2    0    0 -0.40308709144E+03  0.14672956188E+03  0.49865418707E+03  0.66250813386E+03  0.79071243360E+02 0.  0.
        254    2    1    2    0    0  0.40308709144E+03 -0.14672956188E+03  0.18151543675E+03  0.10128627664E+04  0.89940778417E+03 0.  0.
         23    2    4    4    0    0  0.49371317191E+02 -0.44399713101E+03  0.27583787132E+03  0.53297184706E+03  0.91659583247E+02 0.  0.
         23    2    4    4    0    0  0.35371577425E+03  0.29726756913E+03 -0.94322434571E+02  0.47989091937E+03  0.88970310929E+02 0.  0.
          1    1    3    3  502    0 -0.33375617837E+03  0.12542400940E+03  0.36380352848E+03  0.50938921864E+03  0.00000000000E+00 0. -1.
         -2    1    3    3    0  502 -0.69330913068E+02  0.21305552482E+02  0.13485065859E+03  0.15311891521E+03  0.00000000000E+00 0.  1.
         13    1    5    5    0    0  0.46778310601E+01 -0.36561022874E+03  0.22692182047E+03  0.43033270160E+03  0.00000000000E+00 0.  1.
        -13    1    5    5    0    0  0.44693486131E+02 -0.78386902263E+02  0.48916050849E+02  0.10263914545E+03  0.00000000000E+00 0. -1.
          3    1    6    6  503    0  0.10693670470E+02  0.21811542401E+02  0.12291624917E+02  0.27224658182E+02  0.00000000000E+00 0. -1.
         -3    1    6    6    0  503  0.34302210378E+03  0.27545602673E+03 -0.10661405949E+03  0.45266626119E+03  0.00000000000E+00 0.  1.
<mgrwt>
<rscale>  0 0.15310901E+04</rscale>
<asrwt>0</asrwt>
<pdfrwt beam="1">  1        1 0.18119542E+00 0.15310901E+04</pdfrwt>
<pdfrwt beam="2">  1       -2 0.76553945E-01 0.15310901E+04</pdfrwt>
<totfact> 0.14324504E+01</totfact>
</mgrwt>
</event>
<event>
12    5  0.5221187E-008  0.1344140E+04  0.7818608E-02  0.8995276E-01
          1   -1    0    0  501    0  0.00000000000E+00  0.00000000000E+00  0.29927696061E+04  0.29927696061E+04  0.00000000000E+00 0. -1.
         -2   -1    0    0    0  501 -0.00000000000E+00 -0.00000000000E+00 -0.15092306938E+03  0.15092306938E+03  0.00000000000E+00 0.  1.
        -24    2    1    2    0    0  0.57844055349E+02  0.26297803639E+03  0.18615921788E+03  0.33602220622E+03  0.75843828437E+02 0.  0.
        254    2    1    2    0    0 -0.57844055349E+02 -0.26297803639E+03  0.26556873188E+04  0.28076704693E+04  0.87053715951E+03 0.  0.
         23    2    4    4    0    0  0.16508146937E+03 -0.51765106789E+03  0.18108904709E+04  0.18928191133E+04  0.90693871248E+02 0.  0.
         23    2    4    4    0    0 -0.22292552472E+03  0.25467303150E+03  0.84479684790E+03  0.91485135596E+03  0.93365661444E+02 0.  0.
          1    1    3    3  502    0  0.51912796331E+02  0.75935785318E+02  0.50966597193E+02  0.10516071483E+03  0.00000000000E+00 0. -1.
         -2    1    3    3    0  502  0.59312590179E+01  0.18704225107E+03  0.13519262069E+03  0.23086149139E+03  0.00000000000E+00 0.  1.
         13    1    5    5    0    0  0.60273429219E+02 -0.87049342096E+02  0.29238784462E+03  0.31096804645E+03  0.00000000000E+00 0.  1.
        -13    1    5    5    0    0  0.10480804015E+03 -0.43060172579E+03  0.15185026263E+04  0.15818510668E+04  0.00000000000E+00 0. -1.
          1    1    6    6  503    0 -0.19781032869E+03  0.25570198791E+03  0.74856277422E+03  0.81538865562E+03  0.00000000000E+00 0. -1.
         -1    1    6    6    0  503 -0.25115196025E+02 -0.10289564133E+01  0.96234073679E+02  0.99462700343E+02  0.00000000000E+00 0.  1.
<mgrwt>
<rscale>  0 0.13441398E+04</rscale>
<asrwt>0</asrwt>
<pdfrwt beam="1">  1        1 0.46042605E+00 0.13441398E+04</pdfrwt>
<pdfrwt beam="2">  1       -2 0.23218936E-01 0.13441398E+04</pdfrwt>
<totfact> 0.86064136E+00</totfact>
</mgrwt>
</event>
<event>
12    5  0.5221187E-008  0.1417296E+04  0.7818608E-02  0.8941393E-01
          1   -1    0    0  501    0  0.00000000000E+00  0.00000000000E+00  0.20935964132E+04  0.20935964132E+04  0.00000000000E+00 0. -1.
         -2   -1    0    0    0  501 -0.00000000000E+00 -0.00000000000E+00 -0.23986580277E+03  0.23986580277E+03  0.00000000000E+00 0.  1.
        -24    2    1    2    0    0 -0.20093563970E+03  0.36317843118E+03  0.63642150504E+03  0.76355926527E+03  0.75608963216E+02 0.  0.
        254    2    1    2    0    0  0.20093563970E+03 -0.36317843118E+03  0.12173091054E+04  0.15699029507E+04  0.90026668958E+03 0.  0.
         23    2    4    4    0    0  0.51365003680E+03 -0.37991665906E+03  0.64528278978E+03  0.91244090421E+03  0.89361606696E+02 0.  0.
         23    2    4    4    0    0 -0.31271439710E+03  0.16738227881E+02  0.57202631560E+03  0.65746204649E+03  0.83497152056E+02 0.  0.
          1    1    3    3  502    0 -0.18767355831E+03  0.28805969791E+03  0.54641696913E+03  0.64557823554E+03  0.00000000000E+00 0. -1.
         -2    1    3    3    0  502 -0.13262081390E+02  0.75118733270E+02  0.90004535915E+02  0.11798102973E+03  0.00000000000E+00 0.  1.
         13    1    5    5    0    0  0.19018073458E+03 -0.19173840776E+03  0.29330288915E+03  0.39869651817E+03  0.00000000000E+00 0. -1.
        -13    1    5    5    0    0  0.32346930221E+03 -0.18817825130E+03  0.35197990063E+03  0.51374438604E+03  0.00000000000E+00 0.  1.
          1    1    6    6  503    0 -0.28207516144E+03  0.37248177934E+02  0.47538073664E+03  0.55402226329E+03  0.00000000000E+00 0. -1.
         -1    1    6    6    0  503 -0.30639235660E+02 -0.20509950053E+02  0.96645578968E+02  0.10343978319E+03  0.00000000000E+00 0.  1.
<mgrwt>
<rscale>  0 0.14172963E+04</rscale>
<asrwt>0</asrwt>
<pdfrwt beam="1">  1        1 0.32209174E+00 0.14172963E+04</pdfrwt>
<pdfrwt beam="2">  1       -2 0.36902432E-01 0.14172963E+04</pdfrwt>
<totfact> 0.15243841E+01</totfact>
</mgrwt>
</event>
<event>
12    5  0.5221187E-008  0.2217656E+04  0.7818608E-02  0.8511115E-01
         -2   -1    0    0    0  501 -0.00000000000E+00  0.00000000000E+00  0.10515345463E+04  0.10515345463E+04  0.00000000000E+00 0.  1.
          1   -1    0    0  501    0  0.00000000000E+00 -0.00000000000E+00 -0.11692428214E+04  0.11692428214E+04  0.00000000000E+00 0. -1.
        -24    2    1    2    0    0 -0.81366365041E+02 -0.47559937035E+03 -0.83951135509E+03  0.97152872136E+03  0.79205395434E+02 0.  0.
        254    2    1    2    0    0  0.81366365041E+02  0.47559937035E+03  0.72180308001E+03  0.12492486463E+04  0.89822449730E+03 0.  0.
         23    2    4    4    0    0 -0.44637117806E+02 -0.22099536223E+03  0.94624970847E+01  0.24084767314E+03  0.84182185721E+02 0.  0.
         23    2    4    4    0    0  0.12600348285E+03  0.69659473259E+03  0.71234058292E+03  0.10084009732E+04  0.91226736410E+02 0.  0.
          1    1    3    3  502    0 -0.69357221133E+02 -0.42160386037E+03 -0.78567103912E+03  0.89433730825E+03  0.00000000000E+00 0. -1.
         -2    1    3    3    0  502 -0.12009143908E+02 -0.53995509981E+02 -0.53840315970E+02  0.77191413119E+02  0.00000000000E+00 0.  1.
         13    1    5    5    0    0 -0.36152204409E+02 -0.16500071912E+03 -0.30350723783E+02  0.17161988704E+03  0.00000000000E+00 0. -1.
        -13    1    5    5    0    0 -0.84849133964E+01 -0.55994643111E+02  0.39813220868E+02  0.69227786101E+02  0.00000000000E+00 0.  1.
          3    1    6    6  503    0  0.32714067978E+02  0.43120512123E+03  0.43184862775E+03  0.61114753056E+03  0.00000000000E+00 0. -1.
         -3    1    6    6    0  503  0.93289414869E+02  0.26538961136E+03  0.28049195517E+03  0.39725344260E+03  0.00000000000E+00 0.  1.
<mgrwt>
<rscale>  0 0.22176557E+04</rscale>
<asrwt>0</asrwt>
<pdfrwt beam="1">  1        1 0.17988351E+00 0.22176557E+04</pdfrwt>
<pdfrwt beam="2">  1       -2 0.16177455E+00 0.22176557E+04</pdfrwt>
<totfact> 0.21970787E+00</totfact>
</mgrwt>
</event>
<event>
12    5  0.5221187E-008  0.1783093E+04  0.7818608E-02  0.8715342E-01
         -2   -1    0    0    0  501 -0.00000000000E+00  0.00000000000E+00  0.36870637798E+03  0.36870637798E+03  0.00000000000E+00 0.  1.
          1   -1    0    0  501    0  0.00000000000E+00 -0.00000000000E+00 -0.21557955317E+04  0.21557955317E+04  0.00000000000E+00 0. -1.
        -24    2    1    2    0    0  0.44224692329E+03 -0.40446180320E+03 -0.10591670463E+04  0.12194935055E+04  0.78472203143E+02 0.  0.
        254    2    1    2    0    0 -0.44224692329E+03  0.40446180320E+03 -0.72792210748E+03  0.13050084042E+04  0.90222206194E+03 0.  0.
         23    2    4    4    0    0 -0.61509071569E+03  0.36588483296E+03 -0.81490743751E+03  0.10884309370E+04  0.91648640465E+02 0.  0.
         23    2    4    4    0    0  0.17284379240E+03  0.38576970240E+02  0.86985330038E+02  0.21657746723E+03  0.89309531783E+02 0.  0.
          3    1    3    3  502    0  0.42407397999E+03 -0.38629984663E+03 -0.97231632946E+03  0.11289222101E+04  0.00000000000E+00 0. -1.
         -4    1    3    3    0  502  0.18172943299E+02 -0.18161956574E+02 -0.86850716803E+02  0.90571295364E+02  0.00000000000E+00 0.  1.
         13    1    5    5    0    0 -0.43657215842E+02  0.26264485943E+01 -0.38844344837E+02  0.58495588321E+02  0.00000000000E+00 0. -1.
        -13    1    5    5    0    0 -0.57143349985E+03  0.36325838437E+03 -0.77606309268E+03  0.10299353486E+04  0.00000000000E+00 0.  1.
          3    1    6    6  503    0  0.78769371167E+02 -0.88011495724E+00 -0.53847305547E+01  0.78958113956E+02  0.00000000000E+00 0. -1.
         -3    1    6    6    0  503  0.94074421234E+02  0.39457085198E+02  0.92370060592E+02  0.13761935328E+03  0.00000000000E+00 0.  1.
<mgrwt>
<rscale>  0 0.17830934E+04</rscale>
<asrwt>0</asrwt>
<pdfrwt beam="1">  1        1 0.33166085E+00 0.17830934E+04</pdfrwt>
<pdfrwt beam="2">  1       -2 0.56724058E-01 0.17830934E+04</pdfrwt>
<totfact> 0.56502070E+00</totfact>
</mgrwt>
</event>
<event>
12    5  0.6818520E-008  0.1834560E+04  0.7818608E-02  0.8688134E-01
         -2   -1    0    0    0  501 -0.00000000000E+00  0.00000000000E+00  0.88488029814E+03  0.88488029814E+03  0.00000000000E+00 0.  1.
          1   -1    0    0  501    0  0.00000000000E+00 -0.00000000000E+00 -0.95086646753E+03  0.95086646753E+03  0.00000000000E+00 0. -1.
        -24    2    1    2    0    0 -0.38919765240E+02 -0.11907685465E+03  0.66100402015E+03  0.67750374888E+03  0.79943540341E+02 0.  0.
        254    2    1    2    0    0  0.38919765240E+02  0.11907685465E+03 -0.72699018954E+03  0.11582430168E+04  0.89292670741E+03 0.  0.
         23    2    4    4    0    0 -0.30823306494E+03 -0.23249387681E+03 -0.34991774085E+03  0.52912070655E+03  0.92006910941E+02 0.  0.
         23    2    4    4    0    0  0.34715283018E+03  0.35157073147E+03 -0.37707244869E+03  0.62912231024E+03  0.97438098048E+02 0.  0.
          1    1    3    3  502    0 -0.58361378873E+01  0.11105585509E+02  0.92519511621E+02  0.93366238896E+02  0.00000000000E+00 0. -1.
         -2    1    3    3    0  502 -0.33083627353E+02 -0.13018244016E+03  0.56848450853E+03  0.58413750998E+03  0.00000000000E+00 0.  1.
         13    1    5    5    0    0 -0.29744023364E+03 -0.19322293141E+03 -0.29889192120E+03  0.46383421001E+03  0.00000000000E+00 0.  1.
        -13    1    5    5    0    0 -0.10792831295E+02 -0.39270945398E+02 -0.51025819647E+02  0.65286496540E+02  0.00000000000E+00 0. -1.
          3    1    6    6  503    0 -0.62120646229E+01  0.64717151644E+01 -0.27505445639E+01  0.93828747965E+01  0.00000000000E+00 0. -1.
         -3    1    6    6    0  503  0.35336489480E+03  0.34509901630E+03 -0.37432190413E+03  0.61973943544E+03  0.00000000000E+00 0.  1.
<mgrwt>
<rscale>  0 0.18345604E+04</rscale>
<asrwt>0</asrwt>
<pdfrwt beam="1">  1        1 0.14628715E+00 0.18345604E+04</pdfrwt>
<pdfrwt beam="2">  1       -2 0.13613543E+00 0.18345604E+04</pdfrwt>
<totfact> 0.52688019E+00</totfact>
</mgrwt>
</event>
<event>
12    5  0.5221187E-008  0.1333656E+04  0.7818608E-02  0.9003293E-01
          1   -1    0    0  501    0  0.00000000000E+00  0.00000000000E+00  0.20225567236E+04  0.20225567236E+04  0.00000000000E+00 0. -1.
         -2   -1    0    0    0  501 -0.00000000000E+00 -0.00000000000E+00 -0.21985029148E+03  0.21985029148E+03  0.00000000000E+00 0.  1.
        -24    2    1    2    0    0  0.24915949548E+03 -0.24169084026E+03  0.38005467596E+03  0.52033091492E+03  0.76208843592E+02 0.  0.
        254    2    1    2    0    0 -0.24915949548E+03  0.24169084026E+03  0.14226517562E+04  0.17220761002E+04  0.90615294460E+03 0.  0.
         23    2    4    4    0    0  0.25153563428E+03  0.16102744883E+03  0.14587967325E+03  0.34530923207E+03  0.93581900502E+02 0.  0.
         23    2    4    4    0    0 -0.50069512976E+03  0.80663391430E+02  0.12767720830E+04  0.13767668681E+04  0.90210097440E+02 0.  0.
          1    1    3    3  502    0  0.95827967284E+02 -0.73410906141E+02  0.84915644998E+02  0.14759006477E+03  0.00000000000E+00 0. -1.
         -2    1    3    3    0  502  0.15333152820E+03 -0.16827993412E+03  0.29513903097E+03  0.37274085015E+03  0.00000000000E+00 0.  1.
         13    1    5    5    0    0  0.15590574188E+02 -0.12205343525E+02  0.47989671815E+01  0.20373180902E+02  0.00000000000E+00 0. -1.
        -13    1    5    5    0    0  0.23594506009E+03  0.17323279236E+03  0.14108070606E+03  0.32493605117E+03  0.00000000000E+00 0.  1.
          3    1    6    6  503    0 -0.91162748882E+02 -0.18958555450E+01  0.32054576150E+03  0.33326239852E+03  0.00000000000E+00 0. -1.
         -3    1    6    6    0  503 -0.40953238088E+03  0.82559246975E+02  0.95622632146E+03  0.10435044696E+04  0.00000000000E+00 0.  1.
<mgrwt>
<rscale>  0 0.13336562E+04</rscale>
<asrwt>0</asrwt>
<pdfrwt beam="1">  1        1 0.31116256E+00 0.13336562E+04</pdfrwt>
<pdfrwt beam="2">  1       -2 0.33823123E-01 0.13336562E+04</pdfrwt>
<totfact> 0.20266208E+01</totfact>
</mgrwt>
</event>
<event>
12    5  0.5221187E-008  0.2194340E+04  0.7818608E-02  0.8520788E-01
          1   -1    0    0  501    0  0.00000000000E+00  0.00000000000E+00  0.19673803892E+04  0.19673803892E+04  0.00000000000E+00 0. -1.
         -2   -1    0    0    0  501 -0.00000000000E+00 -0.00000000000E+00 -0.61187049819E+03  0.61187049819E+03  0.00000000000E+00 0.  1.
        -24    2    1    2    0    0  0.20972289379E+03  0.49436256499E+03 -0.29936809492E+03  0.61909869777E+03  0.72690463404E+02 0.  0.
        254    2    1    2    0    0 -0.20972289379E+03 -0.49436256499E+03  0.16548779860E+04  0.19601521896E+04  0.90288283863E+03 0.  0.
         23    2    4    4    0    0 -0.47202653060E+03 -0.18037056916E+03  0.44245084192E+03  0.67738158347E+03  0.87979965308E+02 0.  0.
         23    2    4    4    0    0  0.26230363680E+03 -0.31399199584E+03  0.12124271440E+04  0.12827706062E+04  0.90148084469E+02 0.  0.
          1    1    3    3  502    0  0.30155524132E+02  0.54465254175E+02 -0.10765425717E+02  0.63180012179E+02  0.00000000000E+00 0. -1.
         -2    1    3    3    0  502  0.17956736966E+03  0.43989731082E+03 -0.28860266921E+03  0.55591868559E+03  0.00000000000E+00 0.  1.
         13    1    5    5    0    0 -0.44422056764E+02 -0.93015201214E+01  0.77286418764E+02  0.89627160666E+02  0.00000000000E+00 0. -1.
        -13    1    5    5    0    0 -0.42760447384E+03 -0.17106904903E+03  0.36516442316E+03  0.58775442280E+03  0.00000000000E+00 0.  1.
          3    1    6    6  503    0  0.15634513459E+03 -0.22095602509E+03  0.90370818183E+03  0.94337365028E+03  0.00000000000E+00 0. -1.
         -3    1    6    6    0  503  0.10595850221E+03 -0.93035970746E+02  0.30871896221E+03  0.33939695589E+03  0.00000000000E+00 0.  1.
<mgrwt>
<rscale>  0 0.21943400E+04</rscale>
<asrwt>0</asrwt>
<pdfrwt beam="1">  1        1 0.30267390E+00 0.21943400E+04</pdfrwt>
<pdfrwt beam="2">  1       -2 0.94133924E-01 0.21943400E+04</pdfrwt>
<totfact> 0.23923045E+00</totfact>
</mgrwt>
</event>
<event>
12    5  0.5221187E-008  0.1206608E+04  0.7818608E-02  0.9107093E-01
         -2   -1    0    0    0  501 -0.00000000000E+00  0.00000000000E+00  0.16743456406E+03  0.16743456406E+03  0.00000000000E+00 0.  1.
          1   -1    0    0  501    0  0.00000000000E+00 -0.00000000000E+00 -0.21738371525E+04  0.21738371525E+04  0.00000000000E+00 0. -1.
        -24    2    1    2    0    0  0.50184059547E+02 -0.11233037930E+03 -0.12128204704E+02  0.14856082455E+03  0.82381255730E+02 0.  0.
        254    2    1    2    0    0 -0.50184059547E+02  0.11233037930E+03 -0.19942743837E+04  0.21927108920E+04  0.90316896776E+03 0.  0.
         23    2    4    4    0    0 -0.44006347286E+03 -0.85202606068E+02 -0.11497372806E+04  0.12376600120E+04  0.94821656884E+02 0.  0.
         23    2    4    4    0    0  0.38987941332E+03  0.19753298537E+03 -0.84453710313E+03  0.95505088002E+03  0.88622952027E+02 0.  0.
          3    1    3    3  502    0  0.48785395342E+02 -0.87347516113E+02 -0.42935850191E+02  0.10887189996E+03  0.00000000000E+00 0. -1.
         -4    1    3    3    0  502  0.13986642047E+01 -0.24982863189E+02  0.30807645487E+02  0.39688924590E+02  0.00000000000E+00 0.  1.
         13    1    5    5    0    0 -0.32761896690E+03 -0.24012178906E+02 -0.87258885644E+03  0.93237443369E+03  0.00000000000E+00 0. -1.
        -13    1    5    5    0    0 -0.11244450596E+03 -0.61190427162E+02 -0.27714842417E+03  0.30528557829E+03  0.00000000000E+00 0.  1.
          4    1    6    6  503    0  0.43235025751E+02 -0.35306970457E+01 -0.59340641196E+02  0.73505407766E+02  0.00000000000E+00 0. -1.
         -4    1    6    6    0  503  0.34664438757E+03  0.20106368242E+03 -0.78519646193E+03  0.88154547225E+03  0.00000000000E+00 0.  1.
<mgrwt>
<rscale>  0 0.12066076E+04</rscale>
<asrwt>0</asrwt>
<pdfrwt beam="1">  1        1 0.33443645E+00 0.12066076E+04</pdfrwt>
<pdfrwt beam="2">  1       -2 0.25759166E-01 0.12066076E+04</pdfrwt>
<totfact> 0.26865965E+01</totfact>
</mgrwt>
</event>
<event>
12    5  0.5221187E-008  0.1175129E+04  0.7818608E-02  0.9134909E-01
          1   -1    0    0  501    0  0.00000000000E+00  0.00000000000E+00  0.26820572313E+03  0.26820572313E+03  0.00000000000E+00 0. -1.
         -2   -1    0    0    0  501 -0.00000000000E+00 -0.00000000000E+00 -0.12871905293E+04  0.12871905293E+04  0.00000000000E+00 0.  1.
        -24    2    1    2    0    0  0.14977806556E+02 -0.24154372583E+03 -0.21555231287E+03  0.33434673661E+03  0.82202399731E+02 0.  0.
        254    2    1    2    0    0 -0.14977806556E+02  0.24154372583E+03 -0.80343249336E+03  0.12210495159E+04  0.88706845432E+03 0.  0.
         23    2    4    4    0    0  0.29258662427E+03  0.44397430109E+03 -0.43715825500E+03  0.69343697899E+03  0.83829536469E+02 0.  0.
         23    2    4    4    0    0 -0.30756443083E+03 -0.20243057526E+03 -0.36627423835E+03  0.52761253688E+03  0.92973945170E+02 0.  0.
          3    1    3    3  502    0  0.44468681046E+02 -0.10801675489E+03 -0.78471828691E+02  0.14072281560E+03  0.00000000000E+00 0. -1.
         -4    1    3    3    0  502 -0.29490874490E+02 -0.13352697093E+03 -0.13708048418E+03  0.19362392101E+03  0.00000000000E+00 0.  1.
         13    1    5    5    0    0  0.16997884523E+03  0.27310526924E+03 -0.21155690789E+03  0.38501379351E+03  0.00000000000E+00 0. -1.
        -13    1    5    5    0    0  0.12260777904E+03  0.17086903185E+03 -0.22560134711E+03  0.30842318548E+03  0.00000000000E+00 0.  1.
          2    1    6    6  503    0 -0.14003006714E+03 -0.48035064522E+02 -0.10822051192E+03  0.18337793305E+03  0.00000000000E+00 0.  1.
         -2    1    6    6    0  503 -0.16753436369E+03 -0.15439551074E+03 -0.25805372643E+03  0.34423460383E+03  0.00000000000E+00 0. -1.
<mgrwt>
<rscale>  0 0.11751287E+04</rscale>
<asrwt>0</asrwt>
<pdfrwt beam="1">  1        1 0.41262419E-01 0.11751287E+04</pdfrwt>
<pdfrwt beam="2">  1       -2 0.19802931E+00 0.11751287E+04</pdfrwt>
<totfact> 0.12020470E+01</totfact>
</mgrwt>
</event>
<event>
12    5  0.5221187E-008  0.1946526E+04  0.7818608E-02  0.8632038E-01
          1   -1    0    0  501    0  0.00000000000E+00  0.00000000000E+00  0.27009606223E+04  0.27009606223E+04  0.00000000000E+00 0. -1.
         -2   -1    0    0    0  501 -0.00000000000E+00 -0.00000000000E+00 -0.35070535474E+03  0.35070535474E+03  0.00000000000E+00 0.  1.
        -24    2    1    2    0    0  0.74253592993E+03 -0.85796098861E+02  0.11455353891E+04  0.13702594757E+04  0.81480827136E+02 0.  0.
        254    2    1    2    0    0 -0.74253592993E+03  0.85796098861E+02  0.12047198784E+04  0.16814065013E+04  0.90391219673E+03 0.  0.
         23    2    4    4    0    0 -0.23997054132E+03  0.39185969298E+03  0.18843086214E+03  0.50337653000E+03  0.82108839118E+02 0.  0.
         23    2    4    4    0    0 -0.50256538861E+03 -0.30606359412E+03  0.10162890163E+04  0.11780299713E+04  0.93082518528E+02 0.  0.
          3    1    3    3  502    0  0.66671120048E+03 -0.55593203750E+02  0.10442317890E+04  0.12401671090E+04  0.00000000000E+00 0. -1.
         -4    1    3    3    0  502  0.75824729455E+02 -0.30202895111E+02  0.10130360015E+03  0.13009236670E+03  0.00000000000E+00 0.  1.
         13    1    5    5    0    0 -0.27215750790E+02  0.11182122667E+03  0.47107159351E+02  0.12435340079E+03  0.00000000000E+00 0.  1.
        -13    1    5    5    0    0 -0.21275479053E+03  0.28003846631E+03  0.14132370279E+03  0.37902312922E+03  0.00000000000E+00 0. -1.
          3    1    6    6  503    0 -0.38555679421E+03 -0.25773386413E+03  0.85825015029E+03  0.97553785511E+03  0.00000000000E+00 0. -1.
         -3    1    6    6    0  503 -0.11700859441E+03 -0.48329729987E+02  0.15803886596E+03  0.20249211619E+03  0.00000000000E+00 0.  1.
<mgrwt>
<rscale>  0 0.19465265E+04</rscale>
<asrwt>0</asrwt>
<pdfrwt beam="1">  1        1 0.41553239E+00 0.19465265E+04</pdfrwt>
<pdfrwt beam="2">  1       -2 0.53954672E-01 0.19465265E+04</pdfrwt>
<totfact> 0.25982638E+00</totfact>
</mgrwt>
</event>
<event>
12    5  0.5221187E-008  0.1802168E+04  0.7818608E-02  0.8705147E-01
          1   -1    0    0  501    0  0.00000000000E+00  0.00000000000E+00  0.13767115447E+04  0.13767115447E+04  0.00000000000E+00 0. -1.
         -2   -1    0    0    0  501 -0.00000000000E+00 -0.00000000000E+00 -0.58977696684E+03  0.58977696684E+03  0.00000000000E+00 0.  1.
        -24    2    1    2    0    0 -0.48338534057E+03 -0.32072811596E+03  0.65683270654E+03  0.87998483374E+03  0.80101132257E+02 0.  0.
        254    2    1    2    0    0  0.48338534057E+03  0.32072811596E+03  0.13010187132E+03  0.10865036778E+04  0.90941510495E+03 0.  0.
         23    2    4    4    0    0  0.68313257189E+03  0.38724321204E+03 -0.49344520265E+02  0.79193842683E+03  0.90023186764E+02 0.  0.
         23    2    4    4    0    0 -0.19974723132E+03 -0.66515096082E+02  0.17944639159E+03  0.29456525097E+03  0.10121494554E+03 0.  0.
          1    1    3    3  502    0 -0.28998944825E+03 -0.22972573103E+03  0.45005726502E+03  0.58259705920E+03  0.00000000000E+00 0. -1.
         -2    1    3    3    0  502 -0.19339589233E+03 -0.91002384931E+02  0.20677544152E+03  0.29738777454E+03  0.00000000000E+00 0.  1.
         13    1    5    5    0    0  0.84668779406E+02  0.78452435718E+02 -0.24784618207E+02  0.11805873189E+03  0.00000000000E+00 0.  1.
        -13    1    5    5    0    0  0.59846379248E+03  0.30879077633E+03 -0.24559902058E+02  0.67387969494E+03  0.00000000000E+00 0. -1.
          4    1    6    6  503    0 -0.15007889563E+03  0.17998630235E+00  0.10754883568E+03  0.18463601860E+03  0.00000000000E+00 0. -1.
         -4    1    6    6    0  503 -0.49668335687E+02 -0.66695082385E+02  0.71897555902E+02  0.10992923237E+03  0.00000000000E+00 0.  1.
<mgrwt>
<rscale>  0 0.18021684E+04</rscale>
<asrwt>0</asrwt>
<pdfrwt beam="1">  1        1 0.21180178E+00 0.18021684E+04</pdfrwt>
<pdfrwt beam="2">  1       -2 0.90734918E-01 0.18021684E+04</pdfrwt>
<totfact> 0.68499298E+00</totfact>
</mgrwt>
</event>
<event>
12    5  0.5221187E-008  0.2373260E+04  0.7818608E-02  0.8449583E-01
          1   -1    0    0  501    0  0.00000000000E+00  0.00000000000E+00  0.89271633920E+03  0.89271633920E+03  0.00000000000E+00 0. -1.
         -2   -1    0    0    0  501 -0.00000000000E+00 -0.00000000000E+00 -0.15773108225E+04  0.15773108225E+04  0.00000000000E+00 0.  1.
        -24    2    1    2    0    0  0.68133521543E+03  0.73635527599E+03 -0.63085368229E+03  0.11879222897E+04  0.82135434759E+02 0.  0.
        254    2    1    2    0    0 -0.68133521543E+03 -0.73635527599E+03 -0.53740800994E+02  0.12821048720E+04  0.79653503425E+03 0.  0.
         23    2    4    4    0    0 -0.56518956978E+03 -0.73212352501E+03  0.23467315727E+03  0.95845457305E+03  0.90108668859E+02 0.  0.
         23    2    4    4    0    0 -0.11614564565E+03 -0.42317509836E+01 -0.28841395827E+03  0.32365029892E+03  0.89772968923E+02 0.  0.
          3    1    3    3  502    0  0.30811543949E+03  0.29075175465E+03 -0.29995245943E+03  0.51907917007E+03  0.00000000000E+00 0. -1.
         -4    1    3    3    0  502  0.37321977593E+03  0.44560352134E+03 -0.33090122286E+03  0.66884311962E+03  0.00000000000E+00 0.  1.
         13    1    5    5    0    0 -0.13029668278E+02 -0.39057645149E+02  0.23891977338E+02  0.47603555341E+02  0.00000000000E+00 0. -1.
        -13    1    5    5    0    0 -0.55215990150E+03 -0.69306587986E+03  0.21078117993E+03  0.91085101771E+03  0.00000000000E+00 0.  1.
          1    1    6    6  503    0 -0.31542481328E+02 -0.35670300553E+02 -0.51564813623E+02  0.70187096206E+02  0.00000000000E+00 0. -1.
         -1    1    6    6    0  503 -0.84603164322E+02  0.31438549570E+02 -0.23684914464E+03  0.25346320271E+03  0.00000000000E+00 0.  1.
<mgrwt>
<rscale>  0 0.23732603E+04</rscale>
<asrwt>0</asrwt>
<pdfrwt beam="1">  1        1 0.13734098E+00 0.23732603E+04</pdfrwt>
<pdfrwt beam="2">  1       -2 0.24266320E+00 0.23732603E+04</pdfrwt>
<totfact> 0.10360202E+00</totfact>
</mgrwt>
</event>
<event>
12    5  0.5221187E-008  0.1271664E+04  0.7818608E-02  0.9052343E-01
          1   -1    0    0  501    0  0.00000000000E+00  0.00000000000E+00  0.10915763790E+04  0.10915763790E+04  0.00000000000E+00 0. -1.
         -2   -1    0    0    0  501 -0.00000000000E+00 -0.00000000000E+00 -0.37036534538E+03  0.37036534538E+03  0.00000000000E+00 0.  1.
        -24    2    1    2    0    0 -0.22946465220E+03 -0.20015593420E+03  0.12621481271E+03  0.33900797971E+03  0.79245231776E+02 0.  0.
        254    2    1    2    0    0  0.22946465220E+03  0.20015593420E+03  0.59499622090E+03  0.11229337447E+04  0.90235429150E+03 0.  0.
         23    2    4    4    0    0  0.39079671541E+03  0.36906713275E+03  0.80713256893E+02  0.55086328722E+03  0.89460103519E+02 0.  0.
         23    2    4    4    0    0 -0.16133206321E+03 -0.16891119855E+03  0.51428296401E+03  0.57207045743E+03  0.90656569441E+02 0.  0.
          3    1    3    3  502    0 -0.35030292702E+01  0.24543411965E+01  0.15289345192E+02  0.15876368639E+02  0.00000000000E+00 0. -1.
         -4    1    3    3    0  502 -0.22596162293E+03 -0.20261027540E+03  0.11092546752E+03  0.32313161108E+03  0.00000000000E+00 0.  1.
         13    1    5    5    0    0  0.30326071355E+02  0.33547579757E+02 -0.17890466142E+02  0.48633111047E+02  0.00000000000E+00 0.  1.
        -13    1    5    5    0    0  0.36047064405E+03  0.33551955299E+03  0.98603723035E+02  0.50223017617E+03  0.00000000000E+00 0. -1.
          3    1    6    6  503    0 -0.15843160855E+03 -0.15498410406E+03  0.51166786507E+03  0.55760617935E+03  0.00000000000E+00 0. -1.
         -3    1    6    6    0  503 -0.29004546605E+01 -0.13927094488E+02  0.26150989386E+01  0.14464278087E+02  0.00000000000E+00 0.  1.
<mgrwt>
<rscale>  0 0.12716636E+04</rscale>
<asrwt>0</asrwt>
<pdfrwt beam="1">  1        1 0.16793483E+00 0.12716636E+04</pdfrwt>
<pdfrwt beam="2">  1       -2 0.56979284E-01 0.12716636E+04</pdfrwt>
<totfact> 0.32074136E+01</totfact>
</mgrwt>
</event>
<event>
12    5  0.5221187E-008  0.1092599E+04  0.7818608E-02  0.9212435E-01
         -4   -1    0    0    0  501 -0.00000000000E+00  0.00000000000E+00  0.22546582530E+03  0.22546582530E+03  0.00000000000E+00 0.  1.
          3   -1    0    0  501    0  0.00000000000E+00 -0.00000000000E+00 -0.13236739108E+04  0.13236739108E+04  0.00000000000E+00 0. -1.
        -24    2    1    2    0    0  0.18462322954E+02  0.11628475339E+03 -0.30160335339E+03  0.33430505911E+03  0.83260365885E+02 0.  0.
        254    2    1    2    0    0 -0.18462322954E+02 -0.11628475339E+03 -0.79660473207E+03  0.12148346769E+04  0.90960496476E+03 0.  0.
         23    2    4    4    0    0 -0.37996021688E+03  0.18323461421E+03 -0.45270895248E+03  0.62557651971E+03  0.91955946547E+02 0.  0.
         23    2    4    4    0    0  0.36149789393E+03 -0.29951936760E+03 -0.34389577959E+03  0.58925815723E+03  0.92565056927E+02 0.  0.
          3    1    3    3  502    0 -0.89460965615E+01  0.79550183200E+02 -0.26124885564E+03  0.27323841030E+03  0.00000000000E+00 0. -1.
         -4    1    3    3    0  502  0.27408419516E+02  0.36734570192E+02 -0.40354497751E+02  0.61066648805E+02  0.00000000000E+00 0.  1.
         13    1    5    5    0    0 -0.47178844649E+02  0.44694454014E+02 -0.11246965404E+03  0.12989557607E+03  0.00000000000E+00 0.  1.
        -13    1    5    5    0    0 -0.33278137223E+03  0.13854016020E+03 -0.34023929844E+03  0.49568094365E+03  0.00000000000E+00 0. -1.
          4    1    6    6  503    0  0.34617051571E+03 -0.25726970710E+03 -0.32697634351E+03  0.54123493731E+03  0.00000000000E+00 0. -1.
         -4    1    6    6    0  503  0.15327378214E+02 -0.42249660497E+02 -0.16919436074E+02  0.48023219927E+02  0.00000000000E+00 0.  1.
<mgrwt>
<rscale>  0 0.10925992E+04</rscale>
<asrwt>0</asrwt>
<pdfrwt beam="1">  1        3 0.20364214E+00 0.10925992E+04</pdfrwt>
<pdfrwt beam="2">  1       -4 0.34687050E-01 0.10925992E+04</pdfrwt>
<totfact> 0.25804524E+00</totfact>
</mgrwt>
</event>
<event>
12    5  0.5221187E-008  0.2120211E+04  0.7818608E-02  0.8552392E-01
          1   -1    0    0  501    0  0.00000000000E+00  0.00000000000E+00  0.19923203844E+04  0.19923203844E+04  0.00000000000E+00 0. -1.
         -2   -1    0    0    0  501 -0.00000000000E+00 -0.00000000000E+00 -0.56407797279E+03  0.56407797279E+03  0.00000000000E+00 0.  1.
        -24    2    1    2    0    0 -0.14094981312E+03 -0.32512144244E+03 -0.36633884797E+03  0.51772853197E+03  0.90927878741E+02 0.  0.
        254    2    1    2    0    0  0.14094981312E+03  0.32512144244E+03  0.17945812596E+04  0.20386698252E+04  0.90004553043E+03 0.  0.
         23    2    4    4    0    0  0.10829598769E+03  0.17866278886E+03 -0.77239928525E+01  0.22777428485E+03  0.90404931836E+02 0.  0.
         23    2    4    4    0    0  0.32653825437E+02  0.14645865359E+03  0.18023052524E+04  0.18108955404E+04  0.92314818179E+02 0.  0.
          3    1    3    3  502    0 -0.33332092408E+02 -0.27084301440E+02 -0.79275679003E+02  0.90162193020E+02  0.00000000000E+00 0. -1.
         -4    1    3    3    0  502 -0.10761772072E+03 -0.29803714100E+03 -0.28706316896E+03  0.42756633895E+03  0.00000000000E+00 0.  1.
         13    1    5    5    0    0  0.10923077947E+03  0.17543779131E+03  0.12721767470E+02  0.20705464296E+03  0.00000000000E+00 0. -1.
        -13    1    5    5    0    0 -0.93479177790E+00  0.32249975468E+01 -0.20445760323E+02  0.20719641889E+02  0.00000000000E+00 0.  1.
          3    1    6    6  503    0  0.16815919167E+02  0.94896161238E+02  0.15447049537E+04  0.15477084514E+04  0.00000000000E+00 0. -1.
         -3    1    6    6    0  503  0.15837906271E+02  0.51562492348E+02  0.25760029877E+03  0.26318708900E+03  0.00000000000E+00 0.  1.
<mgrwt>
<rscale>  0 0.21202114E+04</rscale>
<asrwt>0</asrwt>
<pdfrwt beam="1">  1        1 0.30651082E+00 0.21202114E+04</pdfrwt>
<pdfrwt beam="2">  1       -2 0.86781228E-01 0.21202114E+04</pdfrwt>
<totfact> 0.27946010E+00</totfact>
</mgrwt>
</event>
<event>
12    5  0.5221187E-008  0.1719549E+04  0.7818608E-02  0.8750293E-01
          1   -1    0    0  501    0  0.00000000000E+00  0.00000000000E+00  0.10855291328E+04  0.10855291328E+04  0.00000000000E+00 0. -1.
         -2   -1    0    0    0  501 -0.00000000000E+00 -0.00000000000E+00 -0.68096963999E+03  0.68096963999E+03  0.00000000000E+00 0.  1.
        -24    2    1    2    0    0 -0.57484799794E+03 -0.26924911848E+02  0.37659529437E+03  0.69321965737E+03  0.86915510733E+02 0.  0.
        254    2    1    2    0    0  0.57484799794E+03  0.26924911848E+02  0.27964198393E+02  0.10732791154E+04  0.90552244117E+03 0.  0.
         23    2    4    4    0    0 -0.78598420759E+02  0.11533140893E+03 -0.29195812376E+03  0.33554674220E+03  0.88730065590E+02 0.  0.
         23    2    4    4    0    0  0.65344641870E+03 -0.88406497082E+02  0.31992232215E+03  0.73773237317E+03  0.84207074333E+02 0.  0.
          3    1    3    3  502    0 -0.45235276231E+03 -0.47292962402E+02  0.32368764844E+03  0.55824129157E+03  0.00000000000E+00 0. -1.
         -4    1    3    3    0  502 -0.12249523563E+03  0.20368050555E+02  0.52907645934E+02  0.13497836580E+03  0.00000000000E+00 0.  1.
         13    1    5    5    0    0 -0.83165104620E+02  0.60037229703E+02 -0.23305257324E+03  0.25462601099E+03  0.00000000000E+00 0. -1.
        -13    1    5    5    0    0  0.45666838614E+01  0.55294179228E+02 -0.58905550515E+02  0.80920731209E+02  0.00000000000E+00 0.  1.
          2    1    6    6  503    0  0.44436621949E+03 -0.20180035800E+02  0.21422951508E+03  0.49372346106E+03  0.00000000000E+00 0. -1.
         -2    1    6    6    0  503  0.20908019921E+03 -0.68226461283E+02  0.10569280707E+03  0.24400891211E+03  0.00000000000E+00 0.  1.
<mgrwt>
<rscale>  0 0.17195492E+04</rscale>
<asrwt>0</asrwt>
<pdfrwt beam="1">  1        1 0.16700448E+00 0.17195492E+04</pdfrwt>
<pdfrwt beam="2">  1       -2 0.10476456E+00 0.17195492E+04</pdfrwt>
<totfact> 0.80053327E+00</totfact>
</mgrwt>
</event>
<event>
12    5  0.5221187E-008  0.1812856E+04  0.7818608E-02  0.8699492E-01
          1   -1    0    0  501    0  0.00000000000E+00  0.00000000000E+00  0.66558508873E+03  0.66558508873E+03  0.00000000000E+00 0. -1.
         -2   -1    0    0    0  501 -0.00000000000E+00 -0.00000000000E+00 -0.12344208924E+04  0.12344208924E+04  0.00000000000E+00 0.  1.
        -24    2    1    2    0    0  0.58452173754E+03  0.96810238896E+02  0.13573755482E+03  0.61242204649E+03  0.74821088108E+02 0.  0.
        254    2    1    2    0    0 -0.58452173754E+03 -0.96810238896E+02 -0.70457335846E+03  0.12875839346E+04  0.90022824172E+03 0.  0.
         23    2    4    4    0    0 -0.57192520270E+03 -0.15044096760E+03 -0.24630692612E+02  0.59910722665E+03  0.92692371814E+02 0.  0.
         23    2    4    4    0    0 -0.12596534844E+02  0.53630728706E+02 -0.67994266585E+03  0.68847670795E+03  0.92968923870E+02 0.  0.
          1    1    3    3  502    0  0.41333630699E+03  0.52946472162E+02  0.63553881331E+02  0.42153211909E+03  0.00000000000E+00 0. -1.
         -2    1    3    3    0  502  0.17118543055E+03  0.43863766735E+02  0.72183673493E+02  0.19088992740E+03  0.00000000000E+00 0.  1.
         13    1    5    5    0    0 -0.14660347386E+03 -0.15584840668E+02 -0.39640265453E+02  0.15266570163E+03  0.00000000000E+00 0.  1.
        -13    1    5    5    0    0 -0.42532172884E+03 -0.13485612693E+03  0.15009572841E+02  0.44644152503E+03  0.00000000000E+00 0. -1.
          3    1    6    6  503    0 -0.39493959567E+02  0.30192188505E+02 -0.58405702691E+03  0.58616887650E+03  0.00000000000E+00 0. -1.
         -3    1    6    6    0  503  0.26897424724E+02  0.23438540201E+02 -0.95885638933E+02  0.10230783146E+03  0.00000000000E+00 0.  1.
<mgrwt>
<rscale>  0 0.18128565E+04</rscale>
<asrwt>0</asrwt>
<pdfrwt beam="1">  1        1 0.10239771E+00 0.18128565E+04</pdfrwt>
<pdfrwt beam="2">  1       -2 0.18991090E+00 0.18128565E+04</pdfrwt>
<totfact> 0.37634890E+00</totfact>
</mgrwt>
</event>
<event>
12    5  0.5221187E-008  0.1580203E+04  0.7818608E-02  0.8832803E-01
         -2   -1    0    0    0  501 -0.00000000000E+00  0.00000000000E+00  0.25023208951E+03  0.25023208951E+03  0.00000000000E+00 0.  1.
          1   -1    0    0  501    0  0.00000000000E+00 -0.00000000000E+00 -0.24947255796E+04  0.24947255796E+04  0.00000000000E+00 0. -1.
        -24    2    1    2    0    0  0.35531760383E+03 -0.19806215512E+03 -0.17551846466E+03  0.44994535141E+03  0.78516692109E+02 0.  0.
        254    2    1    2    0    0 -0.35531760383E+03  0.19806215512E+03 -0.20689750254E+04  0.22950123177E+04  0.90605996799E+03 0.  0.
         23    2    4    4    0    0 -0.10033883832E+03  0.52295686665E+03 -0.88041020013E+03  0.10335843963E+04  0.98095957492E+02 0.  0.
         23    2    4    4    0    0 -0.25497876551E+03 -0.32489471153E+03 -0.11885648253E+04  0.12614279214E+04  0.89125263212E+02 0.  0.
          3    1    3    3  502    0  0.45698269776E+02 -0.32535625020E+02 -0.55492691677E+02  0.78907145338E+02  0.00000000000E+00 0. -1.
         -4    1    3    3    0  502  0.30961933405E+03 -0.16552653010E+03 -0.12002577298E+03  0.37103820608E+03  0.00000000000E+00 0.  1.
         13    1    5    5    0    0 -0.23535574552E+02  0.35931188065E+03 -0.60881775944E+03  0.70733161605E+03  0.00000000000E+00 0. -1.
        -13    1    5    5    0    0 -0.76803263763E+02  0.16364498599E+03 -0.27159244069E+03  0.32625278023E+03  0.00000000000E+00 0.  1.
          3    1    6    6  503    0 -0.45983454456E+02 -0.12543241116E+03 -0.38024443793E+03  0.40303052047E+03  0.00000000000E+00 0. -1.
         -3    1    6    6    0  503 -0.20899531106E+03 -0.19946230037E+03 -0.80832038736E+03  0.85839740094E+03  0.00000000000E+00 0.  1.
<mgrwt>
<rscale>  0 0.15802030E+04</rscale>
<asrwt>0</asrwt>
<pdfrwt beam="1">  1        1 0.38380395E+00 0.15802030E+04</pdfrwt>
<pdfrwt beam="2">  1       -2 0.38497243E-01 0.15802030E+04</pdfrwt>
<totfact> 0.73644061E+00</totfact>
</mgrwt>
</event>
<event>
12    5  0.5221187E-008  0.1729216E+04  0.7818608E-02  0.8744875E-01
          1   -1    0    0  501    0  0.00000000000E+00  0.00000000000E+00  0.71539338462E+03  0.71539338462E+03  0.00000000000E+00 0. -1.
         -2   -1    0    0    0  501 -0.00000000000E+00 -0.00000000000E+00 -0.10449455977E+04  0.10449455977E+04  0.00000000000E+00 0.  1.
        -24    2    1    2    0    0  0.98920608774E+02  0.53855150960E+03  0.19093963028E+03  0.58523002354E+03  0.78823998294E+02 0.  0.
        254    2    1    2    0    0 -0.98920608774E+02 -0.53855150960E+03 -0.52049184334E+03  0.11751089588E+04  0.90008126890E+03 0.  0.
         23    2    4    4    0    0  0.30091816964E+03 -0.38307854978E+03 -0.54369998436E+03  0.73583363860E+03  0.92415099269E+02 0.  0.
         23    2    4    4    0    0 -0.39983877842E+03 -0.15547295982E+03  0.23208141026E+02  0.43927532015E+03  0.91549435409E+02 0.  0.
          1    1    3    3  502    0  0.88835498747E+02  0.38680717844E+03  0.16985233363E+03  0.43169590497E+03  0.00000000000E+00 0. -1.
         -2    1    3    3    0  502  0.10085110028E+02  0.15174433117E+03  0.21087296645E+02  0.15353411857E+03  0.00000000000E+00 0.  1.
         13    1    5    5    0    0  0.11445838025E+03 -0.15718275919E+03 -0.15240449530E+03  0.24705115014E+03  0.00000000000E+00 0.  1.
        -13    1    5    5    0    0  0.18645978940E+03 -0.22589579060E+03 -0.39129548906E+03  0.48878248846E+03  0.00000000000E+00 0. -1.
          1    1    6    6  503    0 -0.27647138947E+03 -0.60955275870E+02  0.20249083169E+02  0.28383445918E+03  0.00000000000E+00 0. -1.
         -1    1    6    6    0  503 -0.12336738895E+03 -0.94517683951E+02  0.29590578569E+01  0.15544086097E+03  0.00000000000E+00 0.  1.
<mgrwt>
<rscale>  0 0.17292162E+04</rscale>
<asrwt>0</asrwt>
<pdfrwt beam="1">  1        1 0.11006052E+00 0.17292162E+04</pdfrwt>
<pdfrwt beam="2">  1       -2 0.16076086E+00 0.17292162E+04</pdfrwt>
<totfact> 0.54440779E+00</totfact>
</mgrwt>
</event>
<event>
12    5  0.5221187E-008  0.2379389E+04  0.7818608E-02  0.8447261E-01
          1   -1    0    0  501    0  0.00000000000E+00  0.00000000000E+00  0.13083596961E+04  0.13083596961E+04  0.00000000000E+00 0. -1.
         -2   -1    0    0    0  501 -0.00000000000E+00 -0.00000000000E+00 -0.10817916465E+04  0.10817916465E+04  0.00000000000E+00 0.  1.
        -24    2    1    2    0    0 -0.85736662305E+03 -0.34447438899E+03  0.52868601307E+03  0.10675796588E+04  0.80481652564E+02 0.  0.
        254    2    1    2    0    0  0.85736662305E+03  0.34447438899E+03 -0.30211796346E+03  0.13225716838E+04  0.89676109636E+03 0.  0.
         23    2    4    4    0    0  0.38827504170E+03  0.25675511376E+03  0.29078409633E+03  0.55605580681E+03  0.89229889397E+02 0.  0.
         23    2    4    4    0    0  0.46909158135E+03  0.87719275231E+02 -0.59290205980E+03  0.76651587698E+03  0.90951383820E+02 0.  0.
          3    1    3    3  502    0 -0.47653106376E+03 -0.15480585927E+03  0.31032673895E+03  0.58936354969E+03  0.00000000000E+00 0. -1.
         -4    1    3    3    0  502 -0.38083555928E+03 -0.18966852972E+03  0.21835927412E+03  0.47821610907E+03  0.00000000000E+00 0.  1.
         13    1    5    5    0    0  0.13156483841E+02  0.15446244972E+02 -0.49562275617E+01  0.20886448775E+02  0.00000000000E+00 0.  1.
        -13    1    5    5    0    0  0.37511855786E+03  0.24130886878E+03  0.29574032389E+03  0.53516935803E+03  0.00000000000E+00 0. -1.
          2    1    6    6  503    0  0.44224744345E+03  0.93664562536E+02 -0.58199807274E+03  0.73693799480E+03  0.00000000000E+00 0. -1.
         -2    1    6    6    0  503  0.26844137895E+02 -0.59452873051E+01 -0.10903987060E+02  0.29577882181E+02  0.00000000000E+00 0.  1.
<mgrwt>
<rscale>  0 0.23793887E+04</rscale>
<asrwt>0</asrwt>
<pdfrwt beam="1">  1        1 0.20128611E+00 0.23793887E+04</pdfrwt>
<pdfrwt beam="2">  1       -2 0.16642948E+00 0.23793887E+04</pdfrwt>
<totfact> 0.15891267E+00</totfact>
</mgrwt>
</event>
<event>
12    5  0.5221187E-008  0.1774417E+04  0.7818608E-02  0.8720024E-01
          1   -1    0    0  501    0  0.00000000000E+00  0.00000000000E+00  0.88092561587E+03  0.88092561587E+03  0.00000000000E+00 0. -1.
         -2   -1    0    0    0  501 -0.00000000000E+00 -0.00000000000E+00 -0.89353625759E+03  0.89353625759E+03  0.00000000000E+00 0.  1.
        -24    2    1    2    0    0  0.29036901561E+03  0.40916725055E+03  0.42035923579E+03  0.65940656148E+03  0.79894443227E+02 0.  0.
        254    2    1    2    0    0 -0.29036901561E+03 -0.40916725055E+03 -0.43296987750E+03  0.11150553120E+04  0.89674602301E+03 0.  0.
         23    2    4    4    0    0  0.96183523376E+02 -0.26451459721E+03 -0.59444437849E+03  0.66272963131E+03  0.81407633540E+02 0.  0.
         23    2    4    4    0    0 -0.38655253899E+03 -0.14465265334E+03  0.16147450098E+03  0.45232568067E+03  0.90428156038E+02 0.  0.
          3    1    3    3  502    0  0.17369606515E+03  0.29017691996E+03  0.31554227790E+03  0.46253637378E+03  0.00000000000E+00 0. -1.
         -2    1    3    3    0  502  0.11667295047E+03  0.11899033059E+03  0.10481695788E+03  0.19687018770E+03  0.00000000000E+00 0.  1.
         13    1    5    5    0    0  0.14638077795E+02 -0.59920284845E+02 -0.66586933788E+02  0.90766368268E+02  0.00000000000E+00 0.  1.
        -13    1    5    5    0    0  0.81545445580E+02 -0.20459431236E+03 -0.52785744470E+03  0.57196326304E+03  0.00000000000E+00 0. -1.
          1    1    6    6  503    0 -0.28344837755E+03 -0.12386863048E+03  0.80632231078E+02  0.31966854247E+03  0.00000000000E+00 0. -1.
         -1    1    6    6    0  503 -0.10310416144E+03 -0.20784022863E+02  0.80842269905E+02  0.13265713820E+03  0.00000000000E+00 0.  1.
<mgrwt>
<rscale>  0 0.17744171E+04</rscale>
<asrwt>0</asrwt>
<pdfrwt beam="1">  1        1 0.13552702E+00 0.17744171E+04</pdfrwt>
<pdfrwt beam="2">  1       -2 0.13746712E+00 0.17744171E+04</pdfrwt>
<totfact> 0.58869039E+00</totfact>
</mgrwt>
</event>
<event>
12    5  0.5221187E-008  0.1977690E+04  0.7818608E-02  0.8617123E-01
         -2   -1    0    0    0  501 -0.00000000000E+00  0.00000000000E+00  0.10692902923E+04  0.10692902923E+04  0.00000000000E+00 0.  1.
          1   -1    0    0  501    0  0.00000000000E+00 -0.00000000000E+00 -0.91445201716E+03  0.91445201716E+03  0.00000000000E+00 0. -1.
        -24    2    1    2    0    0  0.12887048794E+03  0.28703984514E+03 -0.64260188373E+03  0.72006579288E+03  0.80982033490E+02 0.  0.
        254    2    1    2    0    0 -0.12887048794E+03 -0.28703984514E+03  0.79744015889E+03  0.12636765166E+04  0.92842234798E+03 0.  0.
         23    2    4    4    0    0 -0.17759936576E+03  0.28460514678E+03  0.50559946152E+03  0.61362811361E+03  0.91471427444E+02 0.  0.
         23    2    4    4    0    0  0.48728877814E+02 -0.57164499192E+03  0.29184069738E+03  0.65004840298E+03  0.90771323985E+02 0.  0.
          3    1    3    3  502    0  0.12506872446E+03  0.22068026506E+03 -0.55394352177E+03  0.60925806563E+03  0.00000000000E+00 0. -1.
         -4    1    3    3    0  502  0.38017634882E+01  0.66359580078E+02 -0.88658361960E+02  0.11080772725E+03  0.00000000000E+00 0.  1.
         13    1    5    5    0    0 -0.38273309221E+02  0.48608237835E+02  0.16654239775E+03  0.17766253750E+03  0.00000000000E+00 0. -1.
        -13    1    5    5    0    0 -0.13932605654E+03  0.23599690895E+03  0.33905706377E+03  0.43596557612E+03  0.00000000000E+00 0.  1.
          2    1    6    6  503    0  0.10110046726E+02 -0.28269081034E+02 -0.37770369979E+01  0.30259213403E+02  0.00000000000E+00 0. -1.
         -2    1    6    6    0  503  0.38618831088E+02 -0.54337591089E+03  0.29561773437E+03  0.61978918958E+03  0.00000000000E+00 0.  1.
<mgrwt>
<rscale>  0 0.19776902E+04</rscale>
<asrwt>0</asrwt>
<pdfrwt beam="1">  1        1 0.14068493E+00 0.19776902E+04</pdfrwt>
<pdfrwt beam="2">  1       -2 0.16450620E+00 0.19776902E+04</pdfrwt>
<totfact> 0.33663733E+00</totfact>
</mgrwt>
</event>
<event>
12    5  0.5221187E-008  0.1301760E+04  0.7818608E-02  0.9028171E-01
          1   -1    0    0  501    0  0.00000000000E+00  0.00000000000E+00  0.29578248385E+03  0.29578248385E+03  0.00000000000E+00 0. -1.
         -4   -1    0    0    0  501 -0.00000000000E+00 -0.00000000000E+00 -0.14322851095E+04  0.14322851095E+04  0.00000000000E+00 0.  1.
        -24    2    1    2    0    0 -0.23428189432E+03 -0.25699007335E+02  0.10678771443E+02  0.24855623343E+03  0.78215855382E+02 0.  0.
        254    2    1    2    0    0  0.23428189432E+03  0.25699007335E+02 -0.11471813971E+04  0.14795113599E+04  0.90409084794E+03 0.  0.
         23    2    4    4    0    0  0.28767534607E+03  0.27713642919E+03 -0.13516600855E+03  0.43084230671E+03  0.88281018692E+02 0.  0.
         23    2    4    4    0    0 -0.53393451752E+02 -0.25143742185E+03 -0.10120153885E+04  0.10486690532E+04  0.97262524877E+02 0.  0.
          3    1    3    3  502    0 -0.23630208148E+03 -0.26456378993E+02  0.20349578160E+02  0.23864768810E+03  0.00000000000E+00 0. -1.
         -4    1    3    3    0  502  0.20201871652E+01  0.75737165792E+00 -0.96708067175E+01  0.99085453311E+01  0.00000000000E+00 0.  1.
         13    1    5    5    0    0  0.14802477963E+02  0.12408139574E+02  0.12477865892E+02  0.22995052049E+02  0.00000000000E+00 0. -1.
        -13    1    5    5    0    0  0.27287286811E+03  0.26472828961E+03 -0.14764387444E+03  0.40784725466E+03  0.00000000000E+00 0.  1.
          3    1    6    6  503    0 -0.24228607682E+02 -0.15336564954E+03 -0.41799122493E+03  0.44589764745E+03  0.00000000000E+00 0. -1.
         -3    1    6    6    0  503 -0.29164844070E+02 -0.98071772307E+02 -0.59402416361E+03  0.60277140576E+03  0.00000000000E+00 0.  1.
<mgrwt>
<rscale>  0 0.13017601E+04</rscale>
<asrwt>0</asrwt>
<pdfrwt beam="1">  1        1 0.45504997E-01 0.13017601E+04</pdfrwt>
<pdfrwt beam="2">  1       -4 0.22035156E+00 0.13017601E+04</pdfrwt>
<totfact> 0.40417755E+00</totfact>
</mgrwt>
</event>
<event>
12    5  0.5221187E-008  0.1538894E+04  0.7818608E-02  0.8858993E-01
          1   -1    0    0  501    0  0.00000000000E+00  0.00000000000E+00  0.11649635597E+04  0.11649635597E+04  0.00000000000E+00 0. -1.
         -2   -1    0    0    0  501 -0.00000000000E+00 -0.00000000000E+00 -0.50821230224E+03  0.50821230224E+03  0.00000000000E+00 0.  1.
        -24    2    1    2    0    0 -0.28161773748E+03 -0.18681515587E+03  0.62546584729E+03  0.71568061520E+03  0.82357539584E+02 0.  0.
        254    2    1    2    0    0  0.28161773748E+03  0.18681515587E+03  0.31285410216E+02  0.95749524678E+03  0.89532671031E+03 0.  0.
         23    2    4    4    0    0  0.34702645108E+03  0.37437350659E+03  0.30981275963E+03  0.60338431341E+03  0.86636040120E+02 0.  0.
         23    2    4    4    0    0 -0.65408713604E+02 -0.18755835072E+03 -0.27852734941E+03  0.35411093338E+03  0.91436502706E+02 0.  0.
          3    1    3    3  502    0 -0.80615014555E+02 -0.95609483813E+02  0.26453117535E+03  0.29260330945E+03  0.00000000000E+00 0. -1.
         -2    1    3    3    0  502 -0.20100272292E+03 -0.91205672053E+02  0.36093467194E+03  0.42307730575E+03  0.00000000000E+00 0.  1.
         13    1    5    5    0    0  0.14017445697E+02  0.24391187663E+02  0.43336141912E+02  0.51666623804E+02  0.00000000000E+00 0.  1.
        -13    1    5    5    0    0  0.33300900539E+03  0.34998231893E+03  0.26647661771E+03  0.55171768960E+03  0.00000000000E+00 0. -1.
          1    1    6    6  503    0 -0.84522597179E+02 -0.10976273643E+03 -0.17379107790E+03  0.22225045894E+03  0.00000000000E+00 0. -1.
         -1    1    6    6    0  503  0.19113883574E+02 -0.77795614294E+02 -0.10473627151E+03  0.13186047444E+03  0.00000000000E+00 0.  1.
<mgrwt>
<rscale>  0 0.15388942E+04</rscale>
<asrwt>0</asrwt>
<pdfrwt beam="1">  1        1 0.17922516E+00 0.15388942E+04</pdfrwt>
<pdfrwt beam="2">  1       -2 0.78186508E-01 0.15388942E+04</pdfrwt>
<totfact> 0.13956274E+01</totfact>
</mgrwt>
</event>
<event>
12    5  0.5221187E-008  0.2080060E+04  0.7818608E-02  0.8570079E-01
         -2   -1    0    0    0  501 -0.00000000000E+00  0.00000000000E+00  0.17189750881E+04  0.17189750881E+04  0.00000000000E+00 0.  1.
          1   -1    0    0  501    0  0.00000000000E+00 -0.00000000000E+00 -0.62924815969E+03  0.62924815969E+03  0.00000000000E+00 0. -1.
        -24    2    1    2    0    0 -0.49027321736E+03  0.43381759416E+03  0.10618249317E+04  0.12500369505E+04  0.80960851113E+02 0.  0.
        254    2    1    2    0    0  0.49027321736E+03 -0.43381759416E+03  0.27901996769E+02  0.10981862973E+04  0.88128831239E+03 0.  0.
         23    2    4    4    0    0  0.57606228167E+03 -0.62368075077E+03 -0.51649549865E+02  0.85533402556E+03  0.90017709556E+02 0.  0.
         23    2    4    4    0    0 -0.85789064308E+02  0.18986315661E+03  0.79551546634E+02  0.24285227177E+03  0.96130096932E+02 0.  0.
          3    1    3    3  502    0 -0.18825180776E+03  0.12796478806E+03  0.41690667129E+03  0.47499989755E+03  0.00000000000E+00 0. -1.
         -4    1    3    3    0  502 -0.30202140960E+03  0.30585280610E+03  0.64491826038E+03  0.77503705294E+03  0.00000000000E+00 0.  1.
         13    1    5    5    0    0  0.46786060537E+03 -0.50940084527E+03 -0.77012274962E+02  0.69592647436E+03  0.00000000000E+00 0.  1.
        -13    1    5    5    0    0  0.10820167629E+03 -0.11427990550E+03  0.25362725097E+02  0.15940755119E+03  0.00000000000E+00 0. -1.
          2    1    6    6  503    0  0.69718553964E+01  0.24390237457E+02  0.42610031298E+02  0.49589365978E+02  0.00000000000E+00 0. -1.
         -2    1    6    6    0  503 -0.92760919705E+02  0.16547291916E+03  0.36941515336E+02  0.19326290579E+03  0.00000000000E+00 0.  1.
<mgrwt>
<rscale>  0 0.20800595E+04</rscale>
<asrwt>0</asrwt>
<pdfrwt beam="1">  1        1 0.96807409E-01 0.20800595E+04</pdfrwt>
<pdfrwt beam="2">  1       -2 0.26445771E+00 0.20800595E+04</pdfrwt>
<totfact> 0.13510062E+00</totfact>
</mgrwt>
</event>
<event>
12    5  0.5221187E-008  0.1148911E+04  0.7818608E-02  0.9158789E-01
         -2   -1    0    0    0  501 -0.00000000000E+00  0.00000000000E+00  0.67585715454E+03  0.67585715454E+03  0.00000000000E+00 0.  1.
          1   -1    0    0  501    0  0.00000000000E+00 -0.00000000000E+00 -0.48826769313E+03  0.48826769313E+03  0.00000000000E+00 0. -1.
        -24    2    1    2    0    0 -0.98324801900E+02 -0.82433423084E+01  0.39189584992E+03  0.41201433129E+03  0.80235482423E+02 0.  0.
        254    2    1    2    0    0  0.98324801900E+02  0.82433423084E+01 -0.20430638850E+03  0.75211051638E+03  0.71707280600E+03 0.  0.
         23    2    4    4    0    0  0.26333997453E+03 -0.70141388837E+01  0.17444636246E+03  0.32865055090E+03  0.90457232416E+02 0.  0.
         23    2    4    4    0    0 -0.16501517263E+03  0.15257481192E+02 -0.37875275097E+03  0.42345996549E+03  0.91661868155E+02 0.  0.
          3    1    3    3  502    0 -0.37432014094E+02 -0.10523011476E+02  0.29499420303E+03  0.29754574316E+03  0.00000000000E+00 0. -1.
         -4    1    3    3    0  502 -0.60892787806E+02  0.22796691677E+01  0.96901646890E+02  0.11446858813E+03  0.00000000000E+00 0.  1.
         13    1    5    5    0    0  0.15349934972E+02 -0.25430759824E+02  0.15313246443E+02  0.33419149682E+02  0.00000000000E+00 0.  1.
        -13    1    5    5    0    0  0.24799003956E+03  0.18416620940E+02  0.15913311602E+03  0.29523140121E+03  0.00000000000E+00 0. -1.
          2    1    6    6  503    0 -0.12791438508E+03 -0.11254486920E+02 -0.34060916073E+03  0.36401010117E+03  0.00000000000E+00 0. -1.
         -2    1    6    6    0  503 -0.37100787556E+02  0.26511968112E+02 -0.38143590240E+02  0.59449864313E+02  0.00000000000E+00 0.  1.
<mgrwt>
<rscale>  0 0.11489112E+04</rscale>
<asrwt>0</asrwt>
<pdfrwt beam="1">  1        1 0.75118107E-01 0.11489112E+04</pdfrwt>
<pdfrwt beam="2">  1       -2 0.10397802E+00 0.11489112E+04</pdfrwt>
<totfact> 0.29935240E+01</totfact>
</mgrwt>
</event>
<event>
12    5  0.5221187E-008  0.1479709E+04  0.7818608E-02  0.8898059E-01
         -2   -1    0    0    0  501 -0.00000000000E+00  0.00000000000E+00  0.21992829139E+03  0.21992829139E+03  0.00000000000E+00 0.  1.
          1   -1    0    0  501    0  0.00000000000E+00 -0.00000000000E+00 -0.24889238189E+04  0.24889238189E+04  0.00000000000E+00 0. -1.
        -24    2    1    2    0    0  0.20582230460E+02  0.34879163439E+03 -0.29016523281E+03  0.46141332601E+03  0.81407386978E+02 0.  0.
        254    2    1    2    0    0 -0.20582230460E+02 -0.34879163439E+03 -0.19788302947E+04  0.22474387843E+04  0.10065448432E+04 0.  0.
         23    2    4    4    0    0 -0.31377397463E+03  0.21510442144E+03 -0.49805974814E+03  0.63342511429E+03  0.91868620423E+02 0.  0.
         23    2    4    4    0    0  0.29319174417E+03 -0.56389605583E+03 -0.14807705466E+04  0.16140136700E+04  0.91752682384E+02 0.  0.
          1    1    3    3  502    0 -0.26192338828E+01  0.36334631458E+01  0.49664718646E+01  0.66879207043E+01  0.00000000000E+00 0. -1.
         -2    1    3    3    0  502  0.23201464343E+02  0.34515817125E+03 -0.29513170467E+03  0.45472540530E+03  0.00000000000E+00 0.  1.
         13    1    5    5    0    0 -0.10217272808E+03  0.35844749111E+02 -0.19186632033E+03  0.22031068353E+03  0.00000000000E+00 0.  1.
        -13    1    5    5    0    0 -0.21160124656E+03  0.17925967233E+03 -0.30619342781E+03  0.41311443076E+03  0.00000000000E+00 0. -1.
          2    1    6    6  503    0  0.22254748744E+03 -0.49102392951E+03 -0.12847945949E+04  0.13933158416E+04  0.00000000000E+00 0. -1.
         -2    1    6    6    0  503  0.70644256738E+02 -0.72872126327E+02 -0.19597595168E+03  0.22069782836E+03  0.00000000000E+00 0.  1.
<mgrwt>
<rscale>  0 0.14797091E+04</rscale>
<asrwt>0</asrwt>
<pdfrwt beam="1">  1        1 0.38291136E+00 0.14797091E+04</pdfrwt>
<pdfrwt beam="2">  1       -2 0.33835121E-01 0.14797091E+04</pdfrwt>
<totfact> 0.96141239E+00</totfact>
</mgrwt>
</event>
<event>
12    5  0.5221187E-008  0.2817869E+04  0.7818608E-02  0.8297742E-01
          1   -1    0    0  501    0  0.00000000000E+00  0.00000000000E+00  0.29928102366E+04  0.29928102366E+04  0.00000000000E+00 0. -1.
         -2   -1    0    0    0  501 -0.00000000000E+00 -0.00000000000E+00 -0.66328862121E+03  0.66328862121E+03  0.00000000000E+00 0.  1.
        -24    2    1    2    0    0 -0.69007877243E+03 -0.10460114007E+04  0.84340566205E+03  0.15128126899E+04  0.83189911587E+02 0.  0.
        254    2    1    2    0    0  0.69007877243E+03  0.10460114007E+04  0.14861159534E+04  0.21432861679E+04  0.90265519885E+03 0.  0.
         23    2    4    4    0    0  0.73248783631E+03  0.82760224179E+03  0.15392572066E+04  0.18971924669E+04  0.92534358774E+02 0.  0.
         23    2    4    4    0    0 -0.42409063879E+02  0.21840915896E+03 -0.53141253258E+02  0.24609370095E+03  0.90758070895E+02 0.  0.
          1    1    3    3  502    0 -0.16589492987E+03 -0.21714652344E+03  0.21908632593E+03  0.35024642555E+03  0.00000000000E+00 0. -1.
         -2    1    3    3    0  502 -0.52418384256E+03 -0.82886487730E+03  0.62431933612E+03  0.11625662644E+04  0.00000000000E+00 0.  1.
         13    1    5    5    0    0  0.96114896743E+02  0.95865700505E+02  0.14262801881E+03  0.19690367610E+03  0.00000000000E+00 0. -1.
        -13    1    5    5    0    0  0.63637293956E+03  0.73173654128E+03  0.13966291878E+04  0.17002887909E+04  0.00000000000E+00 0.  1.
          1    1    6    6  503    0 -0.11206336120E+02  0.79708175230E+01  0.17205007927E+02  0.22025625961E+02  0.00000000000E+00 0. -1.
         -1    1    6    6    0  503 -0.31202727759E+02  0.21043834144E+03 -0.70346261185E+02  0.22406807499E+03  0.00000000000E+00 0.  1.
<mgrwt>
<rscale>  0 0.28178694E+04</rscale>
<asrwt>0</asrwt>
<pdfrwt beam="1">  1        1 0.46043234E+00 0.28178694E+04</pdfrwt>
<pdfrwt beam="2">  1       -2 0.10204441E+00 0.28178694E+04</pdfrwt>
<totfact> 0.36197739E-01</totfact>
</mgrwt>
</event>
<event>
12    5  0.5221187E-008  0.3505338E+04  0.7818608E-02  0.8112526E-01
         -2   -1    0    0    0  501 -0.00000000000E+00  0.00000000000E+00  0.10795692836E+04  0.10795692836E+04  0.00000000000E+00 0.  1.
          1   -1    0    0  501    0  0.00000000000E+00 -0.00000000000E+00 -0.28454389829E+04  0.28454389829E+04  0.00000000000E+00 0. -1.
        -24    2    1    2    0    0  0.47303247770E+03 -0.11583677456E+04 -0.20101613099E+04  0.23691932206E+04  0.82173388606E+02 0.  0.
        254    2    1    2    0    0 -0.47303247770E+03  0.11583677456E+04  0.24429161062E+03  0.15558150459E+04  0.89179958908E+03 0.  0.
         23    2    4    4    0    0  0.23663469932E+03  0.40682833490E+03 -0.35348659325E+02  0.48127237631E+03  0.94171638429E+02 0.  0.
         23    2    4    4    0    0 -0.70966717702E+03  0.75153941073E+03  0.27964026995E+03  0.10745426696E+04  0.89466643232E+02 0.  0.
          3    1    3    3  502    0  0.21310901871E+03 -0.51672160097E+03 -0.82132045375E+03  0.99347066112E+03  0.00000000000E+00 0. -1.
         -4    1    3    3    0  502  0.25992345899E+03 -0.64164614466E+03 -0.11888408561E+04  0.13757225595E+04  0.00000000000E+00 0.  1.
         13    1    5    5    0    0  0.63613192445E+02  0.18905187523E+03 -0.38317397616E+02  0.20311443263E+03  0.00000000000E+00 0. -1.
        -13    1    5    5    0    0  0.17302150688E+03  0.21777645967E+03  0.29687382906E+01  0.27815794368E+03  0.00000000000E+00 0.  1.
          1    1    6    6  503    0 -0.29299780745E+03  0.27405109505E+03  0.14563556514E+03  0.42680374378E+03  0.00000000000E+00 0. -1.
         -1    1    6    6    0  503 -0.41666936957E+03  0.47748831568E+03  0.13400470481E+03  0.64773892585E+03  0.00000000000E+00 0.  1.
<mgrwt>
<rscale>  0 0.35053379E+04</rscale>
<asrwt>0</asrwt>
<pdfrwt beam="1">  1        1 0.43775984E+00 0.35053379E+04</pdfrwt>
<pdfrwt beam="2">  1       -2 0.16608758E+00 0.35053379E+04</pdfrwt>
<totfact> 0.12615860E-01</totfact>
</mgrwt>
</event>
<event>
12    5  0.5221187E-008  0.1289267E+04  0.7818608E-02  0.9038120E-01
          1   -1    0    0  501    0  0.00000000000E+00  0.00000000000E+00  0.22099362810E+04  0.22099362810E+04  0.00000000000E+00 0. -1.
         -2   -1    0    0    0  501 -0.00000000000E+00 -0.00000000000E+00 -0.18803826642E+03  0.18803826642E+03  0.00000000000E+00 0.  1.
        -24    2    1    2    0    0  0.17112786991E+03  0.26953050541E+03  0.40190724021E+03  0.51969936162E+03  0.81403657944E+02 0.  0.
        254    2    1    2    0    0 -0.17112786991E+03 -0.26953050541E+03  0.16199907744E+04  0.18782751858E+04  0.89533017559E+03 0.  0.
         23    2    4    4    0    0 -0.50400561883E+03 -0.31242119086E+03  0.94311500074E+03  0.11175267944E+04  0.88156492989E+02 0.  0.
         23    2    4    4    0    0  0.33287774891E+03  0.42890685454E+02  0.67687577363E+03  0.76074839140E+03  0.89051083511E+02 0.  0.
          1    1    3    3  502    0 -0.52995648322E+01  0.26152122745E+02  0.51661258144E+02  0.58145545870E+02  0.00000000000E+00 0. -1.
         -2    1    3    3    0  502  0.17642743475E+03  0.24337838266E+03  0.35024598207E+03  0.46155381575E+03  0.00000000000E+00 0.  1.
         13    1    5    5    0    0 -0.95902463177E+01 -0.60838799514E+00  0.22470052627E+01  0.98687381684E+01  0.00000000000E+00 0. -1.
        -13    1    5    5    0    0 -0.49441537251E+03 -0.31181280287E+03  0.94086799548E+03  0.11076580562E+04  0.00000000000E+00 0.  1.
          1    1    6    6  503    0 -0.51300684788E+01  0.97027714706E+00  0.21824785321E+02  0.22440594792E+02  0.00000000000E+00 0. -1.
         -1    1    6    6    0  503  0.33800781739E+03  0.41920408307E+02  0.65505098831E+03  0.73830779661E+03  0.00000000000E+00 0.  1.
<mgrwt>
<rscale>  0 0.12892674E+04</rscale>
<asrwt>0</asrwt>
<pdfrwt beam="1">  1        1 0.33999018E+00 0.12892674E+04</pdfrwt>
<pdfrwt beam="2">  1       -2 0.28928966E-01 0.12892674E+04</pdfrwt>
<totfact> 0.20368775E+01</totfact>
</mgrwt>
</event>
<event>
12    5  0.5221187E-008  0.1617477E+04  0.7818608E-02  0.8809883E-01
         -4   -1    0    0    0  501 -0.00000000000E+00  0.00000000000E+00  0.11908433453E+04  0.11908433453E+04  0.00000000000E+00 0.  1.
          1   -1    0    0  501    0  0.00000000000E+00 -0.00000000000E+00 -0.54923937841E+03  0.54923937841E+03  0.00000000000E+00 0. -1.
        -24    2    1    2    0    0  0.12350424787E+03  0.28656931458E+03  0.69331672057E+03  0.76444565302E+03  0.79459487158E+02 0.  0.
        254    2    1    2    0    0 -0.12350424787E+03 -0.28656931458E+03 -0.51712753692E+02  0.97563707068E+03  0.92293998368E+03 0.  0.
         23    2    4    4    0    0 -0.34466245399E+03  0.15485231519E+03  0.17479277972E+03  0.42658243456E+03  0.92997908142E+02 0.  0.
         23    2    4    4    0    0  0.22115820613E+03 -0.44142162977E+03 -0.22650553341E+03  0.54905463612E+03  0.79951419097E+02 0.  0.
          3    1    3    3  502    0 -0.82680976340E+01  0.28005183813E+01  0.13339004961E+02  0.15941561875E+02  0.00000000000E+00 0. -1.
         -4    1    3    3    0  502  0.13177234550E+03  0.28376879620E+03  0.67997771560E+03  0.74850409114E+03  0.00000000000E+00 0.  1.
         13    1    5    5    0    0 -0.24592841621E+03  0.66934102117E+02  0.94060472813E+02  0.27167688984E+03  0.00000000000E+00 0. -1.
        -13    1    5    5    0    0 -0.98734037782E+02  0.87918213069E+02  0.80732306906E+02  0.15490554472E+03  0.00000000000E+00 0.  1.
          3    1    6    6  503    0  0.18179148673E+03 -0.31428143416E+03 -0.19564118554E+03  0.41242749422E+03  0.00000000000E+00 0. -1.
         -3    1    6    6    0  503  0.39366719396E+02 -0.12714019561E+03 -0.30864347865E+02  0.13662714190E+03  0.00000000000E+00 0.  1.
<mgrwt>
<rscale>  0 0.16174771E+04</rscale>
<asrwt>0</asrwt>
<pdfrwt beam="1">  1        1 0.84498366E-01 0.16174771E+04</pdfrwt>
<pdfrwt beam="2">  1       -4 0.18320667E+00 0.16174771E+04</pdfrwt>
<totfact> 0.30477186E+00</totfact>
</mgrwt>
</event>
<event>
12    5  0.5221187E-008  0.1201833E+04  0.7818608E-02  0.9111254E-01
         -2   -1    0    0    0  501 -0.00000000000E+00  0.00000000000E+00  0.24677379522E+03  0.24677379522E+03  0.00000000000E+00 0.  1.
          1   -1    0    0  501    0  0.00000000000E+00 -0.00000000000E+00 -0.14632850231E+04  0.14632850231E+04  0.00000000000E+00 0. -1.
        -24    2    1    2    0    0 -0.10134199906E+03  0.20670660701E+03 -0.43431358627E+03  0.49816448186E+03  0.80881008952E+02 0.  0.
        254    2    1    2    0    0  0.10134199906E+03 -0.20670660701E+03 -0.78219764163E+03  0.12118943365E+04  0.89658067683E+03 0.  0.
         23    2    4    4    0    0  0.31277045079E+03 -0.31914365182E+03 -0.83314176397E+03  0.94979801059E+03  0.91175855644E+02 0.  0.
         23    2    4    4    0    0 -0.21142845173E+03  0.11243704481E+03  0.50944122341E+02  0.26209632589E+03  0.93568697746E+02 0.  0.
          3    1    3    3  502    0 -0.98813115535E+01  0.10698812782E+03 -0.21753594998E+03  0.24262314264E+03  0.00000000000E+00 0. -1.
         -4    1    3    3    0  502 -0.91460687507E+02  0.99718479192E+02 -0.21677763629E+03  0.25554133922E+03  0.00000000000E+00 0.  1.
         13    1    5    5    0    0  0.40796191180E+02 -0.64987574656E+01 -0.65180653497E+02  0.77169169062E+02  0.00000000000E+00 0.  1.
        -13    1    5    5    0    0  0.27197425961E+03 -0.31264489436E+03 -0.76796111048E+03  0.87262884153E+03  0.00000000000E+00 0. -1.
          2    1    6    6  503    0 -0.10253204668E+03  0.96647093134E+02  0.56765513006E+02  0.15190722390E+03  0.00000000000E+00 0. -1.
         -2    1    6    6    0  503 -0.10889640506E+03  0.15789951673E+02 -0.58213906649E+01  0.11018910199E+03  0.00000000000E+00 0.  1.
<mgrwt>
<rscale>  0 0.12018326E+04</rscale>
<asrwt>0</asrwt>
<pdfrwt beam="1">  1        1 0.22512077E+00 0.12018326E+04</pdfrwt>
<pdfrwt beam="2">  1       -2 0.37965199E-01 0.12018326E+04</pdfrwt>
<totfact> 0.39442662E+01</totfact>
</mgrwt>
</event>
<event>
12    5  0.5221187E-008  0.2314820E+04  0.7818608E-02  0.8472101E-01
          1   -1    0    0  501    0  0.00000000000E+00  0.00000000000E+00  0.31836226832E+04  0.31836226832E+04  0.00000000000E+00 0. -1.
         -2   -1    0    0    0  501 -0.00000000000E+00 -0.00000000000E+00 -0.42077779469E+03  0.42077779469E+03  0.00000000000E+00 0.  1.
        -24    2    1    2    0    0  0.19772416036E+03 -0.87197184670E+03  0.18464955854E+04  0.20531146195E+04  0.79397411496E+02 0.  0.
        254    2    1    2    0    0 -0.19772416036E+03  0.87197184670E+03  0.91634930303E+03  0.15512858583E+04  0.87599202275E+03 0.  0.
         23    2    4    4    0    0  0.55696836347E+02  0.94703350642E+03  0.58593401707E+03  0.11187363188E+04  0.90981749522E+02 0.  0.
         23    2    4    4    0    0 -0.25342099670E+03 -0.75061659715E+02  0.33041528596E+03  0.43254953951E+03  0.89824209434E+02 0.  0.
          3    1    3    3  502    0  0.19433099041E+03 -0.76244634344E+03  0.16540806368E+04  0.18316854843E+04  0.00000000000E+00 0. -1.
         -4    1    3    3    0  502  0.33931699439E+01 -0.10952550326E+03  0.19241494861E+03  0.22142913520E+03  0.00000000000E+00 0.  1.
         13    1    5    5    0    0  0.21100099894E+02  0.46376489519E+02  0.21741377478E+02  0.55395672126E+02  0.00000000000E+00 0.  1.
        -13    1    5    5    0    0  0.34596736453E+02  0.90065701690E+03  0.56419263959E+03  0.10633406467E+04  0.00000000000E+00 0. -1.
          1    1    6    6  503    0 -0.16882797760E+03 -0.88566343958E+02  0.19820843122E+03  0.27501539141E+03  0.00000000000E+00 0. -1.
         -1    1    6    6    0  503 -0.84593019104E+02  0.13504684243E+02  0.13220685474E+03  0.15753414810E+03  0.00000000000E+00 0.  1.
<mgrwt>
<rscale>  0 0.23148198E+04</rscale>
<asrwt>0</asrwt>
<pdfrwt beam="1">  1        1 0.48978809E+00 0.23148198E+04</pdfrwt>
<pdfrwt beam="2">  1       -2 0.64735047E-01 0.23148198E+04</pdfrwt>
<totfact> 0.76491716E-01</totfact>
</mgrwt>
</event>
<event>
12    5  0.5221187E-008  0.2084676E+04  0.7818608E-02  0.8568024E-01
         -2   -1    0    0    0  501 -0.00000000000E+00  0.00000000000E+00  0.25592065166E+04  0.25592065166E+04  0.00000000000E+00 0.  1.
          1   -1    0    0  501    0  0.00000000000E+00 -0.00000000000E+00 -0.42453315657E+03  0.42453315657E+03  0.00000000000E+00 0. -1.
        -24    2    1    2    0    0 -0.81633039240E+02 -0.83720294600E+03  0.72328583189E+03  0.11122911585E+04  0.80476709171E+02 0.  0.
        254    2    1    2    0    0  0.81633039240E+02  0.83720294600E+03  0.14113875281E+04  0.18714485147E+04  0.89595315876E+03 0.  0.
         23    2    4    4    0    0 -0.14167040773E+03  0.16507655971E+03  0.10409009633E+04  0.10673453194E+04  0.91817429414E+02 0.  0.
         23    2    4    4    0    0  0.22330344697E+03  0.67212638628E+03  0.37048656482E+03  0.80410319533E+03  0.87768704352E+02 0.  0.
          3    1    3    3  502    0  0.34550470600E+01 -0.71101518640E+02  0.36959837344E+02  0.80208433968E+02  0.00000000000E+00 0. -1.
         -4    1    3    3    0  502 -0.85088086300E+02 -0.76610142736E+03  0.68632599455E+03  0.10320827245E+04  0.00000000000E+00 0.  1.
         13    1    5    5    0    0 -0.46673495108E+02  0.11309991407E+03  0.43664429819E+03  0.45346251096E+03  0.00000000000E+00 0.  1.
        -13    1    5    5    0    0 -0.94996912622E+02  0.51976645643E+02  0.60425666512E+03  0.61388280840E+03  0.00000000000E+00 0. -1.
          3    1    6    6  503    0  0.69612928828E+01  0.76418033247E+00  0.93147930905E+01  0.11653709302E+02  0.00000000000E+00 0. -1.
         -3    1    6    6    0  503  0.21634215409E+03  0.67136220595E+03  0.36117177173E+03  0.79244948603E+03  0.00000000000E+00 0.  1.
<mgrwt>
<rscale>  0 0.20846755E+04</rscale>
<asrwt>0</asrwt>
<pdfrwt beam="1">  1        1 0.65312795E-01 0.20846755E+04</pdfrwt>
<pdfrwt beam="2">  1       -2 0.39372407E+00 0.20846755E+04</pdfrwt>
<totfact> 0.36505807E-01</totfact>
</mgrwt>
</event>
<event>
12    5  0.5221187E-008  0.1365064E+04  0.7818608E-02  0.8979503E-01
         -2   -1    0    0    0  501 -0.00000000000E+00  0.00000000000E+00  0.24579209867E+03  0.24579209867E+03  0.00000000000E+00 0.  1.
          1   -1    0    0  501    0  0.00000000000E+00 -0.00000000000E+00 -0.18952997581E+04  0.18952997581E+04  0.00000000000E+00 0. -1.
        -24    2    1    2    0    0  0.13369005327E+03  0.85697446763E+02 -0.91154451211E+03  0.92842098746E+03  0.76387496773E+02 0.  0.
        254    2    1    2    0    0 -0.13369005327E+03 -0.85697446763E+02 -0.73796314729E+03  0.12126708693E+04  0.94908584845E+03 0.  0.
         23    2    4    4    0    0  0.34549850951E+03  0.80167382985E+02 -0.76148745106E+02  0.37325144990E+03  0.87874820643E+02 0.  0.
         23    2    4    4    0    0 -0.47918856278E+03 -0.16586482975E+03 -0.66181440218E+03  0.83941941939E+03  0.97436329265E+02 0.  0.
          1    1    3    3  502    0  0.98250491921E+02  0.51246701692E+02 -0.78120525237E+03  0.78902536710E+03  0.00000000000E+00 0. -1.
         -2    1    3    3    0  502  0.35439561346E+02  0.34450745071E+02 -0.13033925974E+03  0.13939562036E+03  0.00000000000E+00 0.  1.
         13    1    5    5    0    0  0.40955115689E+02  0.11190203411E+02  0.19433840405E+02  0.46692786449E+02  0.00000000000E+00 0.  1.
        -13    1    5    5    0    0  0.30454339382E+03  0.68977179573E+02 -0.95582585512E+02  0.32655866345E+03  0.00000000000E+00 0. -1.
          1    1    6    6  503    0 -0.44617281297E+03 -0.16607784373E+03 -0.64687399340E+03  0.80317992539E+03  0.00000000000E+00 0. -1.
         -1    1    6    6    0  503 -0.33015749811E+02  0.21301398406E+00 -0.14940408782E+02  0.36239493997E+02  0.00000000000E+00 0.  1.
<mgrwt>
<rscale>  0 0.13650637E+04</rscale>
<asrwt>0</asrwt>
<pdfrwt beam="1">  1        1 0.29158459E+00 0.13650637E+04</pdfrwt>
<pdfrwt beam="2">  1       -2 0.37814168E-01 0.13650637E+04</pdfrwt>
<totfact> 0.19892357E+01</totfact>
</mgrwt>
</event>
<event>
12    5  0.5221187E-008  0.1189851E+04  0.7818608E-02  0.9121787E-01
         -2   -1    0    0    0  501 -0.00000000000E+00  0.00000000000E+00  0.55976332830E+03  0.55976332830E+03  0.00000000000E+00 0.  1.
          1   -1    0    0  501    0  0.00000000000E+00 -0.00000000000E+00 -0.63229637116E+03  0.63229637116E+03  0.00000000000E+00 0. -1.
        -24    2    1    2    0    0  0.66516221231E+01  0.18580068576E+03 -0.18749356927E+03  0.27428693309E+03  0.74251897215E+02 0.  0.
        254    2    1    2    0    0 -0.66516221231E+01 -0.18580068576E+03  0.11496052642E+03  0.91777276637E+03  0.89136120016E+03 0.  0.
         23    2    4    4    0    0 -0.40552788527E+03  0.37750807257E+02 -0.57222120068E+02  0.42090529761E+03  0.89492510027E+02 0.  0.
         23    2    4    4    0    0  0.39887626315E+03 -0.22355149302E+03  0.17218264648E+03  0.49686746876E+03  0.90293269021E+02 0.  0.
          3    1    3    3  502    0 -0.24793777760E+01  0.12640705379E+03 -0.75685927803E+02  0.14735416597E+03  0.00000000000E+00 0. -1.
         -4    1    3    3    0  502  0.91309998992E+01  0.59393631971E+02 -0.11180764147E+03  0.12693276712E+03  0.00000000000E+00 0.  1.
         13    1    5    5    0    0 -0.26658875629E+03 -0.11378617016E+02 -0.60064759237E+02  0.27350834212E+03  0.00000000000E+00 0.  1.
        -13    1    5    5    0    0 -0.13893912898E+03  0.49129424273E+02  0.28426391697E+01  0.14739695550E+03  0.00000000000E+00 0. -1.
          1    1    6    6  503    0  0.87749922208E+02 -0.89265555982E+02  0.26171039003E+02  0.12788006731E+03  0.00000000000E+00 0. -1.
         -1    1    6    6    0  503  0.31112634094E+03 -0.13428593703E+03  0.14601160748E+03  0.36898740145E+03  0.00000000000E+00 0.  1.
<mgrwt>
<rscale>  0 0.11898510E+04</rscale>
<asrwt>0</asrwt>
<pdfrwt beam="1">  1        1 0.97276365E-01 0.11898510E+04</pdfrwt>
<pdfrwt beam="2">  1       -2 0.86117434E-01 0.11898510E+04</pdfrwt>
<totfact> 0.32176991E+01</totfact>
</mgrwt>
</event>
<event>
12    5  0.5221187E-008  0.2324494E+04  0.7818608E-02  0.8468326E-01
          1   -1    0    0  501    0  0.00000000000E+00  0.00000000000E+00  0.13770235727E+04  0.13770235727E+04  0.00000000000E+00 0. -1.
         -2   -1    0    0    0  501 -0.00000000000E+00 -0.00000000000E+00 -0.98096906888E+03  0.98096906888E+03  0.00000000000E+00 0.  1.
        -24    2    1    2    0    0  0.14306158550E+03  0.96396351436E+03  0.26579220227E+02  0.97819638602E+03  0.80432831724E+02 0.  0.
        254    2    1    2    0    0 -0.14306158550E+03 -0.96396351436E+03  0.36947528362E+03  0.13797962556E+04  0.90423085961E+03 0.  0.
         23    2    4    4    0    0  0.17940477823E+03 -0.36061183064E+03 -0.22377982008E+03  0.46968283731E+03  0.91091124382E+02 0.  0.
         23    2    4    4    0    0 -0.32246636373E+03 -0.60335168372E+03  0.59325510370E+03  0.91011341827E+03  0.91307207077E+02 0.  0.
          3    1    3    3  502    0  0.15421240125E+02  0.20745203085E+03  0.34989411513E+02  0.21094648295E+03  0.00000000000E+00 0. -1.
         -4    1    3    3    0  502  0.12764034538E+03  0.75651148350E+03 -0.84101912861E+01  0.76724990307E+03  0.00000000000E+00 0.  1.
         13    1    5    5    0    0  0.18290592802E+03 -0.29749030081E+03 -0.18089685344E+03  0.39329216769E+03  0.00000000000E+00 0. -1.
        -13    1    5    5    0    0 -0.35011497868E+01 -0.63121529821E+02 -0.42882966641E+02  0.76390669619E+02  0.00000000000E+00 0.  1.
          1    1    6    6  503    0 -0.12804584640E+03 -0.16681178382E+03  0.14991054224E+03  0.25825390738E+03  0.00000000000E+00 0. -1.
         -1    1    6    6    0  503 -0.19442051733E+03 -0.43653989990E+03  0.44334456146E+03  0.65185951089E+03  0.00000000000E+00 0.  1.
<mgrwt>
<rscale>  0 0.23244935E+04</rscale>
<asrwt>0</asrwt>
<pdfrwt beam="1">  1        1 0.21184978E+00 0.23244935E+04</pdfrwt>
<pdfrwt beam="2">  1       -2 0.15091832E+00 0.23244935E+04</pdfrwt>
<totfact> 0.18612889E+00</totfact>
</mgrwt>
</event>
<event>
12    5  0.5221187E-008  0.1153950E+04  0.7818608E-02  0.9154147E-01
         -2   -1    0    0    0  501 -0.00000000000E+00  0.00000000000E+00  0.98353330540E+03  0.98353330540E+03  0.00000000000E+00 0.  1.
          1   -1    0    0  501    0  0.00000000000E+00 -0.00000000000E+00 -0.33847396211E+03  0.33847396211E+03  0.00000000000E+00 0. -1.
        -24    2    1    2    0    0  0.10765146299E+03  0.23497825652E+02 -0.82126904243E+02  0.15857190907E+03  0.79115337661E+02 0.  0.
        254    2    1    2    0    0 -0.10765146299E+03 -0.23497825652E+02  0.72718624753E+03  0.11634353584E+04  0.90146603341E+03 0.  0.
         23    2    4    4    0    0  0.26215733581E+03 -0.31449451654E+03  0.42379879783E+03  0.59576193921E+03  0.87713154761E+02 0.  0.
         23    2    4    4    0    0 -0.36980879879E+03  0.29099669089E+03  0.30338744970E+03  0.56767341924E+03  0.93656524065E+02 0.  0.
          3    1    3    3  502    0  0.10536810109E+03  0.21029574098E+02 -0.96129059299E+02  0.14417168847E+03  0.00000000000E+00 0. -1.
         -4    1    3    3    0  502  0.22833618965E+01  0.24682515543E+01  0.14002155056E+02  0.14400220606E+02  0.00000000000E+00 0.  1.
         13    1    5    5    0    0  0.48643798894E+02 -0.16698757409E+02  0.40237691015E+02  0.65300378621E+02  0.00000000000E+00 0. -1.
        -13    1    5    5    0    0  0.21351353691E+03 -0.29779575913E+03  0.38356110681E+03  0.53046156059E+03  0.00000000000E+00 0.  1.
          1    1    6    6  503    0 -0.23015482726E+02 -0.16950823562E+01  0.30131341655E+02  0.37953702049E+02  0.00000000000E+00 0. -1.
         -1    1    6    6    0  503 -0.34679331607E+03  0.29269177324E+03  0.27325610805E+03  0.52971971719E+03  0.00000000000E+00 0.  1.
<mgrwt>
<rscale>  0 0.11539505E+04</rscale>
<asrwt>0</asrwt>
<pdfrwt beam="1">  1        1 0.52072918E-01 0.11539505E+04</pdfrwt>
<pdfrwt beam="2">  1       -2 0.15131281E+00 0.11539505E+04</pdfrwt>
<totfact> 0.18974897E+01</totfact>
</mgrwt>
</event>
<event>
12    5  0.5221187E-008  0.1376495E+04  0.7818608E-02  0.8971011E-01
          1   -1    0    0  501    0  0.00000000000E+00  0.00000000000E+00  0.47705247473E+03  0.47705247473E+03  0.00000000000E+00 0. -1.
         -2   -1    0    0    0  501 -0.00000000000E+00 -0.00000000000E+00 -0.99293970764E+03  0.99293970764E+03  0.00000000000E+00 0.  1.
        -24    2    1    2    0    0  0.27689983480E+03 -0.14526100301E+03  0.89113709014E+02  0.34196293086E+03  0.10593920636E+03 0.  0.
        254    2    1    2    0    0 -0.27689983480E+03  0.14526100301E+03 -0.60500094193E+03  0.11280292515E+04  0.89924945094E+03 0.  0.
         23    2    4    4    0    0  0.26302718423E+03 -0.12130974202E+03 -0.59081049067E+02  0.31008180424E+03  0.93599154954E+02 0.  0.
         23    2    4    4    0    0 -0.53992701903E+03  0.26657074504E+03 -0.54591989286E+03  0.81794744726E+03  0.91806040526E+02 0.  0.
          1    1    3    3  502    0  0.24926730256E+03 -0.15134948927E+03  0.53512451548E+02  0.29648682686E+03  0.00000000000E+00 0. -1.
         -2    1    3    3    0  502  0.27632532235E+02  0.60884862568E+01  0.35601257465E+02  0.45476104008E+02  0.00000000000E+00 0.  1.
         13    1    5    5    0    0  0.74483130285E+02 -0.34956839647E+02 -0.61445594096E+02  0.10269020581E+03  0.00000000000E+00 0. -1.
        -13    1    5    5    0    0  0.18854405395E+03 -0.86352902378E+02  0.23645450283E+01  0.20739159844E+03  0.00000000000E+00 0.  1.
          2    1    6    6  503    0  0.19376975994E+01 -0.26225356972E+01 -0.68659104195E+01  0.76008612248E+01  0.00000000000E+00 0. -1.
         -2    1    6    6    0  503 -0.54186471663E+03  0.26919328074E+03 -0.53905398244E+03  0.81034658604E+03  0.00000000000E+00 0.  1.
<mgrwt>
<rscale>  0 0.13764946E+04</rscale>
<asrwt>0</asrwt>
<pdfrwt beam="1">  1        1 0.73392689E-01 0.13764946E+04</pdfrwt>
<pdfrwt beam="2">  1       -2 0.15275995E+00 0.13764946E+04</pdfrwt>
<totfact> 0.11516863E+01</totfact>
</mgrwt>
</event>
<event>
12    5  0.5221187E-008  0.1431596E+04  0.7818608E-02  0.8931260E-01
         -2   -1    0    0    0  501 -0.00000000000E+00  0.00000000000E+00  0.50179638417E+03  0.50179638417E+03  0.00000000000E+00 0.  1.
          1   -1    0    0  501    0  0.00000000000E+00 -0.00000000000E+00 -0.10210649595E+04  0.10210649595E+04  0.00000000000E+00 0. -1.
        -24    2    1    2    0    0 -0.39685842066E+03  0.43729484837E+01 -0.70919626316E+02  0.41148254503E+03  0.82295581550E+02 0.  0.
        254    2    1    2    0    0  0.39685842066E+03 -0.43729484837E+01 -0.44834894904E+03  0.11113787987E+04  0.93628538666E+03 0.  0.
         23    2    4    4    0    0  0.31148001494E+02 -0.33739954778E+03  0.99674354728E+02  0.36767291834E+03  0.10217507057E+03 0.  0.
         23    2    4    4    0    0  0.36571041917E+03  0.33302659930E+03 -0.54802330377E+03  0.74370588032E+03  0.90100324182E+02 0.  0.
          3    1    3    3  502    0 -0.16036836556E+03  0.24249373763E+02 -0.63089074421E+02  0.17402952655E+03  0.00000000000E+00 0. -1.
         -4    1    3    3    0  502 -0.23649005510E+03 -0.19876425280E+02 -0.78305518948E+01  0.23745301848E+03  0.00000000000E+00 0.  1.
         13    1    5    5    0    0  0.44771318024E+02 -0.59555028068E+02  0.33723999489E+02  0.81783741828E+02  0.00000000000E+00 0. -1.
        -13    1    5    5    0    0 -0.13623316530E+02 -0.27784451972E+03  0.65950355239E+02  0.28588917651E+03  0.00000000000E+00 0.  1.
          4    1    6    6  503    0  0.19570171683E+03  0.15578513199E+03 -0.33841038759E+03  0.42082034141E+03  0.00000000000E+00 0. -1.
         -4    1    6    6    0  503  0.17000870234E+03  0.17724146731E+03 -0.20961291618E+03  0.32288553891E+03  0.00000000000E+00 0.  1.
<mgrwt>
<rscale>  0 0.14315959E+04</rscale>
<asrwt>0</asrwt>
<pdfrwt beam="1">  1        1 0.15708692E+00 0.14315959E+04</pdfrwt>
<pdfrwt beam="2">  1       -2 0.77199444E-01 0.14315959E+04</pdfrwt>
<totfact> 0.18603200E+01</totfact>
</mgrwt>
</event>
<event>
12    5  0.5221187E-008  0.1666621E+04  0.7818608E-02  0.8780634E-01
          1   -1    0    0  501    0  0.00000000000E+00  0.00000000000E+00  0.23333857993E+04  0.23333857993E+04  0.00000000000E+00 0. -1.
         -2   -1    0    0    0  501 -0.00000000000E+00 -0.00000000000E+00 -0.29759588388E+03  0.29759588388E+03  0.00000000000E+00 0.  1.
        -24    2    1    2    0    0 -0.47715312651E+02  0.13548779174E+03 -0.17538244414E+03  0.23907140380E+03  0.75910747793E+02 0.  0.
        254    2    1    2    0    0  0.47715312651E+02 -0.13548779174E+03  0.22111723595E+04  0.23919102793E+04  0.90073186249E+03 0.  0.
         23    2    4    4    0    0  0.39120099712E+03 -0.16788609893E+03  0.59865817873E+03  0.74039895464E+03  0.92601483316E+02 0.  0.
         23    2    4    4    0    0 -0.34348568447E+03  0.32398307192E+02  0.16125141808E+04  0.16515113247E+04  0.90860368720E+02 0.  0.
          3    1    3    3  502    0 -0.31902442339E+02  0.24345001428E+02 -0.14039595760E+02  0.42515352179E+02  0.00000000000E+00 0. -1.
         -4    1    3    3    0  502 -0.15812870311E+02  0.11114279031E+03 -0.16134284838E+03  0.19655605162E+03  0.00000000000E+00 0.  1.
         13    1    5    5    0    0  0.38141626551E+03 -0.16221940208E+03  0.54036730514E+03  0.68102153158E+03  0.00000000000E+00 0. -1.
        -13    1    5    5    0    0  0.97847316050E+01 -0.56666968486E+01  0.58290873581E+02  0.59377423055E+02  0.00000000000E+00 0.  1.
          1    1    6    6  503    0 -0.34373529856E+03  0.21139948051E+02  0.15801794447E+04  0.16172717552E+04  0.00000000000E+00 0. -1.
         -1    1    6    6    0  503  0.24961409630E+00  0.11258359141E+02  0.32334736129E+02  0.34239569481E+02  0.00000000000E+00 0.  1.
<mgrwt>
<rscale>  0 0.16666205E+04</rscale>
<asrwt>0</asrwt>
<pdfrwt beam="1">  1        1 0.35898242E+00 0.16666205E+04</pdfrwt>
<pdfrwt beam="2">  1       -2 0.45783984E-01 0.16666205E+04</pdfrwt>
<totfact> 0.66999694E+00</totfact>
</mgrwt>
</event>
<event>
12    5  0.5221187E-008  0.1743752E+04  0.7818608E-02  0.8736797E-01
         -2   -1    0    0    0  501 -0.00000000000E+00  0.00000000000E+00  0.31262165730E+03  0.31262165730E+03  0.00000000000E+00 0.  1.
          1   -1    0    0  501    0  0.00000000000E+00 -0.00000000000E+00 -0.24315894607E+04  0.24315894607E+04  0.00000000000E+00 0. -1.
        -24    2    1    2    0    0  0.53961533229E+03  0.23424204700E+03 -0.11738809457E+04  0.13155041492E+04  0.80626598159E+02 0.  0.
        254    2    1    2    0    0 -0.53961533229E+03 -0.23424204700E+03 -0.94508685769E+03  0.14287069688E+04  0.89552241223E+03 0.  0.
         23    2    4    4    0    0 -0.21535478189E+03  0.18325463442E+03 -0.82809051765E+03  0.87980294095E+03  0.91429570416E+02 0.  0.
         23    2    4    4    0    0 -0.32426055040E+03 -0.41749668143E+03 -0.11699634004E+03  0.54890402789E+03  0.90327762662E+02 0.  0.
          1    1    3    3  502    0  0.49157216438E+03  0.22483949604E+03 -0.10253117132E+04  0.11590772628E+04  0.00000000000E+00 0. -1.
         -2    1    3    3    0  502  0.48043167911E+02  0.94025509684E+01 -0.14856923250E+03  0.15642688642E+03  0.00000000000E+00 0.  1.
         13    1    5    5    0    0 -0.16475605932E+03  0.82713913220E+02 -0.53241361840E+03  0.56342737916E+03  0.00000000000E+00 0.  1.
        -13    1    5    5    0    0 -0.50598722571E+02  0.10054072120E+03 -0.29567689925E+03  0.31637556179E+03  0.00000000000E+00 0. -1.
          4    1    6    6  503    0 -0.86158657516E+02 -0.12684044801E+03 -0.75419927634E+02  0.17088001346E+03  0.00000000000E+00 0. -1.
         -4    1    6    6    0  503 -0.23810189288E+03 -0.29065623342E+03 -0.41576412404E+02  0.37802401443E+03  0.00000000000E+00 0.  1.
<mgrwt>
<rscale>  0 0.17437517E+04</rscale>
<asrwt>0</asrwt>
<pdfrwt beam="1">  1        1 0.37409070E+00 0.17437517E+04</pdfrwt>
<pdfrwt beam="2">  1       -2 0.48095638E-01 0.17437517E+04</pdfrwt>
<totfact> 0.51581164E+00</totfact>
</mgrwt>
</event>
<event>
12    5  0.5221187E-008  0.2510972E+04  0.7818608E-02  0.8399087E-01
         -2   -1    0    0    0  501 -0.00000000000E+00  0.00000000000E+00  0.86460888242E+03  0.86460888242E+03  0.00000000000E+00 0.  1.
          1   -1    0    0  501    0  0.00000000000E+00 -0.00000000000E+00 -0.18230725504E+04  0.18230725504E+04  0.00000000000E+00 0. -1.
        -24    2    1    2    0    0  0.68379041703E+03 -0.57336640616E+03 -0.11054054194E+04  0.14228402581E+04  0.78961311208E+02 0.  0.
        254    2    1    2    0    0 -0.68379041703E+03  0.57336640616E+03  0.14694175145E+03  0.12648411747E+04  0.88425841741E+03 0.  0.
         23    2    4    4    0    0 -0.24162741552E+03 -0.17350960545E+03 -0.14694687753E+03  0.34410153234E+03  0.91230963095E+02 0.  0.
         23    2    4    4    0    0 -0.44216300151E+03  0.74687601160E+03  0.29388862898E+03  0.92073964236E+03  0.89772301681E+02 0.  0.
          3    1    3    3  502    0  0.53149000199E+03 -0.43449875426E+03 -0.89915168716E+03  0.11312579486E+04  0.00000000000E+00 0. -1.
         -4    1    3    3    0  502  0.15230041504E+03 -0.13886765189E+03 -0.20625373225E+03  0.29158230953E+03  0.00000000000E+00 0.  1.
         13    1    5    5    0    0 -0.23475607878E+03 -0.14409590716E+03 -0.15016435974E+03  0.31372501003E+03  0.00000000000E+00 0.  1.
        -13    1    5    5    0    0 -0.68713367420E+01 -0.29413698286E+02  0.32174822112E+01  0.30376522303E+02  0.00000000000E+00 0. -1.
          4    1    6    6  503    0 -0.19414601739E+03  0.40697818428E+03  0.17288388606E+03  0.48292106664E+03  0.00000000000E+00 0. -1.
         -4    1    6    6    0  503 -0.24801698412E+03  0.33989782733E+03  0.12100474293E+03  0.43781857572E+03  0.00000000000E+00 0.  1.
<mgrwt>
<rscale>  0 0.25109717E+04</rscale>
<asrwt>0</asrwt>
<pdfrwt beam="1">  1        1 0.28047270E+00 0.25109717E+04</pdfrwt>
<pdfrwt beam="2">  1       -2 0.13301675E+00 0.25109717E+04</pdfrwt>
<totfact> 0.12554253E+00</totfact>
</mgrwt>
</event>
<event>
12    5  0.5221187E-008  0.2589652E+04  0.7818608E-02  0.8371725E-01
         -2   -1    0    0    0  501 -0.00000000000E+00  0.00000000000E+00  0.76165348413E+03  0.76165348413E+03  0.00000000000E+00 0.  1.
          1   -1    0    0  501    0  0.00000000000E+00 -0.00000000000E+00 -0.22012303507E+04  0.22012303507E+04  0.00000000000E+00 0. -1.
        -24    2    1    2    0    0 -0.55795962195E+03  0.93038167822E+03 -0.24627195840E+03  0.11156538248E+04  0.84288626140E+02 0.  0.
        254    2    1    2    0    0  0.55795962195E+03 -0.93038167822E+03 -0.11933049082E+04  0.18472300100E+04  0.90075140802E+03 0.  0.
         23    2    4    4    0    0 -0.53726967112E+02  0.13725216561E+03 -0.11388120720E+03  0.20785093167E+03  0.92240644427E+02 0.  0.
         23    2    4    4    0    0  0.61168658906E+03 -0.10676338438E+04 -0.10794237010E+04  0.16393790783E+04  0.91682759947E+02 0.  0.
          3    1    3    3  502    0 -0.49204303907E+03  0.85504433185E+03 -0.24038247757E+03  0.10153772192E+04  0.00000000000E+00 0. -1.
         -4    1    3    3    0  502 -0.65916582880E+02  0.75337346367E+02 -0.58894808277E+01  0.10027660565E+03  0.00000000000E+00 0.  1.
         13    1    5    5    0    0 -0.18339219831E+02 -0.43219685257E+01  0.51493348914E+01  0.19532589326E+02  0.00000000000E+00 0. -1.
        -13    1    5    5    0    0 -0.35387747281E+02  0.14157413414E+03 -0.11903054209E+03  0.18831834235E+03  0.00000000000E+00 0.  1.
          3    1    6    6  503    0  0.50695807719E+02 -0.14936030710E+03 -0.14319276239E+03  0.21303223573E+03  0.00000000000E+00 0. -1.
         -3    1    6    6    0  503  0.56099078134E+03 -0.91827353673E+03 -0.93623093859E+03  0.14263468426E+04  0.00000000000E+00 0.  1.
<mgrwt>
<rscale>  0 0.25896523E+04</rscale>
<asrwt>0</asrwt>
<pdfrwt beam="1">  1        1 0.33865082E+00 0.25896523E+04</pdfrwt>
<pdfrwt beam="2">  1       -2 0.11717746E+00 0.25896523E+04</pdfrwt>
<totfact> 0.94877659E-01</totfact>
</mgrwt>
</event>
<event>
12    5  0.5221187E-008  0.1149249E+04  0.7818608E-02  0.9158476E-01
          1   -1    0    0  501    0  0.00000000000E+00  0.00000000000E+00  0.18631701272E+04  0.18631701272E+04  0.00000000000E+00 0. -1.
         -2   -1    0    0    0  501 -0.00000000000E+00 -0.00000000000E+00 -0.17722135823E+03  0.17722135823E+03  0.00000000000E+00 0.  1.
        -24    2    1    2    0    0 -0.13174601075E+03  0.17073867388E+01  0.65135837342E+03  0.66927209724E+03  0.79356682131E+02 0.  0.
        254    2    1    2    0    0  0.13174601075E+03 -0.17073867388E+01  0.10345903955E+04  0.13711193882E+04  0.89007368436E+03 0.  0.
         23    2    4    4    0    0 -0.21705562471E+03 -0.28748912103E+03  0.73014088725E+03  0.81945624737E+03  0.92949917609E+02 0.  0.
         23    2    4    4    0    0  0.34880163546E+03  0.28578173429E+03  0.30444950827E+03  0.55166314080E+03  0.91153372239E+02 0.  0.
          1    1    3    3  502    0 -0.11433653828E+03  0.18017733637E+02  0.38964019678E+03  0.40646889875E+03  0.00000000000E+00 0. -1.
         -2    1    3    3    0  502 -0.17409472474E+02 -0.16310346898E+02  0.26171817664E+03  0.26280319848E+03  0.00000000000E+00 0.  1.
         13    1    5    5    0    0 -0.20323704593E+03 -0.21260281663E+03  0.54572080326E+03  0.61993261697E+03  0.00000000000E+00 0. -1.
        -13    1    5    5    0    0 -0.13818578785E+02 -0.74886304403E+02  0.18442008399E+03  0.19952363040E+03  0.00000000000E+00 0.  1.
          3    1    6    6  503    0  0.16893234101E+03  0.11956513527E+03  0.19147659167E+03  0.28195255376E+03  0.00000000000E+00 0. -1.
         -3    1    6    6    0  503  0.17986929445E+03  0.16621659902E+03  0.11297291660E+03  0.26971058704E+03  0.00000000000E+00 0.  1.
<mgrwt>
<rscale>  0 0.11492494E+04</rscale>
<asrwt>0</asrwt>
<pdfrwt beam="1">  1        1 0.28664154E+00 0.11492494E+04</pdfrwt>
<pdfrwt beam="2">  1       -2 0.27264826E-01 0.11492494E+04</pdfrwt>
<totfact> 0.39449145E+01</totfact>
</mgrwt>
</event>
<event>
12    5  0.5221187E-008  0.2152268E+04  0.7818608E-02  0.8538562E-01
         -4   -1    0    0    0  501 -0.00000000000E+00  0.00000000000E+00  0.46172708034E+03  0.46172708034E+03  0.00000000000E+00 0.  1.
          3   -1    0    0  501    0  0.00000000000E+00 -0.00000000000E+00 -0.25081142084E+04  0.25081142084E+04  0.00000000000E+00 0. -1.
        -24    2    1    2    0    0  0.50024416294E+03 -0.63099294497E+03 -0.33963350458E+03  0.87747873921E+03  0.78877760981E+02 0.  0.
        254    2    1    2    0    0 -0.50024416294E+03  0.63099294497E+03 -0.17067536235E+04  0.20923625495E+04  0.90364638450E+03 0.  0.
         23    2    4    4    0    0 -0.35177456870E+03  0.25393471218E+03 -0.16044590422E+04  0.16642535329E+04  0.84987167503E+02 0.  0.
         23    2    4    4    0    0 -0.14846959424E+03  0.37705823280E+03 -0.10229458132E+03  0.42810901659E+03  0.92720102400E+02 0.  0.
          3    1    3    3  502    0  0.22855877323E+03 -0.32366331285E+03 -0.13138080126E+03  0.41744217306E+03  0.00000000000E+00 0. -1.
         -4    1    3    3    0  502  0.27168538971E+03 -0.30732963212E+03 -0.20825270332E+03  0.46003656615E+03  0.00000000000E+00 0.  1.
         13    1    5    5    0    0 -0.34733675575E+03  0.26017152769E+03 -0.15648255171E+04  0.16238876022E+04  0.00000000000E+00 0. -1.
        -13    1    5    5    0    0 -0.44378129521E+01 -0.62368155187E+01 -0.39633525127E+02  0.40365930754E+02  0.00000000000E+00 0.  1.
          4    1    6    6  503    0 -0.15545630098E+03  0.30549488272E+03 -0.72964117113E+02  0.35045334535E+03  0.00000000000E+00 0. -1.
         -4    1    6    6    0  503  0.69867067453E+01  0.71563350079E+02 -0.29330464202E+02  0.77655671241E+02  0.00000000000E+00 0.  1.
<mgrwt>
<rscale>  0 0.21522679E+04</rscale>
<asrwt>0</asrwt>
<pdfrwt beam="1">  1        3 0.38586373E+00 0.21522679E+04</pdfrwt>
<pdfrwt beam="2">  1       -4 0.71034935E-01 0.21522679E+04</pdfrwt>
<totfact> 0.50528812E-02</totfact>
</mgrwt>
</event>
<event>
12    5  0.5221187E-008  0.1278010E+04  0.7818608E-02  0.9047187E-01
         -2   -1    0    0    0  501 -0.00000000000E+00  0.00000000000E+00  0.27863045439E+03  0.27863045439E+03  0.00000000000E+00 0.  1.
          1   -1    0    0  501    0  0.00000000000E+00 -0.00000000000E+00 -0.14654811765E+04  0.14654811765E+04  0.00000000000E+00 0. -1.
        -24    2    1    2    0    0  0.90174956686E+02 -0.20223513258E+03 -0.60974858805E+03  0.65362210219E+03  0.79987125066E+02 0.  0.
        254    2    1    2    0    0 -0.90174956686E+02  0.20223513258E+03 -0.57710213408E+03  0.10904895287E+04  0.89838186059E+03 0.  0.
         23    2    4    4    0    0  0.77181847437E+02 -0.24982366558E+03 -0.52827617903E+03  0.59657344391E+03  0.91952439843E+02 0.  0.
         23    2    4    4    0    0 -0.16735680412E+03  0.45205879817E+03 -0.48825955048E+02  0.49391608481E+03  0.95935749664E+02 0.  0.
          3    1    3    3  502    0  0.85738625872E+02 -0.11657657621E+03 -0.44412201693E+03  0.46710338899E+03  0.00000000000E+00 0. -1.
         -4    1    3    3    0  502  0.44363308141E+01 -0.85658556375E+02 -0.16562657112E+03  0.18651871320E+03  0.00000000000E+00 0.  1.
         13    1    5    5    0    0  0.31521202675E+01 -0.14795663990E+03 -0.23947779108E+03  0.28151503614E+03  0.00000000000E+00 0.  1.
        -13    1    5    5    0    0  0.74029727169E+02 -0.10186702568E+03 -0.28879838795E+03  0.31505840777E+03  0.00000000000E+00 0. -1.
          3    1    6    6  503    0 -0.90279893031E+01  0.28634282292E+02  0.20803950424E+02  0.36527127816E+02  0.00000000000E+00 0. -1.
         -3    1    6    6    0  503 -0.15832881482E+03  0.42342451587E+03 -0.69629905472E+02  0.45738895700E+03  0.00000000000E+00 0.  1.
<mgrwt>
<rscale>  0 0.12780105E+04</rscale>
<asrwt>0</asrwt>
<pdfrwt beam="1">  1        1 0.22545864E+00 0.12780105E+04</pdfrwt>
<pdfrwt beam="2">  1       -2 0.42866224E-01 0.12780105E+04</pdfrwt>
<totfact> 0.30797204E+01</totfact>
</mgrwt>
</event>
<event>
12    5  0.5221187E-008  0.1820671E+04  0.7818608E-02  0.8695383E-01
         -2   -1    0    0    0  501 -0.00000000000E+00  0.00000000000E+00  0.13279838888E+04  0.13279838888E+04  0.00000000000E+00 0.  1.
          1   -1    0    0  501    0  0.00000000000E+00 -0.00000000000E+00 -0.62403677397E+03  0.62403677397E+03  0.00000000000E+00 0. -1.
        -24    2    1    2    0    0  0.33807512524E+03 -0.21178586242E+03  0.83967881976E+03  0.93289140892E+03  0.77960365878E+02 0.  0.
        254    2    1    2    0    0 -0.33807512524E+03  0.21178586242E+03 -0.13573170490E+03  0.10191292539E+04  0.92792957631E+03 0.  0.
         23    2    4    4    0    0 -0.39062271931E+03  0.36846456595E+03 -0.41166041565E+03  0.68409529225E+03  0.10084555446E+03 0.  0.
         23    2    4    4    0    0  0.52547594072E+02 -0.15667870353E+03  0.27592871075E+03  0.33503396164E+03  0.93817036041E+02 0.  0.
          3    1    3    3  502    0  0.46145957753E+02 -0.64044327074E+02  0.17913642576E+03  0.19575746290E+03  0.00000000000E+00 0. -1.
         -4    1    3    3    0  502  0.29192916749E+03 -0.14774153535E+03  0.66054239400E+03  0.73713394602E+03  0.00000000000E+00 0.  1.
         13    1    5    5    0    0 -0.23600210938E+03  0.27114591187E+03 -0.31199336757E+03  0.47598000227E+03  0.00000000000E+00 0. -1.
        -13    1    5    5    0    0 -0.15462060993E+03  0.97318654079E+02 -0.99667048085E+02  0.20811528998E+03  0.00000000000E+00 0.  1.
          2    1    6    6  503    0  0.50217948504E+01  0.30603508382E+01 -0.54403293546E+01  0.80113266230E+01  0.00000000000E+00 0.  1.
         -2    1    6    6    0  503  0.47525799222E+02 -0.15973905437E+03  0.28136904011E+03  0.32702263502E+03  0.00000000000E+00 0. -1.
<mgrwt>
<rscale>  0 0.18206711E+04</rscale>
<asrwt>0</asrwt>
<pdfrwt beam="1">  1        1 0.96005658E-01 0.18206711E+04</pdfrwt>
<pdfrwt beam="2">  1       -2 0.20430521E+00 0.18206711E+04</pdfrwt>
<totfact> 0.33224124E+00</totfact>
</mgrwt>
</event>
<event>
12    5  0.7927673E-008  0.2015982E+04  0.7818608E-02  0.8599185E-01
          1   -1    0    0  501    0  0.00000000000E+00  0.00000000000E+00  0.12113752985E+04  0.12113752985E+04  0.00000000000E+00 0. -1.
         -2   -1    0    0    0  501 -0.00000000000E+00 -0.00000000000E+00 -0.83875409013E+03  0.83875409013E+03  0.00000000000E+00 0.  1.
        -24    2    1    2    0    0  0.99923574723E+02  0.13271879268E+03 -0.65332586623E+03  0.67902003915E+03  0.81452608120E+02 0.  0.
        254    2    1    2    0    0 -0.99923574723E+02 -0.13271879268E+03  0.10259470746E+04  0.13711093495E+04  0.89430109562E+03 0.  0.
         23    2    4    4    0    0  0.35272841728E+03  0.90551376013E+02  0.58274751467E+03  0.69233039413E+03  0.84319752874E+02 0.  0.
         23    2    4    4    0    0 -0.45265199200E+03 -0.22327016869E+03  0.44319955990E+03  0.67877895532E+03  0.97834688150E+02 0.  0.
          3    1    3    3  502    0  0.43180292113E+02  0.28354438903E+01 -0.15615833565E+03  0.16204321387E+03  0.00000000000E+00 0. -1.
         -4    1    3    3    0  502  0.56743282610E+02  0.12988334879E+03 -0.49716753058E+03  0.51697682528E+03  0.00000000000E+00 0.  1.
         13    1    5    5    0    0  0.32341087841E+03  0.55721227763E+02  0.51682455430E+03  0.61221488991E+03  0.00000000000E+00 0. -1.
        -13    1    5    5    0    0  0.29317538868E+02  0.34830148250E+02  0.65922960376E+02  0.80115504225E+02  0.00000000000E+00 0.  1.
          2    1    6    6  503    0 -0.41696109229E+03 -0.18212746942E+03  0.36413793298E+03  0.58277216975E+03  0.00000000000E+00 0. -1.
         -2    1    6    6    0  503 -0.35690899717E+02 -0.41142699268E+02  0.79061626916E+02  0.96006785574E+02  0.00000000000E+00 0.  1.
<mgrwt>
<rscale>  0 0.20159821E+04</rscale>
<asrwt>0</asrwt>
<pdfrwt beam="1">  1        1 0.18636543E+00 0.20159821E+04</pdfrwt>
<pdfrwt beam="2">  1       -2 0.12903909E+00 0.20159821E+04</pdfrwt>
<totfact> 0.37699717E+00</totfact>
</mgrwt>
</event>
<event>
12    5  0.5221187E-008  0.1452290E+04  0.7818608E-02  0.8916814E-01
         -2   -1    0    0    0  501 -0.00000000000E+00  0.00000000000E+00  0.26196037462E+03  0.26196037462E+03  0.00000000000E+00 0.  1.
          1   -1    0    0  501    0  0.00000000000E+00 -0.00000000000E+00 -0.20128498494E+04  0.20128498494E+04  0.00000000000E+00 0. -1.
        -24    2    1    2    0    0  0.20857349368E+03 -0.21518820279E+02  0.65866802264E+02  0.23627277404E+03  0.86720391028E+02 0.  0.
        254    2    1    2    0    0 -0.20857349368E+03  0.21518820279E+02 -0.18167562770E+04  0.20385374500E+04  0.90059180704E+03 0.  0.
         23    2    4    4    0    0  0.22956975575E+03  0.24412138753E+03 -0.11756676627E+04  0.12257120310E+04  0.88758128105E+02 0.  0.
         23    2    4    4    0    0 -0.43814324944E+03 -0.22260256725E+03 -0.64108861436E+03  0.81282541896E+03  0.90383296431E+02 0.  0.
          1    1    3    3  502    0  0.72485934226E+02 -0.57536646926E+01 -0.18952642467E+02  0.75143316233E+02  0.00000000000E+00 0. -1.
         -2    1    3    3    0  502  0.13608755946E+03 -0.15765155587E+02  0.84819444731E+02  0.16112945781E+03  0.00000000000E+00 0.  1.
         13    1    5    5    0    0  0.21524458528E+03  0.23358314447E+03 -0.10020917689E+04  0.10512274874E+04  0.00000000000E+00 0.  1.
        -13    1    5    5    0    0  0.14325170469E+02  0.10538243062E+02 -0.17357589378E+03  0.17448454366E+03  0.00000000000E+00 0. -1.
          3    1    6    6  503    0 -0.31010183047E+03 -0.16377833905E+03 -0.51904140809E+03  0.62641078608E+03  0.00000000000E+00 0. -1.
         -3    1    6    6    0  503 -0.12804141897E+03 -0.58824228203E+02 -0.12204720627E+03  0.18641463288E+03  0.00000000000E+00 0.  1.
<mgrwt>
<rscale>  0 0.14522905E+04</rscale>
<asrwt>0</asrwt>
<pdfrwt beam="1">  1        1 0.30966920E+00 0.14522905E+04</pdfrwt>
<pdfrwt beam="2">  1       -2 0.40301597E-01 0.14522905E+04</pdfrwt>
<totfact> 0.14521902E+01</totfact>
</mgrwt>
</event>
<event>
12    5  0.5221187E-008  0.1853552E+04  0.7818608E-02  0.8678328E-01
         -2   -1    0    0    0  501 -0.00000000000E+00  0.00000000000E+00  0.51622802676E+03  0.51622802676E+03  0.00000000000E+00 0.  1.
          1   -1    0    0  501    0  0.00000000000E+00 -0.00000000000E+00 -0.16638258361E+04  0.16638258361E+04  0.00000000000E+00 0. -1.
        -24    2    1    2    0    0 -0.37423313291E+02  0.45502904720E+03 -0.10662337846E+04  0.11626051098E+04  0.79650610443E+02 0.  0.
        254    2    1    2    0    0  0.37423313291E+02 -0.45502904720E+03 -0.81364024703E+02  0.10174487530E+04  0.90561024859E+03 0.  0.
         23    2    4    4    0    0  0.44165431258E+03 -0.94113842280E+02 -0.15401569291E+02  0.46326267526E+03  0.10226998982E+03 0.  0.
         23    2    4    4    0    0 -0.40423099929E+03 -0.36091520492E+03 -0.65962455412E+02  0.55418607778E+03  0.95439390961E+02 0.  0.
          3    1    3    3  502    0  0.33932196236E+01  0.27709180576E+03 -0.71361984763E+03  0.76553554437E+03  0.00000000000E+00 0. -1.
         -4    1    3    3    0  502 -0.40816532914E+02  0.17793724143E+03 -0.35261393699E+03  0.39706956545E+03  0.00000000000E+00 0.  1.
         13    1    5    5    0    0  0.29568683578E+03 -0.83342353865E+02  0.33302549101E+02  0.30900762544E+03  0.00000000000E+00 0.  1.
        -13    1    5    5    0    0  0.14596747680E+03 -0.10771488414E+02 -0.48704118393E+02  0.15425504982E+03  0.00000000000E+00 0. -1.
          1    1    6    6  503    0 -0.17890088992E+03 -0.22287698470E+03 -0.26814904708E+02  0.28705176857E+03  0.00000000000E+00 0. -1.
         -1    1    6    6    0  503 -0.22533010937E+03 -0.13803822022E+03 -0.39147550704E+02  0.26713430921E+03  0.00000000000E+00 0.  1.
<mgrwt>
<rscale>  0 0.18535518E+04</rscale>
<asrwt>0</asrwt>
<pdfrwt beam="1">  1        1 0.25597321E+00 0.18535518E+04</pdfrwt>
<pdfrwt beam="2">  1       -2 0.79419696E-01 0.18535518E+04</pdfrwt>
<totfact> 0.58450118E+00</totfact>
</mgrwt>
</event>
<event>
12    5  0.5221187E-008  0.2275922E+04  0.7818608E-02  0.8487476E-01
         -2   -1    0    0    0  501 -0.00000000000E+00  0.00000000000E+00  0.12202612965E+04  0.12202612965E+04  0.00000000000E+00 0.  1.
          1   -1    0    0  501    0  0.00000000000E+00 -0.00000000000E+00 -0.10612117402E+04  0.10612117402E+04  0.00000000000E+00 0. -1.
        -24    2    1    2    0    0  0.42085810282E+03 -0.77293319837E+03 -0.30613901749E+03  0.93514270277E+03  0.78889192333E+02 0.  0.
        254    2    1    2    0    0 -0.42085810282E+03  0.77293319837E+03  0.46518857379E+03  0.13463303340E+04  0.90645335628E+03 0.  0.
         23    2    4    4    0    0 -0.62527723821E+03  0.22448866398E+03  0.26660560686E+03  0.72158148213E+03  0.90744150526E+02 0.  0.
         23    2    4    4    0    0  0.20441913539E+03  0.54844453439E+03  0.19858296692E+03  0.62474885184E+03  0.91089751881E+02 0.  0.
          3    1    3    3  502    0  0.33569169953E+03 -0.65213314366E+03 -0.27975317624E+03  0.78500216166E+03  0.00000000000E+00 0. -1.
         -4    1    3    3    0  502  0.85166403287E+02 -0.12080005471E+03 -0.26385841247E+02  0.15014054111E+03  0.00000000000E+00 0.  1.
         13    1    5    5    0    0 -0.52024170882E+03  0.21722049577E+03  0.20684732047E+03  0.60051810411E+03  0.00000000000E+00 0.  1.
        -13    1    5    5    0    0 -0.10503552939E+03  0.72681682067E+01  0.59758286391E+02  0.12106337801E+03  0.00000000000E+00 0. -1.
          2    1    6    6  503    0  0.12832574232E+03  0.30885825889E+03  0.67329357827E+02  0.34116588729E+03  0.00000000000E+00 0. -1.
         -2    1    6    6    0  503  0.76093393078E+02  0.23958627550E+03  0.13125360910E+03  0.28358296455E+03  0.00000000000E+00 0.  1.
<mgrwt>
<rscale>  0 0.22759223E+04</rscale>
<asrwt>0</asrwt>
<pdfrwt beam="1">  1        1 0.16326335E+00 0.22759223E+04</pdfrwt>
<pdfrwt beam="2">  1       -2 0.18773251E+00 0.22759223E+04</pdfrwt>
<totfact> 0.17302104E+00</totfact>
</mgrwt>
</event>
<event>
12    5  0.5221187E-008  0.1098601E+04  0.7818608E-02  0.9206556E-01
         -2   -1    0    0    0  501 -0.00000000000E+00  0.00000000000E+00  0.11099309721E+03  0.11099309721E+03  0.00000000000E+00 0.  1.
          1   -1    0    0  501    0  0.00000000000E+00 -0.00000000000E+00 -0.27184667601E+04  0.27184667601E+04  0.00000000000E+00 0. -1.
        -24    2    1    2    0    0  0.10948187383E+03 -0.11933869345E+03 -0.35754078800E+03  0.39906927581E+03  0.72061552580E+02 0.  0.
        254    2    1    2    0    0 -0.10948187383E+03  0.11933869345E+03 -0.22499328749E+04  0.24303905815E+04  0.90463939371E+03 0.  0.
         23    2    4    4    0    0  0.27944026718E+02 -0.23888827222E+03 -0.15798202982E+03  0.30167245704E+03  0.90550948957E+02 0.  0.
         23    2    4    4    0    0 -0.13742590055E+03  0.35822696567E+03 -0.20919508451E+04  0.21287181245E+04  0.89275293936E+02 0.  0.
          3    1    3    3  502    0  0.41280816940E+02 -0.37481142201E+02 -0.20872537863E+03  0.21604449901E+03  0.00000000000E+00 0. -1.
         -4    1    3    3    0  502  0.68201056890E+02 -0.81857551249E+02 -0.14881540938E+03  0.18302477681E+03  0.00000000000E+00 0.  1.
         13    1    5    5    0    0  0.10166096754E+02 -0.61214793042E+02 -0.92700289562E+02  0.11155242756E+03  0.00000000000E+00 0. -1.
        -13    1    5    5    0    0  0.17777929963E+02 -0.17767347918E+03 -0.65281740260E+02  0.19012002948E+03  0.00000000000E+00 0.  1.
          4    1    6    6  503    0 -0.95213426404E+02  0.18021281982E+03 -0.89862268891E+03  0.92144722801E+03  0.00000000000E+00 0. -1.
         -4    1    6    6    0  503 -0.42212474144E+02  0.17801414585E+03 -0.11933281562E+04  0.12072708965E+04  0.00000000000E+00 0.  1.
<mgrwt>
<rscale>  0 0.10986010E+04</rscale>
<asrwt>0</asrwt>
<pdfrwt beam="1">  1        1 0.41822558E+00 0.10986010E+04</pdfrwt>
<pdfrwt beam="2">  1       -2 0.17075864E-01 0.10986010E+04</pdfrwt>
<totfact> 0.23738640E+01</totfact>
</mgrwt>
</event>
<event>
12    5  0.5221187E-008  0.1688657E+04  0.7818608E-02  0.8767860E-01
         -2   -1    0    0    0  501 -0.00000000000E+00  0.00000000000E+00  0.36791911800E+03  0.36791911800E+03  0.00000000000E+00 0.  1.
          1   -1    0    0  501    0  0.00000000000E+00 -0.00000000000E+00 -0.19376281957E+04  0.19376281957E+04  0.00000000000E+00 0. -1.
        -24    2    1    2    0    0 -0.34078071512E+03  0.46041646660E+03 -0.82732694541E+03  0.10096576842E+04  0.82607179348E+02 0.  0.
        254    2    1    2    0    0  0.34078071512E+03 -0.46041646660E+03 -0.74238213225E+03  0.12958896295E+04  0.89447408181E+03 0.  0.
         23    2    4    4    0    0  0.43856558315E+03 -0.47358675757E+03 -0.12456983368E+03  0.66378601378E+03  0.92032825452E+02 0.  0.
         23    2    4    4    0    0 -0.97784868032E+02  0.13170290969E+02 -0.61781229857E+03  0.63210361571E+03  0.90153245912E+02 0.  0.
          1    1    3    3  502    0 -0.33393409571E+03  0.46321925460E+03 -0.82003096674E+03  0.99926715373E+03  0.00000000000E+00 0. -1.
         -2    1    3    3    0  502 -0.68466194123E+01 -0.28027880048E+01 -0.72959786721E+01  0.10390530437E+02  0.00000000000E+00 0.  1.
         13    1    5    5    0    0  0.41938490258E+03 -0.42205639038E+03 -0.12832779258E+03  0.60867340629E+03  0.00000000000E+00 0.  1.
        -13    1    5    5    0    0  0.19180680573E+02 -0.51530367187E+02  0.37579589042E+01  0.55112607494E+02  0.00000000000E+00 0. -1.
          3    1    6    6  503    0  0.71359451792E+01 -0.15513290141E+02 -0.31922396401E+02  0.36202531356E+02  0.00000000000E+00 0. -1.
         -3    1    6    6    0  503 -0.10492081321E+03  0.28683581110E+02 -0.58588990217E+03  0.59590108435E+03  0.00000000000E+00 0.  1.
<mgrwt>
<rscale>  0 0.16886568E+04</rscale>
<asrwt>0</asrwt>
<pdfrwt beam="1">  1        1 0.29809664E+00 0.16886568E+04</pdfrwt>
<pdfrwt beam="2">  1       -2 0.56602942E-01 0.16886568E+04</pdfrwt>
<totfact> 0.80454105E+00</totfact>
</mgrwt>
</event>
<event>
12    5  0.5221187E-008  0.1749087E+04  0.7818608E-02  0.8733853E-01
         -2   -1    0    0    0  501 -0.00000000000E+00  0.00000000000E+00  0.49493614933E+03  0.49493614933E+03  0.00000000000E+00 0.  1.
          1   -1    0    0  501    0  0.00000000000E+00 -0.00000000000E+00 -0.15453031172E+04  0.15453031172E+04  0.00000000000E+00 0. -1.
        -24    2    1    2    0    0  0.24000689951E+03  0.59214403042E+03 -0.34941421484E+03  0.73269222267E+03  0.80682929208E+02 0.  0.
        254    2    1    2    0    0 -0.24000689951E+03 -0.59214403042E+03 -0.70095275303E+03  0.13075470439E+04  0.90005924548E+03 0.  0.
         23    2    4    4    0    0 -0.86116716324E+02 -0.44233735902E+03  0.10278442682E+03  0.47147135008E+03  0.92963259067E+02 0.  0.
         23    2    4    4    0    0 -0.15389018318E+03 -0.14980667139E+03 -0.80373717985E+03  0.83607569379E+03  0.83095632770E+02 0.  0.
          3    1    3    3  502    0  0.21679046020E+03  0.50491629610E+03 -0.32793903143E+03  0.63990825752E+03  0.00000000000E+00 0. -1.
         -4    1    3    3    0  502  0.23216439311E+02  0.87227734312E+02 -0.21475183407E+02  0.92783965154E+02  0.00000000000E+00 0.  1.
         13    1    5    5    0    0 -0.37248041097E+02 -0.20877645077E+03  0.10632605002E+01  0.21207582013E+03  0.00000000000E+00 0. -1.
        -13    1    5    5    0    0 -0.48868675226E+02 -0.23356090825E+03  0.10172116632E+03  0.25939552995E+03  0.00000000000E+00 0.  1.
          3    1    6    6  503    0 -0.15088311899E+03 -0.11758124773E+03 -0.74328312000E+03  0.76750300448E+03  0.00000000000E+00 0. -1.
         -3    1    6    6    0  503 -0.30070641903E+01 -0.32225423662E+02 -0.60454059854E+02  0.68572689302E+02  0.00000000000E+00 0.  1.
<mgrwt>
<rscale>  0 0.17490870E+04</rscale>
<asrwt>0</asrwt>
<pdfrwt beam="1">  1        1 0.23773894E+00 0.17490870E+04</pdfrwt>
<pdfrwt beam="2">  1       -2 0.76144023E-01 0.17490870E+04</pdfrwt>
<totfact> 0.78148500E+00</totfact>
</mgrwt>
</event>
<event>
12    5  0.5221187E-008  0.1711608E+04  0.7818608E-02  0.8754772E-01
         -2   -1    0    0    0  501 -0.00000000000E+00  0.00000000000E+00  0.25733286768E+03  0.25733286768E+03  0.00000000000E+00 0.  1.
          1   -1    0    0  501    0  0.00000000000E+00 -0.00000000000E+00 -0.28461202219E+04  0.28461202219E+04  0.00000000000E+00 0. -1.
        -24    2    1    2    0    0  0.43260720770E+03  0.22295503812E+03 -0.25544743693E+03  0.55536404405E+03  0.79485113155E+02 0.  0.
        254    2    1    2    0    0 -0.43260720770E+03 -0.22295503812E+03 -0.23333399173E+04  0.25480890455E+04  0.90079113513E+03 0.  0.
         23    2    4    4    0    0 -0.92340128453E+02 -0.53623492451E+03 -0.12129666002E+04  0.13325079448E+04  0.90635843607E+02 0.  0.
         23    2    4    4    0    0 -0.34026707924E+03  0.31327988639E+03 -0.11203733171E+04  0.12155811007E+04  0.92060145433E+02 0.  0.
          3    1    3    3  502    0  0.50877387750E+02 -0.17589274337E+00 -0.23144627239E+02  0.55894662469E+02  0.00000000000E+00 0. -1.
         -4    1    3    3    0  502  0.38172981995E+03  0.22313093087E+03 -0.23230280969E+03  0.49946938158E+03  0.00000000000E+00 0.  1.
         13    1    5    5    0    0 -0.85125603518E+02 -0.23762904501E+03 -0.52696565133E+03  0.58430020459E+03  0.00000000000E+00 0. -1.
        -13    1    5    5    0    0 -0.72145249348E+01 -0.29860587950E+03 -0.68600094888E+03  0.74820774020E+03  0.00000000000E+00 0.  1.
          1    1    6    6  503    0 -0.21316029694E+03  0.13700454090E+03 -0.63994372895E+03  0.68828448526E+03  0.00000000000E+00 0. -1.
         -1    1    6    6    0  503 -0.12710678230E+03  0.17627534548E+03 -0.48042958813E+03  0.52729661547E+03  0.00000000000E+00 0.  1.
<mgrwt>
<rscale>  0 0.17116078E+04</rscale>
<asrwt>0</asrwt>
<pdfrwt beam="1">  1        1 0.43786466E+00 0.17116078E+04</pdfrwt>
<pdfrwt beam="2">  1       -2 0.39589671E-01 0.17116078E+04</pdfrwt>
<totfact> 0.39039406E+00</totfact>
</mgrwt>
</event>
<event>
12    5  0.5221187E-008  0.2234230E+04  0.7818608E-02  0.8504315E-01
         -2   -1    0    0    0  501 -0.00000000000E+00  0.00000000000E+00  0.68835742556E+03  0.68835742556E+03  0.00000000000E+00 0.  1.
          1   -1    0    0  501    0  0.00000000000E+00 -0.00000000000E+00 -0.18129322353E+04  0.18129322353E+04  0.00000000000E+00 0. -1.
        -24    2    1    2    0    0 -0.76182485869E+03 -0.53337879349E+03 -0.43414773935E+03  0.10294793341E+04  0.80457362242E+02 0.  0.
        254    2    1    2    0    0  0.76182485869E+03  0.53337879349E+03 -0.69042707040E+03  0.14718103267E+04  0.90811125185E+03 0.  0.
         23    2    4    4    0    0  0.80850848136E+03  0.22419618027E+03 -0.76313057644E+03  0.11378562972E+04  0.91644883924E+02 0.  0.
         23    2    4    4    0    0 -0.46683622679E+02  0.30918261322E+03  0.72703506041E+02  0.33395402953E+03  0.92012200843E+02 0.  0.
          1    1    3    3  502    0 -0.17410784454E+02 -0.69921280218E+01  0.18832712207E+01  0.18856616347E+02  0.00000000000E+00 0. -1.
         -2    1    3    3    0  502 -0.74441407423E+03 -0.52638666546E+03 -0.43603101057E+03  0.10106227178E+04  0.00000000000E+00 0.  1.
         13    1    5    5    0    0  0.52160111231E+03  0.18970506483E+03 -0.49969547565E+03  0.74682749037E+03  0.00000000000E+00 0. -1.
        -13    1    5    5    0    0  0.28690736905E+03  0.34491115434E+02 -0.26343510079E+03  0.39102880685E+03  0.00000000000E+00 0.  1.
          1    1    6    6  503    0 -0.39991119135E+02  0.54838482307E+02  0.36183711570E+02  0.76914301234E+02  0.00000000000E+00 0. -1.
         -1    1    6    6    0  503 -0.66925035433E+01  0.25434413091E+03  0.36519794471E+02  0.25703972829E+03  0.00000000000E+00 0.  1.
<mgrwt>
<rscale>  0 0.22342295E+04</rscale>
<asrwt>0</asrwt>
<pdfrwt beam="1">  1        1 0.27891265E+00 0.22342295E+04</pdfrwt>
<pdfrwt beam="2">  1       -2 0.10590114E+00 0.22342295E+04</pdfrwt>
<totfact> 0.22953565E+00</totfact>
</mgrwt>
</event>
<event>
12    5  0.5221187E-008  0.1998738E+04  0.7818608E-02  0.8607211E-01
         -2   -1    0    0    0  501 -0.00000000000E+00  0.00000000000E+00  0.15488225153E+04  0.15488225153E+04  0.00000000000E+00 0.  1.
          1   -1    0    0  501    0  0.00000000000E+00 -0.00000000000E+00 -0.64483735658E+03  0.64483735658E+03  0.00000000000E+00 0. -1.
        -24    2    1    2    0    0 -0.61948015328E+02  0.78697321223E+03  0.32110479355E+03  0.85591551801E+03  0.79490201702E+02 0.  0.
        254    2    1    2    0    0  0.61948015328E+02 -0.78697321223E+03  0.58288036516E+03  0.13377443539E+04  0.90920077145E+03 0.  0.
         23    2    4    4    0    0 -0.36026335726E+03 -0.36535974927E+03  0.51082257046E+03  0.72984991791E+03  0.91998756598E+02 0.  0.
         23    2    4    4    0    0  0.42221137259E+03 -0.42161346296E+03  0.72057794700E+02  0.60789443594E+03  0.91230280995E+02 0.  0.
          3    1    3    3  502    0 -0.29229783136E+02  0.63468644193E+03  0.28314484812E+03  0.69559489993E+03  0.00000000000E+00 0. -1.
         -4    1    3    3    0  502 -0.32718232191E+02  0.15228677030E+03  0.37959945434E+02  0.16032061808E+03  0.00000000000E+00 0.  1.
         13    1    5    5    0    0 -0.24549152339E+03 -0.22116489157E+03  0.38154106312E+03  0.50473119595E+03  0.00000000000E+00 0. -1.
        -13    1    5    5    0    0 -0.11477183387E+03 -0.14419485770E+03  0.12928150733E+03  0.22511872196E+03  0.00000000000E+00 0.  1.
          3    1    6    6  503    0  0.23160510571E+03 -0.18236593234E+03  0.65281536725E+02  0.30192703971E+03  0.00000000000E+00 0. -1.
         -3    1    6    6    0  503  0.19060626688E+03 -0.23924753062E+03  0.67762579755E+01  0.30596739623E+03  0.00000000000E+00 0.  1.
<mgrwt>
<rscale>  0 0.19987382E+04</rscale>
<asrwt>0</asrwt>
<pdfrwt beam="1">  1        1 0.99205748E-01 0.19987382E+04</pdfrwt>
<pdfrwt beam="2">  1       -2 0.23828039E+00 0.19987382E+04</pdfrwt>
<totfact> 0.19003796E+00</totfact>
</mgrwt>
</event>
<event>
12    5  0.5221187E-008  0.2474397E+04  0.7818608E-02  0.8412164E-01
          1   -1    0    0  501    0  0.00000000000E+00  0.00000000000E+00  0.89210138757E+03  0.89210138757E+03  0.00000000000E+00 0. -1.
         -2   -1    0    0    0  501 -0.00000000000E+00 -0.00000000000E+00 -0.17157910706E+04  0.17157910706E+04  0.00000000000E+00 0.  1.
        -24    2    1    2    0    0  0.38831218297E+03 -0.22699413869E+03  0.66420741454E+03  0.80607736282E+03  0.79224585098E+02 0.  0.
        254    2    1    2    0    0 -0.38831218297E+03  0.22699413869E+03 -0.14878970975E+04  0.18018150953E+04  0.91125582269E+03 0.  0.
         23    2    4    4    0    0 -0.38075218856E+03 -0.18379215095E+03 -0.26494809747E+03  0.50805500347E+03  0.95763293308E+02 0.  0.
         23    2    4    4    0    0 -0.75599944096E+01  0.41078628964E+03 -0.12229490001E+04  0.12937600918E+04  0.96996851661E+02 0.  0.
          3    1    3    3  502    0  0.34960574622E+03 -0.17527646135E+03  0.55001286877E+03  0.67487789378E+03  0.00000000000E+00 0. -1.
         -4    1    3    3    0  502  0.38706436755E+02 -0.51717677339E+02  0.11419454577E+03  0.13119946905E+03  0.00000000000E+00 0.  1.
         13    1    5    5    0    0 -0.33242072808E+03 -0.12069527704E+03 -0.22427292281E+03  0.41877110009E+03  0.00000000000E+00 0. -1.
        -13    1    5    5    0    0 -0.48331460478E+02 -0.63096873909E+02 -0.40675174662E+02  0.89283903380E+02  0.00000000000E+00 0.  1.
          4    1    6    6  503    0  0.32184505790E+02  0.23230696870E+03 -0.78175294762E+03  0.81617402631E+03  0.00000000000E+00 0.  1.
         -4    1    6    6    0  503 -0.39744500200E+02  0.17847932094E+03 -0.44119605243E+03  0.47758606552E+03  0.00000000000E+00 0. -1.
<mgrwt>
<rscale>  0 0.24743966E+04</rscale>
<asrwt>0</asrwt>
<pdfrwt beam="1">  1        1 0.13724637E+00 0.24743966E+04</pdfrwt>
<pdfrwt beam="2">  1       -2 0.26396786E+00 0.24743966E+04</pdfrwt>
<totfact> 0.76084678E-01</totfact>
</mgrwt>
</event>
<event>
12    5  0.5221187E-008  0.1858972E+04  0.7818608E-02  0.8675553E-01
          1   -1    0    0  501    0  0.00000000000E+00  0.00000000000E+00  0.18118737098E+04  0.18118737098E+04  0.00000000000E+00 0. -1.
         -2   -1    0    0    0  501 -0.00000000000E+00 -0.00000000000E+00 -0.47682350724E+03  0.47682350724E+03  0.00000000000E+00 0.  1.
        -24    2    1    2    0    0  0.26444313913E+03 -0.64531512418E+03  0.67247452895E+03  0.97180821903E+03  0.76337665306E+02 0.  0.
        254    2    1    2    0    0 -0.26444313913E+03  0.64531512418E+03  0.66257567359E+03  0.13168889980E+04  0.89934883470E+03 0.  0.
         23    2    4    4    0    0  0.16704003032E+03  0.66240627209E+03  0.47215162970E+03  0.83629499102E+03  0.98882301412E+02 0.  0.
         23    2    4    4    0    0 -0.43148316945E+03 -0.17091147914E+02  0.19042404389E+03  0.48059400698E+03  0.90771417258E+02 0.  0.
          3    1    3    3  502    0  0.19509524056E+03 -0.48581066765E+03  0.45725104830E+03  0.69509184923E+03  0.00000000000E+00 0. -1.
         -4    1    3    3    0  502  0.69347898576E+02 -0.15950445653E+03  0.21522348065E+03  0.27671636980E+03  0.00000000000E+00 0.  1.
         13    1    5    5    0    0  0.11892436118E+03  0.52941530888E+03  0.41764765565E+03  0.68472851352E+03  0.00000000000E+00 0.  1.
        -13    1    5    5    0    0  0.48115669143E+02  0.13299096321E+03  0.54503974053E+02  0.15156647750E+03  0.00000000000E+00 0. -1.
          1    1    6    6  503    0 -0.91726279399E+02 -0.24956937629E+02  0.76949764852E+02  0.12230218877E+03  0.00000000000E+00 0. -1.
         -1    1    6    6    0  503 -0.33975689005E+03  0.78657897143E+01  0.11347427904E+03  0.35829181820E+03  0.00000000000E+00 0.  1.
<mgrwt>
<rscale>  0 0.18589717E+04</rscale>
<asrwt>0</asrwt>
<pdfrwt beam="1">  1        1 0.27874980E+00 0.18589717E+04</pdfrwt>
<pdfrwt beam="2">  1       -2 0.73357464E-01 0.18589717E+04</pdfrwt>
<totfact> 0.55279983E+00</totfact>
</mgrwt>
</event>
<event>
12    5  0.5221187E-008  0.1762536E+04  0.7818608E-02  0.8726480E-01
         -2   -1    0    0    0  501 -0.00000000000E+00  0.00000000000E+00  0.85763774776E+03  0.85763774776E+03  0.00000000000E+00 0.  1.
          1   -1    0    0  501    0  0.00000000000E+00 -0.00000000000E+00 -0.90554907822E+03  0.90554907822E+03  0.00000000000E+00 0. -1.
        -24    2    1    2    0    0  0.19629095553E+03  0.33795289866E+03 -0.53223953393E+03  0.66520076723E+03  0.80441521045E+02 0.  0.
        254    2    1    2    0    0 -0.19629095553E+03 -0.33795289866E+03  0.48432820348E+03  0.10979860588E+04  0.90457574343E+03 0.  0.
         23    2    4    4    0    0  0.10289833613E+03 -0.55074810787E+03  0.13572031786E+03  0.58360974796E+03  0.90932872683E+02 0.  0.
         23    2    4    4    0    0 -0.29918929166E+03  0.21279520921E+03  0.34860788562E+03  0.51437631079E+03  0.90881779696E+02 0.  0.
          3    1    3    3  502    0  0.17305554696E+03  0.27128196224E+03 -0.47777660443E+03  0.57603177787E+03  0.00000000000E+00 0. -1.
         -4    1    3    3    0  502  0.23235408571E+02  0.66670936413E+02 -0.54462929498E+02  0.89168989358E+02  0.00000000000E+00 0.  1.
         13    1    5    5    0    0 -0.10442214906E+02 -0.19507886192E+02 -0.45605438900E+01  0.22591946273E+02  0.00000000000E+00 0. -1.
        -13    1    5    5    0    0  0.11334055103E+03 -0.53124022168E+03  0.14028086175E+03  0.56101780169E+03  0.00000000000E+00 0.  1.
          2    1    6    6  503    0 -0.66349325904E+02  0.96232357574E+02  0.91471412886E+02  0.14842479263E+03  0.00000000000E+00 0. -1.
         -2    1    6    6    0  503 -0.23283996576E+03  0.11656285164E+03  0.25713647273E+03  0.36595151816E+03  0.00000000000E+00 0.  1.
<mgrwt>
<rscale>  0 0.17625358E+04</rscale>
<asrwt>0</asrwt>
<pdfrwt beam="1">  1        1 0.13931524E+00 0.17625358E+04</pdfrwt>
<pdfrwt beam="2">  1       -2 0.13194427E+00 0.17625358E+04</pdfrwt>
<totfact> 0.62466812E+00</totfact>
</mgrwt>
</event>
<event>
12    5  0.5221187E-008  0.2474692E+04  0.7818608E-02  0.8412057E-01
          1   -1    0    0  501    0  0.00000000000E+00  0.00000000000E+00  0.11854568966E+04  0.11854568966E+04  0.00000000000E+00 0. -1.
         -2   -1    0    0    0  501 -0.00000000000E+00 -0.00000000000E+00 -0.12915068593E+04  0.12915068593E+04  0.00000000000E+00 0.  1.
        -24    2    1    2    0    0  0.84402015649E+03 -0.27820693697E+03  0.57275914955E+03  0.10600837466E+04  0.77171122394E+02 0.  0.
        254    2    1    2    0    0 -0.84402015649E+03  0.27820693697E+03 -0.67880911223E+03  0.14168800093E+04  0.87005633466E+03 0.  0.
         23    2    4    4    0    0 -0.50654302326E+03 -0.19407068657E+02  0.87812953727E+02  0.52364193141E+03  0.97607831412E+02 0.  0.
         23    2    4    4    0    0 -0.33747713322E+03  0.29761400563E+03 -0.76662206596E+03  0.89323807786E+03  0.87749415582E+02 0.  0.
          3    1    3    3  502    0  0.72893579636E+03 -0.26714606943E+03  0.50302145542E+03  0.92506486380E+03  0.00000000000E+00 0. -1.
         -4    1    3    3    0  502  0.11508436013E+03 -0.11060867541E+02  0.69737694135E+02  0.13501888283E+03  0.00000000000E+00 0.  1.
         13    1    5    5    0    0 -0.38194384589E+03 -0.56689797177E+02  0.62821058819E+02  0.39120495900E+03  0.00000000000E+00 0. -1.
        -13    1    5    5    0    0 -0.12459917738E+03  0.37282728521E+02  0.24991894908E+02  0.13243697241E+03  0.00000000000E+00 0.  1.
          3    1    6    6  503    0 -0.25178535942E+03  0.21754901956E+03 -0.48500447318E+03  0.58817750903E+03  0.00000000000E+00 0. -1.
         -3    1    6    6    0  503 -0.85691773806E+02  0.80064986069E+02 -0.28161759278E+03  0.30506056883E+03  0.00000000000E+00 0.  1.
<mgrwt>
<rscale>  0 0.24746925E+04</rscale>
<asrwt>0</asrwt>
<pdfrwt beam="1">  1        1 0.18237798E+00 0.24746925E+04</pdfrwt>
<pdfrwt beam="2">  1       -2 0.19869336E+00 0.24746925E+04</pdfrwt>
<totfact> 0.11605613E+00</totfact>
</mgrwt>
</event>
<event>
12    5  0.5221187E-008  0.1409180E+04  0.7818608E-02  0.8947201E-01
          1   -1    0    0  501    0  0.00000000000E+00  0.00000000000E+00  0.48932429968E+03  0.48932429968E+03  0.00000000000E+00 0. -1.
         -2   -1    0    0    0  501 -0.00000000000E+00 -0.00000000000E+00 -0.10145558023E+04  0.10145558023E+04  0.00000000000E+00 0.  1.
        -24    2    1    2    0    0 -0.49422073129E+02 -0.28479038735E+03  0.14450607763E+03  0.33299796527E+03  0.80358772748E+02 0.  0.
        254    2    1    2    0    0  0.49422073129E+02  0.28479038735E+03 -0.66973758021E+03  0.11708821367E+04  0.91589761741E+03 0.  0.
         23    2    4    4    0    0  0.41180962479E+03  0.24544614893E+03 -0.62504944433E+03  0.79293502547E+03  0.90709247957E+02 0.  0.
         23    2    4    4    0    0 -0.36238755166E+03  0.39344238422E+02 -0.44688135876E+02  0.37794711119E+03  0.89298839167E+02 0.  0.
          1    1    3    3  502    0 -0.68484064675E+02 -0.18918397166E+03  0.11177730289E+03  0.23016256796E+03  0.00000000000E+00 0. -1.
         -2    1    3    3    0  502  0.19061991547E+02 -0.95606415692E+02  0.32728774740E+02  0.10283539731E+03  0.00000000000E+00 0.  1.
         13    1    5    5    0    0  0.21910147991E+03  0.16583029715E+03 -0.30062354964E+03  0.40728327310E+03  0.00000000000E+00 0.  1.
        -13    1    5    5    0    0  0.19270814488E+03  0.79615851781E+02 -0.32442589469E+03  0.38565175236E+03  0.00000000000E+00 0. -1.
          1    1    6    6  503    0 -0.29406537394E+02 -0.15690150319E+02 -0.21478531891E+02  0.39651640454E+02  0.00000000000E+00 0. -1.
         -1    1    6    6    0  503 -0.33298101426E+03  0.55034388741E+02 -0.23209603985E+02  0.33829547074E+03  0.00000000000E+00 0.  1.
<mgrwt>
<rscale>  0 0.14091796E+04</rscale>
<asrwt>0</asrwt>
<pdfrwt beam="1">  1        1 0.75280662E-01 0.14091796E+04</pdfrwt>
<pdfrwt beam="2">  1       -2 0.15608551E+00 0.14091796E+04</pdfrwt>
<totfact> 0.10471916E+01</totfact>
</mgrwt>
</event>
<event>
12    5  0.5221187E-008  0.2871773E+04  0.7818608E-02  0.8281326E-01
          1   -1    0    0  501    0  0.00000000000E+00  0.00000000000E+00  0.14256996517E+04  0.14256996517E+04  0.00000000000E+00 0. -1.
         -2   -1    0    0    0  501 -0.00000000000E+00 -0.00000000000E+00 -0.14461459808E+04  0.14461459808E+04  0.00000000000E+00 0.  1.
        -24    2    1    2    0    0  0.30857233108E+03 -0.11106387095E+04 -0.60261713877E+03  0.13031392834E+04  0.79305417665E+02 0.  0.
        254    2    1    2    0    0 -0.30857233108E+03  0.11106387095E+04  0.58217080967E+03  0.15687063491E+04  0.89060739470E+03 0.  0.
         23    2    4    4    0    0 -0.57081251161E+02  0.11278703139E+04  0.28569497825E+03  0.11685386381E+04  0.92256240877E+02 0.  0.
         23    2    4    4    0    0 -0.25149107992E+03 -0.17231604322E+02  0.29647583142E+03  0.40016771103E+03  0.93228680515E+02 0.  0.
          3    1    3    3  502    0  0.10148951480E+02 -0.11373249997E+03 -0.72745049604E+02  0.13538805342E+03  0.00000000000E+00 0. -1.
         -4    1    3    3    0  502  0.29842337960E+03 -0.99690620956E+03 -0.52987208917E+03  0.11677512299E+04  0.00000000000E+00 0.  1.
         13    1    5    5    0    0 -0.49370394128E+02  0.23434268215E+03  0.63753997071E+02  0.24782756230E+03  0.00000000000E+00 0.  1.
        -13    1    5    5    0    0 -0.77108570330E+01  0.89352763170E+03  0.22194098118E+03  0.92071107578E+03  0.00000000000E+00 0. -1.
          1    1    6    6  503    0 -0.25136916258E+03 -0.30596137069E+02  0.26798838808E+03  0.36870090269E+03  0.00000000000E+00 0. -1.
         -1    1    6    6    0  503 -0.12191734422E+00  0.13364532747E+02  0.28487443337E+02  0.31466808343E+02  0.00000000000E+00 0.  1.
<mgrwt>
<rscale>  0 0.28717728E+04</rscale>
<asrwt>0</asrwt>
<pdfrwt beam="1">  1        1 0.21933841E+00 0.28717728E+04</pdfrwt>
<pdfrwt beam="2">  1       -2 0.22248400E+00 0.28717728E+04</pdfrwt>
<totfact> 0.53081848E-01</totfact>
</mgrwt>
</event>
<event>
12    5  0.5221187E-008  0.1811586E+04  0.7818608E-02  0.8700162E-01
          1   -1    0    0  501    0  0.00000000000E+00  0.00000000000E+00  0.19284444601E+04  0.19284444601E+04  0.00000000000E+00 0. -1.
         -4   -1    0    0    0  501 -0.00000000000E+00 -0.00000000000E+00 -0.42545229838E+03  0.42545229838E+03  0.00000000000E+00 0.  1.
        -24    2    1    2    0    0 -0.11710781127E+03 -0.62430264965E+03  0.25190477474E+03  0.68777492132E+03  0.78168337829E+02 0.  0.
        254    2    1    2    0    0  0.11710781127E+03  0.62430264965E+03  0.12510873870E+04  0.16661218371E+04  0.89848443982E+03 0.  0.
         23    2    4    4    0    0 -0.24599818888E+03  0.32763330233E+03  0.10803823619E+04  0.11585526639E+04  0.84614049360E+02 0.  0.
         23    2    4    4    0    0  0.36310600015E+03  0.29666934732E+03  0.17070502505E+03  0.50756917326E+03  0.92884826966E+02 0.  0.
          1    1    3    3  502    0 -0.11199586161E+01 -0.63408657062E+01  0.14195706338E+02  0.15587782512E+02  0.00000000000E+00 0. -1.
         -2    1    3    3    0  502 -0.11598785265E+03 -0.61796178394E+03  0.23770906841E+03  0.67218713881E+03  0.00000000000E+00 0.  1.
         13    1    5    5    0    0 -0.16734945870E+02  0.21220323089E+02  0.28766944606E+02  0.39470211897E+02  0.00000000000E+00 0.  1.
        -13    1    5    5    0    0 -0.22926324301E+03  0.30641297924E+03  0.10516154173E+04  0.11190824520E+04  0.00000000000E+00 0. -1.
          3    1    6    6  503    0  0.21131390347E+01  0.27309193898E+02  0.64327990470E+01  0.28136068161E+02  0.00000000000E+00 0. -1.
         -3    1    6    6    0  503  0.36099286112E+03  0.26936015342E+03  0.16427222600E+03  0.47943310510E+03  0.00000000000E+00 0.  1.
<mgrwt>
<rscale>  0 0.18115862E+04</rscale>
<asrwt>0</asrwt>
<pdfrwt beam="1">  1        1 0.29668376E+00 0.18115862E+04</pdfrwt>
<pdfrwt beam="2">  1       -4 0.65454201E-01 0.18115862E+04</pdfrwt>
<totfact> 0.33614909E+00</totfact>
</mgrwt>
</event>
<event>
12    5  0.5767621E-008  0.2129199E+04  0.7818608E-02  0.8548489E-01
         -2   -1    0    0    0  501 -0.00000000000E+00  0.00000000000E+00  0.90002698238E+03  0.90002698238E+03  0.00000000000E+00 0.  1.
          1   -1    0    0  501    0  0.00000000000E+00 -0.00000000000E+00 -0.12592642183E+04  0.12592642183E+04  0.00000000000E+00 0. -1.
        -24    2    1    2    0    0  0.37326403357E+03 -0.48174364310E+03  0.48046219925E+03  0.78008888908E+03  0.79320700502E+02 0.  0.
        254    2    1    2    0    0 -0.37326403357E+03  0.48174364310E+03 -0.83969943517E+03  0.13792023116E+04  0.90868085623E+03 0.  0.
         23    2    4    4    0    0 -0.60870844463E+03  0.47393090917E+03 -0.40536726711E+03  0.87640161606E+03  0.92847693350E+02 0.  0.
         23    2    4    4    0    0  0.23544441105E+03  0.78127339318E+01 -0.43433216807E+03  0.50280069555E+03  0.93107452553E+02 0.  0.
          1    1    3    3  502    0  0.65449942261E+02 -0.11653767742E+03  0.73117660561E+02  0.15235129631E+03  0.00000000000E+00 0. -1.
         -2    1    3    3    0  502  0.30781409131E+03 -0.36520596568E+03  0.40734453869E+03  0.62773759277E+03  0.00000000000E+00 0.  1.
         13    1    5    5    0    0 -0.49559034864E+03  0.40649442329E+03 -0.29981397166E+03  0.70762696913E+03  0.00000000000E+00 0.  1.
        -13    1    5    5    0    0 -0.11311809599E+03  0.67436485879E+02 -0.10555329545E+03  0.16877464693E+03  0.00000000000E+00 0. -1.
          2    1    6    6  503    0  0.31640698918E+01 -0.42763641506E+01  0.39486187585E+01  0.66249693379E+01  0.00000000000E+00 0. -1.
         -2    1    6    6    0  503  0.23228034116E+03  0.12089098082E+02 -0.43828078683E+03  0.49617572621E+03  0.00000000000E+00 0.  1.
<mgrwt>
<rscale>  0 0.21291987E+04</rscale>
<asrwt>0</asrwt>
<pdfrwt beam="1">  1        1 0.19373296E+00 0.21291987E+04</pdfrwt>
<pdfrwt beam="2">  1       -2 0.13846569E+00 0.21291987E+04</pdfrwt>
<totfact> 0.28785356E+00</totfact>
</mgrwt>
</event>
<event>
12    5  0.5221187E-008  0.1524220E+04  0.7818608E-02  0.8868505E-01
         -2   -1    0    0    0  501 -0.00000000000E+00  0.00000000000E+00  0.49491278587E+03  0.49491278587E+03  0.00000000000E+00 0.  1.
          1   -1    0    0  501    0  0.00000000000E+00 -0.00000000000E+00 -0.11735629464E+04  0.11735629464E+04  0.00000000000E+00 0. -1.
        -24    2    1    2    0    0  0.42305972596E+02  0.45170268709E+03 -0.42026903904E+03  0.62357588612E+03  0.79973168769E+02 0.  0.
        254    2    1    2    0    0 -0.42305972596E+02 -0.45170268709E+03 -0.25838112151E+03  0.10448998462E+04  0.90511312648E+03 0.  0.
         23    2    4    4    0    0 -0.24949421927E+03  0.40441386676E+02  0.20043635118E+03  0.33492031375E+03  0.90077824582E+02 0.  0.
         23    2    4    4    0    0  0.20718824668E+03 -0.49214407377E+03 -0.45881747269E+03  0.70997953242E+03  0.91786187978E+02 0.  0.
          1    1    3    3  502    0  0.41853545582E+02  0.39558760674E+03 -0.39940183529E+03  0.56370479856E+03  0.00000000000E+00 0. -1.
         -2    1    3    3    0  502  0.45242701370E+00  0.56115080351E+02 -0.20867203759E+02  0.59871087561E+02  0.00000000000E+00 0.  1.
         13    1    5    5    0    0 -0.51867601384E+01  0.22764715500E+02  0.18827145260E+02  0.29993268431E+02  0.00000000000E+00 0. -1.
        -13    1    5    5    0    0 -0.24430745913E+03  0.17676671176E+02  0.18160920592E+03  0.30492704532E+03  0.00000000000E+00 0.  1.
          2    1    6    6  503    0 -0.62040496013E+01 -0.45349389226E+02 -0.28033976655E+02  0.53674585995E+02  0.00000000000E+00 0. -1.
         -2    1    6    6    0  503  0.21339229628E+03 -0.44679468454E+03 -0.43078349603E+03  0.65630494642E+03  0.00000000000E+00 0.  1.
<mgrwt>
<rscale>  0 0.15242195E+04</rscale>
<asrwt>0</asrwt>
<pdfrwt beam="1">  1        1 0.18054814E+00 0.15242195E+04</pdfrwt>
<pdfrwt beam="2">  1       -2 0.76140429E-01 0.15242195E+04</pdfrwt>
<totfact> 0.14610305E+01</totfact>
</mgrwt>
</event>
<event>
12    5  0.5221187E-008  0.1572841E+04  0.7818608E-02  0.8837409E-01
         -2   -1    0    0    0  501 -0.00000000000E+00  0.00000000000E+00  0.22501054213E+03  0.22501054213E+03  0.00000000000E+00 0.  1.
          1   -1    0    0  501    0  0.00000000000E+00 -0.00000000000E+00 -0.27485699477E+04  0.27485699477E+04  0.00000000000E+00 0. -1.
        -24    2    1    2    0    0 -0.36717665191E+03 -0.92822325598E+02 -0.16616898649E+03  0.42147678677E+03  0.81214973196E+02 0.  0.
        254    2    1    2    0    0  0.36717665191E+03  0.92822325598E+02 -0.23573904191E+04  0.25521037031E+04  0.90139283634E+03 0.  0.
         23    2    4    4    0    0  0.25698435951E+03  0.36559023643E+03 -0.53146599973E+03  0.70031909214E+03  0.91068874699E+02 0.  0.
         23    2    4    4    0    0  0.11019229241E+03 -0.27276791084E+03 -0.18259244194E+04  0.18517846110E+04  0.92528836596E+02 0.  0.
          1    1    3    3  502    0 -0.19383787626E+03 -0.88464510737E+02 -0.10564739357E+03  0.23782443882E+03  0.00000000000E+00 0. -1.
         -2    1    3    3    0  502 -0.17333877565E+03 -0.43578148602E+01 -0.60521592922E+02  0.18365234794E+03  0.00000000000E+00 0.  1.
         13    1    5    5    0    0  0.13951286042E+03  0.20090294819E+03 -0.22029810908E+03  0.32917638080E+03  0.00000000000E+00 0.  1.
        -13    1    5    5    0    0  0.11747149908E+03  0.16468728825E+03 -0.31116789065E+03  0.37114271134E+03  0.00000000000E+00 0. -1.
          4    1    6    6  503    0 -0.67286580992E+01 -0.12897213774E+02 -0.29416965114E+02  0.32817233269E+02  0.00000000000E+00 0. -1.
         -4    1    6    6    0  503  0.11692095051E+03 -0.25987069706E+03 -0.17965074543E+04  0.18189673777E+04  0.00000000000E+00 0.  1.
<mgrwt>
<rscale>  0 0.15728410E+04</rscale>
<asrwt>0</asrwt>
<pdfrwt beam="1">  1        1 0.42285693E+00 0.15728410E+04</pdfrwt>
<pdfrwt beam="2">  1       -2 0.34617005E-01 0.15728410E+04</pdfrwt>
<totfact> 0.60117171E+00</totfact>
</mgrwt>
</event>
<event>
12    5  0.5221187E-008  0.1135462E+04  0.7818608E-02  0.9171301E-01
          1   -1    0    0  501    0  0.00000000000E+00  0.00000000000E+00  0.20866254308E+04  0.20866254308E+04  0.00000000000E+00 0. -1.
         -2   -1    0    0    0  501 -0.00000000000E+00 -0.00000000000E+00 -0.15446889636E+03  0.15446889636E+03  0.00000000000E+00 0.  1.
        -24    2    1    2    0    0  0.10898966397E+03  0.91168054198E+02  0.86298310388E+02  0.18528601811E+03  0.81811668921E+02 0.  0.
        254    2    1    2    0    0 -0.10898966397E+03 -0.91168054198E+02  0.18458582240E+04  0.20558083090E+04  0.89384834242E+03 0.  0.
         23    2    4    4    0    0 -0.20128104382E+03 -0.12210068037E+03  0.18957051431E+04  0.19125138007E+04  0.92673693389E+02 0.  0.
         23    2    4    4    0    0  0.92291379842E+02  0.30932626169E+02 -0.49846919050E+02  0.14329450836E+03  0.92596299245E+02 0.  0.
          1    1    3    3  502    0  0.34301548791E+02 -0.11046511632E+02  0.96896523866E+01  0.37316364132E+02  0.00000000000E+00 0. -1.
         -2    1    3    3    0  502  0.74688115184E+02  0.10221456583E+03  0.76608658001E+02  0.14796965398E+03  0.00000000000E+00 0.  1.
         13    1    5    5    0    0 -0.96328346593E+02 -0.85011574063E+02  0.70449135081E+03  0.71611045338E+03  0.00000000000E+00 0.  1.
        -13    1    5    5    0    0 -0.10495269722E+03 -0.37089106305E+02  0.11912137923E+04  0.11964033473E+04  0.00000000000E+00 0. -1.
          3    1    6    6  503    0  0.65532769236E+02 -0.18773327587E+02 -0.53602016497E+02  0.86718843656E+02  0.00000000000E+00 0. -1.
         -3    1    6    6    0  503  0.26758610606E+02  0.49705953757E+02  0.37550974469E+01  0.56575664709E+02  0.00000000000E+00 0.  1.
<mgrwt>
<rscale>  0 0.11354624E+04</rscale>
<asrwt>0</asrwt>
<pdfrwt beam="1">  1        1 0.32101928E+00 0.11354624E+04</pdfrwt>
<pdfrwt beam="2">  1       -2 0.23764447E-01 0.11354624E+04</pdfrwt>
<totfact> 0.35827443E+01</totfact>
</mgrwt>
</event>
<event>
12    5  0.5221187E-008  0.2107588E+04  0.7818608E-02  0.8557908E-01
         -2   -1    0    0    0  501 -0.00000000000E+00  0.00000000000E+00  0.14634491958E+04  0.14634491958E+04  0.00000000000E+00 0.  1.
          1   -1    0    0  501    0  0.00000000000E+00 -0.00000000000E+00 -0.75881109302E+03  0.75881109302E+03  0.00000000000E+00 0. -1.
        -24    2    1    2    0    0  0.93599387543E+02  0.85068071704E+03  0.22616004082E+03  0.88889832859E+03  0.81076179081E+02 0.  0.
        254    2    1    2    0    0 -0.93599387543E+02 -0.85068071704E+03  0.47847806195E+03  0.13333619602E+04  0.90360076002E+03 0.  0.
         23    2    4    4    0    0 -0.42732447194E+02 -0.98447616943E+03  0.56833940760E+03  0.11412236851E+04  0.91446306336E+02 0.  0.
         23    2    4    4    0    0 -0.50866940349E+02  0.13379545239E+03 -0.89861345650E+02  0.19213827514E+03  0.91396863368E+02 0.  0.
          1    1    3    3  502    0  0.96069150396E+02  0.81053788950E+03  0.23130191104E+03  0.84835224172E+03  0.00000000000E+00 0. -1.
         -2    1    3    3    0  502 -0.24697628526E+01  0.40142827540E+02 -0.51418702209E+01  0.40546086874E+02  0.00000000000E+00 0.  1.
         13    1    5    5    0    0  0.12238586278E+02 -0.32213988837E+02  0.31466810533E+02  0.46665664423E+02  0.00000000000E+00 0. -1.
        -13    1    5    5    0    0 -0.54971033472E+02 -0.95226218059E+03  0.53687259707E+03  0.10945580207E+04  0.00000000000E+00 0.  1.
          1    1    6    6  503    0  0.88313745645E+01  0.18073467229E+02 -0.53179703824E+02  0.56857051394E+02  0.00000000000E+00 0. -1.
         -1    1    6    6    0  503 -0.59698314914E+02  0.11572198516E+03 -0.36681641826E+02  0.13528122375E+03  0.00000000000E+00 0.  1.
<mgrwt>
<rscale>  0 0.21075877E+04</rscale>
<asrwt>0</asrwt>
<pdfrwt beam="1">  1        1 0.11674017E+00 0.21075877E+04</pdfrwt>
<pdfrwt beam="2">  1       -2 0.22514603E+00 0.21075877E+04</pdfrwt>
<totfact> 0.17753743E+00</totfact>
</mgrwt>
</event>
<event>
12    5  0.5221187E-008  0.1544601E+04  0.7818608E-02  0.8855324E-01
         -2   -1    0    0    0  501 -0.00000000000E+00  0.00000000000E+00  0.15426023632E+04  0.15426023632E+04  0.00000000000E+00 0.  1.
          1   -1    0    0  501    0  0.00000000000E+00 -0.00000000000E+00 -0.38665049730E+03  0.38665049730E+03  0.00000000000E+00 0. -1.
        -24    2    1    2    0    0  0.52351478696E+02 -0.72056125360E+02  0.93105787407E+03  0.93961358460E+03  0.89845205688E+02 0.  0.
        254    2    1    2    0    0 -0.52351478696E+02  0.72056125360E+02  0.22489399183E+03  0.98963927589E+03  0.95962275207E+03 0.  0.
         23    2    4    4    0    0 -0.39367728142E+03  0.77771039636E+02 -0.18327177644E+03  0.45014610196E+03  0.89514426526E+02 0.  0.
         23    2    4    4    0    0  0.34132580272E+03 -0.57149142758E+01  0.40816576827E+03  0.53949317393E+03  0.88981045601E+02 0.  0.
          3    1    3    3  502    0 -0.18978461814E+02 -0.38098764946E+02  0.46126362135E+03  0.46322330067E+03  0.00000000000E+00 0. -1.
         -4    1    3    3    0  502  0.71329940509E+02 -0.33957360414E+02  0.46979425271E+03  0.47639028393E+03  0.00000000000E+00 0.  1.
         13    1    5    5    0    0 -0.31687659698E+03  0.96539574673E+02 -0.13643227027E+03  0.35825191076E+03  0.00000000000E+00 0. -1.
        -13    1    5    5    0    0 -0.76800684437E+02 -0.18768535037E+02 -0.46839506167E+02  0.91894191195E+02  0.00000000000E+00 0.  1.
          2    1    6    6  503    0  0.13945748806E+03 -0.43265212913E+02  0.19385999013E+03  0.24269727110E+03  0.00000000000E+00 0. -1.
         -2    1    6    6    0  503  0.20186831466E+03  0.37550298638E+02  0.21430577814E+03  0.29679590283E+03  0.00000000000E+00 0.  1.
<mgrwt>
<rscale>  0 0.15446009E+04</rscale>
<asrwt>0</asrwt>
<pdfrwt beam="1">  1        1 0.59484693E-01 0.15446009E+04</pdfrwt>
<pdfrwt beam="2">  1       -2 0.23732344E+00 0.15446009E+04</pdfrwt>
<totfact> 0.40698442E+00</totfact>
</mgrwt>
</event>
<event>
12    5  0.5221187E-008  0.1386598E+04  0.7818608E-02  0.8963577E-01
          1   -1    0    0  501    0  0.00000000000E+00  0.00000000000E+00  0.83752151963E+03  0.83752151963E+03  0.00000000000E+00 0. -1.
         -2   -1    0    0    0  501 -0.00000000000E+00 -0.00000000000E+00 -0.57391150182E+03  0.57391150182E+03  0.00000000000E+00 0.  1.
        -24    2    1    2    0    0  0.70825228276E+02  0.30041037455E+03 -0.16673596161E+03  0.36045633656E+03  0.82857006776E+02 0.  0.
        254    2    1    2    0    0 -0.70825228276E+02 -0.30041037455E+03  0.43034597941E+03  0.10509766849E+04  0.90779497910E+03 0.  0.
         23    2    4    4    0    0 -0.43697402829E+03 -0.27577965664E+02  0.49803674433E+02  0.44989979772E+03  0.90678423100E+02 0.  0.
         23    2    4    4    0    0  0.36614880001E+03 -0.27283240889E+03  0.38054230498E+03  0.60107688716E+03  0.89322512885E+02 0.  0.
          1    1    3    3  502    0  0.19795138508E+02  0.62210027749E+01 -0.74756837058E+01  0.22055254044E+02  0.00000000000E+00 0. -1.
         -2    1    3    3    0  502  0.51030089768E+02  0.29418937178E+03 -0.15926027790E+03  0.33840108251E+03  0.00000000000E+00 0.  1.
         13    1    5    5    0    0 -0.80453997221E+02 -0.38521169068E+02  0.23495526645E+02  0.92242972131E+02  0.00000000000E+00 0.  1.
        -13    1    5    5    0    0 -0.35652003107E+03  0.10943203404E+02  0.26308147788E+02  0.35765682559E+03  0.00000000000E+00 0. -1.
          1    1    6    6  503    0  0.31768132099E+03 -0.22449057051E+03  0.35893365303E+03  0.52929274058E+03  0.00000000000E+00 0. -1.
         -1    1    6    6    0  503  0.48467479028E+02 -0.48341838384E+02  0.21608651946E+02  0.71784146582E+02  0.00000000000E+00 0.  1.
<mgrwt>
<rscale>  0 0.13865976E+04</rscale>
<asrwt>0</asrwt>
<pdfrwt beam="1">  1        1 0.12884946E+00 0.13865976E+04</pdfrwt>
<pdfrwt beam="2">  1       -2 0.88294077E-01 0.13865976E+04</pdfrwt>
<totfact> 0.19386601E+01</totfact>
</mgrwt>
</event>
<event>
12    5  0.9170185E-008  0.1632841E+04  0.7818608E-02  0.8800623E-01
         -2   -1    0    0    0  501 -0.00000000000E+00  0.00000000000E+00  0.65623574452E+03  0.65623574452E+03  0.00000000000E+00 0.  1.
          1   -1    0    0  501    0  0.00000000000E+00 -0.00000000000E+00 -0.10157059331E+04  0.10157059331E+04  0.00000000000E+00 0. -1.
        -24    2    1    2    0    0  0.47905192029E+03 -0.14722021379E+03  0.14000101507E+03  0.52638022281E+03  0.79443823250E+02 0.  0.
        254    2    1    2    0    0 -0.47905192029E+03  0.14722021379E+03 -0.49947120362E+03  0.11455614548E+04  0.90093009150E+03 0.  0.
         23    2    4    4    0    0 -0.16101352538E+03  0.43003643887E+03  0.17071575095E+02  0.46904574019E+03  0.94105119953E+02 0.  0.
         23    2    4    4    0    0 -0.31803839491E+03 -0.28281622508E+03 -0.51654277871E+03  0.67651571460E+03  0.98608478599E+02 0.  0.
          3    1    3    3  502    0  0.97968164638E+01  0.75872114983E+01 -0.12563898349E+01  0.12454794521E+02  0.00000000000E+00 0. -1.
         -4    1    3    3    0  502  0.46925510383E+03 -0.15480742529E+03  0.14125740491E+03  0.51392542828E+03  0.00000000000E+00 0.  1.
         13    1    5    5    0    0 -0.17344598213E+03  0.40901886859E+03  0.17559886266E+02  0.44462151678E+03  0.00000000000E+00 0.  1.
        -13    1    5    5    0    0  0.12432456748E+02  0.21017570283E+02 -0.48831117148E+00  0.24424223410E+02  0.00000000000E+00 0. -1.
          3    1    6    6  503    0 -0.39936518220E+02  0.38985631764E+00 -0.45764879308E+02  0.60741268126E+02  0.00000000000E+00 0. -1.
         -3    1    6    6    0  503 -0.27810187669E+03 -0.28320608140E+03 -0.47077789941E+03  0.61577444647E+03  0.00000000000E+00 0.  1.
<mgrwt>
<rscale>  0 0.16328411E+04</rscale>
<asrwt>0</asrwt>
<pdfrwt beam="1">  1        1 0.15626245E+00 0.16328411E+04</pdfrwt>
<pdfrwt beam="2">  1       -2 0.10095935E+00 0.16328411E+04</pdfrwt>
<totfact> 0.99647495E+00</totfact>
</mgrwt>
</event>
<event>
12    5  0.5221187E-008  0.3276284E+04  0.7818608E-02  0.8168956E-01
         -2   -1    0    0    0  501 -0.00000000000E+00  0.00000000000E+00  0.14216561844E+04  0.14216561844E+04  0.00000000000E+00 0.  1.
          1   -1    0    0  501    0  0.00000000000E+00 -0.00000000000E+00 -0.18875942410E+04  0.18875942410E+04  0.00000000000E+00 0. -1.
        -24    2    1    2    0    0  0.55754523691E+02 -0.13622590462E+04  0.44504485935E+03  0.14364447668E+04  0.80314167059E+02 0.  0.
        254    2    1    2    0    0 -0.55754523691E+02  0.13622590462E+04 -0.91098291596E+03  0.18728056585E+04  0.90479438855E+03 0.  0.
         23    2    4    4    0    0 -0.46372640220E+02  0.10352183237E+04 -0.16641658918E+03  0.10531844409E+04  0.87610421589E+02 0.  0.
         23    2    4    4    0    0 -0.93818834707E+01  0.32704072252E+03 -0.74456632678E+03  0.81962121761E+03  0.10176576766E+03 0.  0.
          3    1    3    3  502    0  0.35961162400E+01 -0.11712405979E+03  0.15154127602E+02  0.11815508883E+03  0.00000000000E+00 0. -1.
         -4    1    3    3    0  502  0.52158407451E+02 -0.12451349864E+04  0.42989073174E+03  0.13182896780E+04  0.00000000000E+00 0.  1.
         13    1    5    5    0    0  0.13756345958E+01  0.10966415190E+01  0.36809149391E+01  0.40797215532E+01  0.00000000000E+00 0. -1.
        -13    1    5    5    0    0 -0.47748274816E+02  0.10341216822E+04 -0.17009750412E+03  0.10491047194E+04  0.00000000000E+00 0.  1.
          1    1    6    6  503    0  0.27800675861E+02  0.31919769042E+02 -0.13262406084E+03  0.13921526765E+03  0.00000000000E+00 0. -1.
         -1    1    6    6    0  503 -0.37182559332E+02  0.29512095348E+03 -0.61194226594E+03  0.68040594996E+03  0.00000000000E+00 0.  1.
<mgrwt>
<rscale>  0 0.32762845E+04</rscale>
<asrwt>0</asrwt>
<pdfrwt beam="1">  1        1 0.29039911E+00 0.32762845E+04</pdfrwt>
<pdfrwt beam="2">  1       -2 0.21871634E+00 0.32762845E+04</pdfrwt>
<totfact> 0.26142003E-01</totfact>
</mgrwt>
</event>
<event>
12    5  0.5221187E-008  0.1184062E+04  0.7818608E-02  0.9126922E-01
         -4   -1    0    0    0  501 -0.00000000000E+00  0.00000000000E+00  0.32309326245E+03  0.32309326245E+03  0.00000000000E+00 0.  1.
          3   -1    0    0  501    0  0.00000000000E+00 -0.00000000000E+00 -0.10848288194E+04  0.10848288194E+04  0.00000000000E+00 0. -1.
        -24    2    1    2    0    0 -0.27256820625E+02  0.19502380088E+03 -0.38007413473E+03  0.43680064262E+03  0.86955369699E+02 0.  0.
        254    2    1    2    0    0  0.27256820625E+02 -0.19502380088E+03 -0.38166142224E+03  0.97112143925E+03  0.87099609147E+03 0.  0.
         23    2    4    4    0    0 -0.11528420842E+03  0.22876615481E+03 -0.43374890551E+03  0.51185320895E+03  0.90725917920E+02 0.  0.
         23    2    4    4    0    0  0.14254102905E+03 -0.42378995568E+03  0.52087483268E+02  0.45926823030E+03  0.91095169731E+02 0.  0.
          3    1    3    3  502    0 -0.37752601561E+02  0.18823281715E+03 -0.30286633847E+03  0.35858732737E+03  0.00000000000E+00 0. -1.
         -4    1    3    3    0  502  0.10495780936E+02  0.67909837286E+01 -0.77207796263E+02  0.78213315242E+02  0.00000000000E+00 0.  1.
         13    1    5    5    0    0  0.89703354299E+01  0.23274131095E+02 -0.14917367442E+02  0.29063378113E+02  0.00000000000E+00 0. -1.
        -13    1    5    5    0    0 -0.12425454385E+03  0.20549202371E+03 -0.41883153807E+03  0.48278983084E+03  0.00000000000E+00 0.  1.
          2    1    6    6  503    0  0.39255865704E+02 -0.15142576474E+03  0.60840931094E+02  0.16784637058E+03  0.00000000000E+00 0. -1.
         -2    1    6    6    0  503  0.10328516335E+03 -0.27236419094E+03 -0.87534478254E+01  0.29142185972E+03  0.00000000000E+00 0.  1.
<mgrwt>
<rscale>  0 0.11840623E+04</rscale>
<asrwt>0</asrwt>
<pdfrwt beam="1">  1        3 0.16689674E+00 0.11840623E+04</pdfrwt>
<pdfrwt beam="2">  1       -4 0.49706656E-01 0.11840623E+04</pdfrwt>
<totfact> 0.21568085E+00</totfact>
</mgrwt>
</event>
<event>
12    5  0.5221187E-008  0.1724277E+04  0.7818608E-02  0.8747638E-01
         -2   -1    0    0    0  501 -0.00000000000E+00  0.00000000000E+00  0.96040989308E+03  0.96040989308E+03  0.00000000000E+00 0.  1.
          1   -1    0    0  501    0  0.00000000000E+00 -0.00000000000E+00 -0.77392245000E+03  0.77392245000E+03  0.00000000000E+00 0. -1.
        -24    2    1    2    0    0 -0.13640450812E+03 -0.58917665530E+03  0.25789306339E+03  0.66201642749E+03  0.77598950618E+02 0.  0.
        254    2    1    2    0    0  0.13640450812E+03  0.58917665530E+03 -0.71405620317E+02  0.10723159156E+04  0.88262525413E+03 0.  0.
         23    2    4    4    0    0  0.60005977880E+02  0.39620385397E+03  0.38459665026E+03  0.56290742958E+03  0.91498522417E+02 0.  0.
         23    2    4    4    0    0  0.76398530245E+02  0.19297280133E+03 -0.45600227058E+03  0.50940848601E+03  0.92106988723E+02 0.  0.
          1    1    3    3  502    0 -0.73462441968E+02 -0.28126318821E+03  0.82838094977E+02  0.30227117196E+03  0.00000000000E+00 0. -1.
         -2    1    3    3    0  502 -0.62942066156E+02 -0.30791346709E+03  0.17505496842E+03  0.35974525553E+03  0.00000000000E+00 0.  1.
         13    1    5    5    0    0  0.63752023679E+02  0.14394942638E+03  0.16998361654E+03  0.23168985254E+03  0.00000000000E+00 0.  1.
        -13    1    5    5    0    0 -0.37460457993E+01  0.25225442759E+03  0.21461303372E+03  0.33121757704E+03  0.00000000000E+00 0. -1.
          3    1    6    6  503    0  0.86873699915E+02  0.10049921456E+03 -0.24244072766E+03  0.27645006474E+03  0.00000000000E+00 0. -1.
         -3    1    6    6    0  503 -0.10475169671E+02  0.92473586777E+02 -0.21356154291E+03  0.23295842128E+03  0.00000000000E+00 0.  1.
<mgrwt>
<rscale>  0 0.17242770E+04</rscale>
<asrwt>0</asrwt>
<pdfrwt beam="1">  1        1 0.11906499E+00 0.17242770E+04</pdfrwt>
<pdfrwt beam="2">  1       -2 0.14775537E+00 0.17242770E+04</pdfrwt>
<totfact> 0.60441796E+00</totfact>
</mgrwt>
</event>
<event>
12    5  0.5221187E-008  0.1233534E+04  0.7818608E-02  0.9084000E-01
          1   -1    0    0  501    0  0.00000000000E+00  0.00000000000E+00  0.18742468359E+04  0.18742468359E+04  0.00000000000E+00 0. -1.
         -2   -1    0    0    0  501 -0.00000000000E+00 -0.00000000000E+00 -0.20296242584E+03  0.20296242584E+03  0.00000000000E+00 0.  1.
        -24    2    1    2    0    0  0.20479386344E+03  0.49563473068E+01  0.75209787192E+03  0.78390454678E+03  0.83006250570E+02 0.  0.
        254    2    1    2    0    0 -0.20479386344E+03 -0.49563473068E+01  0.91918653816E+03  0.12933047150E+04  0.88643561638E+03 0.  0.
         23    2    4    4    0    0  0.14012216561E+03 -0.14555771016E+03  0.88025540501E+03  0.90783595461E+03  0.92169811511E+02 0.  0.
         23    2    4    4    0    0 -0.34491602905E+03  0.14060136285E+03  0.38931133143E+02  0.38546876037E+03  0.91294697332E+02 0.  0.
          1    1    3    3  502    0  0.59462238089E+02  0.39835879840E+02  0.24263472288E+03  0.25297087545E+03  0.00000000000E+00 0. -1.
         -2    1    3    3    0  502  0.14533162535E+03 -0.34879532533E+02  0.50946314905E+03  0.53093367133E+03  0.00000000000E+00 0.  1.
         13    1    5    5    0    0  0.66427125339E+02 -0.61894929418E+02  0.58924890487E+03  0.59620283223E+03  0.00000000000E+00 0.  1.
        -13    1    5    5    0    0  0.73695040267E+02 -0.83662780743E+02  0.29100650015E+03  0.31163312239E+03  0.00000000000E+00 0. -1.
          1    1    6    6  503    0 -0.28136295438E+03  0.14791262126E+03  0.45692291463E+02  0.32114022035E+03  0.00000000000E+00 0. -1.
         -1    1    6    6    0  503 -0.63553074663E+02 -0.73112584079E+01 -0.67611583206E+01  0.64328540015E+02  0.00000000000E+00 0.  1.
<mgrwt>
<rscale>  0 0.12335342E+04</rscale>
<asrwt>0</asrwt>
<pdfrwt beam="1">  1        1 0.28834566E+00 0.12335342E+04</pdfrwt>
<pdfrwt beam="2">  1       -2 0.31224990E-01 0.12335342E+04</pdfrwt>
<totfact> 0.29936706E+01</totfact>
</mgrwt>
</event>
<event>
12    5  0.5221187E-008  0.1515540E+04  0.7818608E-02  0.8874184E-01
          1   -1    0    0  501    0  0.00000000000E+00  0.00000000000E+00  0.88795453997E+03  0.88795453997E+03  0.00000000000E+00 0. -1.
         -2   -1    0    0    0  501 -0.00000000000E+00 -0.00000000000E+00 -0.64667181699E+03  0.64667181699E+03  0.00000000000E+00 0.  1.
        -24    2    1    2    0    0 -0.44651750762E+03  0.84768254287E+02  0.22340012333E+03  0.51228839438E+03  0.77254400335E+02 0.  0.
        254    2    1    2    0    0  0.44651750762E+03 -0.84768254287E+02  0.17882599653E+02  0.10223379626E+04  0.91558264554E+03 0.  0.
         23    2    4    4    0    0  0.11097213109E+03  0.20862614227E+03  0.36810542688E+03  0.44686778979E+03  0.91375790750E+02 0.  0.
         23    2    4    4    0    0  0.33554537653E+03 -0.29339439656E+03 -0.35022282723E+03  0.57547017279E+03  0.99191327360E+02 0.  0.
          1    1    3    3  502    0 -0.19423228910E+02  0.94457104268E+01 -0.49512156681E+01  0.22158470239E+02  0.00000000000E+00 0. -1.
         -2    1    3    3    0  502 -0.42709427871E+03  0.75322543860E+02  0.22835133899E+03  0.49012992414E+03  0.00000000000E+00 0.  1.
         13    1    5    5    0    0  0.10437814056E+03  0.12056404017E+03  0.27935922728E+03  0.32167073519E+03  0.00000000000E+00 0.  1.
        -13    1    5    5    0    0  0.65939905319E+01  0.88062102102E+02  0.88746199595E+02  0.12519705460E+03  0.00000000000E+00 0. -1.
          1    1    6    6  503    0  0.68886916589E+02 -0.20977530838E+02 -0.83264811073E+02  0.11008402627E+03  0.00000000000E+00 0. -1.
         -1    1    6    6    0  503  0.26665845994E+03 -0.27241686572E+03 -0.26695801615E+03  0.46538614652E+03  0.00000000000E+00 0.  1.
<mgrwt>
<rscale>  0 0.15155397E+04</rscale>
<asrwt>0</asrwt>
<pdfrwt beam="1">  1        1 0.13660839E+00 0.15155397E+04</pdfrwt>
<pdfrwt beam="2">  1       -2 0.99487971E-01 0.15155397E+04</pdfrwt>
<totfact> 0.13179614E+01</totfact>
</mgrwt>
</event>
<event>
12    5  0.5221187E-008  0.1268465E+04  0.7818608E-02  0.9054954E-01
          1   -1    0    0  501    0  0.00000000000E+00  0.00000000000E+00  0.43565664438E+03  0.43565664438E+03  0.00000000000E+00 0. -1.
         -2   -1    0    0    0  501 -0.00000000000E+00 -0.00000000000E+00 -0.92332040952E+03  0.92332040952E+03  0.00000000000E+00 0.  1.
        -24    2    1    2    0    0 -0.22303239371E+03 -0.18026593107E+03  0.58227594311E+01  0.29829920501E+03  0.81910052099E+02 0.  0.
        254    2    1    2    0    0  0.22303239371E+03  0.18026593107E+03 -0.49348652457E+03  0.10606778489E+04  0.89401862098E+03 0.  0.
         23    2    4    4    0    0  0.45821198044E+03  0.12923416491E+03  0.21402239005E+02  0.48520558892E+03  0.91141205225E+02 0.  0.
         23    2    4    4    0    0 -0.23517958673E+03  0.51031766166E+02 -0.51488876358E+03  0.57547225998E+03  0.90245243504E+02 0.  0.
          1    1    3    3  502    0 -0.12175982753E+03 -0.12952506616E+03 -0.28276675534E+02  0.18000491311E+03  0.00000000000E+00 0. -1.
         -2    1    3    3    0  502 -0.10127256618E+03 -0.50740864915E+02  0.34099434965E+02  0.11829429191E+03  0.00000000000E+00 0.  1.
         13    1    5    5    0    0  0.89401645342E+02  0.64212613862E+02  0.10135966081E+02  0.11053801055E+03  0.00000000000E+00 0. -1.
        -13    1    5    5    0    0  0.36881033509E+03  0.65021551043E+02  0.11266272924E+02  0.37466757836E+03  0.00000000000E+00 0.  1.
          3    1    6    6  503    0 -0.14516343971E+03  0.55684360199E+02 -0.23801679902E+03  0.28429767642E+03  0.00000000000E+00 0. -1.
         -3    1    6    6    0  503 -0.90016147015E+02 -0.46525940332E+01 -0.27687196456E+03  0.29117458356E+03  0.00000000000E+00 0.  1.
<mgrwt>
<rscale>  0 0.12684647E+04</rscale>
<asrwt>0</asrwt>
<pdfrwt beam="1">  1        1 0.67024100E-01 0.12684647E+04</pdfrwt>
<pdfrwt beam="2">  1       -2 0.14204929E+00 0.12684647E+04</pdfrwt>
<totfact> 0.15911044E+01</totfact>
</mgrwt>
</event>
<event>
12    5  0.5221187E-008  0.1498032E+04  0.7818608E-02  0.8885763E-01
         -2   -1    0    0    0  501 -0.00000000000E+00  0.00000000000E+00  0.17063076920E+03  0.17063076920E+03  0.00000000000E+00 0.  1.
          1   -1    0    0  501    0  0.00000000000E+00 -0.00000000000E+00 -0.32879483364E+04  0.32879483364E+04  0.00000000000E+00 0. -1.
        -24    2    1    2    0    0 -0.49113188960E+03  0.13599250944E+03 -0.85605652808E+03  0.99923800259E+03  0.77066925062E+02 0.  0.
        254    2    1    2    0    0  0.49113188960E+03 -0.13599250944E+03 -0.22612610392E+04  0.24593411031E+04  0.82179844145E+03 0.  0.
         23    2    4    4    0    0  0.52216103176E+03 -0.41230329368E+03 -0.14839098178E+04  0.16287712025E+04  0.90890777847E+02 0.  0.
         23    2    4    4    0    0 -0.31029142159E+02  0.27631078424E+03 -0.77735122134E+03  0.83056990059E+03  0.90889940617E+02 0.  0.
          3    1    3    3  502    0 -0.44442835408E+03  0.14570350824E+03 -0.77740087510E+03  0.90724759291E+03  0.00000000000E+00 0. -1.
         -4    1    3    3    0  502 -0.46703535517E+02 -0.97109988015E+01 -0.78655652984E+02  0.91990409684E+02  0.00000000000E+00 0.  1.
         13    1    5    5    0    0  0.18681085537E+03 -0.17280697247E+03 -0.47338007309E+03  0.53744696391E+03  0.00000000000E+00 0. -1.
        -13    1    5    5    0    0  0.33535017639E+03 -0.23949632121E+03 -0.10105297447E+04  0.10913242386E+04  0.00000000000E+00 0.  1.
          2    1    6    6  503    0  0.86645912129E+01  0.19048249244E+03 -0.60018742194E+03  0.62974883607E+03  0.00000000000E+00 0. -1.
         -2    1    6    6    0  503 -0.39693733372E+02  0.85828291792E+02 -0.17716379939E+03  0.20082106452E+03  0.00000000000E+00 0.  1.
<mgrwt>
<rscale>  0 0.14980322E+04</rscale>
<asrwt>0</asrwt>
<pdfrwt beam="1">  1        1 0.50583818E+00 0.14980322E+04</pdfrwt>
<pdfrwt beam="2">  1       -2 0.26250889E-01 0.14980322E+04</pdfrwt>
<totfact> 0.41050122E+00</totfact>
</mgrwt>
</event>
<event>
12    5  0.5221187E-008  0.1567525E+04  0.7818608E-02  0.8840751E-01
         -2   -1    0    0    0  501 -0.00000000000E+00  0.00000000000E+00  0.47517945262E+03  0.47517945262E+03  0.00000000000E+00 0.  1.
          1   -1    0    0  501    0  0.00000000000E+00 -0.00000000000E+00 -0.12927400308E+04  0.12927400308E+04  0.00000000000E+00 0. -1.
        -24    2    1    2    0    0  0.14200000186E+03  0.20066747153E+02 -0.83588400645E+03  0.85194902402E+03  0.80922138022E+02 0.  0.
        254    2    1    2    0    0 -0.14200000186E+03 -0.20066747153E+02  0.18323428244E+02  0.91597045943E+03  0.90448850720E+03 0.  0.
         23    2    4    4    0    0 -0.45182701331E+03  0.22102911203E+03 -0.15276763666E+02  0.51141676260E+03  0.91171307067E+02 0.  0.
         23    2    4    4    0    0  0.30982701146E+03 -0.24109585918E+03  0.33600191910E+02  0.40455369683E+03  0.91731839516E+02 0.  0.
          3    1    3    3  502    0  0.29097217211E+02  0.34965801818E+02 -0.34741925253E+03  0.35038463490E+03  0.00000000000E+00 0. -1.
         -4    1    3    3    0  502  0.11290278465E+03 -0.14899054665E+02 -0.48846475392E+03  0.50156438912E+03  0.00000000000E+00 0.  1.
         13    1    5    5    0    0 -0.17857701459E+03  0.75927945108E+02 -0.49165224006E+02  0.20017997462E+03  0.00000000000E+00 0. -1.
        -13    1    5    5    0    0 -0.27324999873E+03  0.14510116692E+03  0.33888460340E+02  0.31123678798E+03  0.00000000000E+00 0.  1.
          4    1    6    6  503    0  0.15013506958E+03 -0.10428009534E+03  0.60512356408E+02  0.19255290878E+03  0.00000000000E+00 0. -1.
         -4    1    6    6    0  503  0.15969194187E+03 -0.13681576385E+03 -0.26912164498E+02  0.21200078805E+03  0.00000000000E+00 0.  1.
<mgrwt>
<rscale>  0 0.15675248E+04</rscale>
<asrwt>0</asrwt>
<pdfrwt beam="1">  1        1 0.19888308E+00 0.15675248E+04</pdfrwt>
<pdfrwt beam="2">  1       -2 0.73104532E-01 0.15675248E+04</pdfrwt>
<totfact> 0.13055980E+01</totfact>
</mgrwt>
</event>
<event>
12    5  0.5221187E-008  0.2066797E+04  0.7818608E-02  0.8576012E-01
          1   -1    0    0  501    0  0.00000000000E+00  0.00000000000E+00  0.18565265950E+04  0.18565265950E+04  0.00000000000E+00 0. -1.
         -2   -1    0    0    0  501 -0.00000000000E+00 -0.00000000000E+00 -0.57522049293E+03  0.57522049293E+03  0.00000000000E+00 0.  1.
        -24    2    1    2    0    0 -0.67715000870E+03 -0.90623703274E+02 -0.38614549462E+02  0.68870275746E+03  0.77946230344E+02 0.  0.
        254    2    1    2    0    0  0.67715000870E+03  0.90623703274E+02  0.13199206515E+04  0.17430443304E+04  0.91064165386E+03 0.  0.
         23    2    4    4    0    0  0.21090214176E+03  0.45902137658E+03  0.79046535381E+03  0.94194974869E+03  0.85167575555E+02 0.  0.
         23    2    4    4    0    0  0.46624786694E+03 -0.36839767331E+03  0.52945529768E+03  0.80109458174E+03  0.91245260266E+02 0.  0.
          1    1    3    3  502    0 -0.38155878961E+03 -0.56964925842E+02  0.16495005645E+02  0.38614012730E+03  0.00000000000E+00 0. -1.
         -2    1    3    3    0  502 -0.29559121909E+03 -0.33658777432E+02 -0.55109555107E+02  0.30256263016E+03  0.00000000000E+00 0.  1.
         13    1    5    5    0    0  0.18527864650E+03  0.37458176011E+03  0.70217524014E+03  0.81712284249E+03  0.00000000000E+00 0.  1.
        -13    1    5    5    0    0  0.25623495252E+02  0.84439616478E+02  0.88290113679E+02  0.12482690621E+03  0.00000000000E+00 0. -1.
          2    1    6    6  503    0  0.27401751894E+03 -0.24204675511E+03  0.27101755121E+03  0.45510739986E+03  0.00000000000E+00 0. -1.
         -2    1    6    6    0  503  0.19223034801E+03 -0.12635091820E+03  0.25843774646E+03  0.34598718187E+03  0.00000000000E+00 0.  1.
<mgrwt>
<rscale>  0 0.20667967E+04</rscale>
<asrwt>0</asrwt>
<pdfrwt beam="1">  1        1 0.28561947E+00 0.20667967E+04</pdfrwt>
<pdfrwt beam="2">  1       -2 0.88495461E-01 0.20667967E+04</pdfrwt>
<totfact> 0.33183995E+00</totfact>
</mgrwt>
</event>
<event>
12    5  0.5221187E-008  0.1934142E+04  0.7818608E-02  0.8638046E-01
         -2   -1    0    0    0  501 -0.00000000000E+00  0.00000000000E+00  0.27488374933E+03  0.27488374933E+03  0.00000000000E+00 0.  1.
          1   -1    0    0  501    0  0.00000000000E+00 -0.00000000000E+00 -0.34022607165E+04  0.34022607165E+04  0.00000000000E+00 0. -1.
        -24    2    1    2    0    0 -0.36316727111E+03 -0.23799173431E+03 -0.23228377566E+04  0.23644271534E+04  0.80062397668E+02 0.  0.
        254    2    1    2    0    0  0.36316727111E+03  0.23799173431E+03 -0.80453921048E+03  0.13127173124E+04  0.94202593845E+03 0.  0.
         23    2    4    4    0    0  0.52099888052E+03  0.15305416023E+03 -0.74671802230E+02  0.55586522393E+03  0.92438410090E+02 0.  0.
         23    2    4    4    0    0 -0.15783160941E+03  0.84937574074E+02 -0.72986740825E+03  0.75685208848E+03  0.89406050097E+02 0.  0.
          3    1    3    3  502    0 -0.26446892066E+03 -0.19694241672E+03 -0.18925131439E+04  0.19210247592E+04  0.00000000000E+00 0. -1.
         -4    1    3    3    0  502 -0.98698350447E+02 -0.41049317587E+02 -0.43032461274E+03  0.44340239421E+03  0.00000000000E+00 0.  1.
         13    1    5    5    0    0  0.25402034203E+03  0.44503943636E+02 -0.71607764762E+02  0.26764642186E+03  0.00000000000E+00 0.  1.
        -13    1    5    5    0    0  0.26697853850E+03  0.10855021660E+03 -0.30640374676E+01  0.28821880207E+03  0.00000000000E+00 0. -1.
          1    1    6    6  503    0 -0.31901761801E+02  0.28995824599E+01 -0.29522902578E+03  0.29696179493E+03  0.00000000000E+00 0. -1.
         -1    1    6    6    0  503 -0.12592984761E+03  0.82037991615E+02 -0.43463838247E+03  0.45989029355E+03  0.00000000000E+00 0.  1.
<mgrwt>
<rscale>  0 0.19341419E+04</rscale>
<asrwt>0</asrwt>
<pdfrwt beam="1">  1        1 0.52342475E+00 0.19341419E+04</pdfrwt>
<pdfrwt beam="2">  1       -2 0.42289805E-01 0.19341419E+04</pdfrwt>
<totfact> 0.13000772E+00</totfact>
</mgrwt>
</event>
<event>
12    5  0.5221187E-008  0.1871267E+04  0.7818608E-02  0.8669292E-01
         -2   -1    0    0    0  501 -0.00000000000E+00  0.00000000000E+00  0.45261703397E+03  0.45261703397E+03  0.00000000000E+00 0.  1.
          1   -1    0    0  501    0  0.00000000000E+00 -0.00000000000E+00 -0.19341075431E+04  0.19341075431E+04  0.00000000000E+00 0. -1.
        -24    2    1    2    0    0 -0.13776946281E+03  0.18476394002E+03  0.29700847880E+03  0.38446083191E+03  0.80485752614E+02 0.  0.
        254    2    1    2    0    0  0.13776946281E+03 -0.18476394002E+03 -0.17784989879E+04  0.20022637451E+04  0.89043995682E+03 0.  0.
         23    2    4    4    0    0 -0.32600805260E+03 -0.25416331586E+03 -0.64184344531E+03  0.76880279186E+03  0.90633785108E+02 0.  0.
         23    2    4    4    0    0  0.46377751541E+03  0.69399375838E+02 -0.11366555426E+04  0.12334609533E+04  0.97643451308E+02 0.  0.
          1    1    3    3  502    0 -0.70729984006E+01 -0.80345358893E+01  0.18673465119E+02  0.21523925592E+02  0.00000000000E+00 0. -1.
         -2    1    3    3    0  502 -0.13069646441E+03  0.19279847591E+03  0.27833501369E+03  0.36293690631E+03  0.00000000000E+00 0.  1.
         13    1    5    5    0    0 -0.11479352554E+03 -0.12349939012E+03 -0.19684000295E+03  0.25918263759E+03  0.00000000000E+00 0. -1.
        -13    1    5    5    0    0 -0.21121452705E+03 -0.13066392573E+03 -0.44500344236E+03  0.50962015427E+03  0.00000000000E+00 0.  1.
          4    1    6    6  503    0  0.20467301956E+03  0.64771686170E+02 -0.60616400974E+03  0.64305615849E+03  0.00000000000E+00 0. -1.
         -4    1    6    6    0  503  0.25910449584E+03  0.46276896678E+01 -0.53049153287E+03  0.59040479480E+03  0.00000000000E+00 0.  1.
<mgrwt>
<rscale>  0 0.18712670E+04</rscale>
<asrwt>0</asrwt>
<pdfrwt beam="1">  1        1 0.29755501E+00 0.18712670E+04</pdfrwt>
<pdfrwt beam="2">  1       -2 0.69633389E-01 0.18712670E+04</pdfrwt>
<totfact> 0.51153614E+00</totfact>
</mgrwt>
</event>
<event>
12    5  0.5221187E-008  0.1590962E+04  0.7818608E-02  0.8826120E-01
         -2   -1    0    0    0  501 -0.00000000000E+00  0.00000000000E+00  0.30499598320E+03  0.30499598320E+03  0.00000000000E+00 0.  1.
          1   -1    0    0  501    0  0.00000000000E+00 -0.00000000000E+00 -0.20747474119E+04  0.20747474119E+04  0.00000000000E+00 0. -1.
        -24    2    1    2    0    0  0.20551107084E+03 -0.80541818588E+02 -0.13350951483E+04  0.13555419642E+04  0.79329547783E+02 0.  0.
        254    2    1    2    0    0 -0.20551107084E+03  0.80541818588E+02 -0.43465628044E+03  0.10242014309E+04  0.90074452764E+03 0.  0.
         23    2    4    4    0    0 -0.21618929333E+03  0.45974174546E+03 -0.35477108887E+03  0.62636155277E+03  0.91465765266E+02 0.  0.
         23    2    4    4    0    0  0.10678222481E+02 -0.37919992688E+03 -0.79885191565E+02  0.39783987809E+03  0.89377378509E+02 0.  0.
          3    1    3    3  502    0  0.20615446365E+03 -0.89601040112E+02 -0.12593001359E+04  0.12792047692E+04  0.00000000000E+00 0. -1.
         -4    1    3    3    0  502 -0.64339280671E+00  0.90592215238E+01 -0.75795012363E+02  0.76337195050E+02  0.00000000000E+00 0.  1.
         13    1    5    5    0    0 -0.29922878330E+02  0.22281708056E+02 -0.87596480187E+01  0.38322116262E+02  0.00000000000E+00 0.  1.
        -13    1    5    5    0    0 -0.18626641500E+03  0.43746003741E+03 -0.34601144085E+03  0.58803943651E+03  0.00000000000E+00 0. -1.
          3    1    6    6  503    0  0.42778057130E+01 -0.79307514363E+02  0.19611396668E+02  0.81808241244E+02  0.00000000000E+00 0.  1.
         -3    1    6    6    0  503  0.64004167682E+01 -0.29989241251E+03 -0.99496588233E+02  0.31603163685E+03  0.00000000000E+00 0. -1.
<mgrwt>
<rscale>  0 0.15909615E+04</rscale>
<asrwt>0</asrwt>
<pdfrwt beam="1">  1        1 0.31919192E+00 0.15909615E+04</pdfrwt>
<pdfrwt beam="2">  1       -2 0.46922458E-01 0.15909615E+04</pdfrwt>
<totfact> 0.96289812E+00</totfact>
</mgrwt>
</event>
<event>
12    5  0.5221187E-008  0.1788722E+04  0.7818608E-02  0.8712320E-01
         -2   -1    0    0    0  501 -0.00000000000E+00  0.00000000000E+00  0.44065229509E+03  0.44065229509E+03  0.00000000000E+00 0.  1.
          1   -1    0    0  501    0  0.00000000000E+00 -0.00000000000E+00 -0.18152212075E+04  0.18152212075E+04  0.00000000000E+00 0. -1.
        -24    2    1    2    0    0  0.31930429110E+03 -0.42419534863E+03 -0.10157801674E+04  0.11489456955E+04  0.79811894630E+02 0.  0.
        254    2    1    2    0    0 -0.31930429110E+03  0.42419534863E+03 -0.35878874496E+03  0.11069278071E+04  0.90258677281E+03 0.  0.
         23    2    4    4    0    0 -0.52596327277E+03  0.32277421173E+03 -0.51994573707E+03  0.81206175006E+03  0.90995386490E+02 0.  0.
         23    2    4    4    0    0  0.20665898167E+03  0.10142113690E+03  0.16115699211E+03  0.29486605701E+03  0.89332154092E+02 0.  0.
          3    1    3    3  502    0  0.31435316003E+03 -0.42476167331E+03 -0.98528502693E+03  0.11180460512E+04  0.00000000000E+00 0. -1.
         -4    1    3    3    0  502  0.49511310699E+01  0.56632467634E+00 -0.30495140504E+02  0.30899644283E+02  0.00000000000E+00 0.  1.
         13    1    5    5    0    0 -0.32943877054E+03  0.23914309001E+03 -0.37873908507E+03  0.55602393437E+03  0.00000000000E+00 0.  1.
        -13    1    5    5    0    0 -0.19652450223E+03  0.83631121718E+02 -0.14120665200E+03  0.25603781569E+03  0.00000000000E+00 0. -1.
          1    1    6    6  503    0  0.66558936278E+02  0.36278420816E+02  0.62212623762E+01  0.76058661051E+02  0.00000000000E+00 0. -1.
         -1    1    6    6    0  503  0.14010004539E+03  0.65142716085E+02  0.15493572973E+03  0.21880739596E+03  0.00000000000E+00 0.  1.
<mgrwt>
<rscale>  0 0.17887218E+04</rscale>
<asrwt>0</asrwt>
<pdfrwt beam="1">  1        1 0.27926480E+00 0.17887218E+04</pdfrwt>
<pdfrwt beam="2">  1       -2 0.67792662E-01 0.17887218E+04</pdfrwt>
<totfact> 0.65753607E+00</totfact>
</mgrwt>
</event>
<event>
12    5  0.5221187E-008  0.1183781E+04  0.7818608E-02  0.9127173E-01
         -2   -1    0    0    0  501 -0.00000000000E+00  0.00000000000E+00  0.83264132644E+03  0.83264132644E+03  0.00000000000E+00 0.  1.
          1   -1    0    0  501    0  0.00000000000E+00 -0.00000000000E+00 -0.42075045593E+03  0.42075045593E+03  0.00000000000E+00 0. -1.
        -24    2    1    2    0    0 -0.15107598330E+03 -0.12914849928E+03 -0.45281896923E+02  0.21885605263E+03  0.79650699878E+02 0.  0.
        254    2    1    2    0    0  0.15107598330E+03  0.12914849928E+03  0.45717276743E+03  0.10345357297E+04  0.90650645294E+03 0.  0.
         23    2    4    4    0    0  0.11475768601E+03 -0.36183629058E+03  0.34491631745E+03  0.52073882337E+03  0.90037927809E+02 0.  0.
         23    2    4    4    0    0  0.36318297291E+02  0.49098478985E+03  0.11225644999E+03  0.51379690636E+03  0.94871849560E+02 0.  0.
          3    1    3    3  502    0  0.60380708809E+01 -0.13886408643E+02 -0.15614932162E+02  0.21751247123E+02  0.00000000000E+00 0. -1.
         -4    1    3    3    0  502 -0.15711405418E+03 -0.11526209063E+03 -0.29666964761E+02  0.19710480551E+03  0.00000000000E+00 0.  1.
         13    1    5    5    0    0  0.77177118116E+02 -0.19460243166E+03  0.13235063270E+03  0.24767540037E+03  0.00000000000E+00 0.  1.
        -13    1    5    5    0    0  0.37580567892E+02 -0.16723385891E+03  0.21256568474E+03  0.27306342300E+03  0.00000000000E+00 0. -1.
          1    1    6    6  503    0 -0.34584223079E+01  0.32611576358E+03  0.36917622541E+02  0.32821694471E+03  0.00000000000E+00 0. -1.
         -1    1    6    6    0  503  0.39776719599E+02  0.16486902628E+03  0.75338827447E+02  0.18557996166E+03  0.00000000000E+00 0.  1.
<mgrwt>
<rscale>  0 0.11837808E+04</rscale>
<asrwt>0</asrwt>
<pdfrwt beam="1">  1        1 0.64730839E-01 0.11837808E+04</pdfrwt>
<pdfrwt beam="2">  1       -2 0.12809867E+00 0.11837808E+04</pdfrwt>
<totfact> 0.21872064E+01</totfact>
</mgrwt>
</event>
<event>
12    5  0.5221187E-008  0.1546175E+04  0.7818608E-02  0.8854315E-01
         -2   -1    0    0    0  501 -0.00000000000E+00  0.00000000000E+00  0.20048894531E+03  0.20048894531E+03  0.00000000000E+00 0.  1.
          1   -1    0    0  501    0  0.00000000000E+00 -0.00000000000E+00 -0.29810318931E+04  0.29810318931E+04  0.00000000000E+00 0. -1.
        -24    2    1    2    0    0  0.37173651069E+03 -0.22912501772E+03 -0.14340506975E+04  0.15011424261E+04  0.78999197484E+02 0.  0.
        254    2    1    2    0    0 -0.37173651069E+03  0.22912501772E+03 -0.13464922503E+04  0.16803784123E+04  0.90550754906E+03 0.  0.
         23    2    4    4    0    0 -0.60595826758E+03  0.14791793993E+03 -0.53551019573E+03  0.82712510315E+03  0.91102291534E+02 0.  0.
         23    2    4    4    0    0  0.23422175688E+03  0.81207077792E+02 -0.81098205452E+03  0.85325330915E+03  0.94312755999E+02 0.  0.
          1    1    3    3  502    0  0.35676161597E+03 -0.23462237563E+03 -0.13628200017E+04  0.14281473548E+04  0.00000000000E+00 0. -1.
         -2    1    3    3    0  502  0.14974894726E+02  0.54973579040E+01 -0.71230695768E+02  0.72995071310E+02  0.00000000000E+00 0.  1.
         13    1    5    5    0    0 -0.12229981211E+03  0.34266878627E+02 -0.16036659632E+03  0.20457005702E+03  0.00000000000E+00 0. -1.
        -13    1    5    5    0    0 -0.48365845546E+03  0.11365106130E+03 -0.37514359941E+03  0.62255504612E+03  0.00000000000E+00 0.  1.
          2    1    6    6  503    0  0.63695897855E+02  0.61460288604E+02 -0.35951583828E+03  0.37025149892E+03  0.00000000000E+00 0. -1.
         -2    1    6    6    0  503  0.17052585903E+03  0.19746789188E+02 -0.45146621624E+03  0.48300181023E+03  0.00000000000E+00 0.  1.
<mgrwt>
<rscale>  0 0.15461746E+04</rscale>
<asrwt>0</asrwt>
<pdfrwt beam="1">  1        1 0.45862028E+00 0.15461746E+04</pdfrwt>
<pdfrwt beam="2">  1       -2 0.30844454E-01 0.15461746E+04</pdfrwt>
<totfact> 0.51121515E+00</totfact>
</mgrwt>
</event>
<event>
12    5  0.5221187E-008  0.1155449E+04  0.7818608E-02  0.9152771E-01
         -2   -1    0    0    0  501 -0.00000000000E+00  0.00000000000E+00  0.26469913647E+03  0.26469913647E+03  0.00000000000E+00 0.  1.
          1   -1    0    0  501    0  0.00000000000E+00 -0.00000000000E+00 -0.12609248909E+04  0.12609248909E+04  0.00000000000E+00 0. -1.
        -24    2    1    2    0    0  0.56455626102E+01  0.67745248382E+01  0.96904378089E+02  0.12575953300E+03  0.79669536728E+02 0.  0.
        254    2    1    2    0    0 -0.56455626102E+01 -0.67745248382E+01 -0.10931301325E+04  0.13998644944E+04  0.87441943565E+03 0.  0.
         23    2    4    4    0    0  0.25849528114E+03 -0.13867445027E+03 -0.49623387039E+02  0.31158114034E+03  0.92573824305E+02 0.  0.
         23    2    4    4    0    0 -0.26414084375E+03  0.13189992543E+03 -0.10435067455E+04  0.10882833540E+04  0.91029419163E+02 0.  0.
          3    1    3    3  502    0  0.55867106492E+01 -0.36400234146E+02  0.40727889932E+02  0.54908554890E+02  0.00000000000E+00 0. -1.
         -4    1    3    3    0  502  0.58851961012E-01  0.43174758984E+02  0.56176488157E+02  0.70850978105E+02  0.00000000000E+00 0.  1.
         13    1    5    5    0    0  0.48459886565E+02  0.88453303336E+01  0.38293718811E+01  0.49409154654E+02  0.00000000000E+00 0. -1.
        -13    1    5    5    0    0  0.21003539457E+03 -0.14751978060E+03 -0.53452758921E+02  0.26217198569E+03  0.00000000000E+00 0.  1.
          1    1    6    6  503    0 -0.20879376785E+02 -0.12618364258E+02 -0.11774920606E+03  0.12024993563E+03  0.00000000000E+00 0. -1.
         -1    1    6    6    0  503 -0.24326146696E+03  0.14451828969E+03 -0.92575753943E+03  0.96803341842E+03  0.00000000000E+00 0.  1.
<mgrwt>
<rscale>  0 0.11554492E+04</rscale>
<asrwt>0</asrwt>
<pdfrwt beam="1">  1        1 0.19398844E+00 0.11554492E+04</pdfrwt>
<pdfrwt beam="2">  1       -2 0.40722944E-01 0.11554492E+04</pdfrwt>
<totfact> 0.47966205E+01</totfact>
</mgrwt>
</event>
<event>
12    5  0.5221187E-008  0.1473940E+04  0.7818608E-02  0.8901970E-01
          1   -1    0    0  501    0  0.00000000000E+00  0.00000000000E+00  0.91078029464E+03  0.91078029464E+03  0.00000000000E+00 0. -1.
         -2   -1    0    0    0  501 -0.00000000000E+00 -0.00000000000E+00 -0.59632888868E+03  0.59632888868E+03  0.00000000000E+00 0.  1.
        -24    2    1    2    0    0 -0.36065354046E+03  0.13972050099E+03 -0.15810524295E+03  0.42563633314E+03  0.81093930730E+02 0.  0.
        254    2    1    2    0    0  0.36065354046E+03 -0.13972050099E+03  0.47255664891E+03  0.10814728502E+04  0.89256985419E+03 0.  0.
         23    2    4    4    0    0  0.15988551796E+03  0.30813627002E+03 -0.44190505872E+02  0.36308544215E+03  0.96782734715E+02 0.  0.
         23    2    4    4    0    0  0.20076802250E+03 -0.44785677101E+03  0.51674715478E+03  0.71838740803E+03  0.90384511064E+02 0.  0.
          1    1    3    3  502    0 -0.53595061656E+02 -0.69494693715E+01 -0.31527185756E+02  0.62567477176E+02  0.00000000000E+00 0. -1.
         -2    1    3    3    0  502 -0.30705847880E+03  0.14666997036E+03 -0.12657805719E+03  0.36306885597E+03  0.00000000000E+00 0.  1.
         13    1    5    5    0    0  0.11882895575E+03  0.29204469351E+03 -0.47553079106E+02  0.31886003052E+03  0.00000000000E+00 0. -1.
        -13    1    5    5    0    0  0.41056562209E+02  0.16091576508E+02  0.33625732346E+01  0.44225411629E+02  0.00000000000E+00 0.  1.
          1    1    6    6  503    0  0.45043126923E+02 -0.71186511404E+02  0.47015095172E+02  0.96471870838E+02  0.00000000000E+00 0.  1.
         -1    1    6    6    0  503  0.15572489558E+03 -0.37667025961E+03  0.46973205960E+03  0.62191553719E+03  0.00000000000E+00 0. -1.
<mgrwt>
<rscale>  0 0.14739398E+04</rscale>
<asrwt>0</asrwt>
<pdfrwt beam="1">  1        1 0.14012005E+00 0.14739398E+04</pdfrwt>
<pdfrwt beam="2">  1       -2 0.91742906E-01 0.14739398E+04</pdfrwt>
<totfact> 0.15314547E+01</totfact>
</mgrwt>
</event>
<event>
12    5  0.5221187E-008  0.1516238E+04  0.7818608E-02  0.8873726E-01
         -2   -1    0    0    0  501 -0.00000000000E+00  0.00000000000E+00  0.24604679661E+03  0.24604679661E+03  0.00000000000E+00 0.  1.
          1   -1    0    0  501    0  0.00000000000E+00 -0.00000000000E+00 -0.23359147092E+04  0.23359147092E+04  0.00000000000E+00 0. -1.
        -24    2    1    2    0    0  0.59357458193E+02  0.12030856375E+03  0.12022437645E+03  0.19630623438E+03  0.78004990931E+02 0.  0.
        254    2    1    2    0    0 -0.59357458193E+02 -0.12030856375E+03 -0.22100922890E+04  0.23856552714E+04  0.88816985409E+03 0.  0.
         23    2    4    4    0    0 -0.20723798460E+03 -0.44937288239E+03 -0.99365082397E+03  0.11135884835E+04  0.88621559677E+02 0.  0.
         23    2    4    4    0    0  0.14788052640E+03  0.32906431865E+03 -0.12164414650E+04  0.12720667880E+04  0.90951081523E+02 0.  0.
          1    1    3    3  502    0  0.76613654623E+01  0.36335792553E+02 -0.43923293210E+01  0.37393567603E+02  0.00000000000E+00 0. -1.
         -2    1    3    3    0  502  0.51696092731E+02  0.83972771194E+02  0.12461670577E+03  0.15891266678E+03  0.00000000000E+00 0.  1.
         13    1    5    5    0    0 -0.17041818893E+03 -0.31672893179E+03 -0.78692032252E+03  0.86521856738E+03  0.00000000000E+00 0. -1.
        -13    1    5    5    0    0 -0.36819795667E+02 -0.13264395060E+03 -0.20673050145E+03  0.24836991608E+03  0.00000000000E+00 0.  1.
          1    1    6    6  503    0  0.81822086310E+02  0.27391177074E+03 -0.92074290592E+03  0.96410062273E+03  0.00000000000E+00 0. -1.
         -1    1    6    6    0  503  0.66058440094E+02  0.55152547905E+02 -0.29569855913E+03  0.30796616522E+03  0.00000000000E+00 0.  1.
<mgrwt>
<rscale>  0 0.15162379E+04</rscale>
<asrwt>0</asrwt>
<pdfrwt beam="1">  1        1 0.35937149E+00 0.15162379E+04</pdfrwt>
<pdfrwt beam="2">  1       -2 0.37853354E-01 0.15162379E+04</pdfrwt>
<totfact> 0.98413155E+00</totfact>
</mgrwt>
</event>
<event>
12    5  0.5221187E-008  0.1544263E+04  0.7818608E-02  0.8855541E-01
          1   -1    0    0  501    0  0.00000000000E+00  0.00000000000E+00  0.59018347585E+03  0.59018347585E+03  0.00000000000E+00 0. -1.
         -2   -1    0    0    0  501 -0.00000000000E+00 -0.00000000000E+00 -0.10101719884E+04  0.10101719884E+04  0.00000000000E+00 0.  1.
        -24    2    1    2    0    0  0.33673717678E+03 -0.84503586554E+02 -0.50285204016E+03  0.61641943925E+03  0.81117004555E+02 0.  0.
        254    2    1    2    0    0 -0.33673717678E+03  0.84503586554E+02  0.82863527641E+02  0.98393602497E+03  0.91691382073E+03 0.  0.
         23    2    4    4    0    0 -0.32553360708E+03 -0.29755392306E+03 -0.20739850543E+03  0.49523048803E+03  0.87912625684E+02 0.  0.
         23    2    4    4    0    0 -0.11203569701E+02  0.38205750961E+03  0.29026203307E+03  0.48870553694E+03  0.92128135580E+02 0.  0.
          1    1    3    3  502    0  0.14414446324E+03  0.25333160400E+01 -0.18135649458E+03  0.23167697792E+03  0.00000000000E+00 0. -1.
         -4    1    3    3    0  502  0.19259271354E+03 -0.87036902594E+02 -0.32149554559E+03  0.38474246133E+03  0.00000000000E+00 0.  1.
         13    1    5    5    0    0 -0.28324256958E+03 -0.28984050120E+03 -0.19879040021E+03  0.45138840545E+03  0.00000000000E+00 0. -1.
        -13    1    5    5    0    0 -0.42291037495E+02 -0.77134218542E+01 -0.86081052196E+01  0.43842082576E+02  0.00000000000E+00 0.  1.
          2    1    6    6  503    0  0.17039329783E+02  0.33253693221E+03  0.26828675137E+03  0.42760838509E+03  0.00000000000E+00 0. -1.
         -2    1    6    6    0  503 -0.28242899484E+02  0.49520577402E+02  0.21975281705E+02  0.61097151845E+02  0.00000000000E+00 0.  1.
<mgrwt>
<rscale>  0 0.15442627E+04</rscale>
<asrwt>0</asrwt>
<pdfrwt beam="1">  1        1 0.90797458E-01 0.15442627E+04</pdfrwt>
<pdfrwt beam="2">  1       -2 0.15541107E+00 0.15442627E+04</pdfrwt>
<totfact> 0.80581047E+00</totfact>
</mgrwt>
</event>
<event>
12    5  0.5221187E-008  0.1826108E+04  0.7818608E-02  0.8692538E-01
         -2   -1    0    0    0  501 -0.00000000000E+00  0.00000000000E+00  0.91817349237E+03  0.91817349237E+03  0.00000000000E+00 0.  1.
          1   -1    0    0  501    0  0.00000000000E+00 -0.00000000000E+00 -0.90796267155E+03  0.90796267155E+03  0.00000000000E+00 0. -1.
        -24    2    1    2    0    0 -0.46642883206E+03 -0.38409216623E+03  0.33885137394E+03  0.69729509779E+03  0.79483031185E+02 0.  0.
        254    2    1    2    0    0  0.46642883206E+03  0.38409216623E+03 -0.32864055313E+03  0.11288410661E+04  0.89509490665E+03 0.  0.
         23    2    4    4    0    0  0.55142885890E+03 -0.51936116316E+02  0.13097906127E+02  0.56131088301E+03  0.90151015740E+02 0.  0.
         23    2    4    4    0    0 -0.85000026845E+02  0.43602828254E+03 -0.34173845926E+03  0.56753018312E+03  0.89216962964E+02 0.  0.
          1    1    3    3  502    0 -0.30383018398E+03 -0.24240487737E+03  0.26017698398E+03  0.46772317482E+03  0.00000000000E+00 0. -1.
         -2    1    3    3    0  502 -0.16259864808E+03 -0.14168728885E+03  0.78674389964E+02  0.22957192297E+03  0.00000000000E+00 0.  1.
         13    1    5    5    0    0  0.21661351873E+02  0.16169330430E+02  0.64689923122E+00  0.27038489051E+02  0.00000000000E+00 0. -1.
        -13    1    5    5    0    0  0.52976750703E+03 -0.68105446746E+02  0.12451006895E+02  0.53427239396E+03  0.00000000000E+00 0.  1.
          4    1    6    6  503    0  0.24486573976E+01  0.12770387487E+02  0.44868947383E+01  0.13755396905E+02  0.00000000000E+00 0. -1.
         -4    1    6    6    0  503 -0.87448684243E+02  0.42325789505E+03 -0.34622535399E+03  0.55377478622E+03  0.00000000000E+00 0.  1.
<mgrwt>
<rscale>  0 0.18261076E+04</rscale>
<asrwt>0</asrwt>
<pdfrwt beam="1">  1        1 0.13968656E+00 0.18261076E+04</pdfrwt>
<pdfrwt beam="2">  1       -2 0.14125746E+00 0.18261076E+04</pdfrwt>
<totfact> 0.51888463E+00</totfact>
</mgrwt>
</event>
<event>
12    5  0.5221187E-008  0.1460834E+04  0.7818608E-02  0.8910924E-01
         -2   -1    0    0    0  501 -0.00000000000E+00  0.00000000000E+00  0.60625186538E+03  0.60625186538E+03  0.00000000000E+00 0.  1.
          1   -1    0    0  501    0  0.00000000000E+00 -0.00000000000E+00 -0.88001182136E+03  0.88001182136E+03  0.00000000000E+00 0. -1.
        -24    2    1    2    0    0 -0.26869364053E+03 -0.21716620757E+03  0.19155771252E+03  0.40297086595E+03  0.79584718454E+02 0.  0.
        254    2    1    2    0    0  0.26869364053E+03  0.21716620757E+03 -0.46531766850E+03  0.10832928208E+04  0.91522968088E+03 0.  0.
         23    2    4    4    0    0  0.39923136658E+03 -0.61416793151E+02 -0.60557851214E+03  0.73331439373E+03  0.88695880096E+02 0.  0.
         23    2    4    4    0    0 -0.13053772605E+03  0.27858300072E+03  0.14026084364E+03  0.34997842705E+03  0.90350478293E+02 0.  0.
          1    1    3    3  502    0 -0.19544027781E+03 -0.16638149815E+03  0.10077750783E+03  0.27574591783E+03  0.00000000000E+00 0. -1.
         -2    1    3    3    0  502 -0.73253362720E+02 -0.50784709412E+02  0.90780204692E+02  0.12722494812E+03  0.00000000000E+00 0.  1.
         13    1    5    5    0    0  0.20982505028E+03 -0.74083565247E+02 -0.29880231509E+03  0.37255570036E+03  0.00000000000E+00 0. -1.
        -13    1    5    5    0    0  0.18940631631E+03  0.12666772096E+02 -0.30677619705E+03  0.36075869338E+03  0.00000000000E+00 0.  1.
          3    1    6    6  503    0 -0.63464760445E+02  0.14542845184E+03  0.23072736879E+02  0.16034201448E+03  0.00000000000E+00 0. -1.
         -3    1    6    6    0  503 -0.67072965608E+02  0.13315454888E+03  0.11718810676E+03  0.18963641256E+03  0.00000000000E+00 0.  1.
<mgrwt>
<rscale>  0 0.14608337E+04</rscale>
<asrwt>0</asrwt>
<pdfrwt beam="1">  1        1 0.13538643E+00 0.14608337E+04</pdfrwt>
<pdfrwt beam="2">  1       -2 0.93269518E-01 0.14608337E+04</pdfrwt>
<totfact> 0.15638281E+01</totfact>
</mgrwt>
</event>
<event>
12    5  0.5221187E-008  0.1723148E+04  0.7818608E-02  0.8748271E-01
         -2   -1    0    0    0  501 -0.00000000000E+00  0.00000000000E+00  0.14471528143E+04  0.14471528143E+04  0.00000000000E+00 0.  1.
          1   -1    0    0  501    0  0.00000000000E+00 -0.00000000000E+00 -0.51294505162E+03  0.51294505162E+03  0.00000000000E+00 0. -1.
        -24    2    1    2    0    0 -0.96302211027E+02  0.10490143041E+03 -0.34955446399E+03  0.38653090730E+03  0.83303019482E+02 0.  0.
        254    2    1    2    0    0  0.96302211027E+02 -0.10490143041E+03  0.12837622267E+04  0.15735669586E+04  0.89877087885E+03 0.  0.
         23    2    4    4    0    0  0.35429628073E+03 -0.34593424592E+03  0.49974861654E+03  0.70909486459E+03  0.88715783305E+02 0.  0.
         23    2    4    4    0    0 -0.25799406970E+03  0.24103281551E+03  0.78401361013E+03  0.86447209403E+03  0.89313505915E+02 0.  0.
          3    1    3    3  502    0 -0.37662429613E+02  0.77680624628E+02 -0.27302989167E+03  0.28635303350E+03  0.00000000000E+00 0. -1.
         -4    1    3    3    0  502 -0.58639781414E+02  0.27220805785E+02 -0.76524572314E+02  0.10017787380E+03  0.00000000000E+00 0.  1.
         13    1    5    5    0    0  0.78235448458E+02 -0.10262593100E+03  0.84443017535E+02  0.15421896874E+03  0.00000000000E+00 0. -1.
        -13    1    5    5    0    0  0.27606083227E+03 -0.24330831492E+03  0.41530559901E+03  0.55487589585E+03  0.00000000000E+00 0.  1.
          2    1    6    6  503    0 -0.10142889640E+03  0.12205453693E+03  0.44634473992E+03  0.47371801513E+03  0.00000000000E+00 0. -1.
         -2    1    6    6    0  503 -0.15656517331E+03  0.11897827858E+03  0.33766887021E+03  0.39075407890E+03  0.00000000000E+00 0.  1.
<mgrwt>
<rscale>  0 0.17231481E+04</rscale>
<asrwt>0</asrwt>
<pdfrwt beam="1">  1        1 0.78914624E-01 0.17231481E+04</pdfrwt>
<pdfrwt beam="2">  1       -2 0.22263889E+00 0.17231481E+04</pdfrwt>
<totfact> 0.33789636E+00</totfact>
</mgrwt>
</event>
<event>
12    5  0.5221187E-008  0.1921749E+04  0.7818608E-02  0.8644106E-01
         -2   -1    0    0    0  501 -0.00000000000E+00  0.00000000000E+00  0.80247837564E+03  0.80247837564E+03  0.00000000000E+00 0.  1.
          1   -1    0    0  501    0  0.00000000000E+00 -0.00000000000E+00 -0.11505349779E+04  0.11505349779E+04  0.00000000000E+00 0. -1.
        -24    2    1    2    0    0  0.34146471737E+03  0.85584432107E+02 -0.80499133275E+03  0.88219120691E+03  0.79545154010E+02 0.  0.
        254    2    1    2    0    0 -0.34146471737E+03 -0.85584432107E+02  0.45693473048E+03  0.10708221466E+04  0.90219059715E+03 0.  0.
         23    2    4    4    0    0 -0.10864161323E+03  0.14518103270E+03 -0.22762263123E+03  0.30512945414E+03  0.91713625794E+02 0.  0.
         23    2    4    4    0    0 -0.23282310414E+03 -0.23076546480E+03  0.68455736171E+03  0.76569269250E+03  0.10103078891E+03 0.  0.
          1    1    3    3  502    0  0.29658407317E+03  0.81634735803E+02 -0.62435811518E+03  0.69602399279E+03  0.00000000000E+00 0. -1.
         -2    1    3    3    0  502  0.44880644193E+02  0.39496963043E+01 -0.18063321757E+03  0.18616721413E+03  0.00000000000E+00 0.  1.
         13    1    5    5    0    0 -0.10899934816E+03  0.79617829772E+02 -0.17530198446E+03  0.22124792083E+03  0.00000000000E+00 0. -1.
        -13    1    5    5    0    0  0.35773492661E+00  0.65563202926E+02 -0.52320646770E+02  0.83881533311E+02  0.00000000000E+00 0.  1.
          2    1    6    6  503    0 -0.24216630045E+03 -0.21113468057E+03  0.64047741398E+03  0.71654287257E+03  0.00000000000E+00 0. -1.
         -2    1    6    6    0  503  0.93431963132E+01 -0.19630784240E+02  0.44079947726E+02  0.49149819926E+02  0.00000000000E+00 0.  1.
<mgrwt>
<rscale>  0 0.19217486E+04</rscale>
<asrwt>0</asrwt>
<pdfrwt beam="1">  1        1 0.17700538E+00 0.19217486E+04</pdfrwt>
<pdfrwt beam="2">  1       -2 0.12345821E+00 0.19217486E+04</pdfrwt>
<totfact> 0.47085009E+00</totfact>
</mgrwt>
</event>
<event>
12    5  0.5221187E-008  0.2249367E+04  0.7818608E-02  0.8498157E-01
         -2   -1    0    0    0  501 -0.00000000000E+00  0.00000000000E+00  0.13372030168E+04  0.13372030168E+04  0.00000000000E+00 0.  1.
          1   -1    0    0  501    0  0.00000000000E+00 -0.00000000000E+00 -0.94593946963E+03  0.94593946963E+03  0.00000000000E+00 0. -1.
        -24    2    1    2    0    0  0.51176918266E+02 -0.50287511881E+03  0.97089684831E+03  0.10975700945E+04  0.80727691121E+02 0.  0.
        254    2    1    2    0    0 -0.51176918266E+02  0.50287511881E+03 -0.57963330113E+03  0.11855723920E+04  0.90227749099E+03 0.  0.
         23    2    4    4    0    0  0.79889008037E+02  0.59771211285E+03 -0.72722027929E+03  0.94874013912E+03  0.87272524417E+02 0.  0.
         23    2    4    4    0    0 -0.13106592630E+03 -0.94836994041E+02  0.14758697815E+03  0.23683225285E+03  0.90195717166E+02 0.  0.
          1    1    3    3  502    0  0.24791561887E+02 -0.84304176072E+02  0.22981202996E+03  0.24603939676E+03  0.00000000000E+00 0. -1.
         -2    1    3    3    0  502  0.26385356379E+02 -0.41857094274E+03  0.74108481835E+03  0.85153069770E+03  0.00000000000E+00 0.  1.
         13    1    5    5    0    0  0.60721115394E+02  0.57316949784E+03 -0.67179768929E+03  0.88516804193E+03  0.00000000000E+00 0. -1.
        -13    1    5    5    0    0  0.19167892643E+02  0.24542615010E+02 -0.55422589994E+02  0.63572097194E+02  0.00000000000E+00 0.  1.
          2    1    6    6  503    0 -0.69649419932E+02 -0.10184898164E+03  0.10000254174E+03  0.15882306229E+03  0.00000000000E+00 0. -1.
         -2    1    6    6    0  503 -0.61416506371E+02  0.70119876004E+01  0.47584436409E+02  0.78009190569E+02  0.00000000000E+00 0.  1.
<mgrwt>
<rscale>  0 0.22493671E+04</rscale>
<asrwt>0</asrwt>
<pdfrwt beam="1">  1        1 0.14552915E+00 0.22493671E+04</pdfrwt>
<pdfrwt beam="2">  1       -2 0.20572354E+00 0.22493671E+04</pdfrwt>
<totfact> 0.16216433E+00</totfact>
</mgrwt>
</event>
<event>
12    5  0.5221187E-008  0.2334649E+04  0.7818608E-02  0.8464383E-01
          1   -1    0    0  501    0  0.00000000000E+00  0.00000000000E+00  0.29061144786E+04  0.29061144786E+04  0.00000000000E+00 0. -1.
         -2   -1    0    0    0  501 -0.00000000000E+00 -0.00000000000E+00 -0.46888959096E+03  0.46888959096E+03  0.00000000000E+00 0.  1.
        -24    2    1    2    0    0 -0.75072668129E+03  0.52046407400E+03  0.47801796600E+03  0.10341976050E+04  0.81179480542E+02 0.  0.
        254    2    1    2    0    0  0.75072668129E+03 -0.52046407400E+03  0.19592069216E+04  0.23408064645E+04  0.89800319618E+03 0.  0.
         23    2    4    4    0    0 -0.13913955118E+02 -0.51945178940E+02 -0.61027117774E+02  0.12861424698E+03  0.99626380349E+02 0.  0.
         23    2    4    4    0    0  0.76464063641E+03 -0.46851889506E+03  0.20202340394E+04  0.22121922175E+04  0.90904211066E+02 0.  0.
          1    1    3    3  502    0 -0.50399610643E+03  0.36637245794E+03  0.36494931326E+03  0.72210030777E+03  0.00000000000E+00 0. -1.
         -2    1    3    3    0  502 -0.24673057486E+03  0.15409161606E+03  0.11306865274E+03  0.31209729724E+03  0.00000000000E+00 0.  1.
         13    1    5    5    0    0 -0.27798548479E+02 -0.54048640335E+02  0.51192562467E+01  0.60993619372E+02  0.00000000000E+00 0.  1.
        -13    1    5    5    0    0  0.13884593361E+02  0.21034613948E+01 -0.66146374020E+02  0.67620627612E+02  0.00000000000E+00 0. -1.
          2    1    6    6  503    0  0.15661018955E+03 -0.11330557382E+03  0.35565560374E+03  0.40479107327E+03  0.00000000000E+00 0. -1.
         -2    1    6    6    0  503  0.60803044686E+03 -0.35521332124E+03  0.16645784356E+04  0.18074011443E+04  0.00000000000E+00 0.  1.
<mgrwt>
<rscale>  0 0.23346493E+04</rscale>
<asrwt>0</asrwt>
<pdfrwt beam="1">  1        1 0.44709452E+00 0.23346493E+04</pdfrwt>
<pdfrwt beam="2">  1       -2 0.72136862E-01 0.23346493E+04</pdfrwt>
<totfact> 0.96437940E-01</totfact>
</mgrwt>
</event>
<event>
12    5  0.5221187E-008  0.3096439E+04  0.7818608E-02  0.8216716E-01
         -4   -1    0    0    0  501 -0.00000000000E+00  0.00000000000E+00  0.24770729135E+04  0.24770729135E+04  0.00000000000E+00 0.  1.
          3   -1    0    0  501    0  0.00000000000E+00 -0.00000000000E+00 -0.96766804510E+03  0.96766804510E+03  0.00000000000E+00 0. -1.
        -24    2    1    2    0    0 -0.78270599954E+02  0.10626641135E+04 -0.35613734592E+03  0.11262544123E+04  0.78954968725E+02 0.  0.
        254    2    1    2    0    0  0.78270599954E+02 -0.10626641135E+04  0.18655422144E+04  0.23184865463E+04  0.87163685507E+03 0.  0.
         23    2    4    4    0    0 -0.20550297042E+02 -0.61399441570E+03  0.17192039960E+04  0.18276904896E+04  0.85899293847E+02 0.  0.
         23    2    4    4    0    0  0.98820896996E+02 -0.44866969780E+03  0.14633821838E+03  0.49079605677E+03  0.91628749743E+02 0.  0.
          1    1    3    3  502    0 -0.80423872517E+02  0.10626872386E+04 -0.35700511239E+03  0.11239327456E+04  0.00000000000E+00 0. -1.
         -2    1    3    3    0  502  0.21532725631E+01 -0.23125110454E-01  0.86776646878E+00  0.23216666742E+01  0.00000000000E+00 0.  1.
         13    1    5    5    0    0 -0.19413821196E+02 -0.92608668432E+02  0.19430963911E+03  0.21612380196E+03  0.00000000000E+00 0.  1.
        -13    1    5    5    0    0 -0.11364758456E+01 -0.52138574727E+03  0.15248943569E+04  0.16115666876E+04  0.00000000000E+00 0. -1.
          3    1    6    6  503    0  0.10732200309E+03 -0.35173896702E+03  0.13927356132E+03  0.39323712712E+03  0.00000000000E+00 0. -1.
         -3    1    6    6    0  503 -0.85011060989E+01 -0.96930730785E+02  0.70646570611E+01  0.97558929652E+02  0.00000000000E+00 0.  1.
<mgrwt>
<rscale>  0 0.30964394E+04</rscale>
<asrwt>0</asrwt>
<pdfrwt beam="1">  1        3 0.14887201E+00 0.30964394E+04</pdfrwt>
<pdfrwt beam="2">  1       -4 0.38108814E+00 0.30964394E+04</pdfrwt>
<totfact> 0.58241087E-03</totfact>
</mgrwt>
</event>
<event>
12    5  0.5221187E-008  0.1025153E+04  0.7818608E-02  0.9281380E-01
         -2   -1    0    0    0  501 -0.00000000000E+00  0.00000000000E+00  0.22079162496E+03  0.22079162496E+03  0.00000000000E+00 0.  1.
          1   -1    0    0  501    0  0.00000000000E+00 -0.00000000000E+00 -0.11899669024E+04  0.11899669024E+04  0.00000000000E+00 0. -1.
        -24    2    1    2    0    0 -0.46277797356E+01 -0.46983707289E+01  0.55985716750E+02  0.97163055275E+02  0.79137650948E+02 0.  0.
        254    2    1    2    0    0  0.46277797356E+01  0.46983707289E+01 -0.10251609942E+04  0.13135954720E+04  0.82130049873E+03 0.  0.
         23    2    4    4    0    0  0.29763162011E+03  0.25003378016E+03 -0.34445803122E+03  0.52733115557E+03  0.91243300302E+02 0.  0.
         23    2    4    4    0    0 -0.29300384037E+03 -0.24533540943E+03 -0.68070296293E+03  0.78626431647E+03  0.93884706029E+02 0.  0.
          1    1    3    3  502    0 -0.24269806255E+02 -0.20068699943E+02 -0.44291570616E+01  0.31802415716E+02  0.00000000000E+00 0. -1.
         -2    1    3    3    0  502  0.19642026520E+02  0.15370329214E+02  0.60414873812E+02  0.65360639560E+02  0.00000000000E+00 0.  1.
         13    1    5    5    0    0  0.91027710879E+02  0.11188664398E+03 -0.82205157938E+02  0.16601913516E+03  0.00000000000E+00 0.  1.
        -13    1    5    5    0    0  0.20660390923E+03  0.13814713618E+03 -0.26225287328E+03  0.36131202041E+03  0.00000000000E+00 0. -1.
          2    1    6    6  503    0 -0.25853053995E+03 -0.16659035610E+03 -0.53157194606E+03  0.61413282006E+03  0.00000000000E+00 0. -1.
         -2    1    6    6    0  503 -0.34473300421E+02 -0.78745053336E+02 -0.14913101687E+03  0.17213149642E+03  0.00000000000E+00 0.  1.
<mgrwt>
<rscale>  0 0.10251531E+04</rscale>
<asrwt>0</asrwt>
<pdfrwt beam="1">  1        1 0.18307183E+00 0.10251531E+04</pdfrwt>
<pdfrwt beam="2">  1       -2 0.33967942E-01 0.10251531E+04</pdfrwt>
<totfact> 0.77359810E+01</totfact>
</mgrwt>
</event>
<event>
12    5  0.5221187E-008  0.1550624E+04  0.7818608E-02  0.8851469E-01
          1   -1    0    0  501    0  0.00000000000E+00  0.00000000000E+00  0.30961043409E+04  0.30961043409E+04  0.00000000000E+00 0. -1.
         -2   -1    0    0    0  501 -0.00000000000E+00 -0.00000000000E+00 -0.19415001231E+03  0.19415001231E+03  0.00000000000E+00 0.  1.
        -24    2    1    2    0    0 -0.43203391710E+03 -0.18534427384E+02  0.37542577122E+03  0.57847583204E+03  0.81810439660E+02 0.  0.
        254    2    1    2    0    0  0.43203391710E+03  0.18534427384E+02  0.25265285574E+04  0.27117785211E+04  0.88509850644E+03 0.  0.
         23    2    4    4    0    0  0.15960314264E+03 -0.41719798902E+03  0.10091491059E+04  0.11073804557E+04  0.91554522342E+02 0.  0.
         23    2    4    4    0    0  0.27243077446E+03  0.43573241640E+03  0.15173794515E+04  0.16043980655E+04  0.87014292562E+02 0.  0.
          1    1    3    3  502    0 -0.10406036592E+03 -0.34456134889E+02  0.70226906584E+02  0.13018296123E+03  0.00000000000E+00 0. -1.
         -2    1    3    3    0  502 -0.32797355118E+03  0.15921707506E+02  0.30519886463E+03  0.44829287081E+03  0.00000000000E+00 0.  1.
         13    1    5    5    0    0  0.93396959769E+02 -0.33933408289E+03  0.82110807400E+03  0.89335831618E+03  0.00000000000E+00 0.  1.
        -13    1    5    5    0    0  0.66206182874E+02 -0.77863906133E+02  0.18804103187E+03  0.21402213950E+03  0.00000000000E+00 0. -1.
          1    1    6    6  503    0  0.18345908256E+03  0.34454168035E+03  0.12185526366E+04  0.12795455180E+04  0.00000000000E+00 0. -1.
         -1    1    6    6    0  503  0.88971691897E+02  0.91190736051E+02  0.29882681489E+03  0.32485254747E+03  0.00000000000E+00 0.  1.
<mgrwt>
<rscale>  0 0.15506240E+04</rscale>
<asrwt>0</asrwt>
<pdfrwt beam="1">  1        1 0.47632371E+00 0.15506240E+04</pdfrwt>
<pdfrwt beam="2">  1       -2 0.29869235E-01 0.15506240E+04</pdfrwt>
<totfact> 0.44719917E+00</totfact>
</mgrwt>
</event>
<event>
12    5  0.5221187E-008  0.2317642E+04  0.7818608E-02  0.8470998E-01
         -2   -1    0    0    0  501 -0.00000000000E+00  0.00000000000E+00  0.22601332360E+04  0.22601332360E+04  0.00000000000E+00 0.  1.
          1   -1    0    0  501    0  0.00000000000E+00 -0.00000000000E+00 -0.59415328803E+03  0.59415328803E+03  0.00000000000E+00 0. -1.
        -24    2    1    2    0    0  0.28164361412E+03 -0.80512659829E+03  0.10925999718E+03  0.86359750869E+03  0.79441458841E+02 0.  0.
        254    2    1    2    0    0 -0.28164361412E+03  0.80512659829E+03  0.15567199508E+04  0.19906890153E+04  0.90106258710E+03 0.  0.
         23    2    4    4    0    0 -0.16690809433E+03 -0.52995782369E+01  0.94675221237E+03  0.96580219444E+03  0.92453932789E+02 0.  0.
         23    2    4    4    0    0 -0.11473551979E+03  0.81042617653E+03  0.60996773839E+03  0.10248868209E+04  0.91528829178E+02 0.  0.
          1    1    3    3  502    0  0.14701742606E+03 -0.33075770963E+03  0.72316333382E+02  0.36911304246E+03  0.00000000000E+00 0. -1.
         -2    1    3    3    0  502  0.13462618805E+03 -0.47436888867E+03  0.36943663794E+02  0.49448446623E+03  0.00000000000E+00 0.  1.
         13    1    5    5    0    0 -0.78584844311E+02  0.24656639262E+02  0.25966794755E+03  0.27241690586E+03  0.00000000000E+00 0.  1.
        -13    1    5    5    0    0 -0.88323250014E+02 -0.29956217499E+02  0.68708426482E+03  0.69338528858E+03  0.00000000000E+00 0. -1.
          3    1    6    6  503    0 -0.59920816202E+02  0.22143680309E+03  0.13426361898E+03  0.26580346378E+03  0.00000000000E+00 0. -1.
         -3    1    6    6    0  503 -0.54814703591E+02  0.58898937344E+03  0.47570411941E+03  0.75908335707E+03  0.00000000000E+00 0.  1.
<mgrwt>
<rscale>  0 0.23176416E+04</rscale>
<asrwt>0</asrwt>
<pdfrwt beam="1">  1        1 0.91408200E-01 0.23176416E+04</pdfrwt>
<pdfrwt beam="2">  1       -2 0.34771280E+00 0.23176416E+04</pdfrwt>
<totfact> 0.44219750E-01</totfact>
</mgrwt>
</event>
<event>
12    5  0.5221187E-008  0.1439590E+04  0.7818608E-02  0.8925649E-01
         -2   -1    0    0    0  501 -0.00000000000E+00  0.00000000000E+00  0.11775946738E+04  0.11775946738E+04  0.00000000000E+00 0.  1.
          1   -1    0    0  501    0  0.00000000000E+00 -0.00000000000E+00 -0.43996881569E+03  0.43996881569E+03  0.00000000000E+00 0. -1.
        -24    2    1    2    0    0  0.30276226731E+03 -0.25887204880E+03  0.16731706903E+02  0.40669511981E+03  0.80257350496E+02 0.  0.
        254    2    1    2    0    0 -0.30276226731E+03  0.25887204880E+03  0.72089415125E+03  0.12108683697E+04  0.88760019339E+03 0.  0.
         23    2    4    4    0    0 -0.13904759543E+01  0.49664929284E+03  0.16869961072E+03  0.53233490541E+03  0.90875955879E+02 0.  0.
         23    2    4    4    0    0 -0.30137179135E+03 -0.23777724404E+03  0.55219454053E+03  0.67853346430E+03  0.90143647478E+02 0.  0.
          1    1    3    3  502    0  0.15549307065E+03 -0.15264906692E+03  0.46189687516E+02  0.22274047653E+03  0.00000000000E+00 0. -1.
         -2    1    3    3    0  502  0.14726919666E+03 -0.10622298188E+03 -0.29457980613E+02  0.18395464329E+03  0.00000000000E+00 0.  1.
         13    1    5    5    0    0  0.15661788787E+02  0.46569516918E+03  0.13921660754E+03  0.48631116175E+03  0.00000000000E+00 0.  1.
        -13    1    5    5    0    0 -0.17052264741E+02  0.30954123664E+02  0.29483003172E+02  0.46023743662E+02  0.00000000000E+00 0. -1.
          4    1    6    6  503    0 -0.18084180693E-01 -0.65511426652E+01 -0.18303075042E+01  0.68020454878E+01  0.00000000000E+00 0. -1.
         -4    1    6    6    0  503 -0.30135370717E+03 -0.23122610138E+03  0.55402484804E+03  0.67173141882E+03  0.00000000000E+00 0.  1.
<mgrwt>
<rscale>  0 0.14395901E+04</rscale>
<asrwt>0</asrwt>
<pdfrwt beam="1">  1        1 0.67687511E-01 0.14395901E+04</pdfrwt>
<pdfrwt beam="2">  1       -2 0.18116841E+00 0.14395901E+04</pdfrwt>
<totfact> 0.79759627E+00</totfact>
</mgrwt>
</event>
<event>
12    5  0.5221187E-008  0.1925004E+04  0.7818608E-02  0.8642509E-01
         -2   -1    0    0    0  501 -0.00000000000E+00  0.00000000000E+00  0.12360514888E+04  0.12360514888E+04  0.00000000000E+00 0.  1.
          1   -1    0    0  501    0  0.00000000000E+00 -0.00000000000E+00 -0.74949162941E+03  0.74949162941E+03  0.00000000000E+00 0. -1.
        -24    2    1    2    0    0 -0.88589966046E+02 -0.15602390050E+03  0.86098751551E+03  0.88312754963E+03  0.80144416209E+02 0.  0.
        254    2    1    2    0    0  0.88589966046E+02  0.15602390050E+03 -0.37442765614E+03  0.11024155686E+04  0.10212406066E+04 0.  0.
         23    2    4    4    0    0 -0.30722920973E+03 -0.21033738806E+03 -0.40209931314E+03  0.55555747996E+03  0.91261447437E+02 0.  0.
         23    2    4    4    0    0  0.39581917578E+03  0.36636128856E+03  0.27671657005E+02  0.54685808860E+03  0.85992062403E+02 0.  0.
          3    1    3    3  502    0 -0.14934859208E+02 -0.44588470184E+02  0.99984733978E+02  0.11049040104E+03  0.00000000000E+00 0. -1.
         -4    1    3    3    0  502 -0.73655106839E+02 -0.11143543032E+03  0.76100278153E+03  0.77263714859E+03  0.00000000000E+00 0.  1.
         13    1    5    5    0    0 -0.30453625104E+03 -0.19795008483E+03 -0.35923687232E+03  0.51085976032E+03  0.00000000000E+00 0.  1.
        -13    1    5    5    0    0 -0.26929586868E+01 -0.12387303227E+02 -0.42862440825E+02  0.44697719642E+02  0.00000000000E+00 0. -1.
          4    1    6    6  503    0  0.23773353794E+03  0.16620155580E+03  0.31466820951E+02  0.29177106271E+03  0.00000000000E+00 0. -1.
         -4    1    6    6    0  503  0.15808563783E+03  0.20015973276E+03 -0.37951639468E+01  0.25508702589E+03  0.00000000000E+00 0.  1.
<mgrwt>
<rscale>  0 0.19250041E+04</rscale>
<asrwt>0</asrwt>
<pdfrwt beam="1">  1        1 0.11530640E+00 0.19250041E+04</pdfrwt>
<pdfrwt beam="2">  1       -2 0.19016177E+00 0.19250041E+04</pdfrwt>
<totfact> 0.30985835E+00</totfact>
</mgrwt>
</event>
<event>
12    5  0.5221187E-008  0.1934924E+04  0.7818608E-02  0.8637665E-01
          1   -1    0    0  501    0  0.00000000000E+00  0.00000000000E+00  0.22178050572E+04  0.22178050572E+04  0.00000000000E+00 0. -1.
         -2   -1    0    0    0  501 -0.00000000000E+00 -0.00000000000E+00 -0.42203093317E+03  0.42203093317E+03  0.00000000000E+00 0.  1.
        -24    2    1    2    0    0 -0.17801081778E+02  0.75355800913E+03  0.84427016665E+03  0.11353582618E+04  0.89887243887E+02 0.  0.
        254    2    1    2    0    0  0.17801081778E+02 -0.75355800913E+03  0.95150395733E+03  0.15044777286E+04  0.88877832068E+03 0.  0.
         23    2    4    4    0    0  0.25570692930E+02 -0.92711141861E+03  0.91316640132E+03  0.13045926949E+04  0.88880708581E+02 0.  0.
         23    2    4    4    0    0 -0.77696111518E+01  0.17355340948E+03  0.38337556014E+02  0.19988503362E+03  0.91121378747E+02 0.  0.
          1    1    3    3  502    0  0.14584083120E+02  0.35416501593E+03  0.33890078012E+03  0.49040727233E+03  0.00000000000E+00 0. -1.
         -2    1    3    3    0  502 -0.32385164898E+02  0.39939299319E+03  0.50536938653E+03  0.64495098942E+03  0.00000000000E+00 0.  1.
         13    1    5    5    0    0 -0.14630348577E+02 -0.29132642510E+02  0.37565122149E+02  0.49738278631E+02  0.00000000000E+00 0.  1.
        -13    1    5    5    0    0  0.40201041507E+02 -0.89797877610E+03  0.87560127917E+03  0.12548544163E+04  0.00000000000E+00 0. -1.
          4    1    6    6  503    0  0.16980853761E+02  0.10719536642E+03 -0.17195304466E+02  0.10988573371E+03  0.00000000000E+00 0.  1.
         -4    1    6    6    0  503 -0.24750464913E+02  0.66358043065E+02  0.55532860480E+02  0.89999299919E+02  0.00000000000E+00 0. -1.
<mgrwt>
<rscale>  0 0.19349236E+04</rscale>
<asrwt>0</asrwt>
<pdfrwt beam="1">  1        1 0.34120077E+00 0.19349236E+04</pdfrwt>
<pdfrwt beam="2">  1       -2 0.64927837E-01 0.19349236E+04</pdfrwt>
<totfact> 0.37989572E+00</totfact>
</mgrwt>
</event>
<event>
12    5  0.5221187E-008  0.1369389E+04  0.7818608E-02  0.8976279E-01
          3   -1    0    0  501    0  0.00000000000E+00  0.00000000000E+00  0.89011656008E+03  0.89011656008E+03  0.00000000000E+00 0. -1.
         -4   -1    0    0    0  501 -0.00000000000E+00 -0.00000000000E+00 -0.52668030955E+03  0.52668030955E+03  0.00000000000E+00 0.  1.
        -24    2    1    2    0    0  0.13132781226E+03  0.35931996734E+03  0.66937597422E+02  0.39685964456E+03  0.81603323006E+02 0.  0.
        254    2    1    2    0    0 -0.13132781226E+03 -0.35931996734E+03  0.29649865310E+03  0.10199372251E+04  0.89777650814E+03 0.  0.
         23    2    4    4    0    0 -0.49606930742E+03 -0.32004991473E+03  0.16740182200E+03  0.62033506014E+03  0.90969836462E+02 0.  0.
         23    2    4    4    0    0  0.36474149516E+03 -0.39270052613E+02  0.12909683111E+03  0.39960216492E+03  0.91855337818E+02 0.  0.
          1    1    3    3  502    0  0.20481580202E+02  0.66479591240E+02  0.45264221991E+02  0.82993258590E+02  0.00000000000E+00 0. -1.
         -4    1    3    3    0  502  0.11084623206E+03  0.29284037610E+03  0.21673375431E+02  0.31386638597E+03  0.00000000000E+00 0.  1.
         13    1    5    5    0    0 -0.69566111800E+02 -0.12194172065E+02  0.29610159190E+02  0.76582656461E+02  0.00000000000E+00 0. -1.
        -13    1    5    5    0    0 -0.42650319562E+03 -0.30785574267E+03  0.13779166281E+03  0.54375240368E+03  0.00000000000E+00 0.  1.
          3    1    6    6  503    0  0.15923179258E+03  0.66642209238E+01  0.97054111121E+02  0.18659763153E+03  0.00000000000E+00 0. -1.
         -3    1    6    6    0  503  0.20550970258E+03 -0.45934273537E+02  0.32042719985E+02  0.21300453339E+03  0.00000000000E+00 0.  1.
<mgrwt>
<rscale>  0 0.13693894E+04</rscale>
<asrwt>0</asrwt>
<pdfrwt beam="1">  1        3 0.13694101E+00 0.13693894E+04</pdfrwt>
<pdfrwt beam="2">  1       -4 0.81027740E-01 0.13693894E+04</pdfrwt>
<totfact> 0.12297584E+00</totfact>
</mgrwt>
</event>
<event>
12    5  0.5221187E-008  0.1673500E+04  0.7818608E-02  0.8776624E-01
          1   -1    0    0  501    0  0.00000000000E+00  0.00000000000E+00  0.80125982119E+03  0.80125982119E+03  0.00000000000E+00 0. -1.
         -2   -1    0    0    0  501 -0.00000000000E+00 -0.00000000000E+00 -0.87381176697E+03  0.87381176697E+03  0.00000000000E+00 0.  1.
        -24    2    1    2    0    0  0.26696608851E+03 -0.40664083881E+03 -0.38232121628E+03  0.62370712476E+03  0.78825128329E+02 0.  0.
        254    2    1    2    0    0 -0.26696608851E+03  0.40664083881E+03  0.30976927051E+03  0.10513644634E+04  0.87908052518E+03 0.  0.
         23    2    4    4    0    0  0.17083023461E+03  0.80723809465E+02 -0.20685191639E+03  0.29455810839E+03  0.90980555254E+02 0.  0.
         23    2    4    4    0    0 -0.43779632313E+03  0.32591702934E+03  0.51662118690E+03  0.75680635501E+03  0.89279771896E+02 0.  0.
          1    1    3    3  502    0  0.84654457378E+02 -0.17768977173E+03 -0.18953631605E+03  0.27324722731E+03  0.00000000000E+00 0. -1.
         -2    1    3    3    0  502  0.18231163114E+03 -0.22895106707E+03 -0.19278490023E+03  0.35045989745E+03  0.00000000000E+00 0.  1.
         13    1    5    5    0    0  0.15772271001E+03  0.70606958240E+02 -0.21521681833E+03  0.27600738160E+03  0.00000000000E+00 0.  1.
        -13    1    5    5    0    0  0.13107524599E+02  0.10116851226E+02  0.83649019463E+01  0.18550726789E+02  0.00000000000E+00 0. -1.
          1    1    6    6  503    0 -0.40287135086E+03  0.31071759254E+03  0.44607342925E+03  0.67663302605E+03  0.00000000000E+00 0.  1.
         -1    1    6    6    0  503 -0.34924972265E+02  0.15199436800E+02  0.70547757650E+02  0.80173328957E+02  0.00000000000E+00 0. -1.
<mgrwt>
<rscale>  0 0.16734996E+04</rscale>
<asrwt>0</asrwt>
<pdfrwt beam="1">  1        1 0.12327074E+00 0.16734996E+04</pdfrwt>
<pdfrwt beam="2">  1       -2 0.13443258E+00 0.16734996E+04</pdfrwt>
<totfact> 0.73455306E+00</totfact>
</mgrwt>
</event>
<event>
12    5  0.5221187E-008  0.1394696E+04  0.7818608E-02  0.8957667E-01
         -2   -1    0    0    0  501 -0.00000000000E+00  0.00000000000E+00  0.45045709386E+03  0.45045709386E+03  0.00000000000E+00 0.  1.
          1   -1    0    0  501    0  0.00000000000E+00 -0.00000000000E+00 -0.10795566211E+04  0.10795566211E+04  0.00000000000E+00 0. -1.
        -24    2    1    2    0    0 -0.18849683236E+03  0.13221252198E+03  0.17881922247E+03  0.30215261014E+03  0.79427191264E+02 0.  0.
        254    2    1    2    0    0  0.18849683236E+03 -0.13221252198E+03 -0.80791874966E+03  0.12278611048E+04  0.89548812375E+03 0.  0.
         23    2    4    4    0    0  0.40371479589E+03 -0.37205090591E+03 -0.34139317254E+03  0.65290274034E+03  0.91242408344E+02 0.  0.
         23    2    4    4    0    0 -0.21521796353E+03  0.23983838393E+03 -0.46652557712E+03  0.57495836443E+03  0.95340361301E+02 0.  0.
          1    1    3    3  502    0 -0.38282341799E+02  0.37316668754E+02  0.87098194803E+02  0.10219670738E+03  0.00000000000E+00 0. -1.
         -2    1    3    3    0  502 -0.15021449056E+03  0.94895853230E+02  0.91721027663E+02  0.19995590276E+03  0.00000000000E+00 0.  1.
         13    1    5    5    0    0  0.30118590391E+03 -0.26985453307E+03 -0.29613946128E+03  0.50123148171E+03  0.00000000000E+00 0.  1.
        -13    1    5    5    0    0  0.10252889198E+03 -0.10219637284E+03 -0.45253711267E+02  0.15167125863E+03  0.00000000000E+00 0. -1.
          1    1    6    6  503    0 -0.47435671804E+01  0.42903624072E+02 -0.98096348190E+02  0.10717329852E+03  0.00000000000E+00 0. -1.
         -1    1    6    6    0  503 -0.21047439635E+03  0.19693475985E+03 -0.36842922893E+03  0.46778506591E+03  0.00000000000E+00 0.  1.
<mgrwt>
<rscale>  0 0.13946956E+04</rscale>
<asrwt>0</asrwt>
<pdfrwt beam="1">  1        1 0.16608563E+00 0.13946956E+04</pdfrwt>
<pdfrwt beam="2">  1       -2 0.69301092E-01 0.13946956E+04</pdfrwt>
<totfact> 0.21353669E+01</totfact>
</mgrwt>
</event>
<event>
12    5  0.5221187E-008  0.2647333E+04  0.7818608E-02  0.8352299E-01
          1   -1    0    0  501    0  0.00000000000E+00  0.00000000000E+00  0.23194715585E+04  0.23194715585E+04  0.00000000000E+00 0. -1.
         -2   -1    0    0    0  501 -0.00000000000E+00 -0.00000000000E+00 -0.75538457370E+03  0.75538457370E+03  0.00000000000E+00 0.  1.
        -24    2    1    2    0    0 -0.10472441254E+04  0.34173613817E+02  0.82282182499E+02  0.10541433841E+04  0.80992731981E+02 0.  0.
        254    2    1    2    0    0  0.10472441254E+04 -0.34173613817E+02  0.14818048023E+04  0.20207127481E+04  0.88862052891E+03 0.  0.
         23    2    4    4    0    0  0.36761005254E+02  0.23738709767E+03  0.79990237218E+02  0.26906807744E+03  0.91077915003E+02 0.  0.
         23    2    4    4    0    0  0.10104831201E+04 -0.27156071149E+03  0.14018145651E+04  0.17516446707E+04  0.91398148059E+02 0.  0.
          3    1    3    3  502    0 -0.90337453597E+03  0.34031692549E+02  0.43139746720E+02  0.90504405754E+03  0.00000000000E+00 0. -1.
         -4    1    3    3    0  502 -0.14386958938E+03  0.14192126862E+00  0.39142435779E+02  0.14909932652E+03  0.00000000000E+00 0.  1.
         13    1    5    5    0    0  0.53520811156E+02  0.15584209126E+03  0.85496964359E+02  0.18563664926E+03  0.00000000000E+00 0. -1.
        -13    1    5    5    0    0 -0.16759805902E+02  0.81545006412E+02 -0.55067271409E+01  0.83431428182E+02  0.00000000000E+00 0.  1.
          1    1    6    6  503    0  0.85251756221E+03 -0.25522200072E+03  0.12228587140E+04  0.15123848379E+04  0.00000000000E+00 0. -1.
         -1    1    6    6    0  503  0.15796555789E+03 -0.16338710766E+02  0.17895585109E+03  0.23925983280E+03  0.00000000000E+00 0.  1.
<mgrwt>
<rscale>  0 0.26473330E+04</rscale>
<asrwt>0</asrwt>
<pdfrwt beam="1">  1        1 0.35684177E+00 0.26473330E+04</pdfrwt>
<pdfrwt beam="2">  1       -2 0.11621301E+00 0.26473330E+04</pdfrwt>
<totfact> 0.79973139E-01</totfact>
</mgrwt>
</event>
<event>
12    5  0.5221187E-008  0.1407352E+04  0.7818608E-02  0.8948514E-01
         -2   -1    0    0    0  501 -0.00000000000E+00  0.00000000000E+00  0.43450205928E+03  0.43450205928E+03  0.00000000000E+00 0.  1.
          1   -1    0    0  501    0  0.00000000000E+00 -0.00000000000E+00 -0.11396030216E+04  0.11396030216E+04  0.00000000000E+00 0. -1.
        -24    2    1    2    0    0  0.65345491917E+02 -0.36952433307E+03 -0.15685996622E+02  0.38441692337E+03  0.81927128828E+02 0.  0.
        254    2    1    2    0    0 -0.65345491917E+02  0.36952433307E+03 -0.68941496573E+03  0.11896881575E+04  0.89400595700E+03 0.  0.
         23    2    4    4    0    0 -0.45704492153E+03  0.26468228530E+03 -0.27426249820E+03  0.60188393909E+03  0.89986586643E+02 0.  0.
         23    2    4    4    0    0  0.39169942961E+03  0.10484204777E+03 -0.41515246753E+03  0.58780421844E+03  0.93498287575E+02 0.  0.
          3    1    3    3  502    0  0.10369026343E+01  0.72372056541E+00  0.77908977462E+01  0.78928465221E+01  0.00000000000E+00 0. -1.
         -4    1    3    3    0  502  0.64308589282E+02 -0.37024805364E+03 -0.23476894368E+02  0.37652407685E+03  0.00000000000E+00 0.  1.
         13    1    5    5    0    0 -0.28477350406E+02  0.11314295866E+01 -0.33925731607E+02  0.44307955088E+02  0.00000000000E+00 0.  1.
        -13    1    5    5    0    0 -0.42856757112E+03  0.26355085571E+03 -0.24033676659E+03  0.55757598400E+03  0.00000000000E+00 0. -1.
          2    1    6    6  503    0  0.18306742113E+03  0.37750059685E+02 -0.25590715630E+03  0.31690254075E+03  0.00000000000E+00 0.  1.
         -2    1    6    6    0  503  0.20863200848E+03  0.67091988088E+02 -0.15924531123E+03  0.27090167770E+03  0.00000000000E+00 0. -1.
<mgrwt>
<rscale>  0 0.14073519E+04</rscale>
<asrwt>0</asrwt>
<pdfrwt beam="1">  1        1 0.17532354E+00 0.14073519E+04</pdfrwt>
<pdfrwt beam="2">  1       -2 0.66846472E-01 0.14073519E+04</pdfrwt>
<totfact> 0.20796122E+01</totfact>
</mgrwt>
</event>
<event>
12    5  0.5221187E-008  0.1398566E+04  0.7818608E-02  0.8954857E-01
          1   -1    0    0  501    0  0.00000000000E+00  0.00000000000E+00  0.14829596924E+04  0.14829596924E+04  0.00000000000E+00 0. -1.
         -2   -1    0    0    0  501 -0.00000000000E+00 -0.00000000000E+00 -0.32974384115E+03  0.32974384115E+03  0.00000000000E+00 0.  1.
        -24    2    1    2    0    0 -0.14465037132E+03  0.82527800779E+02  0.79842143429E+03  0.81983668448E+03  0.83191554052E+02 0.  0.
        254    2    1    2    0    0  0.14465037132E+03 -0.82527800779E+02  0.35479441699E+03  0.99286684909E+03  0.91223403459E+03 0.  0.
         23    2    4    4    0    0 -0.33025766693E+03 -0.17082318916E+03  0.32145942902E+03  0.50084280240E+03  0.96211536141E+02 0.  0.
         23    2    4    4    0    0  0.47490803826E+03  0.88295388384E+02  0.33334987968E+02  0.49202404668E+03  0.87422655424E+02 0.  0.
          1    1    3    3  502    0 -0.14156943800E+03  0.59994090711E+02  0.75817346481E+03  0.77360726434E+03  0.00000000000E+00 0. -1.
         -2    1    3    3    0  502 -0.30809333190E+01  0.22533710068E+02  0.40247969477E+02  0.46229420141E+02  0.00000000000E+00 0.  1.
         13    1    5    5    0    0 -0.54555646258E+02 -0.46878491260E+02  0.11190624030E+03  0.13302976396E+03  0.00000000000E+00 0.  1.
        -13    1    5    5    0    0 -0.27570202068E+03 -0.12394469790E+03  0.20955318872E+03  0.36781303844E+03  0.00000000000E+00 0. -1.
          3    1    6    6  503    0  0.35715260243E+03  0.64129060637E+02 -0.13243247856E+02  0.36310590942E+03  0.00000000000E+00 0. -1.
         -3    1    6    6    0  503  0.11775543583E+03  0.24166327747E+02  0.46578235824E+02  0.12891813727E+03  0.00000000000E+00 0.  1.
<mgrwt>
<rscale>  0 0.13985662E+04</rscale>
<asrwt>0</asrwt>
<pdfrwt beam="1">  1        1 0.22814764E+00 0.13985662E+04</pdfrwt>
<pdfrwt beam="2">  1       -2 0.50729822E-01 0.13985662E+04</pdfrwt>
<totfact> 0.21130487E+01</totfact>
</mgrwt>
</event>
<event>
12    5  0.5221187E-008  0.1919875E+04  0.7818608E-02  0.8645026E-01
         -2   -1    0    0    0  501 -0.00000000000E+00  0.00000000000E+00  0.84142340578E+03  0.84142340578E+03  0.00000000000E+00 0.  1.
          1   -1    0    0  501    0  0.00000000000E+00 -0.00000000000E+00 -0.10951441207E+04  0.10951441207E+04  0.00000000000E+00 0. -1.
        -24    2    1    2    0    0 -0.59021497474E+03  0.45838112306E+03 -0.36684493322E+03  0.83615766873E+03  0.78214267011E+02 0.  0.
        254    2    1    2    0    0  0.59021497474E+03 -0.45838112306E+03  0.11312421831E+03  0.11004098577E+04  0.79977359036E+03 0.  0.
         23    2    4    4    0    0  0.70821740944E+03 -0.17643056572E+03  0.21380823685E+03  0.76605541123E+03  0.91800258048E+02 0.  0.
         23    2    4    4    0    0 -0.11800243470E+03 -0.28195055734E+03 -0.10068401854E+03  0.33435444650E+03  0.90746531222E+02 0.  0.
          3    1    3    3  502    0 -0.67259597170E+02  0.32430665763E+02 -0.56885982110E+02  0.93870210684E+02  0.00000000000E+00 0. -1.
         -4    1    3    3    0  502 -0.52295537757E+03  0.42595045730E+03 -0.30995895111E+03  0.74228745805E+03  0.00000000000E+00 0.  1.
         13    1    5    5    0    0  0.41708007707E+01  0.61078392077E+00 -0.61891430456E+01  0.74882660013E+01  0.00000000000E+00 0.  1.
        -13    1    5    5    0    0  0.70404660867E+03 -0.17704134965E+03  0.21999737990E+03  0.75856714523E+03  0.00000000000E+00 0. -1.
          4    1    6    6  503    0  0.83179077463E+01 -0.17272388154E+01 -0.11501985457E+02  0.14299182237E+02  0.00000000000E+00 0.  1.
         -4    1    6    6    0  503 -0.12632034244E+03 -0.28022331852E+03 -0.89182033082E+02  0.32005526426E+03  0.00000000000E+00 0. -1.
<mgrwt>
<rscale>  0 0.19198749E+04</rscale>
<asrwt>0</asrwt>
<pdfrwt beam="1">  1        1 0.16848371E+00 0.19198749E+04</pdfrwt>
<pdfrwt beam="2">  1       -2 0.12944975E+00 0.19198749E+04</pdfrwt>
<totfact> 0.45973743E+00</totfact>
</mgrwt>
</event>
<event>
12    5  0.5221187E-008  0.1847775E+04  0.7818608E-02  0.8681298E-01
         -4   -1    0    0    0  501 -0.00000000000E+00  0.00000000000E+00  0.27264727175E+03  0.27264727175E+03  0.00000000000E+00 0.  1.
          3   -1    0    0  501    0  0.00000000000E+00 -0.00000000000E+00 -0.31306674149E+04  0.31306674149E+04  0.00000000000E+00 0. -1.
        -24    2    1    2    0    0  0.40626068360E+03 -0.22902880056E+02 -0.21091451481E+04  0.21495273292E+04  0.80013737530E+02 0.  0.
        254    2    1    2    0    0 -0.40626068360E+03  0.22902880056E+02 -0.74887499506E+03  0.12537873575E+04  0.91956331735E+03 0.  0.
         23    2    4    4    0    0 -0.64119305777E+03  0.19930586001E+03 -0.62588013761E+03  0.92234728179E+03  0.90261832513E+02 0.  0.
         23    2    4    4    0    0  0.23493237417E+03 -0.17640297996E+03 -0.12299485745E+03  0.33144007569E+03  0.91725443835E+02 0.  0.
          3    1    3    3  502    0  0.34574847598E+03 -0.99512355099E+01 -0.16222359300E+04  0.16587014343E+04  0.00000000000E+00 0. -1.
         -4    1    3    3    0  502  0.60512207626E+02 -0.12951644546E+02 -0.48690921813E+03  0.49082589487E+03  0.00000000000E+00 0.  1.
         13    1    5    5    0    0 -0.51939273009E+03  0.12957984162E+03 -0.52244651727E+03  0.74800408209E+03  0.00000000000E+00 0. -1.
        -13    1    5    5    0    0 -0.12180032768E+03  0.69726018397E+02 -0.10343362034E+03  0.17434319970E+03  0.00000000000E+00 0.  1.
          1    1    6    6  503    0  0.99799484863E+02 -0.53179356001E+02 -0.38037941710E+01  0.11314791175E+03  0.00000000000E+00 0. -1.
         -1    1    6    6    0  503  0.13513288930E+03 -0.12322362396E+03 -0.11919106328E+03  0.21829216394E+03  0.00000000000E+00 0.  1.
<mgrwt>
<rscale>  0 0.18477748E+04</rscale>
<asrwt>0</asrwt>
<pdfrwt beam="1">  1        3 0.48164117E+00 0.18477748E+04</pdfrwt>
<pdfrwt beam="2">  1       -4 0.41945732E-01 0.18477748E+04</pdfrwt>
<totfact> 0.50795002E-02</totfact>
</mgrwt>
</event>
<event>
12    5  0.5221187E-008  0.1432801E+04  0.7818608E-02  0.8930412E-01
         -2   -1    0    0    0  501 -0.00000000000E+00  0.00000000000E+00  0.11823045161E+04  0.11823045161E+04  0.00000000000E+00 0.  1.
          1   -1    0    0  501    0  0.00000000000E+00 -0.00000000000E+00 -0.43409253948E+03  0.43409253948E+03  0.00000000000E+00 0. -1.
        -24    2    1    2    0    0  0.38894667824E+03  0.18368562911E+03  0.33764417084E+03  0.55266564356E+03  0.80098680502E+02 0.  0.
        254    2    1    2    0    0 -0.38894667824E+03 -0.18368562911E+03  0.41056780574E+03  0.10637314120E+04  0.88200831338E+03 0.  0.
         23    2    4    4    0    0 -0.60468248317E+03 -0.85446163500E+02  0.50002936088E+03  0.79496179468E+03  0.94831118046E+02 0.  0.
         23    2    4    4    0    0  0.21573580493E+03 -0.98239465608E+02 -0.89461555143E+02  0.26876961730E+03  0.89670548149E+02 0.  0.
          1    1    3    3  502    0  0.82391885213E+02  0.57859351046E+02  0.43870807019E+02  0.10982155964E+03  0.00000000000E+00 0. -1.
         -2    1    3    3    0  502  0.30655479303E+03  0.12582627806E+03  0.29377336382E+03  0.44284408392E+03  0.00000000000E+00 0.  1.
         13    1    5    5    0    0 -0.50663347378E+03 -0.75384294222E+02  0.46044829107E+03  0.68874733925E+03  0.00000000000E+00 0.  1.
        -13    1    5    5    0    0 -0.98049009392E+02 -0.10061869278E+02  0.39581069810E+02  0.10621445544E+03  0.00000000000E+00 0. -1.
          3    1    6    6  503    0  0.12404364847E+03 -0.43796766379E+02 -0.31610257016E+01  0.13158638058E+03  0.00000000000E+00 0. -1.
         -3    1    6    6    0  503  0.91692156457E+02 -0.54442699230E+02 -0.86300529442E+02  0.13718323672E+03  0.00000000000E+00 0.  1.
<mgrwt>
<rscale>  0 0.14328009E+04</rscale>
<asrwt>0</asrwt>
<pdfrwt beam="1">  1        1 0.66783468E-01 0.14328009E+04</pdfrwt>
<pdfrwt beam="2">  1       -2 0.18189300E+00 0.14328009E+04</pdfrwt>
<totfact> 0.80332993E+00</totfact>
</mgrwt>
</event>
<event>
12    5  0.5221187E-008  0.2405633E+04  0.7818608E-02  0.8437398E-01
         -2   -1    0    0    0  501 -0.00000000000E+00  0.00000000000E+00  0.11891778240E+04  0.11891778240E+04  0.00000000000E+00 0.  1.
          1   -1    0    0  501    0  0.00000000000E+00 -0.00000000000E+00 -0.12166117681E+04  0.12166117681E+04  0.00000000000E+00 0. -1.
        -24    2    1    2    0    0 -0.28897104509E+03 -0.12507114835E+03  0.98774817473E+03  0.10403504678E+04  0.86807730870E+02 0.  0.
        254    2    1    2    0    0  0.28897104509E+03  0.12507114835E+03 -0.10151821188E+04  0.13654391243E+04  0.85713605148E+03 0.  0.
         23    2    4    4    0    0  0.29577692779E+03  0.45310356735E+03 -0.46912666047E+03  0.72165570920E+03  0.88996097083E+02 0.  0.
         23    2    4    4    0    0 -0.68058826982E+01 -0.32803241900E+03 -0.54605545832E+03  0.64378341507E+03  0.92892055675E+02 0.  0.
          1    1    3    3  502    0 -0.72415240325E+02  0.62810327445E+01  0.24885420953E+03  0.25925245612E+03  0.00000000000E+00 0. -1.
         -4    1    3    3    0  502 -0.21655580477E+03 -0.13135218109E+03  0.73889396520E+03  0.78109801169E+03  0.00000000000E+00 0.  1.
         13    1    5    5    0    0  0.96768590065E+02  0.86061143013E+02 -0.90179041920E+02  0.15780665373E+03  0.00000000000E+00 0.  1.
        -13    1    5    5    0    0  0.19900833773E+03  0.36704242434E+03 -0.37894761855E+03  0.56384905547E+03  0.00000000000E+00 0. -1.
          4    1    6    6  503    0  0.21624149250E+02 -0.15407841186E+03 -0.18299251029E+03  0.24019579441E+03  0.00000000000E+00 0. -1.
         -4    1    6    6    0  503 -0.28430031948E+02 -0.17395400714E+03 -0.36306294803E+03  0.40358762066E+03  0.00000000000E+00 0.  1.
<mgrwt>
<rscale>  0 0.24056332E+04</rscale>
<asrwt>0</asrwt>
<pdfrwt beam="1">  1        1 0.18717104E+00 0.24056332E+04</pdfrwt>
<pdfrwt beam="2">  1       -2 0.18295043E+00 0.24056332E+04</pdfrwt>
<totfact> 0.14131071E+00</totfact>
</mgrwt>
</event>
<event>
12    5  0.5221187E-008  0.1440642E+04  0.7818608E-02  0.8924914E-01
          1   -1    0    0  501    0  0.00000000000E+00  0.00000000000E+00  0.15535857932E+04  0.15535857932E+04  0.00000000000E+00 0. -1.
         -2   -1    0    0    0  501 -0.00000000000E+00 -0.00000000000E+00 -0.33397745923E+03  0.33397745923E+03  0.00000000000E+00 0.  1.
        -24    2    1    2    0    0  0.30913880187E+03  0.18329512491E+03  0.35844041147E+02  0.36993788662E+03  0.80033386989E+02 0.  0.
        254    2    1    2    0    0 -0.30913880187E+03 -0.18329512491E+03  0.11837642928E+04  0.15176253658E+04  0.87904775089E+03 0.  0.
         23    2    4    4    0    0 -0.30947048918E+03 -0.51270475809E+03  0.80563306358E+03  0.10079967078E+04  0.91512715723E+02 0.  0.
         23    2    4    4    0    0  0.33168731212E+00  0.32940963317E+03  0.37813122922E+03  0.50962865800E+03  0.90704609048E+02 0.  0.
          1    1    3    3  502    0  0.14536960675E+03  0.13251102059E+03  0.21632172220E+02  0.19788745291E+03  0.00000000000E+00 0. -1.
         -2    1    3    3    0  502  0.16376919512E+03  0.50784104329E+02  0.14211868927E+02  0.17205043371E+03  0.00000000000E+00 0.  1.
         13    1    5    5    0    0 -0.14791122702E+03 -0.16392654165E+03  0.31651308941E+03  0.38591472880E+03  0.00000000000E+00 0.  1.
        -13    1    5    5    0    0 -0.16155926216E+03 -0.34877821644E+03  0.48911997417E+03  0.62208197899E+03  0.00000000000E+00 0. -1.
          1    1    6    6  503    0 -0.85860583646E+01  0.31345135919E+03  0.37828098570E+03  0.49134710655E+03  0.00000000000E+00 0. -1.
         -1    1    6    6    0  503  0.89177456767E+01  0.15958273978E+02 -0.14975647843E+00  0.18281551447E+02  0.00000000000E+00 0.  1.
<mgrwt>
<rscale>  0 0.14406424E+04</rscale>
<asrwt>0</asrwt>
<pdfrwt beam="1">  1        1 0.23901320E+00 0.14406424E+04</pdfrwt>
<pdfrwt beam="2">  1       -2 0.51381148E-01 0.14406424E+04</pdfrwt>
<totfact> 0.18333655E+01</totfact>
</mgrwt>
</event>
<event>
12    5  0.5221187E-008  0.1681203E+04  0.7818608E-02  0.8772158E-01
         -2   -1    0    0    0  501 -0.00000000000E+00  0.00000000000E+00  0.13012215022E+04  0.13012215022E+04  0.00000000000E+00 0.  1.
          1   -1    0    0  501    0  0.00000000000E+00 -0.00000000000E+00 -0.54303674034E+03  0.54303674034E+03  0.00000000000E+00 0. -1.
        -24    2    1    2    0    0 -0.31883895129E+03 -0.46960974778E+03  0.48034241460E+03  0.74791822665E+03  0.80381878725E+02 0.  0.
        254    2    1    2    0    0  0.31883895129E+03  0.46960974778E+03  0.27784234725E+03  0.10963400159E+04  0.89586464850E+03 0.  0.
         23    2    4    4    0    0  0.37505193258E+03 -0.12800607156E+03  0.27206760016E+03  0.48936404367E+03  0.91689048936E+02 0.  0.
         23    2    4    4    0    0 -0.56212981285E+02  0.59761581933E+03  0.57747470911E+01  0.60697597222E+03  0.89899479189E+02 0.  0.
          3    1    3    3  502    0 -0.34279696313E+02 -0.20869884134E+02  0.50249843807E+02  0.64309380698E+02  0.00000000000E+00 0. -1.
         -4    1    3    3    0  502 -0.28455925498E+03 -0.44873986364E+03  0.43009257079E+03  0.68360884595E+03  0.00000000000E+00 0.  1.
         13    1    5    5    0    0  0.33146629151E+03 -0.11386777040E+03  0.19876556035E+03  0.40291875052E+03  0.00000000000E+00 0. -1.
        -13    1    5    5    0    0  0.43585641068E+02 -0.14138301160E+02  0.73302039807E+02  0.86445293144E+02  0.00000000000E+00 0.  1.
          3    1    6    6  503    0 -0.77402028876E+02  0.53582303830E+03  0.10434266605E+02  0.54148525037E+03  0.00000000000E+00 0. -1.
         -3    1    6    6    0  503  0.21189047592E+02  0.61792781033E+02 -0.46595195135E+01  0.65490721845E+02  0.00000000000E+00 0.  1.
<mgrwt>
<rscale>  0 0.16812032E+04</rscale>
<asrwt>0</asrwt>
<pdfrwt beam="1">  1        1 0.83544114E-01 0.16812032E+04</pdfrwt>
<pdfrwt beam="2">  1       -2 0.20018792E+00 0.16812032E+04</pdfrwt>
<totfact> 0.43647003E+00</totfact>
</mgrwt>
</event>
<event>
12    5  0.5221187E-008  0.1891827E+04  0.7818608E-02  0.8658935E-01
          1   -1    0    0  501    0  0.00000000000E+00  0.00000000000E+00  0.11993995623E+04  0.11993995623E+04  0.00000000000E+00 0. -1.
         -2   -1    0    0    0  501 -0.00000000000E+00 -0.00000000000E+00 -0.74600056168E+03  0.74600056168E+03  0.00000000000E+00 0.  1.
        -24    2    1    2    0    0 -0.37045239975E+02 -0.32569991410E+03  0.84643049753E+03  0.91101861938E+03  0.77830288840E+02 0.  0.
        254    2    1    2    0    0  0.37045239975E+02  0.32569991410E+03 -0.39303149691E+03  0.10343815046E+04  0.89889852354E+03 0.  0.
         23    2    4    4    0    0  0.34128876895E+03  0.46731292230E+03 -0.35458182507E+03  0.68471443537E+03  0.90808568853E+02 0.  0.
         23    2    4    4    0    0 -0.30424352897E+03 -0.14161300820E+03 -0.38449671838E+02  0.34966706922E+03  0.90389783816E+02 0.  0.
          3    1    3    3  502    0 -0.56700878601E+01 -0.25860522822E+03  0.71204448518E+03  0.75757254625E+03  0.00000000000E+00 0. -1.
         -4    1    3    3    0  502 -0.31375152115E+02 -0.67094685877E+02  0.13438601235E+03  0.15344607312E+03  0.00000000000E+00 0.  1.
         13    1    5    5    0    0  0.11009038771E+03  0.14961594097E+03 -0.16498539426E+03  0.24844517218E+03  0.00000000000E+00 0.  1.
        -13    1    5    5    0    0  0.23119838123E+03  0.31769698133E+03 -0.18959643081E+03  0.43626926320E+03  0.00000000000E+00 0. -1.
          2    1    6    6  503    0 -0.15282203778E+03 -0.31983227348E+02 -0.45389328923E+02  0.16259671966E+03  0.00000000000E+00 0. -1.
         -2    1    6    6    0  503 -0.15142149119E+03 -0.10962978086E+03  0.69396570842E+01  0.18707034956E+03  0.00000000000E+00 0.  1.
<mgrwt>
<rscale>  0 0.18918274E+04</rscale>
<asrwt>0</asrwt>
<pdfrwt beam="1">  1        1 0.18452301E+00 0.18918274E+04</pdfrwt>
<pdfrwt beam="2">  1       -2 0.11476932E+00 0.18918274E+04</pdfrwt>
<totfact> 0.52053664E+00</totfact>
</mgrwt>
</event>
<event>
12    5  0.5221187E-008  0.1471628E+04  0.7818608E-02  0.8903542E-01
          1   -1    0    0  501    0  0.00000000000E+00  0.00000000000E+00  0.14838552771E+04  0.14838552771E+04  0.00000000000E+00 0. -1.
         -2   -1    0    0    0  501 -0.00000000000E+00 -0.00000000000E+00 -0.36487546614E+03  0.36487546614E+03  0.00000000000E+00 0.  1.
        -24    2    1    2    0    0 -0.31364091403E+03  0.31200634045E+03  0.21761222892E+03  0.49936442944E+03  0.79316907260E+02 0.  0.
        254    2    1    2    0    0  0.31364091403E+03 -0.31200634045E+03  0.90136758202E+03  0.13493663138E+04  0.90144736474E+03 0.  0.
         23    2    4    4    0    0  0.38350284584E+03 -0.85914216498E+02 -0.99099741810E+01  0.40346143558E+03  0.90704118124E+02 0.  0.
         23    2    4    4    0    0 -0.69861931814E+02 -0.22609212396E+03  0.91127755620E+03  0.94590487820E+03  0.91164226162E+02 0.  0.
          1    1    3    3  502    0 -0.20358072554E+03  0.18005755594E+03  0.17182899634E+03  0.32154477020E+03  0.00000000000E+00 0. -1.
         -2    1    3    3    0  502 -0.11006018849E+03  0.13194878452E+03  0.45783232581E+02  0.17781965924E+03  0.00000000000E+00 0.  1.
         13    1    5    5    0    0  0.18085575519E+03 -0.75402671998E+01  0.27184982527E+02  0.18304284495E+03  0.00000000000E+00 0. -1.
        -13    1    5    5    0    0  0.20264709066E+03 -0.78373949298E+02 -0.37094956708E+02  0.22041859063E+03  0.00000000000E+00 0.  1.
          3    1    6    6  503    0 -0.56895203244E+02 -0.19382203090E+03  0.60885579030E+03  0.64148999774E+03  0.00000000000E+00 0. -1.
         -3    1    6    6    0  503 -0.12966728571E+02 -0.32270093056E+02  0.30242176590E+03  0.30441488046E+03  0.00000000000E+00 0.  1.
<mgrwt>
<rscale>  0 0.14716282E+04</rscale>
<asrwt>0</asrwt>
<pdfrwt beam="1">  1        1 0.22828542E+00 0.14716282E+04</pdfrwt>
<pdfrwt beam="2">  1       -2 0.56134688E-01 0.14716282E+04</pdfrwt>
<totfact> 0.17013899E+01</totfact>
</mgrwt>
</event>
<event>
12    5  0.5221187E-008  0.1650590E+04  0.7818608E-02  0.8790057E-01
          1   -1    0    0  501    0  0.00000000000E+00  0.00000000000E+00  0.59852743001E+03  0.59852743001E+03  0.00000000000E+00 0. -1.
         -2   -1    0    0    0  501 -0.00000000000E+00 -0.00000000000E+00 -0.11379794960E+04  0.11379794960E+04  0.00000000000E+00 0.  1.
        -24    2    1    2    0    0 -0.49998953769E+03 -0.20606719636E+03 -0.37720700479E+03  0.66392150748E+03  0.77803704403E+02 0.  0.
        254    2    1    2    0    0  0.49998953769E+03  0.20606719636E+03 -0.16224506122E+03  0.10725854185E+04  0.91195547752E+03 0.  0.
         23    2    4    4    0    0  0.15263259675E+03 -0.72229248426E+02  0.34119960591E+03  0.39418729112E+03  0.10223832689E+03 0.  0.
         23    2    4    4    0    0  0.34735694094E+03  0.27829644479E+03 -0.50344466714E+03  0.67839812743E+03  0.93068420155E+02 0.  0.
          3    1    3    3  502    0  0.43812674924E+00 -0.73806643015E+01 -0.20110788981E+01  0.76622841838E+01  0.00000000000E+00 0. -1.
         -4    1    3    3    0  502 -0.50042766444E+03 -0.19868653206E+03 -0.37519592589E+03  0.65625922330E+03  0.00000000000E+00 0.  1.
         13    1    5    5    0    0 -0.76561957336E+01  0.52318111791E+01 -0.71633257823E-01  0.92733118490E+01  0.00000000000E+00 0.  1.
        -13    1    5    5    0    0  0.16028879249E+03 -0.77461059605E+02  0.34127123917E+03  0.38491397927E+03  0.00000000000E+00 0. -1.
          1    1    6    6  503    0  0.87121568829E+02  0.24245602374E+02 -0.86699666298E+02  0.12527908495E+03  0.00000000000E+00 0.  1.
         -1    1    6    6    0  503  0.26023537211E+03  0.25405084241E+03 -0.41674500084E+03  0.55311904248E+03  0.00000000000E+00 0. -1.
<mgrwt>
<rscale>  0 0.16505901E+04</rscale>
<asrwt>0</asrwt>
<pdfrwt beam="1">  1        1 0.92081144E-01 0.16505901E+04</pdfrwt>
<pdfrwt beam="2">  1       -2 0.17507377E+00 0.16505901E+04</pdfrwt>
<totfact> 0.56360933E+00</totfact>
</mgrwt>
</event>
<event>
12    5  0.5221187E-008  0.1607063E+04  0.7818608E-02  0.8816221E-01
         -2   -1    0    0    0  501 -0.00000000000E+00  0.00000000000E+00  0.28356300802E+03  0.28356300802E+03  0.00000000000E+00 0.  1.
          1   -1    0    0  501    0  0.00000000000E+00 -0.00000000000E+00 -0.22769631344E+04  0.22769631344E+04  0.00000000000E+00 0. -1.
        -24    2    1    2    0    0  0.10455127641E+03 -0.10734789932E+03 -0.15241657029E+04  0.15335993038E+04  0.79944941868E+02 0.  0.
        254    2    1    2    0    0 -0.10455127641E+03  0.10734789932E+03 -0.46923442350E+03  0.10269268387E+04  0.90107893488E+03 0.  0.
         23    2    4    4    0    0 -0.11913972366E+02  0.47888875670E+03 -0.39269165031E+03  0.62579783239E+03  0.89105615820E+02 0.  0.
         23    2    4    4    0    0 -0.92637304043E+02 -0.37154085738E+03 -0.76542773195E+02  0.40112900628E+03  0.91768212090E+02 0.  0.
          1    1    3    3  502    0  0.65223424513E+02 -0.11693216987E+02 -0.62725758712E+03  0.63074789498E+03  0.00000000000E+00 0. -1.
         -2    1    3    3    0  502  0.39327851896E+02 -0.95654682332E+02 -0.89690811578E+03  0.90285140878E+03  0.00000000000E+00 0.  1.
         13    1    5    5    0    0 -0.27237756029E+02  0.42106192373E+03 -0.30928707478E+03  0.52315727424E+03  0.00000000000E+00 0. -1.
        -13    1    5    5    0    0  0.15323783663E+02  0.57826832964E+02 -0.83404575529E+02  0.10264055814E+03  0.00000000000E+00 0.  1.
          3    1    6    6  503    0 -0.56827389045E+02 -0.20727385859E+03 -0.88827928764E+02  0.23255581164E+03  0.00000000000E+00 0. -1.
         -3    1    6    6    0  503 -0.35809914998E+02 -0.16426699879E+03  0.12285155569E+02  0.16857319464E+03  0.00000000000E+00 0.  1.
<mgrwt>
<rscale>  0 0.16070626E+04</rscale>
<asrwt>0</asrwt>
<pdfrwt beam="1">  1        1 0.35030202E+00 0.16070626E+04</pdfrwt>
<pdfrwt beam="2">  1       -2 0.43625078E-01 0.16070626E+04</pdfrwt>
<totfact> 0.81067438E+00</totfact>
</mgrwt>
</event>
<event>
12    5  0.5221187E-008  0.2173628E+04  0.7818608E-02  0.8529485E-01
         -2   -1    0    0    0  501 -0.00000000000E+00  0.00000000000E+00  0.10029138114E+04  0.10029138114E+04  0.00000000000E+00 0.  1.
          1   -1    0    0  501    0  0.00000000000E+00 -0.00000000000E+00 -0.11777334437E+04  0.11777334437E+04  0.00000000000E+00 0. -1.
        -24    2    1    2    0    0 -0.76484072899E+03 -0.34729528616E+03 -0.40392182618E+03  0.93512522158E+03  0.75571038519E+02 0.  0.
        254    2    1    2    0    0  0.76484072899E+03  0.34729528616E+03  0.22910219385E+03  0.12455220336E+04  0.89064132195E+03 0.  0.
         23    2    4    4    0    0  0.13942073413E+03  0.99886248274E+02  0.48325382659E+03  0.52082534778E+03  0.91155791201E+02 0.  0.
         23    2    4    4    0    0  0.62541999486E+03  0.24740903789E+03 -0.25415163274E+03  0.72469668579E+03  0.90723932781E+02 0.  0.
          1    1    3    3  502    0 -0.66351923673E+03 -0.28783354909E+03 -0.32080716532E+03  0.79121625793E+03  0.00000000000E+00 0. -1.
         -4    1    3    3    0  502 -0.10132149226E+03 -0.59461737076E+02 -0.83114660861E+02  0.14390896365E+03  0.00000000000E+00 0.  1.
         13    1    5    5    0    0  0.58984369826E+02  0.56484614252E+02  0.11278429751E+03  0.13924785562E+03  0.00000000000E+00 0. -1.
        -13    1    5    5    0    0  0.80436364307E+02  0.43401634022E+02  0.37046952908E+03  0.38157749215E+03  0.00000000000E+00 0.  1.
          4    1    6    6  503    0  0.27189263575E+03  0.82217428353E+02 -0.14801336459E+03  0.32030183733E+03  0.00000000000E+00 0. -1.
         -4    1    6    6    0  503  0.35352735910E+03  0.16519160954E+03 -0.10613826816E+03  0.40439484846E+03  0.00000000000E+00 0.  1.
<mgrwt>
<rscale>  0 0.21736284E+04</rscale>
<asrwt>0</asrwt>
<pdfrwt beam="1">  1        1 0.18118976E+00 0.21736284E+04</pdfrwt>
<pdfrwt beam="2">  1       -2 0.15429443E+00 0.21736284E+04</pdfrwt>
<totfact> 0.24717754E+00</totfact>
</mgrwt>
</event>
<event>
12    5  0.5221187E-008  0.1944414E+04  0.7818608E-02  0.8633059E-01
         -2   -1    0    0    0  501 -0.00000000000E+00  0.00000000000E+00  0.57673124713E+03  0.57673124713E+03  0.00000000000E+00 0.  1.
          1   -1    0    0  501    0  0.00000000000E+00 -0.00000000000E+00 -0.16388684348E+04  0.16388684348E+04  0.00000000000E+00 0. -1.
        -24    2    1    2    0    0 -0.85358501725E+02 -0.27431012774E+03 -0.12074740984E+04  0.12433868097E+04  0.74060381427E+02 0.  0.
        254    2    1    2    0    0  0.85358501725E+02  0.27431012774E+03  0.14533691076E+03  0.97221287225E+03  0.91735649087E+03 0.  0.
         23    2    4    4    0    0  0.39402854114E+03 -0.83130373597E+02  0.24513672590E+03  0.48048001072E+03  0.92735516752E+02 0.  0.
         23    2    4    4    0    0 -0.30867003942E+03  0.35744050134E+03 -0.99799815144E+02  0.49173286153E+03  0.93809907641E+02 0.  0.
          1    1    3    3  502    0 -0.97345873619E+02 -0.22246982512E+03 -0.10200227398E+04  0.10485301293E+04  0.00000000000E+00 0. -1.
         -2    1    3    3    0  502  0.11987371894E+02 -0.51840302619E+02 -0.18745135858E+03  0.19485668040E+03  0.00000000000E+00 0.  1.
         13    1    5    5    0    0  0.27190877167E+03 -0.99224066677E+02  0.15977726397E+03  0.33061846530E+03  0.00000000000E+00 0.  1.
        -13    1    5    5    0    0  0.12211976947E+03  0.16093693080E+02  0.85359461938E+02  0.14986154542E+03  0.00000000000E+00 0. -1.
          2    1    6    6  503    0 -0.17150249889E+03  0.15320047057E+03 -0.85317928572E+02  0.24528073761E+03  0.00000000000E+00 0. -1.
         -2    1    6    6    0  503 -0.13716754053E+03  0.20424003077E+03 -0.14481886572E+02  0.24645212392E+03  0.00000000000E+00 0.  1.
<mgrwt>
<rscale>  0 0.19444142E+04</rscale>
<asrwt>0</asrwt>
<pdfrwt beam="1">  1        1 0.25213360E+00 0.19444142E+04</pdfrwt>
<pdfrwt beam="2">  1       -2 0.88727884E-01 0.19444142E+04</pdfrwt>
<totfact> 0.46890308E+00</totfact>
</mgrwt>
</event>
<event>
12    5  0.5221187E-008  0.1936694E+04  0.7818608E-02  0.8636804E-01
         -2   -1    0    0    0  501 -0.00000000000E+00  0.00000000000E+00  0.10799073099E+04  0.10799073099E+04  0.00000000000E+00 0.  1.
          1   -1    0    0  501    0  0.00000000000E+00 -0.00000000000E+00 -0.86831109020E+03  0.86831109020E+03  0.00000000000E+00 0. -1.
        -24    2    1    2    0    0 -0.60543661248E+03  0.42160594143E+03 -0.98729637993E+02  0.74859630498E+03  0.79648131395E+02 0.  0.
        254    2    1    2    0    0  0.60543661248E+03 -0.42160594143E+03  0.31032585768E+03  0.11996220951E+04  0.89358042253E+03 0.  0.
         23    2    4    4    0    0  0.81978259268E+03 -0.23318118963E+03  0.21389607408E+03  0.88347114352E+03  0.91393459654E+02 0.  0.
         23    2    4    4    0    0 -0.21434598020E+03 -0.18842475180E+03  0.96429783603E+02  0.31615095158E+03  0.95940787475E+02 0.  0.
          3    1    3    3  502    0 -0.49827341022E+03  0.37784567586E+03 -0.69322493259E+02  0.62916560155E+03  0.00000000000E+00 0. -1.
         -4    1    3    3    0  502 -0.10716320226E+03  0.43760265567E+02 -0.29407144735E+02  0.11943070344E+03  0.00000000000E+00 0.  1.
         13    1    5    5    0    0  0.34780659599E+03 -0.58591424236E+02  0.64742686025E+02  0.35860005382E+03  0.00000000000E+00 0. -1.
        -13    1    5    5    0    0  0.47197599669E+03 -0.17458976539E+03  0.14915338805E+03  0.52487108970E+03  0.00000000000E+00 0.  1.
          1    1    6    6  503    0 -0.65261036868E+02 -0.11517077158E+03  0.22259020316E+02  0.13423402529E+03  0.00000000000E+00 0. -1.
         -1    1    6    6    0  503 -0.14908494333E+03 -0.73253980224E+02  0.74170763288E+02  0.18191692630E+03  0.00000000000E+00 0.  1.
<mgrwt>
<rscale>  0 0.19366936E+04</rscale>
<asrwt>0</asrwt>
<pdfrwt beam="1">  1        1 0.13358632E+00 0.19366936E+04</pdfrwt>
<pdfrwt beam="2">  1       -2 0.16613959E+00 0.19366936E+04</pdfrwt>
<totfact> 0.35877982E+00</totfact>
</mgrwt>
</event>
<event>
12    5  0.5221187E-008  0.1365672E+04  0.7818608E-02  0.8979048E-01
          1   -1    0    0  501    0  0.00000000000E+00  0.00000000000E+00  0.22032275043E+04  0.22032275043E+04  0.00000000000E+00 0. -1.
         -2   -1    0    0    0  501 -0.00000000000E+00 -0.00000000000E+00 -0.21162829811E+03  0.21162829811E+03  0.00000000000E+00 0.  1.
        -24    2    1    2    0    0  0.15645780802E+03 -0.23085462540E+03  0.91885935763E+03  0.96385153350E+03  0.83272779282E+02 0.  0.
        254    2    1    2    0    0 -0.15645780802E+03  0.23085462540E+03  0.10727398486E+04  0.14510042689E+04  0.93641321111E+03 0.  0.
         23    2    4    4    0    0  0.10509025554E+03  0.41829328422E+03  0.10212525382E+04  0.11123745209E+04  0.91690208911E+02 0.  0.
         23    2    4    4    0    0 -0.26154806356E+03 -0.18743865882E+03  0.51487310320E+02  0.33862974802E+03  0.92078894164E+02 0.  0.
          1    1    3    3  502    0  0.80761160245E+02 -0.81029319166E+02  0.49306870001E+03  0.50616682873E+03  0.00000000000E+00 0. -1.
         -2    1    3    3    0  502  0.75696647774E+02 -0.14982530623E+03  0.42579065762E+03  0.45768470478E+03  0.00000000000E+00 0.  1.
         13    1    5    5    0    0 -0.16766755623E+02  0.46980261704E+02  0.12796016309E+03  0.13733926030E+03  0.00000000000E+00 0. -1.
        -13    1    5    5    0    0  0.12185701117E+03  0.37131302251E+03  0.89329237515E+03  0.97503526058E+03  0.00000000000E+00 0.  1.
          4    1    6    6  503    0 -0.10644357877E+03 -0.13179880675E+03  0.35314831941E+02  0.17305576637E+03  0.00000000000E+00 0. -1.
         -4    1    6    6    0  503 -0.15510448480E+03 -0.55639852070E+02  0.16172478379E+02  0.16557398165E+03  0.00000000000E+00 0.  1.
<mgrwt>
<rscale>  0 0.13656724E+04</rscale>
<asrwt>0</asrwt>
<pdfrwt beam="1">  1        1 0.33895806E+00 0.13656724E+04</pdfrwt>
<pdfrwt beam="2">  1       -2 0.32558201E-01 0.13656724E+04</pdfrwt>
<totfact> 0.16389119E+01</totfact>
</mgrwt>
</event>
<event>
12    5  0.5221187E-008  0.2376459E+04  0.7818608E-02  0.8448370E-01
         -2   -1    0    0    0  501 -0.00000000000E+00  0.00000000000E+00  0.19597688666E+04  0.19597688666E+04  0.00000000000E+00 0.  1.
          1   -1    0    0  501    0  0.00000000000E+00 -0.00000000000E+00 -0.72043693160E+03  0.72043693160E+03  0.00000000000E+00 0. -1.
        -24    2    1    2    0    0  0.68440985627E+03  0.71365836607E+03  0.82088477376E+03  0.12876240327E+04  0.79992018899E+02 0.  0.
        254    2    1    2    0    0 -0.68440985627E+03 -0.71365836607E+03  0.41844716127E+03  0.13925817655E+04  0.88682626930E+03 0.  0.
         23    2    4    4    0    0 -0.40179910524E+03 -0.88946741357E+03  0.35148756755E+03  0.10413601454E+04  0.91063941778E+02 0.  0.
         23    2    4    4    0    0 -0.28261075103E+03  0.17580904750E+03  0.66959593723E+02  0.35122162009E+03  0.89974337686E+02 0.  0.
          3    1    3    3  502    0  0.35240010818E+03  0.35450850865E+03  0.46547083806E+03  0.68302651488E+03  0.00000000000E+00 0. -1.
         -4    1    3    3    0  502  0.33200974810E+03  0.35914985742E+03  0.35541393570E+03  0.60459751786E+03  0.00000000000E+00 0.  1.
         13    1    5    5    0    0 -0.15967944154E+03 -0.46393694004E+03  0.17342432526E+03  0.52039504703E+03  0.00000000000E+00 0. -1.
        -13    1    5    5    0    0 -0.24211966370E+03 -0.42553047353E+03  0.17806324229E+03  0.52096509836E+03  0.00000000000E+00 0.  1.
          2    1    6    6  503    0 -0.22434439116E+03  0.10204954599E+03  0.23247988084E+02  0.24755804296E+03  0.00000000000E+00 0.  1.
         -2    1    6    6    0  503 -0.58266359871E+02  0.73759501510E+02  0.43711605639E+02  0.10366357713E+03  0.00000000000E+00 0. -1.
<mgrwt>
<rscale>  0 0.23764594E+04</rscale>
<asrwt>0</asrwt>
<pdfrwt beam="1">  1        1 0.11083645E+00 0.23764594E+04</pdfrwt>
<pdfrwt beam="2">  1       -2 0.30150290E+00 0.23764594E+04</pdfrwt>
<totfact> 0.63865224E-01</totfact>
</mgrwt>
</event>
<event>
12    5  0.5221187E-008  0.1266663E+04  0.7818608E-02  0.9056428E-01
          1   -1    0    0  501    0  0.00000000000E+00  0.00000000000E+00  0.38777053638E+03  0.38777053638E+03  0.00000000000E+00 0. -1.
         -2   -1    0    0    0  501 -0.00000000000E+00 -0.00000000000E+00 -0.10343965465E+04  0.10343965465E+04  0.00000000000E+00 0.  1.
        -24    2    1    2    0    0 -0.18385453106E+03 -0.20166312211E+03 -0.91926277092E+01  0.28253797476E+03  0.72613355297E+02 0.  0.
        254    2    1    2    0    0  0.18385453106E+03  0.20166312211E+03 -0.63743338240E+03  0.11396291081E+04  0.90441289444E+03 0.  0.
         23    2    4    4    0    0  0.26423636990E+03 -0.28225717944E+03 -0.46369332626E+03  0.61053882020E+03  0.90863500015E+02 0.  0.
         23    2    4    4    0    0 -0.80381838840E+02  0.48392030155E+03 -0.17374005613E+03  0.52909028790E+03  0.95450654138E+02 0.  0.
          3    1    3    3  502    0 -0.17869663271E+03 -0.20439802617E+03  0.17760182099E+00  0.27149782907E+03  0.00000000000E+00 0. -1.
         -4    1    3    3    0  502 -0.51578983429E+01  0.27349040566E+01 -0.93702295302E+01  0.11040145695E+02  0.00000000000E+00 0.  1.
         13    1    5    5    0    0  0.18877829697E+03 -0.17208629995E+03 -0.36025640467E+03  0.44162836995E+03  0.00000000000E+00 0. -1.
        -13    1    5    5    0    0  0.75458072926E+02 -0.11017087949E+03 -0.10343692159E+03  0.16891045025E+03  0.00000000000E+00 0.  1.
          3    1    6    6  503    0 -0.35861086337E+02  0.21424415450E+03 -0.12750456866E+03  0.25188090495E+03  0.00000000000E+00 0. -1.
         -3    1    6    6    0  503 -0.44520752503E+02  0.26967614705E+03 -0.46235487476E+02  0.27720938295E+03  0.00000000000E+00 0.  1.
<mgrwt>
<rscale>  0 0.12666625E+04</rscale>
<asrwt>0</asrwt>
<pdfrwt beam="1">  1        1 0.59657006E-01 0.12666625E+04</pdfrwt>
<pdfrwt beam="2">  1       -2 0.15913793E+00 0.12666625E+04</pdfrwt>
<totfact> 0.13739334E+01</totfact>
</mgrwt>
</event>
<event>
12    5  0.5221187E-008  0.3136851E+04  0.7818608E-02  0.8205697E-01
          1   -1    0    0  501    0  0.00000000000E+00  0.00000000000E+00  0.21053616696E+04  0.21053616696E+04  0.00000000000E+00 0. -1.
         -2   -1    0    0    0  501 -0.00000000000E+00 -0.00000000000E+00 -0.11684255012E+04  0.11684255012E+04  0.00000000000E+00 0.  1.
        -24    2    1    2    0    0  0.48798792637E+03  0.13567208571E+04  0.34461430078E+03  0.14845477989E+04  0.79369077722E+02 0.  0.
        254    2    1    2    0    0 -0.48798792637E+03 -0.13567208571E+04  0.59232186753E+03  0.17892393719E+04  0.87846948428E+03 0.  0.
         23    2    4    4    0    0 -0.58877370708E+03 -0.12744841584E+04  0.27455571448E+03  0.14334124938E+04  0.91247952664E+02 0.  0.
         23    2    4    4    0    0  0.10078578071E+03 -0.82236698757E+02  0.31776615305E+03  0.35582687814E+03  0.93363756190E+02 0.  0.
          3    1    3    3  502    0  0.17421622677E+03  0.52620947619E+03  0.16949112906E+03  0.57963346120E+03  0.00000000000E+00 0. -1.
         -4    1    3    3    0  502  0.31377169960E+03  0.83051138092E+03  0.17512317172E+03  0.90491433770E+03  0.00000000000E+00 0.  1.
         13    1    5    5    0    0 -0.27696751377E+02 -0.12136731063E+03  0.22756801304E+02  0.12655040945E+03  0.00000000000E+00 0.  1.
        -13    1    5    5    0    0 -0.56107695570E+03 -0.11531168477E+04  0.25179891318E+03  0.13068620843E+04  0.00000000000E+00 0. -1.
          1    1    6    6  503    0  0.11405155108E+03 -0.88878698836E+02  0.27743361640E+03  0.31285234683E+03  0.00000000000E+00 0. -1.
         -1    1    6    6    0  503 -0.13265770373E+02  0.66420000796E+01  0.40332536649E+02  0.42974531309E+02  0.00000000000E+00 0.  1.
<mgrwt>
<rscale>  0 0.31368508E+04</rscale>
<asrwt>0</asrwt>
<pdfrwt beam="1">  1        1 0.32390179E+00 0.31368508E+04</pdfrwt>
<pdfrwt beam="2">  1       -2 0.17975777E+00 0.31368508E+04</pdfrwt>
<totfact> 0.34026114E-01</totfact>
</mgrwt>
</event>
<event>
12    5  0.5221187E-008  0.1319302E+04  0.7818608E-02  0.9014397E-01
         -2   -1    0    0    0  501 -0.00000000000E+00  0.00000000000E+00  0.22033864183E+03  0.22033864183E+03  0.00000000000E+00 0.  1.
          1   -1    0    0  501    0  0.00000000000E+00 -0.00000000000E+00 -0.19748674557E+04  0.19748674557E+04  0.00000000000E+00 0. -1.
        -24    2    1    2    0    0  0.26068349119E+03  0.22973863033E+03 -0.45583483779E+03  0.57861326111E+03  0.79197132183E+02 0.  0.
        254    2    1    2    0    0 -0.26068349119E+03 -0.22973863033E+03 -0.12986939761E+04  0.16165928364E+04  0.89779208864E+03 0.  0.
         23    2    4    4    0    0 -0.50134992556E+03 -0.40106024541E+03 -0.80053251952E+03  0.10302885230E+04  0.91875227689E+02 0.  0.
         23    2    4    4    0    0  0.24066643436E+03  0.17132161509E+03 -0.49816145657E+03  0.58630431345E+03  0.91194751713E+02 0.  0.
          3    1    3    3  502    0  0.58199531174E+02  0.86992612801E+02 -0.17689447263E+03  0.20553966663E+03  0.00000000000E+00 0. -1.
         -4    1    3    3    0  502  0.20248396002E+03  0.14274601753E+03 -0.27894036516E+03  0.37307359448E+03  0.00000000000E+00 0.  1.
         13    1    5    5    0    0 -0.34638147961E+02 -0.14158757698E+02 -0.82319166221E+02  0.90425200254E+02  0.00000000000E+00 0.  1.
        -13    1    5    5    0    0 -0.46671177760E+03 -0.38690148772E+03 -0.71821335330E+03  0.93986332272E+03  0.00000000000E+00 0. -1.
          3    1    6    6  503    0  0.22186407576E+03  0.15519840423E+03 -0.49068786520E+03  0.56043268449E+03  0.00000000000E+00 0. -1.
         -3    1    6    6    0  503  0.18802358599E+02  0.16123210853E+02 -0.74735913627E+01  0.25871628959E+02  0.00000000000E+00 0.  1.
<mgrwt>
<rscale>  0 0.13193023E+04</rscale>
<asrwt>0</asrwt>
<pdfrwt beam="1">  1        1 0.30382576E+00 0.13193023E+04</pdfrwt>
<pdfrwt beam="2">  1       -2 0.33898253E-01 0.13193023E+04</pdfrwt>
<totfact> 0.21762286E+01</totfact>
</mgrwt>
</event>
<event>
12    5  0.5221187E-008  0.1434628E+04  0.7818608E-02  0.8929127E-01
          3   -1    0    0  501    0  0.00000000000E+00  0.00000000000E+00  0.13400446582E+04  0.13400446582E+04  0.00000000000E+00 0. -1.
         -4   -1    0    0    0  501 -0.00000000000E+00 -0.00000000000E+00 -0.38397191565E+03  0.38397191565E+03  0.00000000000E+00 0.  1.
        -24    2    1    2    0    0  0.69567240934E+02 -0.15210928769E+03 -0.18169619821E+03  0.25962817577E+03  0.80102714058E+02 0.  0.
        254    2    1    2    0    0 -0.69567240934E+02  0.15210928769E+03  0.11377689408E+04  0.14643883981E+04  0.90660817417E+03 0.  0.
         23    2    4    4    0    0 -0.13357248129E+03  0.21023351414E+03 -0.50236270034E+02  0.26973389168E+03  0.90514922916E+02 0.  0.
         23    2    4    4    0    0  0.64005240355E+02 -0.58124226450E+02  0.11880052108E+04  0.11946545064E+04  0.91476293586E+02 0.  0.
          3    1    3    3  502    0  0.81451159993E+02 -0.10401827878E+03 -0.15388787215E+03  0.20281905971E+03  0.00000000000E+00 0. -1.
         -4    1    3    3    0  502 -0.11883919059E+02 -0.48091008912E+02 -0.27808326053E+02  0.56809116066E+02  0.00000000000E+00 0.  1.
         13    1    5    5    0    0 -0.94978766668E+02  0.17938381391E+03 -0.72506896582E+02  0.21553832342E+03  0.00000000000E+00 0. -1.
        -13    1    5    5    0    0 -0.38593714621E+02  0.30849700227E+02  0.22270626548E+02  0.54195568262E+02  0.00000000000E+00 0.  1.
          2    1    6    6  503    0 -0.12842146254E+02 -0.42521426262E+02  0.56297308892E+03  0.56472266756E+03  0.00000000000E+00 0. -1.
         -2    1    6    6    0  503  0.76847386609E+02 -0.15602800188E+02  0.62503212190E+03  0.62993183886E+03  0.00000000000E+00 0.  1.
<mgrwt>
<rscale>  0 0.14346282E+04</rscale>
<asrwt>0</asrwt>
<pdfrwt beam="1">  1        3 0.20616071E+00 0.14346282E+04</pdfrwt>
<pdfrwt beam="2">  1       -4 0.59072603E-01 0.14346282E+04</pdfrwt>
<totfact> 0.81364095E-01</totfact>
</mgrwt>
</event>
<event>
12    5  0.5221187E-008  0.2114741E+04  0.7818608E-02  0.8554778E-01
          1   -1    0    0  501    0  0.00000000000E+00  0.00000000000E+00  0.11558625044E+04  0.11558625044E+04  0.00000000000E+00 0. -1.
         -2   -1    0    0    0  501 -0.00000000000E+00 -0.00000000000E+00 -0.96727094253E+03  0.96727094253E+03  0.00000000000E+00 0.  1.
        -24    2    1    2    0    0 -0.10752736429E+01 -0.61558462158E+03  0.69009084698E+03  0.92831629891E+03  0.81241560810E+02 0.  0.
        254    2    1    2    0    0  0.10752736429E+01  0.61558462158E+03 -0.50149928514E+03  0.11948171480E+04  0.89282747581E+03 0.  0.
         23    2    4    4    0    0 -0.26228892499E+03  0.63200778209E+03 -0.87498815405E+02  0.69578042089E+03  0.90691976448E+02 0.  0.
         23    2    4    4    0    0  0.26336419863E+03 -0.16423160510E+02 -0.41400046974E+03  0.49903672709E+03  0.89503322414E+02 0.  0.
          3    1    3    3  502    0  0.34229793242E+01 -0.61628374799E+03  0.68368663909E+03  0.92045901336E+03  0.00000000000E+00 0. -1.
         -4    1    3    3    0  502 -0.44982529671E+01  0.69912640242E+00  0.64042078919E+01  0.78572855494E+01  0.00000000000E+00 0.  1.
         13    1    5    5    0    0 -0.22599929718E+03  0.58237439776E+03 -0.10107975346E+03  0.63281335167E+03  0.00000000000E+00 0.  1.
        -13    1    5    5    0    0 -0.36289627810E+02  0.49633384333E+02  0.13580938060E+02  0.62967069215E+02  0.00000000000E+00 0. -1.
          1    1    6    6  503    0  0.10921609003E+03  0.36850421239E+02 -0.16044322766E+03  0.19755540279E+03  0.00000000000E+00 0. -1.
         -1    1    6    6    0  503  0.15414810860E+03 -0.53273581749E+02 -0.25355724208E+03  0.30148132431E+03  0.00000000000E+00 0.  1.
<mgrwt>
<rscale>  0 0.21147408E+04</rscale>
<asrwt>0</asrwt>
<pdfrwt beam="1">  1        1 0.17782500E+00 0.21147408E+04</pdfrwt>
<pdfrwt beam="2">  1       -2 0.14881091E+00 0.21147408E+04</pdfrwt>
<totfact> 0.28391405E+00</totfact>
</mgrwt>
</event>
<event>
12    5  0.5221187E-008  0.2183966E+04  0.7818608E-02  0.8525132E-01
          1   -1    0    0  501    0  0.00000000000E+00  0.00000000000E+00  0.18915415488E+04  0.18915415488E+04  0.00000000000E+00 0. -1.
         -2   -1    0    0    0  501 -0.00000000000E+00 -0.00000000000E+00 -0.63039959687E+03  0.63039959687E+03  0.00000000000E+00 0.  1.
        -24    2    1    2    0    0 -0.19488165177E+03 -0.23848016845E+03 -0.45445660245E+03  0.55443342735E+03  0.77549809241E+02 0.  0.
        254    2    1    2    0    0  0.19488165177E+03  0.23848016845E+03  0.17155985543E+04  0.19675077183E+04  0.91266454567E+03 0.  0.
         23    2    4    4    0    0  0.15814655544E+03  0.14117873230E+03 -0.14947484145E+02  0.23146664322E+03  0.91714841700E+02 0.  0.
         23    2    4    4    0    0  0.36735096333E+02  0.97301436153E+02  0.17305460385E+04  0.17360410751E+04  0.90730293919E+02 0.  0.
          3    1    3    3  502    0 -0.10012721134E+03 -0.86821702754E+02 -0.14065412327E+03  0.19325384579E+03  0.00000000000E+00 0. -1.
         -4    1    3    3    0  502 -0.94754440438E+02 -0.15165846570E+03 -0.31380247917E+03  0.36117958156E+03  0.00000000000E+00 0.  1.
         13    1    5    5    0    0  0.99296580157E+01 -0.12641181963E+02  0.52364395926E+01  0.16906149454E+02  0.00000000000E+00 0.  1.
        -13    1    5    5    0    0  0.14821689743E+03  0.15381991426E+03 -0.20183923738E+02  0.21456049376E+03  0.00000000000E+00 0. -1.
          1    1    6    6  503    0  0.34351102658E+02  0.65555610599E+02  0.15984706685E+04  0.16001831190E+04  0.00000000000E+00 0. -1.
         -1    1    6    6    0  503  0.23839936750E+01  0.31745825554E+02  0.13207536997E+03  0.13585795604E+03  0.00000000000E+00 0.  1.
<mgrwt>
<rscale>  0 0.21839661E+04</rscale>
<asrwt>0</asrwt>
<pdfrwt beam="1">  1        1 0.29100639E+00 0.21839661E+04</pdfrwt>
<pdfrwt beam="2">  1       -2 0.96984554E-01 0.21839661E+04</pdfrwt>
<totfact> 0.25136442E+00</totfact>
</mgrwt>
</event>
<event>
12    5  0.5221187E-008  0.1580951E+04  0.7818608E-02  0.8832337E-01
         -2   -1    0    0    0  501 -0.00000000000E+00  0.00000000000E+00  0.40672678406E+03  0.40672678406E+03  0.00000000000E+00 0.  1.
          1   -1    0    0  501    0  0.00000000000E+00 -0.00000000000E+00 -0.15362935130E+04  0.15362935130E+04  0.00000000000E+00 0. -1.
        -24    2    1    2    0    0 -0.11792377083E+03  0.26871925091E+03 -0.92086332734E+03  0.96971137101E+03  0.78960901030E+02 0.  0.
        254    2    1    2    0    0  0.11792377083E+03 -0.26871925091E+03 -0.20870340159E+03  0.97330892605E+03  0.90424394062E+03 0.  0.
         23    2    4    4    0    0 -0.63696304283E+02 -0.55589307818E+03 -0.25142618515E+03  0.62040728495E+03  0.92821005718E+02 0.  0.
         23    2    4    4    0    0  0.18162007512E+03  0.28717382727E+03  0.42722783553E+02  0.35290164109E+03  0.85203716442E+02 0.  0.
          3    1    3    3  502    0 -0.20818405669E+02  0.14444760623E+03 -0.42330642740E+03  0.44775757776E+03  0.00000000000E+00 0. -1.
         -4    1    3    3    0  502 -0.97105365165E+02  0.12427164468E+03 -0.49755689994E+03  0.52195379325E+03  0.00000000000E+00 0.  1.
         13    1    5    5    0    0  0.20377373541E+02 -0.17084453862E+03 -0.93535679971E+02  0.19583671045E+03  0.00000000000E+00 0. -1.
        -13    1    5    5    0    0 -0.84073677825E+02 -0.38504853955E+03 -0.15789050517E+03  0.42457057451E+03  0.00000000000E+00 0.  1.
          2    1    6    6  503    0  0.21345655547E+02  0.47253573449E+00  0.71754940977E+01  0.22524387146E+02  0.00000000000E+00 0. -1.
         -2    1    6    6    0  503  0.16027441957E+03  0.28670129153E+03  0.35547289455E+02  0.33037725394E+03  0.00000000000E+00 0.  1.
<mgrwt>
<rscale>  0 0.15809513E+04</rscale>
<asrwt>0</asrwt>
<pdfrwt beam="1">  1        1 0.23635284E+00 0.15809513E+04</pdfrwt>
<pdfrwt beam="2">  1       -2 0.62573353E-01 0.15809513E+04</pdfrwt>
<totfact> 0.12332490E+01</totfact>
</mgrwt>
</event>
<event>
12    5  0.5221187E-008  0.2114966E+04  0.7818608E-02  0.8554679E-01
         -2   -1    0    0    0  501 -0.00000000000E+00  0.00000000000E+00  0.56884003866E+03  0.56884003866E+03  0.00000000000E+00 0.  1.
          1   -1    0    0  501    0  0.00000000000E+00 -0.00000000000E+00 -0.19658789012E+04  0.19658789012E+04  0.00000000000E+00 0. -1.
        -24    2    1    2    0    0 -0.32010830171E+03  0.78083875360E+03 -0.33315032440E+03  0.91080002070E+03  0.79931565109E+02 0.  0.
        254    2    1    2    0    0  0.32010830171E+03 -0.78083875360E+03 -0.10638885382E+04  0.16239189192E+04  0.89054778115E+03 0.  0.
         23    2    4    4    0    0  0.17250338632E+03 -0.92723509057E+03 -0.64194345724E+03  0.11444261621E+04  0.89986147856E+02 0.  0.
         23    2    4    4    0    0  0.14760491539E+03  0.14639633696E+03 -0.42194508092E+03  0.47949275706E+03  0.93040605283E+02 0.  0.
          1    1    3    3  502    0 -0.21806578983E+03  0.49579673188E+03 -0.25181146086E+03  0.59730737469E+03  0.00000000000E+00 0. -1.
         -2    1    3    3    0  502 -0.10204251189E+03  0.28504202172E+03 -0.81338863537E+02  0.31349264601E+03  0.00000000000E+00 0.  1.
         13    1    5    5    0    0  0.46781235813E+02 -0.20029641317E+03 -0.97968215150E+02  0.22782648734E+03  0.00000000000E+00 0. -1.
        -13    1    5    5    0    0  0.12572215051E+03 -0.72693867739E+03 -0.54397524209E+03  0.91659967479E+03  0.00000000000E+00 0.  1.
          1    1    6    6  503    0  0.25016717034E+02 -0.10037134238E+02 -0.74426269663E+02  0.79157121037E+02  0.00000000000E+00 0. -1.
         -1    1    6    6    0  503  0.12258819836E+03  0.15643347120E+03 -0.34751881126E+03  0.40033563602E+03  0.00000000000E+00 0.  1.
<mgrwt>
<rscale>  0 0.21149663E+04</rscale>
<asrwt>0</asrwt>
<pdfrwt beam="1">  1        1 0.30244291E+00 0.21149663E+04</pdfrwt>
<pdfrwt beam="2">  1       -2 0.87513852E-01 0.21149663E+04</pdfrwt>
<totfact> 0.28581323E+00</totfact>
</mgrwt>
</event>
<event>
12    5  0.5221187E-008  0.2311035E+04  0.7818608E-02  0.8473583E-01
         -2   -1    0    0    0  501 -0.00000000000E+00  0.00000000000E+00  0.12489414248E+04  0.12489414248E+04  0.00000000000E+00 0.  1.
          1   -1    0    0  501    0  0.00000000000E+00 -0.00000000000E+00 -0.10690816616E+04  0.10690816616E+04  0.00000000000E+00 0. -1.
        -24    2    1    2    0    0 -0.28021338621E+01 -0.37104100699E+03 -0.82770563408E+03  0.91176714715E+03  0.92430693576E+02 0.  0.
        254    2    1    2    0    0  0.28021338621E+01  0.37104100699E+03  0.10075653973E+04  0.14062559392E+04  0.90812359063E+03 0.  0.
         23    2    4    4    0    0 -0.33091532325E+03  0.50338191303E+02  0.64941636384E+02  0.35291007957E+03  0.91045172649E+02 0.  0.
         23    2    4    4    0    0  0.33371745711E+03  0.32070281569E+03  0.94262376092E+03  0.10533458596E+04  0.82342626624E+02 0.  0.
          1    1    3    3  502    0 -0.31716775139E+02 -0.19702798835E+03 -0.52158372183E+03  0.55845819977E+03  0.00000000000E+00 0. -1.
         -2    1    3    3    0  502  0.28914641277E+02 -0.17401301864E+03 -0.30612191225E+03  0.35330894738E+03  0.00000000000E+00 0.  1.
         13    1    5    5    0    0 -0.50924930059E+02  0.36245050014E+02  0.33193395185E+02  0.70773255089E+02  0.00000000000E+00 0.  1.
        -13    1    5    5    0    0 -0.27999039319E+03  0.14093141289E+02  0.31748241199E+02  0.28213682448E+03  0.00000000000E+00 0. -1.
          3    1    6    6  503    0  0.29712342831E+03  0.29654029957E+03  0.79074377753E+03  0.89526208599E+03  0.00000000000E+00 0. -1.
         -3    1    6    6    0  503  0.36594028805E+02  0.24162516118E+02  0.15187998340E+03  0.15808377363E+03  0.00000000000E+00 0.  1.
<mgrwt>
<rscale>  0 0.23110347E+04</rscale>
<asrwt>0</asrwt>
<pdfrwt beam="1">  1        1 0.16447410E+00 0.23110347E+04</pdfrwt>
<pdfrwt beam="2">  1       -2 0.19214483E+00 0.23110347E+04</pdfrwt>
<totfact> 0.15891041E+00</totfact>
</mgrwt>
</event>
<event>
12    5  0.5221187E-008  0.2143492E+04  0.7818608E-02  0.8542323E-01
          1   -1    0    0  501    0  0.00000000000E+00  0.00000000000E+00  0.36425672652E+04  0.36425672652E+04  0.00000000000E+00 0. -1.
         -2   -1    0    0    0  501 -0.00000000000E+00 -0.00000000000E+00 -0.31533794494E+03  0.31533794494E+03  0.00000000000E+00 0.  1.
        -24    2    1    2    0    0  0.87326847134E+02  0.21421729662E+03  0.29384013202E+04  0.29485601496E+04  0.79307053301E+02 0.  0.
        254    2    1    2    0    0 -0.87326847134E+02 -0.21421729662E+03  0.38882800006E+03  0.10093450606E+04  0.90226116467E+03 0.  0.
         23    2    4    4    0    0 -0.20742837366E+03  0.29605074392E+03  0.28101497066E+03  0.46691887499E+03  0.91494529440E+02 0.  0.
         23    2    4    4    0    0  0.12010152652E+03 -0.51026804054E+03  0.10781302940E+03  0.54242618558E+03  0.88344029903E+02 0.  0.
          3    1    3    3  502    0  0.86076132215E+02  0.20422837813E+03  0.24367674992E+04  0.24468253260E+04  0.00000000000E+00 0. -1.
         -4    1    3    3    0  502  0.12507149193E+01  0.99889184901E+01  0.50163382106E+03  0.50173482360E+03  0.00000000000E+00 0.  1.
         13    1    5    5    0    0 -0.20968186232E+03  0.27143228352E+03  0.27896530788E+03  0.44211266768E+03  0.00000000000E+00 0.  1.
        -13    1    5    5    0    0  0.22534886678E+01  0.24618460400E+02  0.20496627787E+01  0.24806207311E+02  0.00000000000E+00 0. -1.
          3    1    6    6  503    0  0.71077441992E+01  0.11200880579E+01 -0.16597667159E+01  0.73844058942E+01  0.00000000000E+00 0. -1.
         -3    1    6    6    0  503  0.11299378232E+03 -0.51138812860E+03  0.10947279611E+03  0.53504177968E+03  0.00000000000E+00 0.  1.
<mgrwt>
<rscale>  0 0.21434922E+04</rscale>
<asrwt>0</asrwt>
<pdfrwt beam="1">  1        1 0.56039494E+00 0.21434922E+04</pdfrwt>
<pdfrwt beam="2">  1       -2 0.48513532E-01 0.21434922E+04</pdfrwt>
<totfact> 0.62516285E-01</totfact>
</mgrwt>
</event>
<event>
12    5  0.5221187E-008  0.1319003E+04  0.7818608E-02  0.9014630E-01
          1   -1    0    0  501    0  0.00000000000E+00  0.00000000000E+00  0.71256382728E+03  0.71256382728E+03  0.00000000000E+00 0. -1.
         -2   -1    0    0    0  501 -0.00000000000E+00 -0.00000000000E+00 -0.61039089662E+03  0.61039089662E+03  0.00000000000E+00 0.  1.
        -24    2    1    2    0    0  0.24155923951E+03 -0.23374073704E+03 -0.50203471192E+02  0.34902313182E+03  0.79442807601E+02 0.  0.
        254    2    1    2    0    0 -0.24155923951E+03  0.23374073704E+03  0.15237640185E+03  0.97393159209E+03  0.90129827465E+03 0.  0.
         23    2    4    4    0    0  0.13274393006E+03  0.16727691379E+03 -0.29740717886E+03  0.37781880512E+03  0.93238954375E+02 0.  0.
         23    2    4    4    0    0 -0.37430316957E+03  0.66463823250E+02  0.44978358071E+03  0.59611278696E+03  0.92330291622E+02 0.  0.
          3    1    3    3  502    0  0.19677844008E+03 -0.19193980376E+03 -0.86915772275E+01  0.27502397397E+03  0.00000000000E+00 0. -1.
         -4    1    3    3    0  502  0.44780799435E+02 -0.41800933283E+02 -0.41511893965E+02  0.73999157845E+02  0.00000000000E+00 0.  1.
         13    1    5    5    0    0 -0.13494190672E+02  0.14522595507E+02 -0.14267989146E+02  0.24424874133E+02  0.00000000000E+00 0.  1.
        -13    1    5    5    0    0  0.14623812073E+03  0.15275431828E+03 -0.28313918972E+03  0.35339393099E+03  0.00000000000E+00 0. -1.
          4    1    6    6  503    0 -0.12447798976E+03 -0.19056424088E+02  0.16777885150E+03  0.20978002823E+03  0.00000000000E+00 0.  1.
         -4    1    6    6    0  503 -0.24982517980E+03  0.85520247338E+02  0.28200472921E+03  0.38633275873E+03  0.00000000000E+00 0. -1.
<mgrwt>
<rscale>  0 0.13190034E+04</rscale>
<asrwt>0</asrwt>
<pdfrwt beam="1">  1        1 0.10962520E+00 0.13190034E+04</pdfrwt>
<pdfrwt beam="2">  1       -2 0.93906292E-01 0.13190034E+04</pdfrwt>
<totfact> 0.21816091E+01</totfact>
</mgrwt>
</event>
<event>
12    5  0.5221187E-008  0.2360220E+04  0.7818608E-02  0.8454549E-01
         -4   -1    0    0    0  501 -0.00000000000E+00  0.00000000000E+00  0.64033945805E+03  0.64033945805E+03  0.00000000000E+00 0.  1.
          1   -1    0    0  501    0  0.00000000000E+00 -0.00000000000E+00 -0.21748764952E+04  0.21748764952E+04  0.00000000000E+00 0. -1.
        -24    2    1    2    0    0  0.51493522026E+02 -0.47510226319E+03 -0.17135412370E+04  0.17806647431E+04  0.78546884306E+02 0.  0.
        254    2    1    2    0    0 -0.51493522026E+02  0.47510226319E+03  0.17900419990E+03  0.10345512101E+04  0.89993330836E+03 0.  0.
         23    2    4    4    0    0 -0.26149986934E+03 -0.82798488624E+02 -0.17218621988E+03  0.33689652293E+03  0.92808412687E+02 0.  0.
         23    2    4    4    0    0  0.21000634732E+03  0.55790075182E+03  0.35119041977E+03  0.69765468720E+03  0.89618284031E+02 0.  0.
          3    1    3    3  502    0  0.42207857736E+02 -0.27691361501E+03 -0.86442739675E+03  0.90867891892E+03  0.00000000000E+00 0. -1.
         -4    1    3    3    0  502  0.92856642900E+01 -0.19818864818E+03 -0.84911384029E+03  0.87198582420E+03  0.00000000000E+00 0.  1.
         13    1    5    5    0    0 -0.10579636993E+02  0.14973422047E+02 -0.22656607137E+01  0.18473367456E+02  0.00000000000E+00 0. -1.
        -13    1    5    5    0    0 -0.25092023235E+03 -0.97771910671E+02 -0.16992055916E+03  0.31842315548E+03  0.00000000000E+00 0.  1.
          3    1    6    6  503    0  0.16319821731E+03  0.32954645401E+03  0.24216248476E+03  0.44031487882E+03  0.00000000000E+00 0. -1.
         -3    1    6    6    0  503  0.46808130006E+02  0.22835429781E+03  0.10902793501E+03  0.25733980838E+03  0.00000000000E+00 0.  1.
<mgrwt>
<rscale>  0 0.23602197E+04</rscale>
<asrwt>0</asrwt>
<pdfrwt beam="1">  1        1 0.33459638E+00 0.23602197E+04</pdfrwt>
<pdfrwt beam="2">  1       -4 0.98513763E-01 0.23602197E+04</pdfrwt>
<totfact> 0.85860472E-01</totfact>
</mgrwt>
</event>
<event>
12    5  0.5221187E-008  0.2150890E+04  0.7818608E-02  0.8539151E-01
         -2   -1    0    0    0  501 -0.00000000000E+00  0.00000000000E+00  0.83159360139E+03  0.83159360139E+03  0.00000000000E+00 0.  1.
          1   -1    0    0  501    0  0.00000000000E+00 -0.00000000000E+00 -0.13908019548E+04  0.13908019548E+04  0.00000000000E+00 0. -1.
        -24    2    1    2    0    0  0.62477752460E+03 -0.51358383983E+03  0.10961412429E+03  0.81994165186E+03  0.78573153438E+02 0.  0.
        254    2    1    2    0    0 -0.62477752460E+03  0.51358383983E+03 -0.66882247767E+03  0.14024539043E+04  0.93028927291E+03 0.  0.
         23    2    4    4    0    0 -0.61628242855E+03  0.73951676670E+03 -0.42145445556E+03  0.10551397157E+04  0.94904592247E+02 0.  0.
         23    2    4    4    0    0 -0.84950960423E+01 -0.22593292687E+03 -0.24736802211E+03  0.34731418857E+03  0.91205006021E+02 0.  0.
          1    1    3    3  502    0  0.19479332287E+02 -0.22011931383E+02  0.18841885330E+02  0.34913982190E+02  0.00000000000E+00 0. -1.
         -2    1    3    3    0  502  0.60529819231E+03 -0.49157190845E+03  0.90772238964E+02  0.78502766967E+03  0.00000000000E+00 0.  1.
         13    1    5    5    0    0 -0.20717362839E+03  0.31950240360E+03 -0.17623828053E+03  0.41959817651E+03  0.00000000000E+00 0.  1.
        -13    1    5    5    0    0 -0.40910880016E+03  0.42001436310E+03 -0.24521617504E+03  0.63554153922E+03  0.00000000000E+00 0. -1.
          1    1    6    6  503    0 -0.21802881143E+02 -0.20783697416E+03 -0.24866220489E+03  0.32481450951E+03  0.00000000000E+00 0. -1.
         -1    1    6    6    0  503  0.13307785100E+02 -0.18095952710E+02  0.12941827752E+01  0.22499679060E+02  0.00000000000E+00 0.  1.
<mgrwt>
<rscale>  0 0.21508901E+04</rscale>
<asrwt>0</asrwt>
<pdfrwt beam="1">  1        1 0.21396953E+00 0.21508901E+04</pdfrwt>
<pdfrwt beam="2">  1       -2 0.12793748E+00 0.21508901E+04</pdfrwt>
<totfact> 0.28341405E+00</totfact>
</mgrwt>
</event>
<event>
12    5  0.5221187E-008  0.1936288E+04  0.7818608E-02  0.8637001E-01
          1   -1    0    0  501    0  0.00000000000E+00  0.00000000000E+00  0.47324610623E+04  0.47324610623E+04  0.00000000000E+00 0. -1.
         -2   -1    0    0    0  501 -0.00000000000E+00 -0.00000000000E+00 -0.19805818774E+03  0.19805818774E+03  0.00000000000E+00 0.  1.
        -24    2    1    2    0    0 -0.33820718937E+03 -0.28052380606E+03  0.33324224416E+04  0.33624297536E+04  0.88412725005E+02 0.  0.
        254    2    1    2    0    0  0.33820718937E+03  0.28052380606E+03  0.12019804330E+04  0.15680894964E+04  0.90612912926E+03 0.  0.
         23    2    4    4    0    0  0.52777118621E+03  0.44907427396E+03  0.10399322698E+04  0.12534575609E+04  0.97399191944E+02 0.  0.
         23    2    4    4    0    0 -0.18956399684E+03 -0.16855046789E+03  0.16204816315E+03  0.31463193556E+03  0.91596280336E+02 0.  0.
          3    1    3    3  502    0 -0.26637113200E+03 -0.23280069561E+03  0.23856013422E+04  0.24116889326E+04  0.00000000000E+00 0. -1.
         -4    1    3    3    0  502 -0.71836057372E+02 -0.47723110452E+02  0.94682109939E+03  0.95074082097E+03  0.00000000000E+00 0.  1.
         13    1    5    5    0    0  0.26411851020E+03  0.16148745567E+03  0.46795753360E+03  0.56108915426E+03  0.00000000000E+00 0. -1.
        -13    1    5    5    0    0  0.26365267600E+03  0.28758681828E+03  0.57197473620E+03  0.69236840661E+03  0.00000000000E+00 0.  1.
          2    1    6    6  503    0 -0.12649554366E+03 -0.15154100675E+03  0.88691649579E+02  0.21640704239E+03  0.00000000000E+00 0. -1.
         -2    1    6    6    0  503 -0.63068453176E+02 -0.17009461143E+02  0.73356513572E+02  0.98224893168E+02  0.00000000000E+00 0.  1.
<mgrwt>
<rscale>  0 0.19362879E+04</rscale>
<asrwt>0</asrwt>
<pdfrwt beam="1">  1        1 0.72807085E+00 0.19362879E+04</pdfrwt>
<pdfrwt beam="2">  1       -2 0.30470494E-01 0.19362879E+04</pdfrwt>
<totfact> 0.15062546E-01</totfact>
</mgrwt>
</event>
<event>
12    5  0.5221187E-008  0.1324313E+04  0.7818608E-02  0.9010504E-01
         -2   -1    0    0    0  501 -0.00000000000E+00  0.00000000000E+00  0.26675427877E+03  0.26675427877E+03  0.00000000000E+00 0.  1.
          1   -1    0    0  501    0  0.00000000000E+00 -0.00000000000E+00 -0.16436529631E+04  0.16436529631E+04  0.00000000000E+00 0. -1.
        -24    2    1    2    0    0  0.18960257992E+03 -0.16542133972E+03 -0.72485997231E+03  0.77132388477E+03  0.78773078025E+02 0.  0.
        254    2    1    2    0    0 -0.18960257992E+03  0.16542133972E+03 -0.65203871203E+03  0.11390833571E+04  0.89946820650E+03 0.  0.
         23    2    4    4    0    0 -0.41483560928E+03  0.18718442243E+03 -0.74579001882E+03  0.87840644004E+03  0.90931463267E+02 0.  0.
         23    2    4    4    0    0  0.22523302936E+03 -0.21763082705E+02  0.93751306789E+02  0.26067691706E+03  0.89216580745E+02 0.  0.
          1    1    3    3  502    0  0.16859858593E+03 -0.10517787887E+03 -0.57796492767E+03  0.61117209278E+03  0.00000000000E+00 0. -1.
         -2    1    3    3    0  502  0.21003993994E+02 -0.60243460850E+02 -0.14689504464E+03  0.16015179199E+03  0.00000000000E+00 0.  1.
         13    1    5    5    0    0 -0.17149201073E+03  0.30504786268E+02 -0.26062941257E+03  0.31347686107E+03  0.00000000000E+00 0.  1.
        -13    1    5    5    0    0 -0.24334359855E+03  0.15667963616E+03 -0.48516060624E+03  0.56492957897E+03  0.00000000000E+00 0. -1.
          2    1    6    6  503    0  0.17179975567E+03  0.74289660517E+01  0.10089077173E+03  0.19937224833E+03  0.00000000000E+00 0. -1.
         -2    1    6    6    0  503  0.53433273693E+02 -0.29192048756E+02 -0.71394649454E+01  0.61304668728E+02  0.00000000000E+00 0.  1.
<mgrwt>
<rscale>  0 0.13243133E+04</rscale>
<asrwt>0</asrwt>
<pdfrwt beam="1">  1        1 0.25286969E+00 0.13243133E+04</pdfrwt>
<pdfrwt beam="2">  1       -2 0.41039119E-01 0.13243133E+04</pdfrwt>
<totfact> 0.25211975E+01</totfact>
</mgrwt>
</event>
<event>
12    5  0.5221187E-008  0.2946656E+04  0.7818608E-02  0.8259130E-01
         -2   -1    0    0    0  501 -0.00000000000E+00  0.00000000000E+00  0.15039967468E+04  0.15039967468E+04  0.00000000000E+00 0.  1.
          1   -1    0    0  501    0  0.00000000000E+00 -0.00000000000E+00 -0.14432850361E+04  0.14432850361E+04  0.00000000000E+00 0. -1.
        -24    2    1    2    0    0  0.91381618399E+03 -0.20178853931E+02  0.10099521292E+04  0.13661566054E+04  0.10446704146E+03 0.  0.
        254    2    1    2    0    0 -0.91381618399E+03  0.20178853931E+02 -0.94924041851E+03  0.15811251775E+04  0.87374610183E+03 0.  0.
         23    2    4    4    0    0 -0.32936845216E+03  0.19909236646E+03 -0.87265727610E+03  0.95818486158E+03  0.92011737152E+02 0.  0.
         23    2    4    4    0    0 -0.58444773183E+03 -0.17891351252E+03 -0.76583142406E+02  0.62294031590E+03  0.92738682657E+02 0.  0.
          1    1    3    3  502    0  0.30833735075E+03 -0.55602338043E+02  0.33181845122E+03  0.45636282323E+03  0.00000000000E+00 0. -1.
         -2    1    3    3    0  502  0.60547883325E+03  0.35423484112E+02  0.67813367801E+03  0.90979378212E+03  0.00000000000E+00 0.  1.
         13    1    5    5    0    0 -0.31190172243E+03  0.20692216020E+03 -0.80308854420E+03  0.88603085424E+03  0.00000000000E+00 0.  1.
        -13    1    5    5    0    0 -0.17466729734E+02 -0.78297937437E+01 -0.69568731904E+02  0.72154007348E+02  0.00000000000E+00 0. -1.
          3    1    6    6  503    0 -0.24500580721E+03 -0.82612057409E+02 -0.78107492792E+02  0.27009883011E+03  0.00000000000E+00 0. -1.
         -3    1    6    6    0  503 -0.33944192463E+03 -0.96301455116E+02  0.15243503860E+01  0.35284148579E+03  0.00000000000E+00 0.  1.
<mgrwt>
<rscale>  0 0.29466564E+04</rscale>
<asrwt>0</asrwt>
<pdfrwt beam="1">  1        1 0.22204385E+00 0.29466564E+04</pdfrwt>
<pdfrwt beam="2">  1       -2 0.23138412E+00 0.29466564E+04</pdfrwt>
<totfact> 0.45081227E-01</totfact>
</mgrwt>
</event>
<event>
12    5  0.5221187E-008  0.1107299E+04  0.7818608E-02  0.9198107E-01
          1   -1    0    0  501    0  0.00000000000E+00  0.00000000000E+00  0.21486506350E+04  0.21486506350E+04  0.00000000000E+00 0. -1.
         -2   -1    0    0    0  501 -0.00000000000E+00 -0.00000000000E+00 -0.14266063723E+03  0.14266063723E+03  0.00000000000E+00 0.  1.
        -24    2    1    2    0    0 -0.49199164708E+01  0.16941217111E+03  0.18498666133E+03  0.26362528783E+03  0.80953926497E+02 0.  0.
        254    2    1    2    0    0  0.49199164708E+01 -0.16941217111E+03  0.18210033364E+04  0.20276859844E+04  0.87563269166E+03 0.  0.
         23    2    4    4    0    0 -0.24836247389E+03 -0.22991729985E+03  0.16828391072E+04  0.17189652962E+04  0.91369282227E+02 0.  0.
         23    2    4    4    0    0  0.25328239036E+03  0.60505128740E+02  0.13816422921E+03  0.30872068814E+03  0.91685708714E+02 0.  0.
          3    1    3    3  502    0  0.13189679185E+02  0.23899440134E+02 -0.34520879076E+00  0.27299634518E+02  0.00000000000E+00 0. -1.
         -4    1    3    3    0  502 -0.18109595656E+02  0.14551273097E+03  0.18533187012E+03  0.23632565331E+03  0.00000000000E+00 0.  1.
         13    1    5    5    0    0 -0.12732774298E+03 -0.15808224197E+03  0.82171194616E+03  0.84641176258E+03  0.00000000000E+00 0.  1.
        -13    1    5    5    0    0 -0.12103473091E+03 -0.71835057873E+02  0.86112716104E+03  0.87255353367E+03  0.00000000000E+00 0. -1.
          1    1    6    6  503    0  0.21098628148E+03  0.28079711065E+02  0.74076992424E+02  0.22536876880E+03  0.00000000000E+00 0. -1.
         -1    1    6    6    0  503  0.42296108881E+02  0.32425417676E+02  0.64087236791E+02  0.83351919339E+02  0.00000000000E+00 0.  1.
<mgrwt>
<rscale>  0 0.11072992E+04</rscale>
<asrwt>0</asrwt>
<pdfrwt beam="1">  1        1 0.33056161E+00 0.11072992E+04</pdfrwt>
<pdfrwt beam="2">  1       -2 0.21947792E-01 0.11072992E+04</pdfrwt>
<totfact> 0.37598840E+01</totfact>
</mgrwt>
</event>
<event>
12    5  0.5221187E-008  0.1175750E+04  0.7818608E-02  0.9134351E-01
          1   -1    0    0  501    0  0.00000000000E+00  0.00000000000E+00  0.74180534750E+03  0.74180534750E+03  0.00000000000E+00 0. -1.
         -2   -1    0    0    0  501 -0.00000000000E+00 -0.00000000000E+00 -0.46588665109E+03  0.46588665109E+03  0.00000000000E+00 0.  1.
        -24    2    1    2    0    0 -0.17479035383E+03 -0.15540623544E+03  0.55929365051E+02  0.25282198381E+03  0.78026250808E+02 0.  0.
        254    2    1    2    0    0  0.17479035383E+03  0.15540623544E+03  0.21998933136E+03  0.95487001477E+03  0.89926563005E+03 0.  0.
         23    2    4    4    0    0  0.30343280153E+03  0.90784298899E+02 -0.27656275706E+03  0.42984157812E+03  0.89238835236E+02 0.  0.
         23    2    4    4    0    0 -0.12864244770E+03  0.64621936545E+02  0.49655208842E+03  0.52502843666E+03  0.91465888450E+02 0.  0.
          1    1    3    3  502    0 -0.15960269694E+03 -0.14274900472E+03  0.73481610036E+02  0.22638428884E+03  0.00000000000E+00 0. -1.
         -2    1    3    3    0  502 -0.15187656894E+02 -0.12657230723E+02 -0.17552244985E+02  0.26437694974E+02  0.00000000000E+00 0.  1.
         13    1    5    5    0    0  0.43382699743E+02 -0.16451531830E+02 -0.53670591238E+02  0.70945358554E+02  0.00000000000E+00 0. -1.
        -13    1    5    5    0    0  0.26005010178E+03  0.10723583073E+03 -0.22289216582E+03  0.35889621956E+03  0.00000000000E+00 0.  1.
          2    1    6    6  503    0  0.99085485544E+01  0.24017808346E+02  0.66967483306E+02  0.71830900540E+02  0.00000000000E+00 0. -1.
         -2    1    6    6    0  503 -0.13855099625E+03  0.40604128199E+02  0.42958460512E+03  0.45319753612E+03  0.00000000000E+00 0.  1.
<mgrwt>
<rscale>  0 0.11757503E+04</rscale>
<asrwt>0</asrwt>
<pdfrwt beam="1">  1        1 0.11412390E+00 0.11757503E+04</pdfrwt>
<pdfrwt beam="2">  1       -2 0.71674869E-01 0.11757503E+04</pdfrwt>
<totfact> 0.38200163E+01</totfact>
</mgrwt>
</event>
<event>
12    5  0.5221187E-008  0.3777187E+04  0.7818608E-02  0.8051068E-01
         -2   -1    0    0    0  501 -0.00000000000E+00  0.00000000000E+00  0.76318334701E+03  0.76318334701E+03  0.00000000000E+00 0.  1.
          1   -1    0    0  501    0  0.00000000000E+00 -0.00000000000E+00 -0.46735637483E+04  0.46735637483E+04  0.00000000000E+00 0. -1.
        -24    2    1    2    0    0  0.31783063644E+03  0.14874948697E+04 -0.51043052750E+03  0.16064061162E+04  0.79649142659E+02 0.  0.
        254    2    1    2    0    0 -0.31783063644E+03 -0.14874948697E+04 -0.33999498738E+04  0.38303409791E+04  0.89341791499E+03 0.  0.
         23    2    4    4    0    0  0.26161668918E+03 -0.65955147414E+03 -0.17839270907E+04  0.19221514935E+04  0.93909850058E+02 0.  0.
         23    2    4    4    0    0 -0.57944732563E+03 -0.82794339559E+03 -0.16160227831E+04  0.19081894856E+04  0.91695190438E+02 0.  0.
          1    1    3    3  502    0  0.41558880992E+02  0.31274504651E+03 -0.12786590405E+03  0.34042076042E+03  0.00000000000E+00 0. -1.
         -2    1    3    3    0  502  0.27627175545E+03  0.11747498232E+04 -0.38256462345E+03  0.12659853558E+04  0.00000000000E+00 0.  1.
         13    1    5    5    0    0  0.11194933593E+03 -0.25069230579E+03 -0.81197902802E+03  0.85714014487E+03  0.00000000000E+00 0.  1.
        -13    1    5    5    0    0  0.14966735326E+03 -0.40885916835E+03 -0.97194806265E+03  0.10650113486E+04  0.00000000000E+00 0. -1.
          4    1    6    6  503    0 -0.45028587425E+02 -0.38247483492E+02 -0.12627889027E+03  0.13941593097E+03  0.00000000000E+00 0. -1.
         -4    1    6    6    0  503 -0.53441873820E+03 -0.78969591210E+03 -0.14897438929E+04  0.17687735547E+04  0.00000000000E+00 0.  1.
<mgrwt>
<rscale>  0 0.37771873E+04</rscale>
<asrwt>0</asrwt>
<pdfrwt beam="1">  1        1 0.71900980E+00 0.37771873E+04</pdfrwt>
<pdfrwt beam="2">  1       -2 0.11741282E+00 0.37771873E+04</pdfrwt>
<totfact> 0.82466947E-03</totfact>
</mgrwt>
</event>
<event>
12    5  0.5221187E-008  0.1780287E+04  0.7818608E-02  0.8716853E-01
         -2   -1    0    0    0  501 -0.00000000000E+00  0.00000000000E+00  0.27384273319E+03  0.27384273319E+03  0.00000000000E+00 0.  1.
          1   -1    0    0  501    0  0.00000000000E+00 -0.00000000000E+00 -0.28934694757E+04  0.28934694757E+04  0.00000000000E+00 0. -1.
        -24    2    1    2    0    0 -0.43055493368E+03 -0.11168892862E+03 -0.11756582747E+03  0.46724211291E+03  0.81495402337E+02 0.  0.
        254    2    1    2    0    0  0.43055493368E+03  0.11168892862E+03 -0.25020609150E+04  0.27000700960E+04  0.91225968501E+03 0.  0.
         23    2    4    4    0    0  0.37107198171E+01 -0.33316454337E+03 -0.13128268041E+04  0.13575092323E+04  0.91130213334E+02 0.  0.
         23    2    4    4    0    0  0.42684421386E+03  0.44485347199E+03 -0.11892341109E+04  0.13425608636E+04  0.90007264223E+02 0.  0.
          1    1    3    3  502    0 -0.14454084046E+03 -0.66270985595E+02 -0.13765853787E+02  0.15960387471E+03  0.00000000000E+00 0. -1.
         -2    1    3    3    0  502 -0.28601409322E+03 -0.45417943021E+02 -0.10379997368E+03  0.30763823820E+03  0.00000000000E+00 0.  1.
         13    1    5    5    0    0  0.11098977897E+02 -0.21543932555E+03 -0.66760050074E+03  0.70158942331E+03  0.00000000000E+00 0.  1.
        -13    1    5    5    0    0 -0.73882580801E+01 -0.11772521782E+03 -0.64522630340E+03  0.65591980902E+03  0.00000000000E+00 0. -1.
          2    1    6    6  503    0  0.61457742998E+02  0.10091690309E+03 -0.17763953760E+03  0.21334732439E+03  0.00000000000E+00 0. -1.
         -2    1    6    6    0  503  0.36538647086E+03  0.34393656890E+03 -0.10115945733E+04  0.11292135392E+04  0.00000000000E+00 0.  1.
<mgrwt>
<rscale>  0 0.17802872E+04</rscale>
<asrwt>0</asrwt>
<pdfrwt beam="1">  1        1 0.44514913E+00 0.17802872E+04</pdfrwt>
<pdfrwt beam="2">  1       -2 0.42129653E-01 0.17802872E+04</pdfrwt>
<totfact> 0.31747720E+00</totfact>
</mgrwt>
</event>
<event>
12    5  0.5221187E-008  0.1479855E+04  0.7818608E-02  0.8897960E-01
          1   -1    0    0  501    0  0.00000000000E+00  0.00000000000E+00  0.15607785663E+04  0.15607785663E+04  0.00000000000E+00 0. -1.
         -2   -1    0    0    0  501 -0.00000000000E+00 -0.00000000000E+00 -0.35078201640E+03  0.35078201640E+03  0.00000000000E+00 0.  1.
        -24    2    1    2    0    0  0.11777991074E+03 -0.24105376760E+03  0.86233357722E+03  0.90670283062E+03  0.80695714910E+02 0.  0.
        254    2    1    2    0    0 -0.11777991074E+03  0.24105376760E+03  0.34766297263E+03  0.10048577520E+04  0.90381996717E+03 0.  0.
         23    2    4    4    0    0  0.78784179590E+02  0.28476369952E+03  0.59648353307E+03  0.67193912276E+03  0.91718416660E+02 0.  0.
         23    2    4    4    0    0 -0.19656409033E+03 -0.43709931920E+02 -0.24882056044E+03  0.33291862928E+03  0.91515805569E+02 0.  0.
          3    1    3    3  502    0  0.10829611138E+03 -0.24507525360E+03  0.84578176442E+03  0.88720725915E+03  0.00000000000E+00 0. -1.
         -4    1    3    3    0  502  0.94837993547E+01  0.40214860012E+01  0.16551812804E+02  0.19495571471E+02  0.00000000000E+00 0.  1.
         13    1    5    5    0    0  0.30270236973E+01  0.66596447270E+02  0.68148104536E+02  0.95333172681E+02  0.00000000000E+00 0.  1.
        -13    1    5    5    0    0  0.75757155892E+02  0.21816725224E+03  0.52833542853E+03  0.57660595008E+03  0.00000000000E+00 0. -1.
          4    1    6    6  503    0 -0.20222014262E+03 -0.48338263315E+02 -0.25037246335E+03  0.32544729863E+03  0.00000000000E+00 0. -1.
         -4    1    6    6    0  503  0.56560522902E+01  0.46283313949E+01  0.15519029130E+01  0.74713306487E+01  0.00000000000E+00 0.  1.
<mgrwt>
<rscale>  0 0.14798555E+04</rscale>
<asrwt>0</asrwt>
<pdfrwt beam="1">  1        1 0.24011977E+00 0.14798555E+04</pdfrwt>
<pdfrwt beam="2">  1       -2 0.53966465E-01 0.14798555E+04</pdfrwt>
<totfact> 0.16328009E+01</totfact>
</mgrwt>
</event>
<event>
12    5  0.5221187E-008  0.2482064E+04  0.7818608E-02  0.8409403E-01
          1   -1    0    0  501    0  0.00000000000E+00  0.00000000000E+00  0.59753588524E+03  0.59753588524E+03  0.00000000000E+00 0. -1.
         -2   -1    0    0    0  501 -0.00000000000E+00 -0.00000000000E+00 -0.25775189006E+04  0.25775189006E+04  0.00000000000E+00 0.  1.
        -24    2    1    2    0    0 -0.54100256027E+03 -0.16010986029E+03  0.31013658288E+03  0.64926118614E+03  0.83883551473E+02 0.  0.
        254    2    1    2    0    0  0.54100256027E+03  0.16010986029E+03 -0.22901195982E+04  0.25257935997E+04  0.90369607529E+03 0.  0.
         23    2    4    4    0    0  0.72506659225E+02  0.42933979903E+03 -0.58468724669E+03  0.73448135185E+03  0.89519836365E+02 0.  0.
         23    2    4    4    0    0  0.46849590105E+03 -0.26922993874E+03 -0.17054323515E+04  0.17913122478E+04  0.91251818745E+02 0.  0.
          3    1    3    3  502    0 -0.32569564711E+03 -0.82999619258E+02  0.22852989436E+03  0.40643880715E+03  0.00000000000E+00 0. -1.
         -4    1    3    3    0  502 -0.21530691316E+03 -0.77110241028E+02  0.81606688520E+02  0.24282237899E+03  0.00000000000E+00 0.  1.
         13    1    5    5    0    0  0.84362384637E+02  0.23286241522E+03 -0.32911324499E+03  0.41189494339E+03  0.00000000000E+00 0. -1.
        -13    1    5    5    0    0 -0.11855725412E+02  0.19647738381E+03 -0.25557400171E+03  0.32258640846E+03  0.00000000000E+00 0.  1.
          2    1    6    6  503    0  0.39621972552E+03 -0.18713805399E+03 -0.13923814369E+04  0.14597043495E+04  0.00000000000E+00 0.  1.
         -2    1    6    6    0  503  0.72276175529E+02 -0.82091884749E+02 -0.31305091460E+03  0.33160789831E+03  0.00000000000E+00 0. -1.
<mgrwt>
<rscale>  0 0.24820637E+04</rscale>
<asrwt>0</asrwt>
<pdfrwt beam="1">  1        1 0.91928600E-01 0.24820637E+04</pdfrwt>
<pdfrwt beam="2">  1       -2 0.39654136E+00 0.24820637E+04</pdfrwt>
<totfact> 0.21015154E-01</totfact>
</mgrwt>
</event>
<event>
12    5  0.5221187E-008  0.2406528E+04  0.7818608E-02  0.8437064E-01
         -2   -1    0    0    0  501 -0.00000000000E+00  0.00000000000E+00  0.58154877898E+03  0.58154877898E+03  0.00000000000E+00 0.  1.
          1   -1    0    0  501    0  0.00000000000E+00 -0.00000000000E+00 -0.24896348105E+04  0.24896348105E+04  0.00000000000E+00 0. -1.
        -24    2    1    2    0    0  0.89680170324E+03  0.21759562401E+03 -0.21506652721E+03  0.95085051539E+03  0.79132426792E+02 0.  0.
        254    2    1    2    0    0 -0.89680170324E+03 -0.21759562401E+03 -0.16930195043E+04  0.21203330741E+04  0.88198421332E+03 0.  0.
         23    2    4    4    0    0  0.11443493468E+03  0.13243895150E+03 -0.20003835888E+03  0.28126009791E+03  0.91959053381E+02 0.  0.
         23    2    4    4    0    0 -0.10112366379E+04 -0.35003457551E+03 -0.14929811454E+04  0.18390729762E+04  0.89849703218E+02 0.  0.
          3    1    3    3  502    0  0.42715179185E+02  0.11914067464E+02  0.65451340456E+01  0.44826000447E+02  0.00000000000E+00 0. -1.
         -4    1    3    3    0  502  0.85408652405E+03  0.20568155655E+03 -0.22161166125E+03  0.90602451494E+03  0.00000000000E+00 0.  1.
         13    1    5    5    0    0  0.26011197969E+01  0.44742424715E+02 -0.93354914301E+02  0.10355573580E+03  0.00000000000E+00 0. -1.
        -13    1    5    5    0    0  0.11183381489E+03  0.87696526786E+02 -0.10668344458E+03  0.17770436210E+03  0.00000000000E+00 0.  1.
          1    1    6    6  503    0 -0.92203117371E+03 -0.33890548193E+03 -0.13940898299E+04  0.17054280591E+04  0.00000000000E+00 0. -1.
         -1    1    6    6    0  503 -0.89205464215E+02 -0.11129093576E+02 -0.98891315491E+02  0.13364491704E+03  0.00000000000E+00 0.  1.
<mgrwt>
<rscale>  0 0.24065279E+04</rscale>
<asrwt>0</asrwt>
<pdfrwt beam="1">  1        1 0.38302075E+00 0.24065279E+04</pdfrwt>
<pdfrwt beam="2">  1       -2 0.89469041E-01 0.24065279E+04</pdfrwt>
<totfact> 0.11615098E+00</totfact>
</mgrwt>
</event>
<event>
12    5  0.5221187E-008  0.1833467E+04  0.7818608E-02  0.8688702E-01
          1   -1    0    0  501    0  0.00000000000E+00  0.00000000000E+00  0.63966883893E+03  0.63966883893E+03  0.00000000000E+00 0. -1.
         -4   -1    0    0    0  501 -0.00000000000E+00 -0.00000000000E+00 -0.13138050851E+04  0.13138050851E+04  0.00000000000E+00 0.  1.
        -24    2    1    2    0    0 -0.96501535760E+02 -0.67649914613E+03 -0.14722694656E+03  0.70307332811E+03  0.75317260894E+02 0.  0.
        254    2    1    2    0    0  0.96501535760E+02  0.67649914613E+03 -0.52690929959E+03  0.12504005959E+04  0.90493347771E+03 0.  0.
         23    2    4    4    0    0  0.47002146033E+03  0.53702383197E+03 -0.39415599374E+03  0.82041635065E+03  0.91702081424E+02 0.  0.
         23    2    4    4    0    0 -0.37351992457E+03  0.13947531416E+03 -0.13275330584E+03  0.42998424523E+03  0.91063239699E+02 0.  0.
          3    1    3    3  502    0 -0.66712217159E+02 -0.61785618242E+03 -0.12736728718E+03  0.63436520075E+03  0.00000000000E+00 0. -1.
         -4    1    3    3    0  502 -0.29789318602E+02 -0.58642963711E+02 -0.19859659377E+02  0.68708127366E+02  0.00000000000E+00 0.  1.
         13    1    5    5    0    0  0.12341512435E+03  0.15830093747E+03 -0.15733779323E+03  0.25504050835E+03  0.00000000000E+00 0. -1.
        -13    1    5    5    0    0  0.34660633598E+03  0.37872289450E+03 -0.23681820051E+03  0.56537584230E+03  0.00000000000E+00 0.  1.
          3    1    6    6  503    0 -0.22205473997E+03  0.12928274883E+03 -0.76584557723E+02  0.26811850210E+03  0.00000000000E+00 0. -1.
         -3    1    6    6    0  503 -0.15146518460E+03  0.10192565336E+02 -0.56168748121E+02  0.16186574314E+03  0.00000000000E+00 0.  1.
<mgrwt>
<rscale>  0 0.18334669E+04</rscale>
<asrwt>0</asrwt>
<pdfrwt beam="1">  1        1 0.98410591E-01 0.18334669E+04</pdfrwt>
<pdfrwt beam="2">  1       -4 0.20212386E+00 0.18334669E+04</pdfrwt>
<totfact> 0.17939757E+00</totfact>
</mgrwt>
</event>
<event>
12    5  0.5221187E-008  0.1332497E+04  0.7818608E-02  0.9004184E-01
          1   -1    0    0  501    0  0.00000000000E+00  0.00000000000E+00  0.13451785549E+04  0.13451785549E+04  0.00000000000E+00 0. -1.
         -2   -1    0    0    0  501 -0.00000000000E+00 -0.00000000000E+00 -0.32998390402E+03  0.32998390402E+03  0.00000000000E+00 0.  1.
        -24    2    1    2    0    0 -0.22066967225E+03 -0.66723516888E+02 -0.97018238848E+02  0.26030659639E+03  0.72110009682E+02 0.  0.
        254    2    1    2    0    0  0.22066967225E+03  0.66723516888E+02  0.11122128897E+04  0.14148558625E+04  0.84359496660E+03 0.  0.
         23    2    4    4    0    0 -0.10548647577E+03 -0.30478836265E+03  0.65386859159E+03  0.73472896517E+03  0.90880001195E+02 0.  0.
         23    2    4    4    0    0  0.32615614802E+03  0.37151187954E+03  0.45834429812E+03  0.68012689733E+03  0.89967723795E+02 0.  0.
          1    1    3    3  502    0 -0.44932615235E+02  0.15092539359E+02 -0.24315816997E+02  0.53272728599E+02  0.00000000000E+00 0. -1.
         -2    1    3    3    0  502 -0.17573705702E+03 -0.81816056247E+02 -0.72702421851E+02  0.20703386779E+03  0.00000000000E+00 0.  1.
         13    1    5    5    0    0 -0.66605692779E+02 -0.75090760082E+02  0.16383880536E+03  0.19214081998E+03  0.00000000000E+00 0. -1.
        -13    1    5    5    0    0 -0.38880782992E+02 -0.22969760257E+03  0.49002978623E+03  0.54258814520E+03  0.00000000000E+00 0.  1.
          3    1    6    6  503    0  0.14761549225E+03  0.10335094385E+03  0.17179868624E+03  0.24897096164E+03  0.00000000000E+00 0. -1.
         -3    1    6    6    0  503  0.17854065577E+03  0.26816093569E+03  0.28654561188E+03  0.43115593569E+03  0.00000000000E+00 0.  1.
<mgrwt>
<rscale>  0 0.13324973E+04</rscale>
<asrwt>0</asrwt>
<pdfrwt beam="1">  1        1 0.20695054E+00 0.13324973E+04</pdfrwt>
<pdfrwt beam="2">  1       -2 0.50766755E-01 0.13324973E+04</pdfrwt>
<totfact> 0.26489531E+01</totfact>
</mgrwt>
</event>
<event>
12    5  0.5221187E-008  0.1602923E+04  0.7818608E-02  0.8818754E-01
         -2   -1    0    0    0  501 -0.00000000000E+00  0.00000000000E+00  0.20412687695E+03  0.20412687695E+03  0.00000000000E+00 0.  1.
          1   -1    0    0  501    0  0.00000000000E+00 -0.00000000000E+00 -0.31467700379E+04  0.31467700379E+04  0.00000000000E+00 0. -1.
        -24    2    1    2    0    0 -0.45147404376E+03  0.26559872088E+03 -0.13326358090E+04  0.14333000184E+04  0.63712246991E+02 0.  0.
        254    2    1    2    0    0  0.45147404376E+03 -0.26559872088E+03 -0.16100073519E+04  0.19175968965E+04  0.90037919315E+03 0.  0.
         23    2    4    4    0    0  0.54283271545E+03 -0.51903554066E+03 -0.11914702343E+04  0.14115177061E+04  0.93357732162E+02 0.  0.
         23    2    4    4    0    0 -0.91358671681E+02  0.25343681979E+03 -0.41853711765E+03  0.50607919035E+03  0.91466931407E+02 0.  0.
          1    1    3    3  502    0 -0.45899888488E+02  0.27700979006E+02 -0.19719533209E+03  0.20435298627E+03  0.00000000000E+00 0. -1.
         -2    1    3    3    0  502 -0.40557415528E+03  0.23789774187E+03 -0.11354404769E+04  0.12289470321E+04  0.00000000000E+00 0.  1.
         13    1    5    5    0    0  0.50813930651E+03 -0.48053046141E+03 -0.11461196886E+04  0.13426486583E+04  0.00000000000E+00 0. -1.
        -13    1    5    5    0    0  0.34693408931E+02 -0.38505079251E+02 -0.45350545702E+02  0.68869047814E+02  0.00000000000E+00 0.  1.
          3    1    6    6  503    0 -0.62420556344E+02  0.54696974894E+02 -0.10694644351E+03  0.13537217844E+03  0.00000000000E+00 0. -1.
         -3    1    6    6    0  503 -0.28938115337E+02  0.19873984489E+03 -0.31159067415E+03  0.37070701192E+03  0.00000000000E+00 0.  1.
<mgrwt>
<rscale>  0 0.16029228E+04</rscale>
<asrwt>0</asrwt>
<pdfrwt beam="1">  1        1 0.48411844E+00 0.16029228E+04</pdfrwt>
<pdfrwt beam="2">  1       -2 0.31404137E-01 0.16029228E+04</pdfrwt>
<totfact> 0.37167929E+00</totfact>
</mgrwt>
</event>
<event>
12    5  0.5221187E-008  0.2032417E+04  0.7818608E-02  0.8591613E-01
          1   -1    0    0  501    0  0.00000000000E+00  0.00000000000E+00  0.12319165575E+04  0.12319165575E+04  0.00000000000E+00 0. -1.
         -2   -1    0    0    0  501 -0.00000000000E+00 -0.00000000000E+00 -0.83827122308E+03  0.83827122308E+03  0.00000000000E+00 0.  1.
        -24    2    1    2    0    0  0.56209914059E+03 -0.52231513879E+03  0.42624890416E+03  0.88132794674E+03  0.79260793271E+02 0.  0.
        254    2    1    2    0    0 -0.56209914059E+03  0.52231513879E+03 -0.32603569703E+02  0.11888598339E+04  0.90749995248E+03 0.  0.
         23    2    4    4    0    0 -0.15195569715E+02  0.48767699111E+03 -0.29284412512E+03  0.57554341826E+03  0.86213639811E+02 0.  0.
         23    2    4    4    0    0 -0.54690357087E+03  0.34638147682E+02  0.26024055542E+03  0.61331641560E+03  0.90158537337E+02 0.  0.
          3    1    3    3  502    0  0.35666400214E+03 -0.38063832116E+03  0.29805183551E+03  0.60077419936E+03  0.00000000000E+00 0. -1.
         -4    1    3    3    0  502  0.20543513845E+03 -0.14167681763E+03  0.12819706865E+03  0.28055374739E+03  0.00000000000E+00 0.  1.
         13    1    5    5    0    0  0.31785687161E+00  0.10353544851E+03 -0.10569666681E+03  0.14795768147E+03  0.00000000000E+00 0.  1.
        -13    1    5    5    0    0 -0.15513426587E+02  0.38414154260E+03 -0.18714745831E+03  0.42758573679E+03  0.00000000000E+00 0. -1.
          1    1    6    6  503    0 -0.37516709966E+03  0.52317140510E+02  0.21187387956E+03  0.43402531804E+03  0.00000000000E+00 0. -1.
         -1    1    6    6    0  503 -0.17173647121E+03 -0.17678992828E+02  0.48366675854E+02  0.17929109756E+03  0.00000000000E+00 0.  1.
<mgrwt>
<rscale>  0 0.20324175E+04</rscale>
<asrwt>0</asrwt>
<pdfrwt beam="1">  1        1 0.18952562E+00 0.20324175E+04</pdfrwt>
<pdfrwt beam="2">  1       -2 0.12896480E+00 0.20324175E+04</pdfrwt>
<totfact> 0.36427014E+00</totfact>
</mgrwt>
</event>
<event>
12    5  0.5221187E-008  0.1827191E+04  0.7818608E-02  0.8691972E-01
          1   -1    0    0  501    0  0.00000000000E+00  0.00000000000E+00  0.10195854705E+04  0.10195854705E+04  0.00000000000E+00 0. -1.
         -2   -1    0    0    0  501 -0.00000000000E+00 -0.00000000000E+00 -0.81862352741E+03  0.81862352741E+03  0.00000000000E+00 0.  1.
        -24    2    1    2    0    0  0.16583273880E+03  0.36754805867E+03  0.63113430644E+03  0.75314925269E+03  0.79443132924E+02 0.  0.
        254    2    1    2    0    0 -0.16583273880E+03 -0.36754805867E+03 -0.43017236333E+03  0.10850597452E+04  0.91088655489E+03 0.  0.
         23    2    4    4    0    0 -0.52703725284E+03 -0.13289527188E+03 -0.29403981480E+03  0.62521127159E+03  0.94869922839E+02 0.  0.
         23    2    4    4    0    0  0.36120451404E+03 -0.23465278678E+03 -0.13613254853E+03  0.45984847365E+03  0.86011142559E+02 0.  0.
          3    1    3    3  502    0  0.13893343387E+03  0.35483504511E+03  0.59069066643E+03  0.70294087354E+03  0.00000000000E+00 0. -1.
         -4    1    3    3    0  502  0.26899304928E+02  0.12713013558E+02  0.40443640016E+02  0.50208379152E+02  0.00000000000E+00 0.  1.
         13    1    5    5    0    0 -0.20200898939E+03 -0.76122988833E+02 -0.72242267413E+02  0.22764289232E+03  0.00000000000E+00 0. -1.
        -13    1    5    5    0    0 -0.32502826345E+03 -0.56772283052E+02 -0.22179754739E+03  0.39756837927E+03  0.00000000000E+00 0.  1.
          1    1    6    6  503    0  0.77292701244E+02 -0.85903212797E+02 -0.60882168783E+02  0.13061455551E+03  0.00000000000E+00 0. -1.
         -1    1    6    6    0  503  0.28391181280E+03 -0.14874957398E+03 -0.75250379743E+02  0.32923391815E+03  0.00000000000E+00 0.  1.
<mgrwt>
<rscale>  0 0.18271909E+04</rscale>
<asrwt>0</asrwt>
<pdfrwt beam="1">  1        1 0.15685930E+00 0.18271909E+04</pdfrwt>
<pdfrwt beam="2">  1       -2 0.12594208E+00 0.18271909E+04</pdfrwt>
<totfact> 0.56726261E+00</totfact>
</mgrwt>
</event>
<event>
12    5  0.5221187E-008  0.1591500E+04  0.7818608E-02  0.8825787E-01
          1   -1    0    0  501    0  0.00000000000E+00  0.00000000000E+00  0.10968248767E+04  0.10968248767E+04  0.00000000000E+00 0. -1.
         -2   -1    0    0    0  501 -0.00000000000E+00 -0.00000000000E+00 -0.57731920719E+03  0.57731920719E+03  0.00000000000E+00 0.  1.
        -24    2    1    2    0    0 -0.35751066898E+03  0.33598192873E+03  0.41459902526E+03  0.64733057062E+03  0.80291849154E+02 0.  0.
        254    2    1    2    0    0  0.35751066898E+03 -0.33598192873E+03  0.10490664423E+03  0.10268135133E+04  0.89590337210E+03 0.  0.
         23    2    4    4    0    0  0.44340709082E+03 -0.35295889335E+00  0.36578597881E+03  0.58125890154E+03  0.86328185199E+02 0.  0.
         23    2    4    4    0    0 -0.85896421842E+02 -0.33562896983E+03 -0.26087933458E+03  0.44555461171E+03  0.10215617520E+03 0.  0.
          1    1    3    3  502    0 -0.25425339588E+03  0.18626763166E+03  0.25715257898E+03  0.40677741924E+03  0.00000000000E+00 0. -1.
         -2    1    3    3    0  502 -0.10325727310E+03  0.14971429706E+03  0.15744644628E+03  0.24055315138E+03  0.00000000000E+00 0.  1.
         13    1    5    5    0    0  0.26021876262E+03  0.19109853024E+02  0.26225108193E+03  0.36993867178E+03  0.00000000000E+00 0.  1.
        -13    1    5    5    0    0  0.18318832820E+03 -0.19462811917E+02  0.10353489687E+03  0.21132022976E+03  0.00000000000E+00 0. -1.
          1    1    6    6  503    0  0.22464867402E+02 -0.40460366295E+02 -0.26003740307E+02  0.53083952548E+02  0.00000000000E+00 0. -1.
         -1    1    6    6    0  503 -0.10836128924E+03 -0.29516860354E+03 -0.23487559427E+03  0.39247065917E+03  0.00000000000E+00 0.  1.
<mgrwt>
<rscale>  0 0.15915000E+04</rscale>
<asrwt>0</asrwt>
<pdfrwt beam="1">  1        1 0.16874229E+00 0.15915000E+04</pdfrwt>
<pdfrwt beam="2">  1       -2 0.88818339E-01 0.15915000E+04</pdfrwt>
<totfact> 0.11695455E+01</totfact>
</mgrwt>
</event>
<event>
12    5  0.5221187E-008  0.2464994E+04  0.7818608E-02  0.8415564E-01
         -4   -1    0    0    0  501 -0.00000000000E+00  0.00000000000E+00  0.11231691831E+04  0.11231691831E+04  0.00000000000E+00 0.  1.
          1   -1    0    0  501    0  0.00000000000E+00 -0.00000000000E+00 -0.13524665391E+04  0.13524665391E+04  0.00000000000E+00 0. -1.
        -24    2    1    2    0    0 -0.41346916941E+03 -0.10998409279E+03  0.87975561941E+03  0.98151268809E+03  0.79648931507E+02 0.  0.
        254    2    1    2    0    0  0.41346916941E+03  0.10998409279E+03 -0.11090529754E+04  0.14941230340E+04  0.90518058083E+03 0.  0.
         23    2    4    4    0    0  0.17931072173E+03  0.39452211466E+03 -0.15819761652E+03  0.47038217608E+03  0.91830669264E+02 0.  0.
         23    2    4    4    0    0  0.23415844767E+03 -0.28453802186E+03 -0.95085535887E+03  0.10237408580E+04  0.90151906599E+02 0.  0.
          3    1    3    3  502    0 -0.68922982719E+02  0.74500029753E+01  0.17668829231E+03  0.18980156146E+03  0.00000000000E+00 0. -1.
         -4    1    3    3    0  502 -0.34454618669E+03 -0.11743409577E+03  0.70306732710E+03  0.79171112664E+03  0.00000000000E+00 0.  1.
         13    1    5    5    0    0  0.16886184434E+03  0.34371130924E+03 -0.10727997730E+03  0.39769432998E+03  0.00000000000E+00 0.  1.
        -13    1    5    5    0    0  0.10448877395E+02  0.50810805423E+02 -0.50917639222E+02  0.72687846099E+02  0.00000000000E+00 0. -1.
          4    1    6    6  503    0  0.15432082761E+03 -0.16065880237E+03 -0.67754309788E+03  0.71322564319E+03  0.00000000000E+00 0. -1.
         -4    1    6    6    0  503  0.79837620060E+02 -0.12387921949E+03 -0.27331226099E+03  0.31051521478E+03  0.00000000000E+00 0.  1.
<mgrwt>
<rscale>  0 0.24649939E+04</rscale>
<asrwt>0</asrwt>
<pdfrwt beam="1">  1        1 0.20807177E+00 0.24649939E+04</pdfrwt>
<pdfrwt beam="2">  1       -4 0.17279526E+00 0.24649939E+04</pdfrwt>
<totfact> 0.72618816E-01</totfact>
</mgrwt>
</event>
<event>
12    5  0.5221187E-008  0.2326080E+04  0.7818608E-02  0.8467708E-01
         -2   -1    0    0    0  501 -0.00000000000E+00  0.00000000000E+00  0.10075518122E+04  0.10075518122E+04  0.00000000000E+00 0.  1.
          1   -1    0    0  501    0  0.00000000000E+00 -0.00000000000E+00 -0.13425240003E+04  0.13425240003E+04  0.00000000000E+00 0. -1.
        -24    2    1    2    0    0 -0.34203759753E+03  0.46778417702E+03 -0.95058798583E+03  0.11161538945E+04  0.79813802192E+02 0.  0.
        254    2    1    2    0    0  0.34203759753E+03 -0.46778417702E+03  0.61561579768E+03  0.12339219180E+04  0.89875955347E+03 0.  0.
         23    2    4    4    0    0  0.80303110404E+02 -0.14039697440E+03  0.75934175757E+03  0.78157388875E+03  0.89988548311E+02 0.  0.
         23    2    4    4    0    0  0.26173448713E+03 -0.32738720262E+03 -0.14372595989E+03  0.45234802924E+03  0.90962991504E+02 0.  0.
          1    1    3    3  502    0 -0.20374700196E+03  0.27971916148E+03 -0.64065595884E+03  0.72814538913E+03  0.00000000000E+00 0. -1.
         -2    1    3    3    0  502 -0.13829059557E+03  0.18806501554E+03 -0.30993202699E+03  0.38800850538E+03  0.00000000000E+00 0.  1.
         13    1    5    5    0    0  0.68275958622E+02 -0.50233673582E+02  0.49024605352E+03  0.49752007144E+03  0.00000000000E+00 0.  1.
        -13    1    5    5    0    0  0.12027151782E+02 -0.90163300820E+02  0.26909570405E+03  0.28405381731E+03  0.00000000000E+00 0. -1.
          2    1    6    6  503    0  0.19067735187E+02 -0.54961682253E+02  0.49475571462E+01  0.58385300915E+02  0.00000000000E+00 0. -1.
         -2    1    6    6    0  503  0.24266675194E+03 -0.27242552037E+03 -0.14867351703E+03  0.39396272833E+03  0.00000000000E+00 0.  1.
<mgrwt>
<rscale>  0 0.23260804E+04</rscale>
<asrwt>0</asrwt>
<pdfrwt beam="1">  1        1 0.20654215E+00 0.23260804E+04</pdfrwt>
<pdfrwt beam="2">  1       -2 0.15500797E+00 0.23260804E+04</pdfrwt>
<totfact> 0.18328662E+00</totfact>
</mgrwt>
</event>
<event>
12    5  0.5221187E-008  0.2751506E+04  0.7818608E-02  0.8318484E-01
         -2   -1    0    0    0  501 -0.00000000000E+00  0.00000000000E+00  0.14718004145E+04  0.14718004145E+04  0.00000000000E+00 0.  1.
          1   -1    0    0  501    0  0.00000000000E+00 -0.00000000000E+00 -0.12859733419E+04  0.12859733419E+04  0.00000000000E+00 0. -1.
        -24    2    1    2    0    0 -0.14916149891E+02 -0.41180325219E+02  0.12967461565E+04  0.12997019890E+04  0.75870646896E+02 0.  0.
        254    2    1    2    0    0  0.14916149891E+02  0.41180325219E+02 -0.11109190839E+04  0.14580717674E+04  0.94335240346E+03 0.  0.
         23    2    4    4    0    0 -0.20534544073E+03 -0.36321832593E+03 -0.76578359420E+03  0.87672523280E+03  0.90157186896E+02 0.  0.
         23    2    4    4    0    0  0.22026159062E+03  0.40439865115E+03 -0.34513548969E+03  0.58134653457E+03  0.82412678964E+02 0.  0.
          3    1    3    3  502    0 -0.29779287306E+02 -0.17052755067E+02  0.22687459846E+03  0.22945519353E+03  0.00000000000E+00 0. -1.
         -4    1    3    3    0  502  0.14863137414E+02 -0.24127570152E+02  0.10698715581E+04  0.10702467955E+04  0.00000000000E+00 0.  1.
         13    1    5    5    0    0 -0.11840588233E+03 -0.12801398615E+03 -0.27576076422E+03  0.32626911086E+03  0.00000000000E+00 0.  1.
        -13    1    5    5    0    0 -0.86939558392E+02 -0.23520433979E+03 -0.49002282998E+03  0.55045612193E+03  0.00000000000E+00 0. -1.
          1    1    6    6  503    0  0.17952792201E+03  0.37590813507E+03 -0.29292099086E+03  0.50925426624E+03  0.00000000000E+00 0. -1.
         -1    1    6    6    0  503  0.40733668602E+02  0.28490516079E+02 -0.52214498838E+02  0.72092268332E+02  0.00000000000E+00 0.  1.
<mgrwt>
<rscale>  0 0.27515058E+04</rscale>
<asrwt>0</asrwt>
<pdfrwt beam="1">  1        1 0.19784205E+00 0.27515058E+04</pdfrwt>
<pdfrwt beam="2">  1       -2 0.22643083E+00 0.27515058E+04</pdfrwt>
<totfact> 0.63590681E-01</totfact>
</mgrwt>
</event>
<event>
12    5  0.5221187E-008  0.2051909E+04  0.7818608E-02  0.8582729E-01
          1   -1    0    0  501    0  0.00000000000E+00  0.00000000000E+00  0.11617775969E+04  0.11617775969E+04  0.00000000000E+00 0. -1.
         -2   -1    0    0    0  501 -0.00000000000E+00 -0.00000000000E+00 -0.90601042780E+03  0.90601042780E+03  0.00000000000E+00 0.  1.
        -24    2    1    2    0    0 -0.17866483241E+02 -0.54037689663E+03  0.73266302212E+03  0.91394838515E+03  0.78613898856E+02 0.  0.
        254    2    1    2    0    0  0.17866483241E+02  0.54037689663E+03 -0.47689585303E+03  0.11538396395E+04  0.90088282119E+03 0.  0.
         23    2    4    4    0    0 -0.14227125311E+02  0.43637672631E+03  0.18079663794E+03  0.48127942598E+03  0.91188832797E+02 0.  0.
         23    2    4    4    0    0  0.32093608552E+02  0.10400017033E+03 -0.65769249097E+03  0.67256021357E+03  0.89060614486E+02 0.  0.
          3    1    3    3  502    0 -0.27769661680E+02 -0.53294668862E+03  0.71107033057E+03  0.88905812073E+03  0.00000000000E+00 0. -1.
         -2    1    3    3    0  502  0.99031784398E+01 -0.74302080114E+01  0.21592691546E+02  0.24890264412E+02  0.00000000000E+00 0.  1.
         13    1    5    5    0    0 -0.35615531253E+01  0.27231194202E+03  0.64427131591E+02  0.27985234270E+03  0.00000000000E+00 0. -1.
        -13    1    5    5    0    0 -0.10665572186E+02  0.16406478428E+03  0.11636950635E+03  0.20142708328E+03  0.00000000000E+00 0.  1.
          2    1    6    6  503    0  0.53218924715E+02  0.32111061208E+02 -0.37449132824E+03  0.37961444800E+03  0.00000000000E+00 0. -1.
         -2    1    6    6    0  503 -0.21125316164E+02  0.71889109119E+02 -0.28320116273E+03  0.29294576557E+03  0.00000000000E+00 0.  1.
<mgrwt>
<rscale>  0 0.20519090E+04</rscale>
<asrwt>0</asrwt>
<pdfrwt beam="1">  1        1 0.17873502E+00 0.20519090E+04</pdfrwt>
<pdfrwt beam="2">  1       -2 0.13938622E+00 0.20519090E+04</pdfrwt>
<totfact> 0.33549286E+00</totfact>
</mgrwt>
</event>
<event>
12    5  0.5221187E-008  0.1423958E+04  0.7818608E-02  0.8936657E-01
         -2   -1    0    0    0  501 -0.00000000000E+00  0.00000000000E+00  0.60475685300E+03  0.60475685300E+03  0.00000000000E+00 0.  1.
          1   -1    0    0  501    0  0.00000000000E+00 -0.00000000000E+00 -0.83821189163E+03  0.83821189163E+03  0.00000000000E+00 0. -1.
        -24    2    1    2    0    0  0.75508587278E+02  0.33697762326E+03 -0.32464947473E+03  0.48090705170E+03  0.81356288002E+02 0.  0.
        254    2    1    2    0    0 -0.75508587278E+02 -0.33697762326E+03  0.91194436102E+02  0.96206169292E+03  0.89330331382E+03 0.  0.
         23    2    4    4    0    0  0.19922224957E+02 -0.58399076080E+03 -0.13131456701E+03  0.60408090431E+03  0.78918436929E+02 0.  0.
         23    2    4    4    0    0 -0.95430812235E+02  0.24701313754E+03  0.22250900311E+03  0.35798078862E+03  0.92290078076E+02 0.  0.
          3    1    3    3  502    0 -0.11933604892E+02  0.41018038641E+02 -0.64047102157E+02  0.76986503457E+02  0.00000000000E+00 0. -1.
         -4    1    3    3    0  502  0.87442192170E+02  0.29595958462E+03 -0.26060237257E+03  0.40392054824E+03  0.00000000000E+00 0.  1.
         13    1    5    5    0    0 -0.57279062192E+01 -0.71347535723E+00 -0.18104381133E+01  0.60494332712E+01  0.00000000000E+00 0. -1.
        -13    1    5    5    0    0  0.25650131176E+02 -0.58327728545E+03 -0.12950412890E+03  0.59803147104E+03  0.00000000000E+00 0.  1.
          1    1    6    6  503    0  0.93594291040E+01  0.94040159556E+01  0.35682935354E+02  0.38069755775E+02  0.00000000000E+00 0. -1.
         -1    1    6    6    0  503 -0.10479024134E+03  0.23760912158E+03  0.18682606776E+03  0.31991103284E+03  0.00000000000E+00 0.  1.
<mgrwt>
<rscale>  0 0.14239584E+04</rscale>
<asrwt>0</asrwt>
<pdfrwt beam="1">  1        1 0.12895567E+00 0.14239584E+04</pdfrwt>
<pdfrwt beam="2">  1       -2 0.93039516E-01 0.14239584E+04</pdfrwt>
<totfact> 0.17101341E+01</totfact>
</mgrwt>
</event>
<event>
12    5  0.5221187E-008  0.1030257E+04  0.7818608E-02  0.9275968E-01
         -4   -1    0    0    0  501 -0.00000000000E+00  0.00000000000E+00  0.30227250986E+03  0.30227250986E+03  0.00000000000E+00 0.  1.
          3   -1    0    0  501    0  0.00000000000E+00 -0.00000000000E+00 -0.87787428947E+03  0.87787428947E+03  0.00000000000E+00 0. -1.
        -24    2    1    2    0    0  0.74542363686E+02 -0.60035679277E+02 -0.89046100573E+02  0.15273397785E+03  0.78978561591E+02 0.  0.
        254    2    1    2    0    0 -0.74542363686E+02  0.60035679277E+02 -0.48655567903E+03  0.10274128215E+04  0.89982211030E+03 0.  0.
         23    2    4    4    0    0 -0.31352106865E+03 -0.15002570994E+03  0.83183613952E+02  0.36854095792E+03  0.89998610563E+02 0.  0.
         23    2    4    4    0    0  0.23897870496E+03  0.21006138922E+03 -0.56973929298E+03  0.65887186356E+03  0.90954175062E+02 0.  0.
          3    1    3    3  502    0  0.57431238528E+02 -0.78010106037E+02 -0.57698214187E+02  0.11275197436E+03  0.00000000000E+00 0. -1.
         -4    1    3    3    0  502  0.17111125159E+02  0.17974426759E+02 -0.31347886386E+02  0.39982003481E+02  0.00000000000E+00 0.  1.
         13    1    5    5    0    0 -0.89998345569E+02 -0.50401566771E+02  0.67596628498E+02  0.12332608938E+03  0.00000000000E+00 0.  1.
        -13    1    5    5    0    0 -0.22352272308E+03 -0.99624143171E+02  0.15586985454E+02  0.24521486854E+03  0.00000000000E+00 0. -1.
          2    1    6    6  503    0  0.17439430149E+03  0.13070746280E+03 -0.30345356217E+03  0.37360658134E+03  0.00000000000E+00 0. -1.
         -2    1    6    6    0  503  0.64584403470E+02  0.79353926423E+02 -0.26628573081E+03  0.28526528222E+03  0.00000000000E+00 0.  1.
<mgrwt>
<rscale>  0 0.10302568E+04</rscale>
<asrwt>0</asrwt>
<pdfrwt beam="1">  1        3 0.13505758E+00 0.10302568E+04</pdfrwt>
<pdfrwt beam="2">  1       -4 0.46503464E-01 0.10302568E+04</pdfrwt>
<totfact> 0.43221786E+00</totfact>
</mgrwt>
</event>
<event>
12    5  0.5221187E-008  0.1785790E+04  0.7818608E-02  0.8713893E-01
          1   -1    0    0  501    0  0.00000000000E+00  0.00000000000E+00  0.94894886014E+03  0.94894886014E+03  0.00000000000E+00 0. -1.
         -2   -1    0    0    0  501 -0.00000000000E+00 -0.00000000000E+00 -0.84015228582E+03  0.84015228582E+03  0.00000000000E+00 0.  1.
        -24    2    1    2    0    0  0.18179644988E+03 -0.63036731897E+03  0.15049002807E+03  0.67774145904E+03  0.79204360635E+02 0.  0.
        254    2    1    2    0    0 -0.18179644988E+03  0.63036731897E+03 -0.41693453758E+02  0.11113596869E+04  0.89608543320E+03 0.  0.
         23    2    4    4    0    0 -0.24777356328E+03  0.56854759769E+03 -0.39110770626E+03  0.73899155875E+03  0.92223513899E+02 0.  0.
         23    2    4    4    0    0  0.65977113402E+02  0.61819721281E+02  0.34941425250E+03  0.37236812816E+03  0.91613566598E+02 0.  0.
          1    1    3    3  502    0  0.14922592537E+03 -0.50354283918E+03  0.15217174782E+03  0.54679064415E+03  0.00000000000E+00 0. -1.
         -2    1    3    3    0  502  0.32570524515E+02 -0.12682447978E+03 -0.16817197497E+01  0.13095081489E+03  0.00000000000E+00 0.  1.
         13    1    5    5    0    0 -0.15600998503E+02  0.12119319363E+03 -0.91463035036E+02  0.15263246088E+03  0.00000000000E+00 0. -1.
        -13    1    5    5    0    0 -0.23217256478E+03  0.44735440406E+03 -0.29964467123E+03  0.58635909787E+03  0.00000000000E+00 0.  1.
          2    1    6    6  503    0 -0.22111166832E+02  0.20543048337E+01  0.56121999148E+02  0.60355634827E+02  0.00000000000E+00 0. -1.
         -2    1    6    6    0  503  0.88088280233E+02  0.59765416447E+02  0.29329225336E+03  0.31201249333E+03  0.00000000000E+00 0.  1.
<mgrwt>
<rscale>  0 0.17857901E+04</rscale>
<asrwt>0</asrwt>
<pdfrwt beam="1">  1        1 0.14599213E+00 0.17857901E+04</pdfrwt>
<pdfrwt beam="2">  1       -2 0.12925420E+00 0.17857901E+04</pdfrwt>
<totfact> 0.60593961E+00</totfact>
</mgrwt>
</event>
<event>
12    5  0.5221187E-008  0.1668501E+04  0.7818608E-02  0.8779536E-01
          1   -1    0    0  501    0  0.00000000000E+00  0.00000000000E+00  0.11519720283E+04  0.11519720283E+04  0.00000000000E+00 0. -1.
         -2   -1    0    0    0  501 -0.00000000000E+00 -0.00000000000E+00 -0.60415898076E+03  0.60415898076E+03  0.00000000000E+00 0.  1.
        -24    2    1    2    0    0 -0.39826854262E+03  0.40695613554E+03  0.12757449409E+02  0.57834476386E+03  0.10044294435E+03 0.  0.
        254    2    1    2    0    0  0.39826854262E+03 -0.40695613554E+03  0.53505559813E+03  0.11777862452E+04  0.88128588890E+03 0.  0.
         23    2    4    4    0    0  0.26627851696E+03  0.48510002056E+02  0.62450972065E+03  0.68682672322E+03  0.91984170572E+02 0.  0.
         23    2    4    4    0    0  0.13199002566E+03 -0.45546613760E+03 -0.89454122521E+02  0.49095952198E+03  0.90379438002E+02 0.  0.
          1    1    3    3  502    0 -0.21796209462E+03  0.19075061360E+03 -0.38508236032E+02  0.29219198401E+03  0.00000000000E+00 0. -1.
         -2    1    3    3    0  502 -0.18030644800E+03  0.21620552194E+03  0.51265685441E+02  0.28615277985E+03  0.00000000000E+00 0.  1.
         13    1    5    5    0    0  0.85472377130E+02  0.11432710660E+02  0.31379028520E+03  0.32542368877E+03  0.00000000000E+00 0. -1.
        -13    1    5    5    0    0  0.18080613983E+03  0.37077291396E+02  0.31071943545E+03  0.36140303444E+03  0.00000000000E+00 0.  1.
          4    1    6    6  503    0  0.14290402648E+02 -0.59252330209E+02 -0.43932650596E+02  0.75134093669E+02  0.00000000000E+00 0. -1.
         -4    1    6    6    0  503  0.11769962301E+03 -0.39621380739E+03 -0.45521471924E+02  0.41582542831E+03  0.00000000000E+00 0.  1.
<mgrwt>
<rscale>  0 0.16685014E+04</rscale>
<asrwt>0</asrwt>
<pdfrwt beam="1">  1        1 0.17722647E+00 0.16685014E+04</pdfrwt>
<pdfrwt beam="2">  1       -2 0.92947535E-01 0.16685014E+04</pdfrwt>
<totfact> 0.95140131E+00</totfact>
</mgrwt>
</event>
<event>
12    5  0.5221187E-008  0.2312382E+04  0.7818608E-02  0.8473055E-01
         -2   -1    0    0    0  501 -0.00000000000E+00  0.00000000000E+00  0.81369941226E+03  0.81369941226E+03  0.00000000000E+00 0.  1.
          1   -1    0    0  501    0  0.00000000000E+00 -0.00000000000E+00 -0.16428391086E+04  0.16428391086E+04  0.00000000000E+00 0. -1.
        -24    2    1    2    0    0  0.50166856134E+03  0.82123289638E+03 -0.14634563096E+03  0.97660997290E+03  0.79089695450E+02 0.  0.
        254    2    1    2    0    0 -0.50166856134E+03 -0.82123289638E+03 -0.68279406539E+03  0.14799285480E+04  0.89324462262E+03 0.  0.
         23    2    4    4    0    0 -0.50548350801E+03 -0.10393069791E+03 -0.51795783457E+03  0.73687480877E+03  0.91591476482E+02 0.  0.
         23    2    4    4    0    0  0.38149466665E+01 -0.71730219847E+03 -0.16483623081E+03  0.74305373921E+03  0.10208270475E+03 0.  0.
          1    1    3    3  502    0  0.10769605856E+03  0.21735760773E+03 -0.64142111453E+02  0.25091229769E+03  0.00000000000E+00 0. -1.
         -2    1    3    3    0  502  0.39397250278E+03  0.60387528865E+03 -0.82203519506E+02  0.72569767521E+03  0.00000000000E+00 0.  1.
         13    1    5    5    0    0 -0.11268248777E+03 -0.63030953326E+02 -0.13335571089E+03  0.18561785947E+03  0.00000000000E+00 0. -1.
        -13    1    5    5    0    0 -0.39280102024E+03 -0.40899744586E+02 -0.38460212368E+03  0.55125694929E+03  0.00000000000E+00 0.  1.
          3    1    6    6  503    0  0.59986092983E+00 -0.32275092182E+02  0.13806142107E+02  0.35109129416E+02  0.00000000000E+00 0. -1.
         -3    1    6    6    0  503  0.32150857367E+01 -0.68502710629E+03 -0.17864237292E+03  0.70794460979E+03  0.00000000000E+00 0.  1.
<mgrwt>
<rscale>  0 0.23123816E+04</rscale>
<asrwt>0</asrwt>
<pdfrwt beam="1">  1        1 0.25274448E+00 0.23123816E+04</pdfrwt>
<pdfrwt beam="2">  1       -2 0.12518453E+00 0.23123816E+04</pdfrwt>
<totfact> 0.19753926E+00</totfact>
</mgrwt>
</event>
<event>
12    5  0.5221187E-008  0.1920744E+04  0.7818608E-02  0.8644599E-01
          1   -1    0    0  501    0  0.00000000000E+00  0.00000000000E+00  0.50722957156E+03  0.50722957156E+03  0.00000000000E+00 0. -1.
         -2   -1    0    0    0  501 -0.00000000000E+00 -0.00000000000E+00 -0.18183376976E+04  0.18183376976E+04  0.00000000000E+00 0.  1.
        -24    2    1    2    0    0 -0.69475719816E+03  0.10658817279E+03 -0.82448474306E+03  0.10864383228E+04  0.80774592450E+02 0.  0.
        254    2    1    2    0    0  0.69475719816E+03 -0.10658817279E+03 -0.48662338294E+03  0.12391289463E+04  0.89698920046E+03 0.  0.
         23    2    4    4    0    0  0.32524750576E+02 -0.31331887018E+03  0.81340467990E+02  0.33792952574E+03  0.91397586517E+02 0.  0.
         23    2    4    4    0    0  0.66223244759E+03  0.20673069739E+03 -0.56796385093E+03  0.90119942055E+03  0.91038803622E+02 0.  0.
          3    1    3    3  502    0 -0.13070845961E+03  0.47153044767E+02 -0.13616238963E+03  0.19454641450E+03  0.00000000000E+00 0. -1.
         -4    1    3    3    0  502 -0.56404873855E+03  0.59435128022E+02 -0.68832235344E+03  0.89189190833E+03  0.00000000000E+00 0.  1.
         13    1    5    5    0    0 -0.31222398942E+02 -0.91468426765E+02  0.32704859867E+02  0.10203391176E+03  0.00000000000E+00 0.  1.
        -13    1    5    5    0    0  0.63747149518E+02 -0.22185044341E+03  0.48635608124E+02  0.23589561398E+03  0.00000000000E+00 0. -1.
          3    1    6    6  503    0  0.60700755983E+03  0.16255692635E+03 -0.49903301238E+03  0.80244431548E+03  0.00000000000E+00 0. -1.
         -3    1    6    6    0  503  0.55224887752E+02  0.44173771040E+02 -0.68930838553E+02  0.98755105077E+02  0.00000000000E+00 0.  1.
<mgrwt>
<rscale>  0 0.19207443E+04</rscale>
<asrwt>0</asrwt>
<pdfrwt beam="1">  1        1 0.78035318E-01 0.19207443E+04</pdfrwt>
<pdfrwt beam="2">  1       -2 0.27974426E+00 0.19207443E+04</pdfrwt>
<totfact> 0.15020888E+00</totfact>
</mgrwt>
</event>
<event>
12    5  0.5221187E-008  0.1528469E+04  0.7818608E-02  0.8865739E-01
         -2   -1    0    0    0  501 -0.00000000000E+00  0.00000000000E+00  0.10622972267E+04  0.10622972267E+04  0.00000000000E+00 0.  1.
          1   -1    0    0  501    0  0.00000000000E+00 -0.00000000000E+00 -0.54980322205E+03  0.54980322205E+03  0.00000000000E+00 0. -1.
        -24    2    1    2    0    0  0.30103673172E+03 -0.39325440643E+03  0.14002105731E+03  0.52083901544E+03  0.79970253794E+02 0.  0.
        254    2    1    2    0    0 -0.30103673172E+03  0.39325440643E+03  0.37247294731E+03  0.10912614333E+04  0.89824455315E+03 0.  0.
         23    2    4    4    0    0  0.28388978806E+03  0.34446247211E+02 -0.10869957985E+02  0.29997220954E+03  0.89917822449E+02 0.  0.
         23    2    4    4    0    0 -0.58492651979E+03  0.35880815922E+03  0.38334290529E+03  0.79128922374E+03  0.91129160559E+02 0.  0.
          3    1    3    3  502    0  0.15213322516E+03 -0.16357060266E+03  0.28215007679E+02  0.22515760461E+03  0.00000000000E+00 0. -1.
         -4    1    3    3    0  502  0.14890350656E+03 -0.22968380376E+03  0.11180604963E+03  0.29568141083E+03  0.00000000000E+00 0.  1.
         13    1    5    5    0    0  0.12959243198E+03  0.29323604586E+02 -0.47850789847E+02  0.14122241430E+03  0.00000000000E+00 0.  1.
        -13    1    5    5    0    0  0.15429735608E+03  0.51226426252E+01  0.36980831861E+02  0.15874979523E+03  0.00000000000E+00 0. -1.
          4    1    6    6  503    0 -0.54038307881E+03  0.30697751650E+03  0.36410143107E+03  0.72029085765E+03  0.00000000000E+00 0. -1.
         -4    1    6    6    0  503 -0.44543440975E+02  0.51830642712E+02  0.19241474223E+02  0.70998366095E+02  0.00000000000E+00 0.  1.
<mgrwt>
<rscale>  0 0.15284691E+04</rscale>
<asrwt>0</asrwt>
<pdfrwt beam="1">  1        1 0.84585111E-01 0.15284691E+04</pdfrwt>
<pdfrwt beam="2">  1       -2 0.16343034E+00 0.15284691E+04</pdfrwt>
<totfact> 0.77823498E+00</totfact>
</mgrwt>
</event>
<event>
12    5  0.5221187E-008  0.1338347E+04  0.7818608E-02  0.8999696E-01
         -2   -1    0    0    0  501 -0.00000000000E+00  0.00000000000E+00  0.36053133415E+03  0.36053133415E+03  0.00000000000E+00 0.  1.
          1   -1    0    0  501    0  0.00000000000E+00 -0.00000000000E+00 -0.12420368991E+04  0.12420368991E+04  0.00000000000E+00 0. -1.
        -24    2    1    2    0    0  0.47104280006E+02 -0.11839598617E+03  0.15835443858E+03  0.21774682475E+03  0.78109722406E+02 0.  0.
        254    2    1    2    0    0 -0.47104280006E+02  0.11839598617E+03 -0.10398600035E+04  0.13848214085E+04  0.90564070345E+03 0.  0.
         23    2    4    4    0    0 -0.34439748300E+03 -0.21017886509E+03 -0.72241631141E+03  0.83237114768E+03  0.90397006954E+02 0.  0.
         23    2    4    4    0    0  0.29729320300E+03  0.32857485127E+03 -0.31744369208E+03  0.55245026079E+03  0.89922808947E+02 0.  0.
          1    1    3    3  502    0 -0.18407762533E+02 -0.12614511210E+02  0.41158143918E+02  0.46818419723E+02  0.00000000000E+00 0. -1.
         -2    1    3    3    0  502  0.65512042539E+02 -0.10578147497E+03  0.11719629466E+03  0.17092840503E+03  0.00000000000E+00 0.  1.
         13    1    5    5    0    0 -0.28862502979E+03 -0.18841026253E+03 -0.54231614453E+03  0.64258045058E+03  0.00000000000E+00 0. -1.
        -13    1    5    5    0    0 -0.55772453213E+02 -0.21768602557E+02 -0.18010016688E+03  0.18979069710E+03  0.00000000000E+00 0.  1.
          4    1    6    6  503    0  0.93105672787E+02  0.87462979316E+02 -0.14219057200E+03  0.19114548863E+03  0.00000000000E+00 0.  1.
         -4    1    6    6    0  503  0.20418753021E+03  0.24111187195E+03 -0.17525312008E+03  0.36130477216E+03  0.00000000000E+00 0. -1.
<mgrwt>
<rscale>  0 0.13383471E+04</rscale>
<asrwt>0</asrwt>
<pdfrwt beam="1">  1        1 0.19108260E+00 0.13383471E+04</pdfrwt>
<pdfrwt beam="2">  1       -2 0.55466359E-01 0.13383471E+04</pdfrwt>
<totfact> 0.26138381E+01</totfact>
</mgrwt>
</event>
<event>
12    5  0.5221187E-008  0.2126208E+04  0.7818608E-02  0.8549785E-01
          1   -1    0    0  501    0  0.00000000000E+00  0.00000000000E+00  0.97542906557E+03  0.97542906557E+03  0.00000000000E+00 0. -1.
         -2   -1    0    0    0  501 -0.00000000000E+00 -0.00000000000E+00 -0.11586599996E+04  0.11586599996E+04  0.00000000000E+00 0.  1.
        -24    2    1    2    0    0 -0.16848400387E+02  0.54821885197E+03 -0.75722392968E+03  0.93824858233E+03  0.78067562378E+02 0.  0.
        254    2    1    2    0    0  0.16848400387E+02 -0.54821885197E+03  0.57399299561E+03  0.11958404829E+04  0.89428112093E+03 0.  0.
         23    2    4    4    0    0 -0.34899982002E+03 -0.18626131428E+03  0.53541093709E+03  0.67172102239E+03  0.89722398474E+02 0.  0.
         23    2    4    4    0    0  0.36584822041E+03 -0.36195753769E+03  0.38582058523E+02  0.52411946051E+03  0.91402703292E+02 0.  0.
          1    1    3    3  502    0  0.30957440320E+02  0.17474827034E+03 -0.24617911427E+03  0.30347895710E+03  0.00000000000E+00 0. -1.
         -2    1    3    3    0  502 -0.47805840707E+02  0.37347058164E+03 -0.51104481541E+03  0.63476962523E+03  0.00000000000E+00 0.  1.
         13    1    5    5    0    0 -0.10398456680E+03 -0.94342887152E+02  0.14607369429E+03  0.20261020372E+03  0.00000000000E+00 0. -1.
        -13    1    5    5    0    0 -0.24501525322E+03 -0.91918427128E+02  0.38933724280E+03  0.46911081866E+03  0.00000000000E+00 0.  1.
          4    1    6    6  503    0  0.12497550838E+03 -0.79666171464E+02  0.38108091994E+02  0.15302876608E+03  0.00000000000E+00 0. -1.
         -4    1    6    6    0  503  0.24087271203E+03 -0.28229136623E+03  0.47396652917E+00  0.37109069443E+03  0.00000000000E+00 0.  1.
<mgrwt>
<rscale>  0 0.21262085E+04</rscale>
<asrwt>0</asrwt>
<pdfrwt beam="1">  1        1 0.15006601E+00 0.21262085E+04</pdfrwt>
<pdfrwt beam="2">  1       -2 0.17825538E+00 0.21262085E+04</pdfrwt>
<totfact> 0.23723522E+00</totfact>
</mgrwt>
</event>
<event>
12    5  0.5221187E-008  0.4142760E+04  0.7818608E-02  0.7976351E-01
          1   -1    0    0  501    0  0.00000000000E+00  0.00000000000E+00  0.27805039594E+04  0.27805039594E+04  0.00000000000E+00 0. -1.
         -4   -1    0    0    0  501 -0.00000000000E+00 -0.00000000000E+00 -0.15431071092E+04  0.15431071092E+04  0.00000000000E+00 0.  1.
        -24    2    1    2    0    0  0.10608820517E+03  0.92882555342E+03 -0.12207246738E+04  0.15396140709E+04  0.79190544490E+02 0.  0.
        254    2    1    2    0    0 -0.10608820517E+03 -0.92882555342E+03  0.24581215240E+04  0.27839969976E+04  0.91340365665E+03 0.  0.
         23    2    4    4    0    0  0.37322508883E+03 -0.33978357801E+03  0.71117858767E+03  0.87689935307E+03  0.91802206096E+02 0.  0.
         23    2    4    4    0    0 -0.47931329400E+03 -0.58904197541E+03  0.17469429363E+04  0.19070976445E+04  0.92196097609E+02 0.  0.
          3    1    3    3  502    0  0.39801598282E+02  0.14791028954E+03 -0.23092156274E+03  0.27710357110E+03  0.00000000000E+00 0. -1.
         -4    1    3    3    0  502  0.66286606889E+02  0.78091526388E+03 -0.98980311103E+03  0.12625104998E+04  0.00000000000E+00 0.  1.
         13    1    5    5    0    0  0.28789157013E+03 -0.30884824616E+03  0.58225797326E+03  0.71923093839E+03  0.00000000000E+00 0.  1.
        -13    1    5    5    0    0  0.85333518693E+02 -0.30935331849E+02  0.12892061441E+03  0.15766841468E+03  0.00000000000E+00 0. -1.
          3    1    6    6  503    0 -0.23200478729E+03 -0.35559095964E+03  0.94256825321E+03  0.10337824064E+04  0.00000000000E+00 0. -1.
         -3    1    6    6    0  503 -0.24730850671E+03 -0.23345101577E+03  0.80437468308E+03  0.87331523806E+03  0.00000000000E+00 0.  1.
<mgrwt>
<rscale>  0 0.41427602E+04</rscale>
<asrwt>0</asrwt>
<pdfrwt beam="1">  1        1 0.42776984E+00 0.41427602E+04</pdfrwt>
<pdfrwt beam="2">  1       -4 0.23740109E+00 0.41427602E+04</pdfrwt>
<totfact> 0.24547850E-02</totfact>
</mgrwt>
</event>
<event>
12    5  0.5221187E-008  0.2122493E+04  0.7818608E-02  0.8551399E-01
          1   -1    0    0  501    0  0.00000000000E+00  0.00000000000E+00  0.14950800057E+04  0.14950800057E+04  0.00000000000E+00 0. -1.
         -2   -1    0    0    0  501 -0.00000000000E+00 -0.00000000000E+00 -0.75330018018E+03  0.75330018018E+03  0.00000000000E+00 0.  1.
        -24    2    1    2    0    0  0.78180789736E+01 -0.31867944074E+03  0.11651904785E+04  0.12106509842E+04  0.79932759007E+02 0.  0.
        254    2    1    2    0    0 -0.78180789736E+01  0.31867944074E+03 -0.42341065305E+03  0.10377292017E+04  0.89218137536E+03 0.  0.
         23    2    4    4    0    0 -0.23483261412E+03 -0.15073311539E+03 -0.41601866227E+03  0.50945214269E+03  0.92753057113E+02 0.  0.
         23    2    4    4    0    0  0.22701453515E+03  0.46941255613E+03 -0.73919907790E+01  0.52827705896E+03  0.84488238700E+02 0.  0.
          1    1    3    3  502    0  0.42394825257E+02 -0.20220395972E+03  0.76684216892E+03  0.79418554165E+03  0.00000000000E+00 0. -1.
         -2    1    3    3    0  502 -0.34576746283E+02 -0.11647548101E+03  0.39834830962E+03  0.41646544255E+03  0.00000000000E+00 0.  1.
         13    1    5    5    0    0 -0.20950552615E+03 -0.11692402349E+03 -0.39527156629E+03  0.46238880163E+03  0.00000000000E+00 0. -1.
        -13    1    5    5    0    0 -0.25327087976E+02 -0.33809091895E+02 -0.20747095981E+02  0.47063341060E+02  0.00000000000E+00 0.  1.
          3    1    6    6  503    0 -0.52619982573E+01  0.27611027780E+02 -0.76741212379E+01  0.29136739994E+02  0.00000000000E+00 0. -1.
         -3    1    6    6    0  503  0.23227653341E+03  0.44180152835E+03  0.28213045885E+00  0.49914031897E+03  0.00000000000E+00 0.  1.
<mgrwt>
<rscale>  0 0.21224929E+04</rscale>
<asrwt>0</asrwt>
<pdfrwt beam="1">  1        1 0.23001231E+00 0.21224929E+04</pdfrwt>
<pdfrwt beam="2">  1       -2 0.11589234E+00 0.21224929E+04</pdfrwt>
<totfact> 0.30739067E+00</totfact>
</mgrwt>
</event>
<event>
12    5  0.5221187E-008  0.1510835E+04  0.7818608E-02  0.8877280E-01
          1   -1    0    0  501    0  0.00000000000E+00  0.00000000000E+00  0.17240879758E+04  0.17240879758E+04  0.00000000000E+00 0. -1.
         -2   -1    0    0    0  501 -0.00000000000E+00 -0.00000000000E+00 -0.33098974114E+03  0.33098974114E+03  0.00000000000E+00 0.  1.
        -24    2    1    2    0    0 -0.35767511401E+03  0.35033124880E+03  0.59666551351E+03  0.78280253250E+03  0.78144729892E+02 0.  0.
        254    2    1    2    0    0  0.35767511401E+03 -0.35033124880E+03  0.79643272117E+03  0.12722751844E+04  0.85657200196E+03 0.  0.
         23    2    4    4    0    0  0.24761047233E+03 -0.14545343873E+03 -0.11863287453E+03  0.32417784535E+03  0.92465494393E+02 0.  0.
         23    2    4    4    0    0  0.11006464168E+03 -0.20487781007E+03  0.91506559570E+03  0.94809733909E+03  0.86338737314E+02 0.  0.
          3    1    3    3  502    0 -0.22238511974E+03  0.21042232432E+03  0.30491824331E+03  0.43209701591E+03  0.00000000000E+00 0. -1.
         -4    1    3    3    0  502 -0.13528999427E+03  0.13990892448E+03  0.29174727020E+03  0.35070551659E+03  0.00000000000E+00 0.  1.
         13    1    5    5    0    0  0.20810313595E+03 -0.75545320865E+02 -0.86741190808E+02  0.23777730102E+03  0.00000000000E+00 0. -1.
        -13    1    5    5    0    0  0.39507336384E+02 -0.69908117863E+02 -0.31891683719E+02  0.86400544337E+02  0.00000000000E+00 0.  1.
          2    1    6    6  503    0  0.12356168424E+03 -0.16654168634E+03  0.77291606101E+03  0.80025174818E+03  0.00000000000E+00 0. -1.
         -2    1    6    6    0  503 -0.13497042557E+02 -0.38336123728E+02  0.14214953469E+03  0.14784559091E+03  0.00000000000E+00 0.  1.
<mgrwt>
<rscale>  0 0.15108348E+04</rscale>
<asrwt>0</asrwt>
<pdfrwt beam="1">  1        1 0.26524430E+00 0.15108348E+04</pdfrwt>
<pdfrwt beam="2">  1       -2 0.50921500E-01 0.15108348E+04</pdfrwt>
<totfact> 0.14192534E+01</totfact>
</mgrwt>
</event>
<event>
12    5  0.5221187E-008  0.1720843E+04  0.7818608E-02  0.8749566E-01
         -2   -1    0    0    0  501 -0.00000000000E+00  0.00000000000E+00  0.84457075164E+03  0.84457075164E+03  0.00000000000E+00 0.  1.
          1   -1    0    0  501    0  0.00000000000E+00 -0.00000000000E+00 -0.87656928156E+03  0.87656928156E+03  0.00000000000E+00 0. -1.
        -24    2    1    2    0    0 -0.94210880944E+02  0.46445123809E+03 -0.41572017107E+03  0.63526257277E+03  0.78387710008E+02 0.  0.
        254    2    1    2    0    0  0.94210880944E+02 -0.46445123809E+03  0.38372164115E+03  0.10858774604E+04  0.89849703312E+03 0.  0.
         23    2    4    4    0    0  0.32539426272E+03 -0.62971588701E+03  0.23898506764E+03  0.75407579109E+03  0.95356759482E+02 0.  0.
         23    2    4    4    0    0 -0.23118338178E+03  0.16526464893E+03  0.14473657351E+03  0.33180166934E+03  0.91572440554E+02 0.  0.
          1    1    3    3  502    0 -0.98984651146E+02  0.30595841551E+03 -0.26948062129E+03  0.41955728862E+03  0.00000000000E+00 0. -1.
         -2    1    3    3    0  502  0.47737702025E+01  0.15849282257E+03 -0.14623954979E+03  0.21570528415E+03  0.00000000000E+00 0.  1.
         13    1    5    5    0    0  0.19945786538E+03 -0.33158688250E+03  0.17258869371E+03  0.42369819200E+03  0.00000000000E+00 0.  1.
        -13    1    5    5    0    0  0.12593639735E+03 -0.29812900451E+03  0.66396373931E+02  0.33037759909E+03  0.00000000000E+00 0. -1.
          4    1    6    6  503    0 -0.86566096316E+01  0.26166651677E+02  0.41463206227E+02  0.49787830049E+02  0.00000000000E+00 0. -1.
         -4    1    6    6    0  503 -0.22252677215E+03  0.13909799725E+03  0.10327336728E+03  0.28201383929E+03  0.00000000000E+00 0.  1.
<mgrwt>
<rscale>  0 0.17208426E+04</rscale>
<asrwt>0</asrwt>
<pdfrwt beam="1">  1        1 0.13485681E+00 0.17208426E+04</pdfrwt>
<pdfrwt beam="2">  1       -2 0.12993396E+00 0.17208426E+04</pdfrwt>
<totfact> 0.68860438E+00</totfact>
</mgrwt>
</event>
<event>
12    5  0.5221187E-008  0.1181125E+04  0.7818608E-02  0.9129540E-01
         -2   -1    0    0    0  501 -0.00000000000E+00  0.00000000000E+00  0.77438929588E+03  0.77438929588E+03  0.00000000000E+00 0.  1.
          1   -1    0    0  501    0  0.00000000000E+00 -0.00000000000E+00 -0.45037285106E+03  0.45037285106E+03  0.00000000000E+00 0. -1.
        -24    2    1    2    0    0 -0.15772065604E+02  0.53689552114E+02 -0.17388016239E+03  0.20054308471E+03  0.82776155357E+02 0.  0.
        254    2    1    2    0    0  0.15772065604E+02 -0.53689552114E+02  0.49789660721E+03  0.10242190622E+04  0.89330416427E+03 0.  0.
         23    2    4    4    0    0  0.52871041204E+02  0.38733077313E+03  0.39060563461E+03  0.56027152940E+03  0.92254810467E+02 0.  0.
         23    2    4    4    0    0 -0.37098975600E+02 -0.44102032525E+03  0.10729097260E+03  0.46394753282E+03  0.88660583913E+02 0.  0.
          3    1    3    3  502    0  0.94671764571E+01  0.25517842485E+02 -0.15661927395E+03  0.15896661501E+03  0.00000000000E+00 0. -1.
         -4    1    3    3    0  502 -0.25239242062E+02  0.28171709629E+02 -0.17260888433E+02  0.41576469701E+02  0.00000000000E+00 0.  1.
         13    1    5    5    0    0  0.46421093028E+02  0.68401657975E+02  0.80658092267E+02  0.11549646116E+03  0.00000000000E+00 0. -1.
        -13    1    5    5    0    0  0.64499481768E+01  0.31892911516E+03  0.30994754235E+03  0.44477506825E+03  0.00000000000E+00 0.  1.
          4    1    6    6  503    0 -0.18846913013E+02 -0.37985303908E+03  0.12011991411E+03  0.39883872831E+03  0.00000000000E+00 0.  1.
         -4    1    6    6    0  503 -0.18252062587E+02 -0.61167286165E+02 -0.12828941512E+02  0.65108804518E+02  0.00000000000E+00 0. -1.
<mgrwt>
<rscale>  0 0.11811247E+04</rscale>
<asrwt>0</asrwt>
<pdfrwt beam="1">  1        1 0.69288131E-01 0.11811247E+04</pdfrwt>
<pdfrwt beam="2">  1       -2 0.11913681E+00 0.11811247E+04</pdfrwt>
<totfact> 0.23944337E+01</totfact>
</mgrwt>
</event>
<event>
12    5  0.5221187E-008  0.2983396E+04  0.7818608E-02  0.8248488E-01
          1   -1    0    0  501    0  0.00000000000E+00  0.00000000000E+00  0.35765058603E+04  0.35765058603E+04  0.00000000000E+00 0. -1.
         -2   -1    0    0    0  501 -0.00000000000E+00 -0.00000000000E+00 -0.62216094905E+03  0.62216094905E+03  0.00000000000E+00 0.  1.
        -24    2    1    2    0    0  0.10819964291E+03  0.76926831085E+03  0.28960120238E+04  0.29994535210E+04  0.79717537490E+02 0.  0.
        254    2    1    2    0    0 -0.10819964291E+03 -0.76926831085E+03  0.58332887428E+02  0.11992132883E+04  0.91171754856E+03 0.  0.
         23    2    4    4    0    0 -0.42993573394E+03 -0.33405050145E+03 -0.20711541749E+03  0.58970257592E+03  0.91748891256E+02 0.  0.
         23    2    4    4    0    0  0.32173609103E+03 -0.43521780940E+03  0.26544830491E+03  0.60951071242E+03  0.90065820810E+02 0.  0.
          3    1    3    3  502    0  0.10618254483E+03  0.56656484490E+03  0.22281764553E+04  0.23015300937E+04  0.00000000000E+00 0. -1.
         -4    1    3    3    0  502  0.20170980864E+01  0.20270346595E+03  0.66783556855E+03  0.69792342733E+03  0.00000000000E+00 0.  1.
         13    1    5    5    0    0 -0.34522408921E+03 -0.23852040128E+03 -0.12474637463E+03  0.43775942204E+03  0.00000000000E+00 0.  1.
        -13    1    5    5    0    0 -0.84711644734E+02 -0.95530100162E+02 -0.82369042854E+02  0.15194315388E+03  0.00000000000E+00 0. -1.
          4    1    6    6  503    0  0.23102374384E+02 -0.78765079931E+02  0.23850264312E+02  0.85478024231E+02  0.00000000000E+00 0. -1.
         -4    1    6    6    0  503  0.29863371665E+03 -0.35645272947E+03  0.24159804060E+03  0.52403268819E+03  0.00000000000E+00 0.  1.
<mgrwt>
<rscale>  0 0.29833956E+04</rscale>
<asrwt>0</asrwt>
<pdfrwt beam="1">  1        1 0.55023166E+00 0.29833956E+04</pdfrwt>
<pdfrwt beam="2">  1       -2 0.95717071E-01 0.29833956E+04</pdfrwt>
<totfact> 0.14912348E-01</totfact>
</mgrwt>
</event>
<event>
12    5  0.5221187E-008  0.1559322E+04  0.7818608E-02  0.8845935E-01
         -2   -1    0    0    0  501 -0.00000000000E+00  0.00000000000E+00  0.27118763189E+03  0.27118763189E+03  0.00000000000E+00 0.  1.
          1   -1    0    0  501    0  0.00000000000E+00 -0.00000000000E+00 -0.22415161973E+04  0.22415161973E+04  0.00000000000E+00 0. -1.
        -24    2    1    2    0    0 -0.23686485198E+02 -0.32168207755E+03 -0.99025645949E+01  0.33221740538E+03  0.78929937663E+02 0.  0.
        254    2    1    2    0    0  0.23686485198E+02  0.32168207755E+03 -0.19604260008E+04  0.21804864238E+04  0.89844895856E+03 0.  0.
         23    2    4    4    0    0 -0.14560703238E+03  0.59247224245E+03 -0.13787458638E+04  0.15105004738E+04  0.91906247311E+02 0.  0.
         23    2    4    4    0    0  0.16929351758E+03 -0.27079016490E+03 -0.58168013694E+03  0.66998594999E+03  0.92421766776E+02 0.  0.
          3    1    3    3  502    0 -0.40273423212E+02 -0.89884989773E+02  0.98683788886E+01  0.98988104869E+02  0.00000000000E+00 0. -1.
         -4    1    3    3    0  502  0.16586938014E+02 -0.23179708777E+03 -0.19770943483E+02  0.23322930052E+03  0.00000000000E+00 0.  1.
         13    1    5    5    0    0 -0.78109189209E+02  0.30854765749E+03 -0.60632188976E+03  0.68478386107E+03  0.00000000000E+00 0. -1.
        -13    1    5    5    0    0 -0.67497843173E+02  0.28392458496E+03 -0.77242397409E+03  0.82571661272E+03  0.00000000000E+00 0.  1.
          4    1    6    6  503    0  0.17717493422E+03 -0.23865281249E+03 -0.49738760624E+03  0.57943123239E+03  0.00000000000E+00 0. -1.
         -4    1    6    6    0  503 -0.78814166447E+01 -0.32137352417E+02 -0.84292530700E+02  0.90554717605E+02  0.00000000000E+00 0.  1.
<mgrwt>
<rscale>  0 0.15593222E+04</rscale>
<asrwt>0</asrwt>
<pdfrwt beam="1">  1        1 0.34484864E+00 0.15593222E+04</pdfrwt>
<pdfrwt beam="2">  1       -2 0.41721174E-01 0.15593222E+04</pdfrwt>
<totfact> 0.94021439E+00</totfact>
</mgrwt>
</event>
<event>
12    5  0.5221187E-008  0.1589884E+04  0.7818608E-02  0.8826787E-01
         -2   -1    0    0    0  501 -0.00000000000E+00  0.00000000000E+00  0.14769388909E+04  0.14769388909E+04  0.00000000000E+00 0.  1.
          1   -1    0    0  501    0  0.00000000000E+00 -0.00000000000E+00 -0.42786663246E+03  0.42786663246E+03  0.00000000000E+00 0. -1.
        -24    2    1    2    0    0 -0.42026878365E+02 -0.47238309355E+03  0.46722930050E+02  0.48340989566E+03  0.81179119534E+02 0.  0.
        254    2    1    2    0    0  0.42026878365E+02  0.47238309355E+03  0.10023493284E+04  0.14213956277E+04  0.88924086092E+03 0.  0.
         23    2    4    4    0    0  0.92708987847E+02 -0.12334328472E+03  0.74341267520E+03  0.76363631599E+03  0.81666977059E+02 0.  0.
         23    2    4    4    0    0 -0.50682109482E+02  0.59572637828E+03  0.25893665316E+03  0.65775931168E+03  0.90224873264E+02 0.  0.
          3    1    3    3  502    0  0.57061575775E+01 -0.31038008068E+03  0.10104640805E+02  0.31059693895E+03  0.00000000000E+00 0. -1.
         -4    1    3    3    0  502 -0.47733035942E+02 -0.16200301287E+03  0.36618289245E+02  0.17281295671E+03  0.00000000000E+00 0.  1.
         13    1    5    5    0    0  0.49494455271E+02 -0.73308789858E+02  0.23776797419E+03  0.25368777921E+03  0.00000000000E+00 0. -1.
        -13    1    5    5    0    0  0.43214532576E+02 -0.50034494867E+02  0.50564470101E+03  0.50994853678E+03  0.00000000000E+00 0.  1.
          1    1    6    6  503    0  0.25053015220E+02  0.20554582520E+03  0.82538034901E+02  0.22291089483E+03  0.00000000000E+00 0. -1.
         -1    1    6    6    0  503 -0.75735124702E+02  0.39018055308E+03  0.17639861826E+03  0.43484841685E+03  0.00000000000E+00 0.  1.
<mgrwt>
<rscale>  0 0.15898841E+04</rscale>
<asrwt>0</asrwt>
<pdfrwt beam="1">  1        1 0.65825637E-01 0.15898841E+04</pdfrwt>
<pdfrwt beam="2">  1       -2 0.22722137E+00 0.15898841E+04</pdfrwt>
<totfact> 0.40945519E+00</totfact>
</mgrwt>
</event>
<event>
12    5  0.5221187E-008  0.2213909E+04  0.7818608E-02  0.8512661E-01
          1   -1    0    0  501    0  0.00000000000E+00  0.00000000000E+00  0.11327422066E+04  0.11327422066E+04  0.00000000000E+00 0. -1.
         -4   -1    0    0    0  501 -0.00000000000E+00 -0.00000000000E+00 -0.10817536012E+04  0.10817536012E+04  0.00000000000E+00 0.  1.
        -24    2    1    2    0    0 -0.29491537858E+03 -0.26343967901E+03  0.85417012989E+03  0.94468661838E+03  0.80315945857E+02 0.  0.
        254    2    1    2    0    0  0.29491537858E+03  0.26343967901E+03 -0.80318152451E+03  0.12698091894E+04  0.90052166610E+03 0.  0.
         23    2    4    4    0    0 -0.66522128103E+02 -0.10762153042E+03 -0.72094335417E+03  0.73728706679E+03  0.88460791287E+02 0.  0.
         23    2    4    4    0    0  0.36143750668E+03  0.37106120943E+03 -0.82238170340E+02  0.53252212258E+03  0.92158569884E+02 0.  0.
          3    1    3    3  502    0 -0.28620005940E+03 -0.24269538877E+03  0.83374175382E+03  0.91429581525E+03  0.00000000000E+00 0. -1.
         -4    1    3    3    0  502 -0.87153191819E+01 -0.20744290238E+02  0.20428376066E+02  0.30390803126E+02  0.00000000000E+00 0.  1.
         13    1    5    5    0    0  0.11311427862E+02 -0.16131472698E+02 -0.29412968266E+02  0.35401913987E+02  0.00000000000E+00 0.  1.
        -13    1    5    5    0    0 -0.77833555965E+02 -0.91490057725E+02 -0.69153038591E+03  0.70188515281E+03  0.00000000000E+00 0. -1.
          2    1    6    6  503    0  0.30943796760E+03  0.32648563326E+03 -0.10198155666E+03  0.46124284538E+03  0.00000000000E+00 0. -1.
         -2    1    6    6    0  503  0.51999539080E+02  0.44575576172E+02  0.19743386317E+02  0.71279277205E+02  0.00000000000E+00 0.  1.
<mgrwt>
<rscale>  0 0.22139087E+04</rscale>
<asrwt>0</asrwt>
<pdfrwt beam="1">  1        1 0.17426803E+00 0.22139087E+04</pdfrwt>
<pdfrwt beam="2">  1       -4 0.16642363E+00 0.22139087E+04</pdfrwt>
<totfact> 0.11876741E+00</totfact>
</mgrwt>
</event>
<event>
12    5  0.5221187E-008  0.2953566E+04  0.7818608E-02  0.8257116E-01
          1   -1    0    0  501    0  0.00000000000E+00  0.00000000000E+00  0.12781732184E+04  0.12781732184E+04  0.00000000000E+00 0. -1.
         -2   -1    0    0    0  501 -0.00000000000E+00 -0.00000000000E+00 -0.17062536476E+04  0.17062536476E+04  0.00000000000E+00 0.  1.
        -24    2    1    2    0    0 -0.45572875396E+03  0.75286315368E+03  0.79805557829E+03  0.11907358241E+04  0.80420591106E+02 0.  0.
        254    2    1    2    0    0  0.45572875396E+03 -0.75286315368E+03 -0.12261360075E+04  0.17936910419E+04  0.96924012486E+03 0.  0.
         23    2    4    4    0    0  0.31119811975E+02 -0.84428445894E+03 -0.66867966463E+03  0.10812629122E+04  0.90621747658E+02 0.  0.
         23    2    4    4    0    0  0.42460894198E+03  0.91421305253E+02 -0.55745634287E+03  0.71242812971E+03  0.90253294305E+02 0.  0.
          1    1    3    3  502    0 -0.37007609025E+03  0.62917578423E+03  0.69866274426E+03  0.10104197693E+04  0.00000000000E+00 0. -1.
         -2    1    3    3    0  502 -0.85652663709E+02  0.12368736946E+03  0.99392834026E+02  0.18031605480E+03  0.00000000000E+00 0.  1.
         13    1    5    5    0    0 -0.13101569040E+02 -0.45299693926E+03 -0.40091002897E+03  0.60506754121E+03  0.00000000000E+00 0. -1.
        -13    1    5    5    0    0  0.44221381015E+02 -0.39128751967E+03 -0.26776963566E+03  0.47619537101E+03  0.00000000000E+00 0.  1.
          2    1    6    6  503    0  0.38153915177E+03  0.10771804514E+03 -0.48286500980E+03  0.62476709202E+03  0.00000000000E+00 0. -1.
         -2    1    6    6    0  503  0.43069790210E+02 -0.16296739887E+02 -0.74591333075E+02  0.87661037694E+02  0.00000000000E+00 0.  1.
<mgrwt>
<rscale>  0 0.29535658E+04</rscale>
<asrwt>0</asrwt>
<pdfrwt beam="1">  1        1 0.19664203E+00 0.29535658E+04</pdfrwt>
<pdfrwt beam="2">  1       -2 0.26250056E+00 0.29535658E+04</pdfrwt>
<totfact> 0.37885769E-01</totfact>
</mgrwt>
</event>
<event>
12    5  0.5221187E-008  0.1701329E+04  0.7818608E-02  0.8760607E-01
         -2   -1    0    0    0  501 -0.00000000000E+00  0.00000000000E+00  0.44315756292E+03  0.44315756292E+03  0.00000000000E+00 0.  1.
          1   -1    0    0  501    0  0.00000000000E+00 -0.00000000000E+00 -0.16328950899E+04  0.16328950899E+04  0.00000000000E+00 0. -1.
        -24    2    1    2    0    0  0.34678740147E+03 -0.38548521178E+03 -0.42140921759E+02  0.52640544176E+03  0.80414435979E+02 0.  0.
        254    2    1    2    0    0 -0.34678740147E+03  0.38548521178E+03 -0.11475966052E+04  0.15496472110E+04  0.90308812422E+03 0.  0.
         23    2    4    4    0    0  0.14296287371E+03 -0.19066792377E+03 -0.15493642587E+03  0.29842972191E+03  0.90897538165E+02 0.  0.
         23    2    4    4    0    0 -0.48975027518E+03  0.57615313555E+03 -0.99266017934E+03  0.12512174891E+04  0.91450564950E+02 0.  0.
          3    1    3    3  502    0 -0.23344784913E+01 -0.14755676408E+02  0.27476336503E+01  0.15189775073E+02  0.00000000000E+00 0. -1.
         -4    1    3    3    0  502  0.34912187996E+03 -0.37072953537E+03 -0.44888555409E+02  0.51121566669E+03  0.00000000000E+00 0.  1.
         13    1    5    5    0    0  0.11621933036E+03 -0.80117688340E+02 -0.80519556139E+02  0.16250900177E+03  0.00000000000E+00 0. -1.
        -13    1    5    5    0    0  0.26743543353E+02 -0.11055023543E+03 -0.74416869729E+02  0.13592072015E+03  0.00000000000E+00 0.  1.
          4    1    6    6  503    0 -0.44712990606E+03  0.48313505041E+03 -0.83530101790E+03  0.10635188857E+04  0.00000000000E+00 0. -1.
         -4    1    6    6    0  503 -0.42620369127E+02  0.93018085136E+02 -0.15735916144E+03  0.18769860339E+03  0.00000000000E+00 0.  1.
<mgrwt>
<rscale>  0 0.17013287E+04</rscale>
<asrwt>0</asrwt>
<pdfrwt beam="1">  1        1 0.25121463E+00 0.17013287E+04</pdfrwt>
<pdfrwt beam="2">  1       -2 0.68178086E-01 0.17013287E+04</pdfrwt>
<totfact> 0.87104041E+00</totfact>
</mgrwt>
</event>
<event>
12    5  0.5221187E-008  0.1247927E+04  0.7818608E-02  0.9071910E-01
          1   -1    0    0  501    0  0.00000000000E+00  0.00000000000E+00  0.16221531049E+04  0.16221531049E+04  0.00000000000E+00 0. -1.
         -2   -1    0    0    0  501 -0.00000000000E+00 -0.00000000000E+00 -0.24000863473E+03  0.24000863473E+03  0.00000000000E+00 0.  1.
        -24    2    1    2    0    0  0.17539640880E+03 -0.11310742193E+03  0.26249909086E+03  0.34392198947E+03  0.76284815178E+02 0.  0.
        254    2    1    2    0    0 -0.17539640880E+03  0.11310742193E+03  0.11196453793E+04  0.15182397501E+04  0.10039367382E+04 0.  0.
         23    2    4    4    0    0 -0.14110851371E+03  0.53071491201E+03  0.41993548500E+03  0.69765834660E+03  0.93869199175E+02 0.  0.
         23    2    4    4    0    0 -0.34287895089E+02 -0.41760749007E+03  0.69970989426E+03  0.82058140351E+03  0.90488828817E+02 0.  0.
          3    1    3    3  502    0  0.41069414169E+01  0.92052351325E+01  0.47207000320E+01  0.11130513485E+02  0.00000000000E+00 0. -1.
         -4    1    3    3    0  502  0.17128946738E+03 -0.12231265706E+03  0.25777839083E+03  0.33279147599E+03  0.00000000000E+00 0.  1.
         13    1    5    5    0    0 -0.14814988072E+03  0.50773862846E+03  0.41684576918E+03  0.67342950431E+03  0.00000000000E+00 0.  1.
        -13    1    5    5    0    0  0.70413670150E+01  0.22976283546E+02  0.30897158194E+01  0.24228842293E+02  0.00000000000E+00 0. -1.
          2    1    6    6  503    0 -0.28895332201E+02 -0.41474363395E+02  0.59870122876E+02  0.78354927447E+02  0.00000000000E+00 0. -1.
         -2    1    6    6    0  503 -0.53925628882E+01 -0.37613312668E+03  0.63983977138E+03  0.74222647606E+03  0.00000000000E+00 0.  1.
<mgrwt>
<rscale>  0 0.12479275E+04</rscale>
<asrwt>0</asrwt>
<pdfrwt beam="1">  1        1 0.24956201E+00 0.12479275E+04</pdfrwt>
<pdfrwt beam="2">  1       -2 0.36924406E-01 0.12479275E+04</pdfrwt>
<totfact> 0.32234605E+01</totfact>
</mgrwt>
</event>
<event>
12    5  0.5221187E-008  0.1202069E+04  0.7818608E-02  0.9111048E-01
         -4   -1    0    0    0  501 -0.00000000000E+00  0.00000000000E+00  0.88379330877E+03  0.88379330877E+03  0.00000000000E+00 0.  1.
          3   -1    0    0  501    0  0.00000000000E+00 -0.00000000000E+00 -0.40874072999E+03  0.40874072999E+03  0.00000000000E+00 0. -1.
        -24    2    1    2    0    0  0.77161858614E+02  0.11951244646E+03  0.32755346876E+03  0.36595124876E+03  0.79949135648E+02 0.  0.
        254    2    1    2    0    0 -0.77161858614E+02 -0.11951244646E+03  0.14749911002E+03  0.92658279000E+03  0.90363847970E+03 0.  0.
         23    2    4    4    0    0 -0.36810396577E+03  0.23493464675E+03  0.97568963439E+02  0.45631720769E+03  0.89503483448E+02 0.  0.
         23    2    4    4    0    0  0.29094210715E+03 -0.35444709322E+03  0.49930146580E+02  0.47026558231E+03  0.91524022892E+02 0.  0.
          1    1    3    3  502    0 -0.49802487384E+01  0.16868988589E+02  0.11272992605E+03  0.11409382928E+03  0.00000000000E+00 0. -1.
         -2    1    3    3    0  502  0.82142107353E+02  0.10264345787E+03  0.21482354271E+03  0.25185741948E+03  0.00000000000E+00 0.  1.
         13    1    5    5    0    0 -0.21051111605E+03  0.16848728559E+03  0.25887831577E+02  0.27087464852E+03  0.00000000000E+00 0. -1.
        -13    1    5    5    0    0 -0.15759284971E+03  0.66447361164E+02  0.71681131862E+02  0.18544255917E+03  0.00000000000E+00 0.  1.
          1    1    6    6  503    0  0.13031327704E+02 -0.51177954298E+02 -0.12335342126E+02  0.54232454981E+02  0.00000000000E+00 0. -1.
         -1    1    6    6    0  503  0.27791077945E+03 -0.30326913892E+03  0.62265488706E+02  0.41603312733E+03  0.00000000000E+00 0.  1.
<mgrwt>
<rscale>  0 0.12020688E+04</rscale>
<asrwt>0</asrwt>
<pdfrwt beam="1">  1        3 0.62883189E-01 0.12020688E+04</pdfrwt>
<pdfrwt beam="2">  1       -4 0.13596820E+00 0.12020688E+04</pdfrwt>
<totfact> 0.21375682E+00</totfact>
</mgrwt>
</event>
<event>
12    5  0.5221187E-008  0.1188265E+04  0.7818608E-02  0.9123191E-01
         -2   -1    0    0    0  501 -0.00000000000E+00  0.00000000000E+00  0.29179213492E+03  0.29179213492E+03  0.00000000000E+00 0.  1.
          1   -1    0    0  501    0  0.00000000000E+00 -0.00000000000E+00 -0.12097419311E+04  0.12097419311E+04  0.00000000000E+00 0. -1.
        -24    2    1    2    0    0 -0.11426723399E+03 -0.19051282057E+03 -0.31749671041E+03  0.39555540411E+03  0.79421540110E+02 0.  0.
        254    2    1    2    0    0  0.11426723399E+03  0.19051282057E+03 -0.60045308579E+03  0.11059786619E+04  0.90182745403E+03 0.  0.
         23    2    4    4    0    0 -0.28196138218E+03  0.31369791746E+03 -0.87121322119E+02  0.43983878956E+03  0.89215646457E+02 0.  0.
         23    2    4    4    0    0  0.39622861617E+03 -0.12318509689E+03 -0.51333176368E+03  0.66613987238E+03  0.89783882780E+02 0.  0.
          3    1    3    3  502    0 -0.11362564497E+03 -0.15975364418E+03 -0.30451659727E+03  0.36216346039E+03  0.00000000000E+00 0. -1.
         -4    1    3    3    0  502 -0.64158902233E+00 -0.30759176389E+02 -0.12980113137E+02  0.33391943724E+02  0.00000000000E+00 0.  1.
         13    1    5    5    0    0 -0.18806500915E+03  0.17990944661E+03 -0.92744266143E+02  0.27629215615E+03  0.00000000000E+00 0.  1.
        -13    1    5    5    0    0 -0.93896373029E+02  0.13378847085E+03  0.56229440240E+01  0.16354663341E+03  0.00000000000E+00 0. -1.
          3    1    6    6  503    0  0.21244274624E+03 -0.10384396039E+03 -0.32863195476E+03  0.40486349580E+03  0.00000000000E+00 0. -1.
         -3    1    6    6    0  503  0.18378586992E+03 -0.19341136500E+02 -0.18469980891E+03  0.26127637657E+03  0.00000000000E+00 0.  1.
<mgrwt>
<rscale>  0 0.11882646E+04</rscale>
<asrwt>0</asrwt>
<pdfrwt beam="1">  1        1 0.18611415E+00 0.11882646E+04</pdfrwt>
<pdfrwt beam="2">  1       -2 0.44891097E-01 0.11882646E+04</pdfrwt>
<totfact> 0.42965849E+01</totfact>
</mgrwt>
</event>
<event>
12    5  0.5221187E-008  0.1492835E+04  0.7818608E-02  0.8889232E-01
          1   -1    0    0  501    0  0.00000000000E+00  0.00000000000E+00  0.18134613481E+04  0.18134613481E+04  0.00000000000E+00 0. -1.
         -2   -1    0    0    0  501 -0.00000000000E+00 -0.00000000000E+00 -0.30722393323E+03  0.30722393323E+03  0.00000000000E+00 0.  1.
        -24    2    1    2    0    0  0.35818336829E+03  0.29922801320E+03  0.40650840640E+03  0.62399579064E+03  0.79302793476E+02 0.  0.
        254    2    1    2    0    0 -0.35818336829E+03 -0.29922801320E+03  0.10997290084E+04  0.14966894907E+04  0.90157795573E+03 0.  0.
         23    2    4    4    0    0  0.16666025440E+02 -0.93481003421E+02 -0.13392436598E+03  0.18781614014E+03  0.91228900516E+02 0.  0.
         23    2    4    4    0    0 -0.37484939373E+03 -0.20574700978E+03  0.12336533744E+04  0.13088733505E+04  0.91678239011E+02 0.  0.
          3    1    3    3  502    0  0.24966483904E+03  0.25290874280E+03  0.30883913257E+03  0.47082584237E+03  0.00000000000E+00 0. -1.
         -4    1    3    3    0  502  0.10851852926E+03  0.46319270408E+02  0.97669273832E+02  0.15316994827E+03  0.00000000000E+00 0.  1.
         13    1    5    5    0    0  0.17146321648E+02 -0.53149530887E+02 -0.90323093073E+01  0.56572533892E+02  0.00000000000E+00 0. -1.
        -13    1    5    5    0    0 -0.48029620845E+00 -0.40331472534E+02 -0.12489205667E+03  0.13124360625E+03  0.00000000000E+00 0.  1.
          2    1    6    6  503    0 -0.32086563400E+03 -0.20950018252E+03  0.10796153830E+04  0.11456065890E+04  0.00000000000E+00 0.  1.
         -2    1    6    6    0  503 -0.53983759731E+02  0.37531727377E+01  0.15403799138E+03  0.16326676149E+03  0.00000000000E+00 0. -1.
<mgrwt>
<rscale>  0 0.14928345E+04</rscale>
<asrwt>0</asrwt>
<pdfrwt beam="1">  1        1 0.27899405E+00 0.14928345E+04</pdfrwt>
<pdfrwt beam="2">  1       -2 0.47265221E-01 0.14928345E+04</pdfrwt>
<totfact> 0.14382013E+01</totfact>
</mgrwt>
</event>
<event>
12    5  0.5221187E-008  0.1336302E+04  0.7818608E-02  0.9001262E-01
         -2   -1    0    0    0  501 -0.00000000000E+00  0.00000000000E+00  0.46240714225E+03  0.46240714225E+03  0.00000000000E+00 0.  1.
          1   -1    0    0  501    0  0.00000000000E+00 -0.00000000000E+00 -0.96543926726E+03  0.96543926726E+03  0.00000000000E+00 0. -1.
        -24    2    1    2    0    0 -0.81152804058E+02  0.34964385612E+03 -0.20733423785E+03  0.42166634091E+03  0.77320198808E+02 0.  0.
        254    2    1    2    0    0  0.81152804058E+02 -0.34964385612E+03 -0.29569788716E+03  0.10061800686E+04  0.89225808276E+03 0.  0.
         23    2    4    4    0    0 -0.16673843679E+03  0.14465031099E+03 -0.36762606912E+03  0.44094509932E+03  0.10275327316E+03 0.  0.
         23    2    4    4    0    0  0.24789124085E+03 -0.49429416711E+03  0.71928181963E+02  0.56523496927E+03  0.92412749143E+02 0.  0.
          1    1    3    3  502    0 -0.14458293106E+02  0.59580641649E+02 -0.72411395373E+02  0.94880478913E+02  0.00000000000E+00 0. -1.
         -2    1    3    3    0  502 -0.66694510952E+02  0.29006321447E+03 -0.13492284248E+03  0.32678586200E+03  0.00000000000E+00 0.  1.
         13    1    5    5    0    0 -0.23416953912E+02  0.13334173318E+02 -0.22017923879E+01  0.27037044926E+02  0.00000000000E+00 0. -1.
        -13    1    5    5    0    0 -0.14332148288E+03  0.13131613767E+03 -0.36542427674E+03  0.41390805440E+03  0.00000000000E+00 0.  1.
          4    1    6    6  503    0  0.35238854041E+02 -0.16433943931E+03  0.19367191206E+02  0.16918722246E+03  0.00000000000E+00 0. -1.
         -4    1    6    6    0  503  0.21265238681E+03 -0.32995472779E+03  0.52560990758E+02  0.39604774681E+03  0.00000000000E+00 0.  1.
<mgrwt>
<rscale>  0 0.13363024E+04</rscale>
<asrwt>0</asrwt>
<pdfrwt beam="1">  1        1 0.14852912E+00 0.13363024E+04</pdfrwt>
<pdfrwt beam="2">  1       -2 0.71139561E-01 0.13363024E+04</pdfrwt>
<totfact> 0.24832716E+01</totfact>
</mgrwt>
</event>
<event>
12    5  0.5221187E-008  0.2279927E+04  0.7818608E-02  0.8485878E-01
         -2   -1    0    0    0  501 -0.00000000000E+00  0.00000000000E+00  0.11532486839E+04  0.11532486839E+04  0.00000000000E+00 0.  1.
          1   -1    0    0  501    0  0.00000000000E+00 -0.00000000000E+00 -0.11268314680E+04  0.11268314680E+04  0.00000000000E+00 0. -1.
        -24    2    1    2    0    0  0.43918002351E+03 -0.67233148583E+03 -0.51731390082E+03  0.95861074910E+03  0.80076066441E+02 0.  0.
        254    2    1    2    0    0 -0.43918002351E+03  0.67233148583E+03  0.54373111674E+03  0.13214694028E+04  0.89762416145E+03 0.  0.
         23    2    4    4    0    0 -0.10887967492E+03 -0.21130166341E+03  0.14609457288E+03  0.29369040303E+03  0.91691068481E+02 0.  0.
         23    2    4    4    0    0 -0.33030034859E+03  0.88363314924E+03  0.39763654386E+03  0.10277789997E+04  0.91153653500E+02 0.  0.
          1    1    3    3  502    0  0.16235995446E+03 -0.27522256487E+03 -0.24936424003E+03  0.40532794035E+03  0.00000000000E+00 0. -1.
         -2    1    3    3    0  502  0.27682006905E+03 -0.39710892096E+03 -0.26794966079E+03  0.55328280874E+03  0.00000000000E+00 0.  1.
         13    1    5    5    0    0 -0.12108639779E+03 -0.17649101391E+03  0.14135119345E+03  0.25649786278E+03  0.00000000000E+00 0. -1.
        -13    1    5    5    0    0  0.12206722871E+02 -0.34810649501E+02  0.47433794207E+01  0.37192540251E+02  0.00000000000E+00 0.  1.
          2    1    6    6  503    0 -0.13990197751E+03  0.46612267929E+03  0.23962649298E+03  0.54246084798E+03  0.00000000000E+00 0. -1.
         -2    1    6    6    0  503 -0.19039837108E+03  0.41751046995E+03  0.15801005088E+03  0.48531815174E+03  0.00000000000E+00 0.  1.
<mgrwt>
<rscale>  0 0.22799271E+04</rscale>
<asrwt>0</asrwt>
<pdfrwt beam="1">  1        1 0.17335869E+00 0.22799271E+04</pdfrwt>
<pdfrwt beam="2">  1       -2 0.17742287E+00 0.22799271E+04</pdfrwt>
<totfact> 0.18163646E+00</totfact>
</mgrwt>
</event>
<event>
12    5  0.5221187E-008  0.1550374E+04  0.7818608E-02  0.8851629E-01
         -2   -1    0    0    0  501 -0.00000000000E+00  0.00000000000E+00  0.63416121446E+03  0.63416121446E+03  0.00000000000E+00 0.  1.
          1   -1    0    0  501    0  0.00000000000E+00 -0.00000000000E+00 -0.94757423443E+03  0.94757423443E+03  0.00000000000E+00 0. -1.
        -24    2    1    2    0    0 -0.28798325004E+03  0.53516043792E+02 -0.52785429151E+03  0.60906381438E+03  0.80810009734E+02 0.  0.
        254    2    1    2    0    0  0.28798325004E+03 -0.53516043792E+02  0.21444127153E+03  0.97267163451E+03  0.90238945605E+03 0.  0.
         23    2    4    4    0    0  0.91587437746E+00  0.38684735896E+03  0.18781731204E+03  0.43834390345E+03  0.84960679268E+02 0.  0.
         23    2    4    4    0    0  0.28706737567E+03 -0.44036340276E+03  0.26623959493E+02  0.53432773107E+03  0.92030887796E+02 0.  0.
          1    1    3    3  502    0 -0.28275387987E+03  0.49642222129E+02 -0.52953127055E+03  0.60234331846E+03  0.00000000000E+00 0. -1.
         -2    1    3    3    0  502 -0.52293701765E+01  0.38738216633E+01  0.16769790435E+01  0.67204959217E+01  0.00000000000E+00 0.  1.
         13    1    5    5    0    0 -0.31979853136E+02  0.14194928977E+03  0.97986310092E+02  0.17542413984E+03  0.00000000000E+00 0. -1.
        -13    1    5    5    0    0  0.32895727513E+02  0.24489806919E+03  0.89831001950E+02  0.26291976361E+03  0.00000000000E+00 0.  1.
          4    1    6    6  503    0  0.96059075172E+01 -0.52537607018E+02  0.21133992085E+02  0.57437959851E+02  0.00000000000E+00 0. -1.
         -4    1    6    6    0  503  0.27746146815E+03 -0.38782579574E+03  0.54899674076E+01  0.47688977122E+03  0.00000000000E+00 0.  1.
<mgrwt>
<rscale>  0 0.15503739E+04</rscale>
<asrwt>0</asrwt>
<pdfrwt beam="1">  1        1 0.14578065E+00 0.15503739E+04</pdfrwt>
<pdfrwt beam="2">  1       -2 0.97563264E-01 0.15503739E+04</pdfrwt>
<totfact> 0.12310081E+01</totfact>
</mgrwt>
</event>
<event>
12    5  0.5221187E-008  0.2462390E+04  0.7818608E-02  0.8416508E-01
         -2   -1    0    0    0  501 -0.00000000000E+00  0.00000000000E+00  0.63140360702E+03  0.63140360702E+03  0.00000000000E+00 0.  1.
          1   -1    0    0  501    0  0.00000000000E+00 -0.00000000000E+00 -0.24007477598E+04  0.24007477598E+04  0.00000000000E+00 0. -1.
        -24    2    1    2    0    0 -0.62658069359E+02  0.10621752984E+04 -0.78990222819E+03  0.13275669684E+04  0.79662583091E+02 0.  0.
        254    2    1    2    0    0  0.62658069359E+02 -0.10621752984E+04 -0.97944192457E+03  0.17045843984E+04  0.90230764687E+03 0.  0.
         23    2    4    4    0    0 -0.69332858222E+02 -0.11771736148E+04 -0.92798166588E+03  0.15035297513E+04  0.94376777378E+02 0.  0.
         23    2    4    4    0    0  0.13199092758E+03  0.11499831639E+03 -0.51460258688E+02  0.20105464718E+03  0.84431008468E+02 0.  0.
          1    1    3    3  502    0 -0.31162171757E+02  0.46214550808E+03 -0.29523183242E+03  0.54928261074E+03  0.00000000000E+00 0. -1.
         -2    1    3    3    0  502 -0.31495897602E+02  0.60002979034E+03 -0.49467039577E+03  0.77828435762E+03  0.00000000000E+00 0.  1.
         13    1    5    5    0    0 -0.82652410497E+02 -0.95846284282E+03 -0.78760867296E+03  0.12433060218E+04  0.00000000000E+00 0. -1.
        -13    1    5    5    0    0  0.13319552276E+02 -0.21871077199E+03 -0.14037299292E+03  0.26022372950E+03  0.00000000000E+00 0.  1.
          3    1    6    6  503    0  0.13103006320E+03  0.12559027330E+03 -0.40865147820E+02  0.18604234603E+03  0.00000000000E+00 0. -1.
         -3    1    6    6    0  503  0.96086437987E+00 -0.10591956907E+02 -0.10595110868E+02  0.15012301149E+02  0.00000000000E+00 0.  1.
<mgrwt>
<rscale>  0 0.24623897E+04</rscale>
<asrwt>0</asrwt>
<pdfrwt beam="1">  1        1 0.36934580E+00 0.24623897E+04</pdfrwt>
<pdfrwt beam="2">  1       -2 0.97139018E-01 0.24623897E+04</pdfrwt>
<totfact> 0.10995446E+00</totfact>
</mgrwt>
</event>
<event>
12    5  0.5221187E-008  0.2353303E+04  0.7818608E-02  0.8457196E-01
         -2   -1    0    0    0  501 -0.00000000000E+00  0.00000000000E+00  0.10355310620E+04  0.10355310620E+04  0.00000000000E+00 0.  1.
          1   -1    0    0  501    0  0.00000000000E+00 -0.00000000000E+00 -0.13370034736E+04  0.13370034736E+04  0.00000000000E+00 0. -1.
        -24    2    1    2    0    0 -0.91534592404E+03  0.25097033448E+03 -0.45955578281E+03  0.10575286112E+04  0.79567433358E+02 0.  0.
        254    2    1    2    0    0  0.91534592404E+03 -0.25097033448E+03  0.15808337119E+03  0.13150059244E+04  0.89632915802E+03 0.  0.
         23    2    4    4    0    0 -0.15383886174E+03 -0.55456574447E+02 -0.72276115477E+02  0.20036162176E+03  0.90438462907E+02 0.  0.
         23    2    4    4    0    0  0.10691847858E+04 -0.19551376004E+03  0.23035948667E+03  0.11146443027E+04  0.89357102749E+02 0.  0.
          1    1    3    3  502    0 -0.41165597562E+03  0.82332951053E+02 -0.17370772076E+03  0.45432777743E+03  0.00000000000E+00 0. -1.
         -2    1    3    3    0  502 -0.50368994842E+03  0.16863738343E+03 -0.28584806205E+03  0.60320083373E+03  0.00000000000E+00 0.  1.
         13    1    5    5    0    0 -0.15864969736E+03 -0.67763474896E+02 -0.60974768606E+02  0.18297414410E+03  0.00000000000E+00 0.  1.
        -13    1    5    5    0    0  0.48108356222E+01  0.12306900449E+02 -0.11301346871E+02  0.17387477653E+02  0.00000000000E+00 0. -1.
          4    1    6    6  503    0  0.54506733838E+03 -0.54420682855E+02  0.11179266477E+03  0.55906852352E+03  0.00000000000E+00 0. -1.
         -4    1    6    6    0  503  0.52411744741E+03 -0.14109307718E+03  0.11856682190E+03  0.55557577913E+03  0.00000000000E+00 0.  1.
<mgrwt>
<rscale>  0 0.23533029E+04</rscale>
<asrwt>0</asrwt>
<pdfrwt beam="1">  1        1 0.20569284E+00 0.23533029E+04</pdfrwt>
<pdfrwt beam="2">  1       -2 0.15931247E+00 0.23533029E+04</pdfrwt>
<totfact> 0.17132432E+00</totfact>
</mgrwt>
</event>
<event>
12    5  0.5221187E-008  0.1397230E+04  0.7818608E-02  0.8955826E-01
          1   -1    0    0  501    0  0.00000000000E+00  0.00000000000E+00  0.53609883557E+03  0.53609883557E+03  0.00000000000E+00 0. -1.
         -2   -1    0    0    0  501 -0.00000000000E+00 -0.00000000000E+00 -0.91039689507E+03  0.91039689507E+03  0.00000000000E+00 0.  1.
        -24    2    1    2    0    0 -0.28897600770E+03 -0.19406425374E+02  0.18194193807E+03  0.35096169684E+03  0.78660672810E+02 0.  0.
        254    2    1    2    0    0  0.28897600770E+03  0.19406425374E+02 -0.55623999757E+03  0.10955340338E+04  0.89828065879E+03 0.  0.
         23    2    4    4    0    0  0.54363763442E+03 -0.19410379404E+03 -0.26092430772E+03  0.63959770939E+03  0.88235905854E+02 0.  0.
         23    2    4    4    0    0 -0.25466162672E+03  0.21351021941E+03 -0.29531568985E+03  0.45593632442E+03  0.10113069433E+03 0.  0.
          1    1    3    3  502    0 -0.29244419366E+03 -0.12891097613E+02  0.17702613233E+03  0.34209361048E+03  0.00000000000E+00 0. -1.
         -2    1    3    3    0  502  0.34681859560E+01 -0.65153277610E+01  0.49158057349E+01  0.88680863596E+01  0.00000000000E+00 0.  1.
         13    1    5    5    0    0  0.17233164811E+03 -0.71978151917E+02 -0.41386189772E+02  0.19129001019E+03  0.00000000000E+00 0. -1.
        -13    1    5    5    0    0  0.37130598631E+03 -0.12212564212E+03 -0.21953811795E+03  0.44830769920E+03  0.00000000000E+00 0.  1.
          3    1    6    6  503    0 -0.81193416437E+02  0.98048246729E+02 -0.17137056395E+03  0.21347997505E+03  0.00000000000E+00 0. -1.
         -3    1    6    6    0  503 -0.17346821028E+03  0.11546197268E+03 -0.12394512590E+03  0.24245634937E+03  0.00000000000E+00 0.  1.
<mgrwt>
<rscale>  0 0.13972297E+04</rscale>
<asrwt>0</asrwt>
<pdfrwt beam="1">  1        1 0.82476744E-01 0.13972297E+04</pdfrwt>
<pdfrwt beam="2">  1       -2 0.14006106E+00 0.13972297E+04</pdfrwt>
<totfact> 0.12300426E+01</totfact>
</mgrwt>
</event>
<event>
12    5  0.5221187E-008  0.1351398E+04  0.7818608E-02  0.8989770E-01
          1   -1    0    0  501    0  0.00000000000E+00  0.00000000000E+00  0.21305833431E+04  0.21305833431E+04  0.00000000000E+00 0. -1.
         -2   -1    0    0    0  501 -0.00000000000E+00 -0.00000000000E+00 -0.21429314592E+03  0.21429314592E+03  0.00000000000E+00 0.  1.
        -24    2    1    2    0    0 -0.76558662166E+02 -0.11285647460E+03  0.11247234836E+04  0.11357020197E+04  0.78856516868E+02 0.  0.
        254    2    1    2    0    0  0.76558662166E+02  0.11285647460E+03  0.79156671359E+03  0.12091744694E+04  0.90384026396E+03 0.  0.
         23    2    4    4    0    0  0.11225073615E+03  0.24701054448E+03  0.94246146050E+03  0.98493422679E+03  0.90815140449E+02 0.  0.
         23    2    4    4    0    0 -0.35692073987E+02 -0.13415406987E+03 -0.15089474691E+03  0.22424024260E+03  0.90792197609E+02 0.  0.
          1    1    3    3  502    0 -0.77461276931E+02 -0.12197892398E+03  0.10976208046E+04  0.11070910251E+04  0.00000000000E+00 0. -1.
         -2    1    3    3    0  502  0.90261476515E+00  0.91224493768E+01  0.27102679041E+02  0.28610994517E+02  0.00000000000E+00 0.  1.
         13    1    5    5    0    0  0.95172922915E+02  0.10699950730E+03  0.41862628996E+03  0.44244180461E+03  0.00000000000E+00 0.  1.
        -13    1    5    5    0    0  0.17077813238E+02  0.14001103717E+03  0.52383517054E+03  0.54249242218E+03  0.00000000000E+00 0. -1.
          3    1    6    6  503    0  0.30567258689E+02 -0.33683381791E+02 -0.43519495334E+02  0.62951362073E+02  0.00000000000E+00 0. -1.
         -3    1    6    6    0  503 -0.66259332676E+02 -0.10047068808E+03 -0.10737525157E+03  0.16128888052E+03  0.00000000000E+00 0.  1.
<mgrwt>
<rscale>  0 0.13513984E+04</rscale>
<asrwt>0</asrwt>
<pdfrwt beam="1">  1        1 0.32778204E+00 0.13513984E+04</pdfrwt>
<pdfrwt beam="2">  1       -2 0.32968178E-01 0.13513984E+04</pdfrwt>
<totfact> 0.17951380E+01</totfact>
</mgrwt>
</event>
<event>
12    5  0.5221187E-008  0.1632840E+04  0.7818608E-02  0.8800624E-01
         -4   -1    0    0    0  501 -0.00000000000E+00  0.00000000000E+00  0.31258628310E+04  0.31258628310E+04  0.00000000000E+00 0.  1.
          3   -1    0    0  501    0  0.00000000000E+00 -0.00000000000E+00 -0.21323431846E+03  0.21323431846E+03  0.00000000000E+00 0. -1.
        -24    2    1    2    0    0 -0.25492012334E+02 -0.29406548385E+03  0.20022968146E+04  0.20255088824E+04  0.79808190475E+02 0.  0.
        254    2    1    2    0    0  0.25492012334E+02  0.29406548385E+03  0.91033169792E+03  0.13135882671E+04  0.89982552959E+03 0.  0.
         23    2    4    4    0    0  0.22010245758E+03  0.40835075285E+02  0.95032698237E+03  0.98062222352E+03  0.91574978182E+02 0.  0.
         23    2    4    4    0    0 -0.19461044525E+03  0.25323040856E+03 -0.39995284459E+02  0.33296604356E+03  0.85251968680E+02 0.  0.
          3    1    3    3  502    0 -0.65737251177E+01 -0.19586898162E+02  0.52882983230E+02  0.56775614104E+02  0.00000000000E+00 0. -1.
         -4    1    3    3    0  502 -0.18918287217E+02 -0.27447858568E+03  0.19494138314E+04  0.19687332683E+04  0.00000000000E+00 0.  1.
         13    1    5    5    0    0  0.17684951663E+03  0.17405781492E+01  0.80154345246E+03  0.82082317665E+03  0.00000000000E+00 0.  1.
        -13    1    5    5    0    0  0.43252940955E+02  0.39094497136E+02  0.14878352992E+03  0.15979904687E+03  0.00000000000E+00 0. -1.
          1    1    6    6  503    0  0.80421955115E+01  0.87141136728E+01 -0.67685049692E+01  0.13653766706E+02  0.00000000000E+00 0. -1.
         -1    1    6    6    0  503 -0.20265264076E+03  0.24451629489E+03 -0.33226779490E+02  0.31931227685E+03  0.00000000000E+00 0.  1.
<mgrwt>
<rscale>  0 0.16328395E+04</rscale>
<asrwt>0</asrwt>
<pdfrwt beam="1">  1        3 0.32805282E-01 0.16328395E+04</pdfrwt>
<pdfrwt beam="2">  1       -4 0.48090194E+00 0.16328395E+04</pdfrwt>
<totfact> 0.34861376E-02</totfact>
</mgrwt>
</event>
<event>
12    5  0.5221187E-008  0.1624630E+04  0.7818608E-02  0.8805558E-01
         -2   -1    0    0    0  501 -0.00000000000E+00  0.00000000000E+00  0.80869280330E+03  0.80869280330E+03  0.00000000000E+00 0.  1.
          1   -1    0    0  501    0  0.00000000000E+00 -0.00000000000E+00 -0.81595365862E+03  0.81595365862E+03  0.00000000000E+00 0. -1.
        -24    2    1    2    0    0 -0.34080466887E+03 -0.25569171679E+03  0.35878090192E+03  0.56291305354E+03  0.81371333466E+02 0.  0.
        254    2    1    2    0    0  0.34080466887E+03  0.25569171679E+03 -0.36604175724E+03  0.10617334084E+04  0.90098012524E+03 0.  0.
         23    2    4    4    0    0  0.38251579287E+03  0.55283287515E+03 -0.20506454450E+03  0.70868985758E+03  0.90814796068E+02 0.  0.
         23    2    4    4    0    0 -0.41711123999E+02 -0.29714115837E+03 -0.16097721274E+03  0.35304355080E+03  0.93238403466E+02 0.  0.
          1    1    3    3  502    0 -0.62256942375E+01 -0.26161539943E+02  0.13251020316E+02  0.29979576054E+02  0.00000000000E+00 0. -1.
         -2    1    3    3    0  502 -0.33457897463E+03 -0.22953017684E+03  0.34552988161E+03  0.53293347749E+03  0.00000000000E+00 0.  1.
         13    1    5    5    0    0  0.28290612800E+03  0.35441971515E+03 -0.10674183245E+03  0.46587877237E+03  0.00000000000E+00 0. -1.
        -13    1    5    5    0    0  0.99609664862E+02  0.19841316000E+03 -0.98322712056E+02  0.24281108521E+03  0.00000000000E+00 0.  1.
          3    1    6    6  503    0 -0.55971145858E+02 -0.11211309372E+03 -0.40086803629E+02  0.13156392658E+03  0.00000000000E+00 0. -1.
         -3    1    6    6    0  503  0.14260021859E+02 -0.18502806464E+03 -0.12089040911E+03  0.22147962422E+03  0.00000000000E+00 0.  1.
<mgrwt>
<rscale>  0 0.16246302E+04</rscale>
<asrwt>0</asrwt>
<pdfrwt beam="1">  1        1 0.12553133E+00 0.16246302E+04</pdfrwt>
<pdfrwt beam="2">  1       -2 0.12441428E+00 0.16246302E+04</pdfrwt>
<totfact> 0.87145797E+00</totfact>
</mgrwt>
</event>
<event>
12    5  0.5221187E-008  0.1738525E+04  0.7818608E-02  0.8739692E-01
         -2   -1    0    0    0  501 -0.00000000000E+00  0.00000000000E+00  0.15403962084E+04  0.15403962084E+04  0.00000000000E+00 0.  1.
          1   -1    0    0  501    0  0.00000000000E+00 -0.00000000000E+00 -0.49053464943E+03  0.49053464943E+03  0.00000000000E+00 0. -1.
        -24    2    1    2    0    0  0.26961682890E+03 -0.88195829120E+02  0.10515469172E+04  0.10919168186E+04  0.77843952238E+02 0.  0.
        254    2    1    2    0    0 -0.26961682890E+03  0.88195829120E+02 -0.16853582445E+01  0.93901403926E+03  0.89513841767E+03 0.  0.
         23    2    4    4    0    0 -0.31524402739E+03  0.18177641808E+03 -0.38143218496E+03  0.53487515901E+03  0.90440372776E+02 0.  0.
         23    2    4    4    0    0  0.45627198489E+02 -0.93580588964E+02  0.37974682672E+03  0.40413888024E+03  0.91002276060E+02 0.  0.
          3    1    3    3  502    0  0.11515457143E+03 -0.46698821321E+02  0.60398922625E+03  0.61663955489E+03  0.00000000000E+00 0. -1.
         -4    1    3    3    0  502  0.15446225747E+03 -0.41497007799E+02  0.44755769100E+03  0.47527726372E+03  0.00000000000E+00 0.  1.
         13    1    5    5    0    0 -0.50079952890E+02  0.11224854771E+02 -0.19554033378E+02  0.54921391710E+02  0.00000000000E+00 0. -1.
        -13    1    5    5    0    0 -0.26516407450E+03  0.17055156331E+03 -0.36187815159E+03  0.47995376730E+03  0.00000000000E+00 0.  1.
          2    1    6    6  503    0  0.48774891278E+02 -0.18427049540E+02  0.83089442271E+02  0.98093840738E+02  0.00000000000E+00 0. -1.
         -2    1    6    6    0  503 -0.31476927887E+01 -0.75153539424E+02  0.29665738445E+03  0.30604503950E+03  0.00000000000E+00 0.  1.
<mgrwt>
<rscale>  0 0.17385255E+04</rscale>
<asrwt>0</asrwt>
<pdfrwt beam="1">  1        1 0.75466870E-01 0.17385255E+04</pdfrwt>
<pdfrwt beam="2">  1       -2 0.23698403E+00 0.17385255E+04</pdfrwt>
<totfact> 0.29197848E+00</totfact>
</mgrwt>
</event>
<event>
12    5  0.5221187E-008  0.2035002E+04  0.7818608E-02  0.8590429E-01
         -2   -1    0    0    0  501 -0.00000000000E+00  0.00000000000E+00  0.11636479811E+04  0.11636479811E+04  0.00000000000E+00 0.  1.
          1   -1    0    0  501    0  0.00000000000E+00 -0.00000000000E+00 -0.88970889485E+03  0.88970889485E+03  0.00000000000E+00 0. -1.
        -24    2    1    2    0    0  0.96657918693E+02 -0.12991586449E+02  0.92716501799E+03  0.93587052281E+03  0.81897071422E+02 0.  0.
        254    2    1    2    0    0 -0.96657918693E+02  0.12991586449E+02 -0.65322593179E+03  0.11174863531E+04  0.90142115397E+03 0.  0.
         23    2    4    4    0    0  0.22952928493E+03 -0.25954434577E+03 -0.31776525759E+02  0.35988385278E+03  0.91976517878E+02 0.  0.
         23    2    4    4    0    0 -0.32618720362E+03  0.27253593222E+03 -0.62144940603E+03  0.75760250031E+03  0.84191793319E+02 0.  0.
          3    1    3    3  502    0  0.14866853604E+02  0.22501426619E+02  0.89533868394E+02  0.93507492350E+02  0.00000000000E+00 0. -1.
         -4    1    3    3    0  502  0.81791065089E+02 -0.35493013068E+02  0.83763114960E+03  0.84236303046E+03  0.00000000000E+00 0.  1.
         13    1    5    5    0    0  0.11881432746E+03 -0.80760218364E+02  0.15034241730E+02  0.14444751886E+03  0.00000000000E+00 0. -1.
        -13    1    5    5    0    0  0.11071495746E+03 -0.17878412741E+03 -0.46810767489E+02  0.21543633392E+03  0.00000000000E+00 0.  1.
          4    1    6    6  503    0 -0.28985870264E+03  0.20494747647E+03 -0.53436246400E+03  0.64153314688E+03  0.00000000000E+00 0. -1.
         -4    1    6    6    0  503 -0.36328500976E+02  0.67588455752E+02 -0.87086942034E+02  0.11606935344E+03  0.00000000000E+00 0.  1.
<mgrwt>
<rscale>  0 0.20350017E+04</rscale>
<asrwt>0</asrwt>
<pdfrwt beam="1">  1        1 0.13687829E+00 0.20350017E+04</pdfrwt>
<pdfrwt beam="2">  1       -2 0.17902277E+00 0.20350017E+04</pdfrwt>
<totfact> 0.27691697E+00</totfact>
</mgrwt>
</event>
<event>
12    5  0.5221187E-008  0.1637531E+04  0.7818608E-02  0.8797817E-01
         -2   -1    0    0    0  501 -0.00000000000E+00  0.00000000000E+00  0.38463930037E+03  0.38463930037E+03  0.00000000000E+00 0.  1.
          1   -1    0    0  501    0  0.00000000000E+00 -0.00000000000E+00 -0.17428713267E+04  0.17428713267E+04  0.00000000000E+00 0. -1.
        -24    2    1    2    0    0 -0.46970344129E+02 -0.48171723569E+03 -0.89137258384E+03  0.10176664062E+04  0.82717124721E+02 0.  0.
        254    2    1    2    0    0  0.46970344129E+02  0.48171723569E+03 -0.46685944251E+03  0.11098442209E+04  0.88291491502E+03 0.  0.
         23    2    4    4    0    0  0.72688388612E+02 -0.39288592064E+02  0.21337930348E+03  0.24776307798E+03  0.95019052583E+02 0.  0.
         23    2    4    4    0    0 -0.25718044483E+02  0.52100582776E+03 -0.68023874599E+03  0.86208114289E+03  0.91381918407E+02 0.  0.
          1    1    3    3  502    0 -0.36784713863E+02 -0.32152182045E+03 -0.67172119279E+03  0.74561300756E+03  0.00000000000E+00 0. -1.
         -2    1    3    3    0  502 -0.10185630266E+02 -0.16019541524E+03 -0.21965139105E+03  0.27205339865E+03  0.00000000000E+00 0.  1.
         13    1    5    5    0    0  0.92821552105E+02 -0.42202699120E+02  0.15143251525E+03  0.18256153763E+03  0.00000000000E+00 0. -1.
        -13    1    5    5    0    0 -0.20133163493E+02  0.29141070559E+01  0.61946788232E+02  0.65201540353E+02  0.00000000000E+00 0.  1.
          3    1    6    6  503    0 -0.45760839210E+02  0.12598768255E+03 -0.16920395516E+03  0.21586321827E+03  0.00000000000E+00 0. -1.
         -3    1    6    6    0  503  0.20042794727E+02  0.39501814521E+03 -0.51103479084E+03  0.64621792463E+03  0.00000000000E+00 0.  1.
<mgrwt>
<rscale>  0 0.16375308E+04</rscale>
<asrwt>0</asrwt>
<pdfrwt beam="1">  1        1 0.26813405E+00 0.16375308E+04</pdfrwt>
<pdfrwt beam="2">  1       -2 0.59175278E-01 0.16375308E+04</pdfrwt>
<totfact> 0.99776223E+00</totfact>
</mgrwt>
</event>
<event>
12    5  0.5221187E-008  0.2287880E+04  0.7818608E-02  0.8482715E-01
          1   -1    0    0  501    0  0.00000000000E+00  0.00000000000E+00  0.23279024615E+04  0.23279024615E+04  0.00000000000E+00 0. -1.
         -2   -1    0    0    0  501 -0.00000000000E+00 -0.00000000000E+00 -0.56213618185E+03  0.56213618185E+03  0.00000000000E+00 0.  1.
        -24    2    1    2    0    0  0.96543356243E+02  0.91671384008E+03  0.11103925696E+04  0.14453910326E+04  0.80614480351E+02 0.  0.
        254    2    1    2    0    0 -0.96543356243E+02 -0.91671384008E+03  0.65537371008E+03  0.14446476107E+04  0.89878091605E+03 0.  0.
         23    2    4    4    0    0 -0.46131495867E+03 -0.37816072823E+03  0.46595048277E+03  0.76115701152E+03  0.80206709943E+02 0.  0.
         23    2    4    4    0    0  0.36477160242E+03 -0.53855311184E+03  0.18942322731E+03  0.68349059920E+03  0.90445917190E+02 0.  0.
          1    1    3    3  502    0  0.50057184920E+02  0.30169290583E+03  0.42121084752E+03  0.52052176636E+03  0.00000000000E+00 0. -1.
         -2    1    3    3    0  502  0.46486171323E+02  0.61502093424E+03  0.68918172207E+03  0.92486926629E+03  0.00000000000E+00 0.  1.
         13    1    5    5    0    0 -0.35849853208E+03 -0.33392892404E+03  0.37707406404E+03  0.61823504720E+03  0.00000000000E+00 0. -1.
        -13    1    5    5    0    0 -0.10281642659E+03 -0.44231804197E+02  0.88876418736E+02  0.14292196432E+03  0.00000000000E+00 0.  1.
          1    1    6    6  503    0  0.36714417796E+03 -0.52860666910E+03  0.19412160582E+03  0.67223735085E+03  0.00000000000E+00 0. -1.
         -1    1    6    6    0  503 -0.23725755327E+01 -0.99464427390E+01 -0.46983785089E+01  0.11253248350E+02  0.00000000000E+00 0.  1.
<mgrwt>
<rscale>  0 0.22878795E+04</rscale>
<asrwt>0</asrwt>
<pdfrwt beam="1">  1        1 0.35813883E+00 0.22878795E+04</pdfrwt>
<pdfrwt beam="2">  1       -2 0.86482491E-01 0.22878795E+04</pdfrwt>
<totfact> 0.16399855E+00</totfact>
</mgrwt>
</event>
<event>
12    5  0.5221187E-008  0.1593719E+04  0.7818608E-02  0.8824416E-01
          1   -1    0    0  501    0  0.00000000000E+00  0.00000000000E+00  0.35811654087E+03  0.35811654087E+03  0.00000000000E+00 0. -1.
         -2   -1    0    0    0  501 -0.00000000000E+00 -0.00000000000E+00 -0.17731232368E+04  0.17731232368E+04  0.00000000000E+00 0.  1.
        -24    2    1    2    0    0 -0.24395851027E+03 -0.18950490263E+03 -0.10804326627E+04  0.11265777174E+04  0.80092145754E+02 0.  0.
        254    2    1    2    0    0  0.24395851027E+03  0.18950490263E+03 -0.33457403323E+03  0.10046620603E+04  0.89553236058E+03 0.  0.
         23    2    4    4    0    0 -0.11350565863E+03  0.40194100470E+03  0.50918780840E+02  0.43055227655E+03  0.91336930136E+02 0.  0.
         23    2    4    4    0    0  0.35746416890E+03 -0.21243610207E+03 -0.38549281408E+03  0.57410978375E+03  0.89931110218E+02 0.  0.
          1    1    3    3  502    0 -0.44312856872E+02 -0.31734457441E+02 -0.32242536481E+03  0.32699972621E+03  0.00000000000E+00 0. -1.
         -2    1    3    3    0  502 -0.19964565340E+03 -0.15777044519E+03 -0.75800729789E+03  0.79957799116E+03  0.00000000000E+00 0.  1.
         13    1    5    5    0    0 -0.97082022702E+02  0.18981712291E+03  0.70584457813E+01  0.21331966843E+03  0.00000000000E+00 0.  1.
        -13    1    5    5    0    0 -0.16423635925E+02  0.21212388179E+03  0.43860335059E+02  0.21723260813E+03  0.00000000000E+00 0. -1.
          3    1    6    6  503    0  0.20371205576E+03 -0.16788048365E+03 -0.26211184998E+03  0.37200145209E+03  0.00000000000E+00 0. -1.
         -3    1    6    6    0  503  0.15375211314E+03 -0.44555618418E+02 -0.12338096409E+03  0.20210833166E+03  0.00000000000E+00 0.  1.
<mgrwt>
<rscale>  0 0.15937186E+04</rscale>
<asrwt>0</asrwt>
<pdfrwt beam="1">  1        1 0.55094851E-01 0.15937186E+04</pdfrwt>
<pdfrwt beam="2">  1       -2 0.27278820E+00 0.15937186E+04</pdfrwt>
<totfact> 0.27207477E+00</totfact>
</mgrwt>
</event>
<event>
12    5  0.5221187E-008  0.1739662E+04  0.7818608E-02  0.8739062E-01
         -4   -1    0    0    0  501 -0.00000000000E+00  0.00000000000E+00  0.85486921716E+03  0.85486921716E+03  0.00000000000E+00 0.  1.
          1   -1    0    0  501    0  0.00000000000E+00 -0.00000000000E+00 -0.88505427615E+03  0.88505427615E+03  0.00000000000E+00 0. -1.
        -24    2    1    2    0    0  0.47878297951E+03  0.23834589647E+03  0.32995622994E+03  0.63328412696E+03  0.78331117397E+02 0.  0.
        254    2    1    2    0    0 -0.47878297951E+03 -0.23834589647E+03 -0.36014128893E+03  0.11066393663E+04  0.89939259021E+03 0.  0.
         23    2    4    4    0    0 -0.92237557668E+02  0.28544958647E+03 -0.32046092012E+03  0.44845817449E+03  0.91816662378E+02 0.  0.
         23    2    4    4    0    0 -0.38654542184E+03 -0.52379548294E+03 -0.39680368811E+02  0.65818119185E+03  0.88593896764E+02 0.  0.
          3    1    3    3  502    0  0.84409786330E+02  0.55999628255E+02  0.31197226647E+02  0.10599168526E+03  0.00000000000E+00 0. -1.
         -4    1    3    3    0  502  0.39437319318E+03  0.18234626822E+03  0.29875900330E+03  0.52729244171E+03  0.00000000000E+00 0.  1.
         13    1    5    5    0    0  0.45040917898E+01  0.13033270212E+03 -0.14594164181E+03  0.19571883634E+03  0.00000000000E+00 0.  1.
        -13    1    5    5    0    0 -0.96741649458E+02  0.15511688435E+03 -0.17451927831E+03  0.25273933815E+03  0.00000000000E+00 0. -1.
          2    1    6    6  503    0 -0.74828804142E+02 -0.11779958929E+03  0.26534266255E+02  0.14205689160E+03  0.00000000000E+00 0. -1.
         -2    1    6    6    0  503 -0.31171661770E+03 -0.40599589365E+03 -0.66214635066E+02  0.51612430025E+03  0.00000000000E+00 0.  1.
<mgrwt>
<rscale>  0 0.17396616E+04</rscale>
<asrwt>0</asrwt>
<pdfrwt beam="1">  1        1 0.13616220E+00 0.17396616E+04</pdfrwt>
<pdfrwt beam="2">  1       -4 0.13151834E+00 0.17396616E+04</pdfrwt>
<totfact> 0.36103299E+00</totfact>
</mgrwt>
</event>
<event>
12    5  0.5221187E-008  0.1406004E+04  0.7818608E-02  0.8949484E-01
         -2   -1    0    0    0  501 -0.00000000000E+00  0.00000000000E+00  0.57507796758E+03  0.57507796758E+03  0.00000000000E+00 0.  1.
          1   -1    0    0  501    0  0.00000000000E+00 -0.00000000000E+00 -0.85938173260E+03  0.85938173260E+03  0.00000000000E+00 0. -1.
        -24    2    1    2    0    0  0.23615598464E+03  0.32344977689E+03 -0.18066251387E+03  0.44671453597E+03  0.80780724664E+02 0.  0.
        254    2    1    2    0    0 -0.23615598464E+03 -0.32344977689E+03 -0.10364125116E+03  0.98774516421E+03  0.89694458760E+03 0.  0.
         23    2    4    4    0    0 -0.43779005467E+03 -0.24524392154E+03 -0.37240252940E+03  0.63080453747E+03  0.86174285972E+02 0.  0.
         23    2    4    4    0    0  0.20163407003E+03 -0.78205855353E+02  0.26876127824E+03  0.35694062674E+03  0.91659873057E+02 0.  0.
          3    1    3    3  502    0  0.97485183011E+02  0.14525181808E+03 -0.36139184938E+02  0.17862668403E+03  0.00000000000E+00 0. -1.
         -4    1    3    3    0  502  0.13867080163E+03  0.17819795882E+03 -0.14452332893E+03  0.26808785193E+03  0.00000000000E+00 0.  1.
         13    1    5    5    0    0 -0.43702512563E+03 -0.23299183435E+03 -0.37022098477E+03  0.61833626197E+03  0.00000000000E+00 0.  1.
        -13    1    5    5    0    0 -0.76492904474E+00 -0.12252087186E+02 -0.21815446311E+01  0.12468275495E+02  0.00000000000E+00 0. -1.
          3    1    6    6  503    0  0.88596182166E+02 -0.15028367206E+02  0.50295445292E+02  0.10297945005E+03  0.00000000000E+00 0. -1.
         -3    1    6    6    0  503  0.11303788787E+03 -0.63177488147E+02  0.21846583295E+03  0.25396117670E+03  0.00000000000E+00 0.  1.
<mgrwt>
<rscale>  0 0.14060036E+04</rscale>
<asrwt>0</asrwt>
<pdfrwt beam="1">  1        1 0.13221257E+00 0.14060036E+04</pdfrwt>
<pdfrwt beam="2">  1       -2 0.88473534E-01 0.14060036E+04</pdfrwt>
<totfact> 0.18465177E+01</totfact>
</mgrwt>
</event>
<event>
12    5  0.5221187E-008  0.3390971E+04  0.7818608E-02  0.8140126E-01
          1   -1    0    0  501    0  0.00000000000E+00  0.00000000000E+00  0.16852400269E+04  0.16852400269E+04  0.00000000000E+00 0. -1.
         -4   -1    0    0    0  501 -0.00000000000E+00 -0.00000000000E+00 -0.17057929730E+04  0.17057929730E+04  0.00000000000E+00 0.  1.
        -24    2    1    2    0    0 -0.97634729792E+03  0.29334103994E+02  0.12219052087E+04  0.15665846010E+04  0.83788049756E+02 0.  0.
        254    2    1    2    0    0  0.97634729792E+03 -0.29334103994E+02 -0.12424581548E+04  0.18244483989E+04  0.91147965317E+03 0.  0.
         23    2    4    4    0    0  0.60799606695E+03  0.27267562091E+03 -0.11478367137E+04  0.13300144233E+04  0.86011820128E+02 0.  0.
         23    2    4    4    0    0  0.36835123097E+03 -0.30200972490E+03 -0.94621441084E+02  0.49443397563E+03  0.92839839807E+02 0.  0.
          1    1    3    3  502    0 -0.50251929095E+03  0.55905475819E+02  0.64542213726E+03  0.81989072154E+03  0.00000000000E+00 0. -1.
         -2    1    3    3    0  502 -0.47382800698E+03 -0.26571371825E+02  0.57648307144E+03  0.74669387948E+03  0.00000000000E+00 0.  1.
         13    1    5    5    0    0  0.56840518743E+03  0.22967015704E+03 -0.10350577981E+04  0.12029869008E+04  0.00000000000E+00 0. -1.
        -13    1    5    5    0    0  0.39590879523E+02  0.43005463870E+02 -0.11277891562E+03  0.12702752250E+03  0.00000000000E+00 0.  1.
          2    1    6    6  503    0  0.32424899627E+03 -0.24761703142E+03 -0.11038926441E+03  0.42265517331E+03  0.00000000000E+00 0. -1.
         -2    1    6    6    0  503  0.44102234701E+02 -0.54392693486E+02  0.15767823329E+02  0.71778802322E+02  0.00000000000E+00 0.  1.
<mgrwt>
<rscale>  0 0.33909707E+04</rscale>
<asrwt>0</asrwt>
<pdfrwt beam="1">  1        1 0.25926770E+00 0.33909707E+04</pdfrwt>
<pdfrwt beam="2">  1       -4 0.26242969E+00 0.33909707E+04</pdfrwt>
<totfact> 0.10266101E-01</totfact>
</mgrwt>
</event>
<event>
12    5  0.5221187E-008  0.2792841E+04  0.7818608E-02  0.8305494E-01
          1   -1    0    0  501    0  0.00000000000E+00  0.00000000000E+00  0.22592054065E+04  0.22592054065E+04  0.00000000000E+00 0. -1.
         -2   -1    0    0    0  501 -0.00000000000E+00 -0.00000000000E+00 -0.86313130485E+03  0.86313130485E+03  0.00000000000E+00 0.  1.
        -24    2    1    2    0    0 -0.23478733476E+03  0.12249290127E+04  0.75761668752E+03  0.14613646942E+04  0.77637269318E+02 0.  0.
        254    2    1    2    0    0  0.23478733476E+03 -0.12249290127E+04  0.63845741411E+03  0.16609720171E+04  0.89197757439E+03 0.  0.
         23    2    4    4    0    0 -0.62347716511E+02 -0.28215960207E+03  0.59478699969E+03  0.66743925106E+03  0.90566550445E+02 0.  0.
         23    2    4    4    0    0  0.29713505127E+03 -0.94276941064E+03  0.43670414424E+02  0.99353276604E+03  0.89982508168E+02 0.  0.
          3    1    3    3  502    0 -0.92038866693E+02  0.40216736154E+03  0.29006163457E+03  0.50432677058E+03  0.00000000000E+00 0. -1.
         -4    1    3    3    0  502 -0.14274846807E+03  0.82276165116E+03  0.46755505295E+03  0.95703792365E+03  0.00000000000E+00 0.  1.
         13    1    5    5    0    0 -0.19226424965E+02 -0.20635074399E+03  0.34049081820E+03  0.39860291299E+03  0.00000000000E+00 0. -1.
        -13    1    5    5    0    0 -0.43121291546E+02 -0.75808858077E+02  0.25429618149E+03  0.26883633807E+03  0.00000000000E+00 0.  1.
          4    1    6    6  503    0  0.13415878799E+03 -0.33192293003E+03 -0.17003236444E+02  0.35841389751E+03  0.00000000000E+00 0. -1.
         -4    1    6    6    0  503  0.16297626328E+03 -0.61084648061E+03  0.60673650868E+02  0.63511886854E+03  0.00000000000E+00 0.  1.
<mgrwt>
<rscale>  0 0.27928415E+04</rscale>
<asrwt>0</asrwt>
<pdfrwt beam="1">  1        1 0.34757006E+00 0.27928415E+04</pdfrwt>
<pdfrwt beam="2">  1       -2 0.13278943E+00 0.27928415E+04</pdfrwt>
<totfact> 0.62201627E-01</totfact>
</mgrwt>
</event>
<event>
12    5  0.5221187E-008  0.1173632E+04  0.7818608E-02  0.9136255E-01
         -2   -1    0    0    0  501 -0.00000000000E+00  0.00000000000E+00  0.27983988432E+03  0.27983988432E+03  0.00000000000E+00 0.  1.
          1   -1    0    0  501    0  0.00000000000E+00 -0.00000000000E+00 -0.12305350289E+04  0.12305350289E+04  0.00000000000E+00 0. -1.
        -24    2    1    2    0    0  0.67663925207E+02 -0.17041053897E+03 -0.35912961405E+03  0.41731091737E+03  0.10749959769E+03 0.  0.
        254    2    1    2    0    0 -0.67663925207E+02  0.17041053897E+03 -0.59156553053E+03  0.10930639958E+04  0.90067805764E+03 0.  0.
         23    2    4    4    0    0 -0.70921540208E+02 -0.70749782171E+02 -0.76878305077E+03  0.78055964907E+03  0.90612306374E+02 0.  0.
         23    2    4    4    0    0  0.32576150010E+01  0.24116032114E+03  0.17721752024E+03  0.31250434676E+03  0.89911093396E+02 0.  0.
          1    1    3    3  502    0  0.46764553574E+02 -0.57161660001E+02 -0.24213179567E+03  0.25314459370E+03  0.00000000000E+00 0. -1.
         -2    1    3    3    0  502  0.20899371633E+02 -0.11324887897E+03 -0.11699781838E+03  0.16416632367E+03  0.00000000000E+00 0.  1.
         13    1    5    5    0    0 -0.52315603426E+02 -0.64622600983E+02 -0.29834581225E+03  0.30971475039E+03  0.00000000000E+00 0. -1.
        -13    1    5    5    0    0 -0.18605936782E+02 -0.61271811882E+01 -0.47043723852E+03  0.47084489868E+03  0.00000000000E+00 0.  1.
          3    1    6    6  503    0 -0.91456248235E+01  0.45527286708E+02 -0.25814463015E+01  0.46508495498E+02  0.00000000000E+00 0. -1.
         -3    1    6    6    0  503  0.12403239825E+02  0.19563303444E+03  0.17979896654E+03  0.26599585127E+03  0.00000000000E+00 0.  1.
<mgrwt>
<rscale>  0 0.11736316E+04</rscale>
<asrwt>0</asrwt>
<pdfrwt beam="1">  1        1 0.18931308E+00 0.11736316E+04</pdfrwt>
<pdfrwt beam="2">  1       -2 0.43052291E-01 0.11736316E+04</pdfrwt>
<totfact> 0.45148369E+01</totfact>
</mgrwt>
</event>
<event>
12    5  0.5221187E-008  0.1415460E+04  0.7818608E-02  0.8942703E-01
          1   -1    0    0  501    0  0.00000000000E+00  0.00000000000E+00  0.13291964250E+04  0.13291964250E+04  0.00000000000E+00 0. -1.
         -2   -1    0    0    0  501 -0.00000000000E+00 -0.00000000000E+00 -0.37683055454E+03  0.37683055454E+03  0.00000000000E+00 0.  1.
        -24    2    1    2    0    0 -0.10773514845E+02 -0.22987894267E+03  0.70165443258E+03  0.74273138931E+03  0.79815894441E+02 0.  0.
        254    2    1    2    0    0  0.10773514845E+02  0.22987894267E+03  0.25071143784E+03  0.96329559020E+03  0.90117799137E+03 0.  0.
         23    2    4    4    0    0  0.33054551016E+03  0.38610830580E+03 -0.30862297231E+01  0.51638411197E+03  0.91121173127E+02 0.  0.
         23    2    4    4    0    0 -0.31977199532E+03 -0.15622936312E+03  0.25379766757E+03  0.44691147822E+03  0.93031556010E+02 0.  0.
          1    1    3    3  502    0 -0.22281892815E+02 -0.23088706225E+03  0.66447529741E+03  0.70379879165E+03  0.00000000000E+00 0. -1.
         -2    1    3    3    0  502  0.11508377970E+02  0.10081195817E+01  0.37179135170E+02  0.38932597660E+02  0.00000000000E+00 0.  1.
         13    1    5    5    0    0  0.73683125033E+02  0.95687251350E+02  0.37732480723E+02  0.12652664971E+03  0.00000000000E+00 0.  1.
        -13    1    5    5    0    0  0.25686238513E+03  0.29042105445E+03 -0.40818710446E+02  0.38985746226E+03  0.00000000000E+00 0. -1.
          3    1    6    6  503    0 -0.31308800237E+03 -0.15215252448E+03  0.21903819512E+03  0.41128119195E+03  0.00000000000E+00 0. -1.
         -3    1    6    6    0  503 -0.66839929501E+01 -0.40768386460E+01  0.34759472444E+02  0.35630286270E+02  0.00000000000E+00 0.  1.
<mgrwt>
<rscale>  0 0.14154601E+04</rscale>
<asrwt>0</asrwt>
<pdfrwt beam="1">  1        1 0.20449176E+00 0.14154601E+04</pdfrwt>
<pdfrwt beam="2">  1       -2 0.57973932E-01 0.14154601E+04</pdfrwt>
<totfact> 0.20510491E+01</totfact>
</mgrwt>
</event>
<event>
12    5  0.5221187E-008  0.1736694E+04  0.7818608E-02  0.8740709E-01
          1   -1    0    0  501    0  0.00000000000E+00  0.00000000000E+00  0.21894705270E+04  0.21894705270E+04  0.00000000000E+00 0. -1.
         -2   -1    0    0    0  501 -0.00000000000E+00 -0.00000000000E+00 -0.34438770815E+03  0.34438770815E+03  0.00000000000E+00 0.  1.
        -24    2    1    2    0    0 -0.22423757778E+03  0.29849975991E+03  0.14262136166E+04  0.14764833882E+04  0.80828940615E+02 0.  0.
        254    2    1    2    0    0  0.22423757778E+03 -0.29849975991E+03  0.41886920227E+03  0.10573748469E+04  0.89621736221E+03 0.  0.
         23    2    4    4    0    0  0.20156154615E+03 -0.57364217618E+03  0.94129380014E+02  0.62196232889E+03  0.91018653048E+02 0.  0.
         23    2    4    4    0    0  0.22676031631E+02  0.27514241627E+03  0.32473982225E+03  0.43541251803E+03  0.88941312440E+02 0.  0.
          3    1    3    3  502    0 -0.16802483091E+03  0.26941602504E+03  0.12295725215E+04  0.12699078408E+04  0.00000000000E+00 0. -1.
         -4    1    3    3    0  502 -0.56212746867E+02  0.29083734868E+02  0.19664109503E+03  0.20657554743E+03  0.00000000000E+00 0.  1.
         13    1    5    5    0    0  0.34823930874E+01  0.24424346303E+01 -0.28278686269E+01  0.51077773551E+01  0.00000000000E+00 0. -1.
        -13    1    5    5    0    0  0.19807915306E+03 -0.57608461081E+03  0.96957248641E+02  0.61685455154E+03  0.00000000000E+00 0.  1.
          1    1    6    6  503    0 -0.20222362760E+02  0.21620589790E+03  0.24223878593E+03  0.32532070892E+03  0.00000000000E+00 0. -1.
         -1    1    6    6    0  503  0.42898394390E+02  0.58936518363E+02  0.82501036321E+02  0.11009180911E+03  0.00000000000E+00 0.  1.
<mgrwt>
<rscale>  0 0.17366943E+04</rscale>
<asrwt>0</asrwt>
<pdfrwt beam="1">  1        1 0.33684161E+00 0.17366943E+04</pdfrwt>
<pdfrwt beam="2">  1       -2 0.52982726E-01 0.17366943E+04</pdfrwt>
<totfact> 0.62019100E+00</totfact>
</mgrwt>
</event>
<event>
12    5  0.5221187E-008  0.1468082E+04  0.7818608E-02  0.8905960E-01
          1   -1    0    0  501    0  0.00000000000E+00  0.00000000000E+00  0.28917411448E+03  0.28917411448E+03  0.00000000000E+00 0. -1.
         -2   -1    0    0    0  501 -0.00000000000E+00 -0.00000000000E+00 -0.18632936205E+04  0.18632936205E+04  0.00000000000E+00 0.  1.
        -24    2    1    2    0    0 -0.19089462987E+03  0.40881370572E+03 -0.60752031022E+03  0.76082252434E+03  0.78743764896E+02 0.  0.
        254    2    1    2    0    0  0.19089462987E+03 -0.40881370572E+03 -0.96659919577E+03  0.13916452106E+04  0.89375219230E+03 0.  0.
         23    2    4    4    0    0 -0.26502590178E+03 -0.30266017202E+03 -0.13673503478E+03  0.43441585452E+03  0.90436478165E+02 0.  0.
         23    2    4    4    0    0  0.45592053165E+03 -0.10615353371E+03 -0.82986416099E+03  0.95722935609E+03  0.92094573961E+02 0.  0.
          1    1    3    3  502    0 -0.29109526420E+02  0.30785231591E+02 -0.30176020145E+02  0.52016220588E+02  0.00000000000E+00 0. -1.
         -2    1    3    3    0  502 -0.16178510345E+03  0.37802847413E+03 -0.57734429008E+03  0.70880630375E+03  0.00000000000E+00 0.  1.
         13    1    5    5    0    0 -0.27934358140E+02 -0.77483836962E+02 -0.70876087997E+01  0.82669870893E+02  0.00000000000E+00 0. -1.
        -13    1    5    5    0    0 -0.23709154364E+03 -0.22517633505E+03 -0.12964742598E+03  0.35174598363E+03  0.00000000000E+00 0.  1.
          2    1    6    6  503    0  0.50944289291E+02 -0.20555737992E+02 -0.16639943397E+03  0.17523307507E+03  0.00000000000E+00 0. -1.
         -2    1    6    6    0  503  0.40497624236E+03 -0.85597795714E+02 -0.66346472703E+03  0.78199628102E+03  0.00000000000E+00 0.  1.
<mgrwt>
<rscale>  0 0.14680821E+04</rscale>
<asrwt>0</asrwt>
<pdfrwt beam="1">  1        1 0.44488323E-01 0.14680821E+04</pdfrwt>
<pdfrwt beam="2">  1       -2 0.28666057E+00 0.14680821E+04</pdfrwt>
<totfact> 0.29964725E+00</totfact>
</mgrwt>
</event>
<event>
12    5  0.5221187E-008  0.1768049E+04  0.7818608E-02  0.8723478E-01
          1   -1    0    0  501    0  0.00000000000E+00  0.00000000000E+00  0.10162734606E+04  0.10162734606E+04  0.00000000000E+00 0. -1.
         -2   -1    0    0    0  501 -0.00000000000E+00 -0.00000000000E+00 -0.76898525166E+03  0.76898525166E+03  0.00000000000E+00 0.  1.
        -24    2    1    2    0    0 -0.24731981014E+03  0.57268167787E+03  0.29261309154E+03  0.69368880224E+03  0.80314010977E+02 0.  0.
        254    2    1    2    0    0  0.24731981014E+03 -0.57268167787E+03 -0.45324882605E+02  0.10915699100E+04  0.89461675080E+03 0.  0.
         23    2    4    4    0    0  0.21613523814E+03  0.14675471967E+03  0.18155941655E+03  0.33095354642E+03  0.91186836976E+02 0.  0.
         23    2    4    4    0    0  0.31184571994E+02 -0.71943639754E+03 -0.22688429916E+03  0.76061636359E+03  0.92193056831E+02 0.  0.
          1    1    3    3  502    0 -0.20568543455E+03  0.49105288131E+03  0.21711469281E+03  0.57495932035E+03  0.00000000000E+00 0. -1.
         -2    1    3    3    0  502 -0.41634375583E+02  0.81628796565E+02  0.75498398728E+02  0.11872948189E+03  0.00000000000E+00 0.  1.
         13    1    5    5    0    0  0.92016129090E+02  0.97626484757E+02  0.13299302893E+03  0.18890485511E+03  0.00000000000E+00 0. -1.
        -13    1    5    5    0    0  0.12411910905E+03  0.49128234908E+02  0.48566387623E+02  0.14204869131E+03  0.00000000000E+00 0.  1.
          3    1    6    6  503    0 -0.35517287959E+01 -0.62710182380E+03 -0.20248871634E+03  0.65899240696E+03  0.00000000000E+00 0. -1.
         -3    1    6    6    0  503  0.34736300790E+02 -0.92334573741E+02 -0.24395582815E+02  0.10162395663E+03  0.00000000000E+00 0.  1.
<mgrwt>
<rscale>  0 0.17680490E+04</rscale>
<asrwt>0</asrwt>
<pdfrwt beam="1">  1        1 0.15634976E+00 0.17680490E+04</pdfrwt>
<pdfrwt beam="2">  1       -2 0.11830542E+00 0.17680490E+04</pdfrwt>
<totfact> 0.67050266E+00</totfact>
</mgrwt>
</event>
<event>
12    5  0.5221187E-008  0.1528638E+04  0.7818608E-02  0.8865629E-01
          1   -1    0    0  501    0  0.00000000000E+00  0.00000000000E+00  0.57156999922E+03  0.57156999922E+03  0.00000000000E+00 0. -1.
         -2   -1    0    0    0  501 -0.00000000000E+00 -0.00000000000E+00 -0.10220679790E+04  0.10220679790E+04  0.00000000000E+00 0.  1.
        -24    2    1    2    0    0 -0.44769599280E+03 -0.13882449602E+03 -0.29079019028E+03  0.55687238699E+03  0.76445915298E+02 0.  0.
        254    2    1    2    0    0  0.44769599280E+03  0.13882449602E+03 -0.15970778951E+03  0.10367655912E+04  0.91086353010E+03 0.  0.
         23    2    4    4    0    0 -0.87823785112E+02  0.29848259525E+03  0.18561733266E+03  0.37378973549E+03  0.91978776229E+02 0.  0.
         23    2    4    4    0    0  0.53551977791E+03 -0.15965809923E+03 -0.34532512217E+03  0.66297585574E+03  0.89528789249E+02 0.  0.
          1    1    3    3  502    0 -0.16742897030E+03 -0.58566302926E+02 -0.15375073729E+03  0.23473764324E+03  0.00000000000E+00 0. -1.
         -2    1    3    3    0  502 -0.28026702250E+03 -0.80258193097E+02 -0.13703945299E+03  0.32213474376E+03  0.00000000000E+00 0.  1.
         13    1    5    5    0    0 -0.70226771573E+02  0.26694140657E+03  0.19315307777E+03  0.33689408638E+03  0.00000000000E+00 0. -1.
        -13    1    5    5    0    0 -0.17597013539E+02  0.31541188680E+02 -0.75357451106E+01  0.36895649110E+02  0.00000000000E+00 0.  1.
          1    1    6    6  503    0  0.52996695247E+03 -0.15044564696E+03 -0.32407499821E+03  0.63915840592E+03  0.00000000000E+00 0. -1.
         -1    1    6    6    0  503  0.55528254431E+01 -0.92124522706E+01 -0.21250123964E+02  0.23817449816E+02  0.00000000000E+00 0.  1.
<mgrwt>
<rscale>  0 0.15286378E+04</rscale>
<asrwt>0</asrwt>
<pdfrwt beam="1">  1        1 0.87933847E-01 0.15286378E+04</pdfrwt>
<pdfrwt beam="2">  1       -2 0.15724122E+00 0.15286378E+04</pdfrwt>
<totfact> 0.81836214E+00</totfact>
</mgrwt>
</event>
<event>
12    5  0.5221187E-008  0.1965024E+04  0.7818608E-02  0.8623150E-01
          1   -1    0    0  501    0  0.00000000000E+00  0.00000000000E+00  0.10598783721E+04  0.10598783721E+04  0.00000000000E+00 0. -1.
         -2   -1    0    0    0  501 -0.00000000000E+00 -0.00000000000E+00 -0.91079302542E+03  0.91079302542E+03  0.00000000000E+00 0.  1.
        -24    2    1    2    0    0  0.85986245343E+01  0.65781395950E+03 -0.35075790721E+03  0.75003366732E+03  0.82013724422E+02 0.  0.
        254    2    1    2    0    0 -0.85986245343E+01 -0.65781395950E+03  0.49984325388E+03  0.12206377302E+04  0.89850990436E+03 0.  0.
         23    2    4    4    0    0 -0.11515973795E+03 -0.39026830867E+03 -0.19626907961E+03  0.46037085082E+03  0.88592610709E+02 0.  0.
         23    2    4    4    0    0  0.10656111342E+03 -0.26754565083E+03  0.69611233349E+03  0.76026687936E+03  0.10245682428E+03 0.  0.
          1    1    3    3  502    0  0.70078893600E+01  0.67923016615E+02 -0.66152214369E+02  0.95072404857E+02  0.00000000000E+00 0. -1.
         -2    1    3    3    0  502  0.15907351743E+01  0.58989094288E+03 -0.28460569284E+03  0.65496126247E+03  0.00000000000E+00 0.  1.
         13    1    5    5    0    0 -0.47892168668E+02 -0.11706715512E+03 -0.10557029945E+03  0.16475274430E+03  0.00000000000E+00 0. -1.
        -13    1    5    5    0    0 -0.67267569286E+02 -0.27320115355E+03 -0.90698780163E+02  0.29561810652E+03  0.00000000000E+00 0.  1.
          2    1    6    6  503    0  0.12080139144E+03 -0.25902507821E+03  0.62508741188E+03  0.68732906225E+03  0.00000000000E+00 0. -1.
         -2    1    6    6    0  503 -0.14240278016E+02 -0.85205726200E+01  0.71024921610E+02  0.72937817114E+02  0.00000000000E+00 0.  1.
<mgrwt>
<rscale>  0 0.19650240E+04</rscale>
<asrwt>0</asrwt>
<pdfrwt beam="1">  1        1 0.16305821E+00 0.19650240E+04</pdfrwt>
<pdfrwt beam="2">  1       -2 0.14012200E+00 0.19650240E+04</pdfrwt>
<totfact> 0.39758006E+00</totfact>
</mgrwt>
</event>
<event>
12    5  0.5221187E-008  0.1386259E+04  0.7818608E-02  0.8963826E-01
         -2   -1    0    0    0  501 -0.00000000000E+00  0.00000000000E+00  0.15225160784E+03  0.15225160784E+03  0.00000000000E+00 0.  1.
          1   -1    0    0  501    0  0.00000000000E+00 -0.00000000000E+00 -0.31554895831E+04  0.31554895831E+04  0.00000000000E+00 0. -1.
        -24    2    1    2    0    0 -0.24808475072E+03  0.12320792015E+02 -0.14067320399E+03  0.29606281288E+03  0.78526386606E+02 0.  0.
        254    2    1    2    0    0  0.24808475072E+03 -0.12320792015E+02 -0.28625647713E+04  0.30116783781E+04  0.90234790279E+03 0.  0.
         23    2    4    4    0    0  0.38741393562E+03  0.66950110582E+02 -0.50245171350E+03  0.64434489304E+03  0.90281459777E+02 0.  0.
         23    2    4    4    0    0 -0.13932918489E+03 -0.79270902597E+02 -0.23601130578E+04  0.23673334850E+04  0.91856877892E+02 0.  0.
          3    1    3    3  502    0 -0.52703306123E+02  0.11522444161E+02  0.22343206832E+01  0.53994419940E+02  0.00000000000E+00 0. -1.
         -4    1    3    3    0  502 -0.19538144460E+03  0.79834785345E+00 -0.14290752467E+03  0.24206839294E+03  0.00000000000E+00 0.  1.
         13    1    5    5    0    0  0.56143370231E+02 -0.19625075539E+02 -0.95590503910E+02  0.11258226347E+03  0.00000000000E+00 0. -1.
        -13    1    5    5    0    0  0.33127056539E+03  0.86575186121E+02 -0.40686120959E+03  0.53176262957E+03  0.00000000000E+00 0.  1.
          2    1    6    6  503    0 -0.99506144999E+02 -0.68898504811E+02 -0.21391450900E+04  0.21425662633E+04  0.00000000000E+00 0.  1.
         -2    1    6    6    0  503 -0.39823039895E+02 -0.10372397786E+02 -0.22096796779E+03  0.22476722166E+03  0.00000000000E+00 0. -1.
<mgrwt>
<rscale>  0 0.13862588E+04</rscale>
<asrwt>0</asrwt>
<pdfrwt beam="1">  1        1 0.48545994E+00 0.13862588E+04</pdfrwt>
<pdfrwt beam="2">  1       -2 0.23423324E-01 0.13862588E+04</pdfrwt>
<totfact> 0.64125190E+00</totfact>
</mgrwt>
</event>
<event>
12    5  0.5221187E-008  0.1571556E+04  0.7818608E-02  0.8838215E-01
         -2   -1    0    0    0  501 -0.00000000000E+00  0.00000000000E+00  0.53725852878E+03  0.53725852878E+03  0.00000000000E+00 0.  1.
          1   -1    0    0  501    0  0.00000000000E+00 -0.00000000000E+00 -0.11492550670E+04  0.11492550670E+04  0.00000000000E+00 0. -1.
        -24    2    1    2    0    0 -0.30315663632E+03  0.13277931626E+03 -0.60417748759E+03  0.69329027598E+03  0.78017160168E+02 0.  0.
        254    2    1    2    0    0  0.30315663632E+03 -0.13277931626E+03 -0.78190506217E+01  0.99322331979E+03  0.93642785758E+03 0.  0.
         23    2    4    4    0    0  0.32816263472E+03  0.32321845343E+03  0.16381795381E+03  0.49707772243E+03  0.89939183255E+02 0.  0.
         23    2    4    4    0    0 -0.25005998394E+02 -0.45599776969E+03 -0.17163700443E+03  0.49614559736E+03  0.90232624764E+02 0.  0.
          3    1    3    3  502    0 -0.15739205508E+03  0.89980443699E+02 -0.39646484421E+03  0.43595081368E+03  0.00000000000E+00 0. -1.
         -4    1    3    3    0  502 -0.14576458124E+03  0.42798872563E+02 -0.20771264338E+03  0.25733946230E+03  0.00000000000E+00 0.  1.
         13    1    5    5    0    0  0.13273011718E+03  0.10258502383E+03  0.19445521961E+02  0.16887598836E+03  0.00000000000E+00 0. -1.
        -13    1    5    5    0    0  0.19543251754E+03  0.22063342960E+03  0.14437243185E+03  0.32820173407E+03  0.00000000000E+00 0.  1.
          2    1    6    6  503    0  0.21973220925E+02 -0.31623068951E+03 -0.13263815656E+03  0.34362414351E+03  0.00000000000E+00 0.  1.
         -2    1    6    6    0  503 -0.46979219320E+02 -0.13976708018E+03 -0.38998847869E+02  0.15252145385E+03  0.00000000000E+00 0. -1.
<mgrwt>
<rscale>  0 0.15715560E+04</rscale>
<asrwt>0</asrwt>
<pdfrwt beam="1">  1        1 0.17680847E+00 0.15715560E+04</pdfrwt>
<pdfrwt beam="2">  1       -2 0.82655160E-01 0.15715560E+04</pdfrwt>
<totfact> 0.12613955E+01</totfact>
</mgrwt>
</event>
<event>
12    5  0.5221187E-008  0.1277466E+04  0.7818608E-02  0.9047628E-01
          1   -1    0    0  501    0  0.00000000000E+00  0.00000000000E+00  0.30108164200E+04  0.30108164200E+04  0.00000000000E+00 0. -1.
         -2   -1    0    0    0  501 -0.00000000000E+00 -0.00000000000E+00 -0.13550474212E+03  0.13550474212E+03  0.00000000000E+00 0.  1.
        -24    2    1    2    0    0 -0.23360009050E+01  0.23380088155E+03  0.23452614157E+03  0.34080235623E+03  0.80470030571E+02 0.  0.
        254    2    1    2    0    0  0.23360009050E+01 -0.23380088155E+03  0.26407855363E+04  0.28055188058E+04  0.91788845308E+03 0.  0.
         23    2    4    4    0    0 -0.22389747556E+03 -0.15847830699E+03  0.19865926584E+03  0.35010628845E+03  0.88676129608E+02 0.  0.
         23    2    4    4    0    0  0.22623347647E+03 -0.75322574560E+02  0.24421262704E+04  0.24554125174E+04  0.90635720145E+02 0.  0.
          1    1    3    3  502    0  0.10253038951E+02  0.16820693670E+01  0.27946976780E+02  0.29815896368E+02  0.00000000000E+00 0. -1.
         -2    1    3    3    0  502 -0.12589039856E+02  0.23211881218E+03  0.20657916479E+03  0.31098645986E+03  0.00000000000E+00 0.  1.
         13    1    5    5    0    0 -0.80332997577E+02 -0.84425621073E+02  0.38764538844E+02  0.12281598212E+03  0.00000000000E+00 0. -1.
        -13    1    5    5    0    0 -0.14356447798E+03 -0.74052685914E+02  0.15989472700E+03  0.22729030633E+03  0.00000000000E+00 0.  1.
          2    1    6    6  503    0  0.11217935442E+03 -0.37133169607E+02  0.77541236592E+03  0.78436433949E+03  0.00000000000E+00 0.  1.
         -2    1    6    6    0  503  0.11405412205E+03 -0.38189404953E+02  0.16667139045E+04  0.16710481779E+04  0.00000000000E+00 0. -1.
<mgrwt>
<rscale>  0 0.12774661E+04</rscale>
<asrwt>0</asrwt>
<pdfrwt beam="1">  1        1 0.46320247E+00 0.12774661E+04</pdfrwt>
<pdfrwt beam="2">  1       -2 0.20846886E-01 0.12774661E+04</pdfrwt>
<totfact> 0.10186417E+01</totfact>
</mgrwt>
</event>
<event>
12    5  0.5221187E-008  0.1207961E+04  0.7818608E-02  0.9105916E-01
         -2   -1    0    0    0  501 -0.00000000000E+00  0.00000000000E+00  0.34711080745E+03  0.34711080745E+03  0.00000000000E+00 0.  1.
          1   -1    0    0  501    0  0.00000000000E+00 -0.00000000000E+00 -0.10509400033E+04  0.10509400033E+04  0.00000000000E+00 0. -1.
        -24    2    1    2    0    0  0.22775073537E+03 -0.46360851799E+02 -0.26706733149E+02  0.24746960500E+03  0.80673600176E+02 0.  0.
        254    2    1    2    0    0 -0.22775073537E+03  0.46360851799E+02 -0.67712246266E+03  0.11505812057E+04  0.90073445336E+03 0.  0.
         23    2    4    4    0    0 -0.30867760344E+03 -0.30987953031E+03 -0.93906576289E+02  0.45654097552E+03  0.91126456579E+02 0.  0.
         23    2    4    4    0    0  0.80926868070E+02  0.35624038211E+03 -0.58321588637E+03  0.69404023019E+03  0.89970568492E+02 0.  0.
          1    1    3    3  502    0  0.70504321478E+02 -0.53633938591E+02 -0.79624314430E+01  0.88943010015E+02  0.00000000000E+00 0. -1.
         -2    1    3    3    0  502  0.15724641389E+03  0.72730867927E+01 -0.18744301706E+02  0.15852659499E+03  0.00000000000E+00 0.  1.
         13    1    5    5    0    0 -0.20842025148E+03 -0.20991457510E+03 -0.10651505144E+03  0.31440195013E+03  0.00000000000E+00 0. -1.
        -13    1    5    5    0    0 -0.10025735196E+03 -0.99964955209E+02  0.12608475146E+02  0.14213902539E+03  0.00000000000E+00 0.  1.
          1    1    6    6  503    0  0.79358916964E+02  0.16406560202E+03 -0.25004833301E+03  0.30941804781E+03  0.00000000000E+00 0. -1.
         -1    1    6    6    0  503  0.15679511058E+01  0.19217478008E+03 -0.33316755336E+03  0.38462218239E+03  0.00000000000E+00 0.  1.
<mgrwt>
<rscale>  0 0.12079613E+04</rscale>
<asrwt>0</asrwt>
<pdfrwt beam="1">  1        1 0.16168307E+00 0.12079613E+04</pdfrwt>
<pdfrwt beam="2">  1       -2 0.53401664E-01 0.12079613E+04</pdfrwt>
<totfact> 0.39602601E+01</totfact>
</mgrwt>
</event>
<event>
12    5  0.5221187E-008  0.1627665E+04  0.7818608E-02  0.8803730E-01
          1   -1    0    0  501    0  0.00000000000E+00  0.00000000000E+00  0.66298825921E+03  0.66298825921E+03  0.00000000000E+00 0. -1.
         -2   -1    0    0    0  501 -0.00000000000E+00 -0.00000000000E+00 -0.99899762237E+03  0.99899762237E+03  0.00000000000E+00 0.  1.
        -24    2    1    2    0    0  0.76015293453E+02  0.46536733067E+02  0.44876515454E+03  0.46451976526E+03  0.80277369272E+02 0.  0.
        254    2    1    2    0    0 -0.76015293453E+02 -0.46536733067E+02 -0.78477451770E+03  0.11974661163E+04  0.90006114444E+03 0.  0.
         23    2    4    4    0    0  0.39062360366E+03  0.60899803698E+02 -0.26638390420E+03  0.48558805826E+03  0.92410995429E+02 0.  0.
         23    2    4    4    0    0 -0.46663889711E+03 -0.10743653676E+03 -0.51839061350E+03  0.71187805806E+03  0.93525780714E+02 0.  0.
          1    1    3    3  502    0  0.51132656329E+02 -0.15181038957E+02  0.20747971187E+03  0.21422614996E+03  0.00000000000E+00 0. -1.
         -2    1    3    3    0  502  0.24882637124E+02  0.61717772024E+02  0.24128544267E+03  0.25029361530E+03  0.00000000000E+00 0.  1.
         13    1    5    5    0    0  0.13790751421E+02 -0.10767932024E+02  0.17385259525E+01  0.17582822791E+02  0.00000000000E+00 0. -1.
        -13    1    5    5    0    0  0.37683285224E+03  0.71667735722E+02 -0.26812243016E+03  0.46800523547E+03  0.00000000000E+00 0.  1.
          3    1    6    6  503    0 -0.34195156939E+03 -0.61883412511E+02 -0.42784105693E+03  0.55118817345E+03  0.00000000000E+00 0. -1.
         -3    1    6    6    0  503 -0.12468732772E+03 -0.45553124253E+02 -0.90549556571E+02  0.16068988462E+03  0.00000000000E+00 0.  1.
<mgrwt>
<rscale>  0 0.16276654E+04</rscale>
<asrwt>0</asrwt>
<pdfrwt beam="1">  1        1 0.10199819E+00 0.16276654E+04</pdfrwt>
<pdfrwt beam="2">  1       -2 0.15369194E+00 0.16276654E+04</pdfrwt>
<totfact> 0.69558357E+00</totfact>
</mgrwt>
</event>
<event>
12    5  0.5221187E-008  0.2523561E+04  0.7818608E-02  0.8394640E-01
         -2   -1    0    0    0  501 -0.00000000000E+00  0.00000000000E+00  0.60015729935E+03  0.60015729935E+03  0.00000000000E+00 0.  1.
          1   -1    0    0  501    0  0.00000000000E+00 -0.00000000000E+00 -0.26527870271E+04  0.26527870271E+04  0.00000000000E+00 0. -1.
        -24    2    1    2    0    0  0.10062486649E+04 -0.39797479523E+03 -0.63382592581E+03  0.12566906471E+04  0.81337352058E+02 0.  0.
        254    2    1    2    0    0 -0.10062486649E+04  0.39797479523E+03 -0.14188038020E+04  0.19962536794E+04  0.89504425075E+03 0.  0.
         23    2    4    4    0    0 -0.12590398119E+03  0.49007830308E+03 -0.50322075919E+03  0.71954552999E+03  0.92119930612E+02 0.  0.
         23    2    4    4    0    0 -0.88034468374E+03 -0.92103507849E+02 -0.91558304278E+03  0.12767081494E+04  0.90562532313E+02 0.  0.
          1    1    3    3  502    0  0.18154994131E+02 -0.90017663719E+01 -0.49635665649E+00  0.20270223967E+02  0.00000000000E+00 0. -1.
         -2    1    3    3    0  502  0.98809367081E+03 -0.38897302886E+03 -0.63332956915E+03  0.12364204231E+04  0.00000000000E+00 0.  1.
         13    1    5    5    0    0 -0.99132126406E+02  0.44989910279E+03 -0.42038716886E+03  0.62366798292E+03  0.00000000000E+00 0.  1.
        -13    1    5    5    0    0 -0.26771854788E+02  0.40179200290E+02 -0.82833590335E+02  0.95877547072E+02  0.00000000000E+00 0. -1.
          3    1    6    6  503    0 -0.13366583133E+03 -0.31642611244E+02 -0.18400937578E+03  0.22962417052E+03  0.00000000000E+00 0. -1.
         -3    1    6    6    0  503 -0.74667885241E+03 -0.60460896605E+02 -0.73157366700E+03  0.10470839789E+04  0.00000000000E+00 0.  1.
<mgrwt>
<rscale>  0 0.25235606E+04</rscale>
<asrwt>0</asrwt>
<pdfrwt beam="1">  1        1 0.40812108E+00 0.25235606E+04</pdfrwt>
<pdfrwt beam="2">  1       -2 0.92331894E-01 0.25235606E+04</pdfrwt>
<totfact> 0.82244545E-01</totfact>
</mgrwt>
</event>
<event>
12    5  0.5221187E-008  0.1876974E+04  0.7818608E-02  0.8666404E-01
         -2   -1    0    0    0  501 -0.00000000000E+00  0.00000000000E+00  0.42305903431E+03  0.42305903431E+03  0.00000000000E+00 0.  1.
          1   -1    0    0  501    0  0.00000000000E+00 -0.00000000000E+00 -0.20818786475E+04  0.20818786475E+04  0.00000000000E+00 0. -1.
        -24    2    1    2    0    0  0.44779247390E+02 -0.16644894163E+03 -0.15877006230E+04  0.15990312812E+04  0.79983365595E+02 0.  0.
        254    2    1    2    0    0 -0.44779247390E+02  0.16644894163E+03 -0.71118990217E+02  0.90590640065E+03  0.88650891975E+03 0.  0.
         23    2    4    4    0    0  0.15303402014E+03  0.48336170982E+03  0.13243240354E+01  0.51470521514E+03  0.88666514614E+02 0.  0.
         23    2    4    4    0    0 -0.19781326753E+03 -0.31691276819E+03 -0.72443314252E+02  0.39120118551E+03  0.90700288408E+02 0.  0.
          3    1    3    3  502    0  0.62311437606E+02 -0.13154784331E+03 -0.13829165724E+04  0.13905559308E+04  0.00000000000E+00 0. -1.
         -4    1    3    3    0  502 -0.17532190216E+02 -0.34901098324E+02 -0.20478405058E+03  0.20847535042E+03  0.00000000000E+00 0.  1.
         13    1    5    5    0    0  0.15126755613E+03  0.36164648367E+03 -0.12414922400E+02  0.39220426181E+03  0.00000000000E+00 0. -1.
        -13    1    5    5    0    0  0.17664640114E+01  0.12171522615E+03  0.13739246436E+02  0.12250095332E+03  0.00000000000E+00 0.  1.
          2    1    6    6  503    0 -0.20412838674E+03 -0.28687479865E+03 -0.56430856383E+02  0.35658097247E+03  0.00000000000E+00 0. -1.
         -2    1    6    6    0  503  0.63151192083E+01 -0.30037969537E+02 -0.16012457869E+02  0.34620213049E+02  0.00000000000E+00 0.  1.
<mgrwt>
<rscale>  0 0.18769737E+04</rscale>
<asrwt>0</asrwt>
<pdfrwt beam="1">  1        1 0.32028902E+00 0.18769737E+04</pdfrwt>
<pdfrwt beam="2">  1       -2 0.65086005E-01 0.18769737E+04</pdfrwt>
<totfact> 0.46991954E+00</totfact>
</mgrwt>
</event>
<event>
12    5  0.5221187E-008  0.1152829E+04  0.7818608E-02  0.9155178E-01
          1   -1    0    0  501    0  0.00000000000E+00  0.00000000000E+00  0.59422326324E+03  0.59422326324E+03  0.00000000000E+00 0. -1.
         -2   -1    0    0    0  501 -0.00000000000E+00 -0.00000000000E+00 -0.55913906626E+03  0.55913906626E+03  0.00000000000E+00 0.  1.
        -24    2    1    2    0    0  0.21813515627E+03 -0.26291583354E+02 -0.59596062360E+01  0.23445151728E+03  0.81595363182E+02 0.  0.
        254    2    1    2    0    0 -0.21813515627E+03  0.26291583354E+02  0.41043803212E+02  0.91891081222E+03  0.89131267986E+03 0.  0.
         23    2    4    4    0    0 -0.91529927183E+01 -0.36313972122E+03 -0.18074467627E+03  0.41621544426E+03  0.92803144544E+02 0.  0.
         23    2    4    4    0    0 -0.20898216355E+03  0.38943130457E+03  0.22178847948E+03  0.50269536797E+03  0.90455611689E+02 0.  0.
          1    1    3    3  502    0  0.20676250941E+03 -0.36205612147E+01 -0.15449943948E+02  0.20737054884E+03  0.00000000000E+00 0. -1.
         -2    1    3    3    0  502  0.11372646859E+02 -0.22671022139E+02  0.94903377121E+01  0.27080968434E+02  0.00000000000E+00 0.  1.
         13    1    5    5    0    0 -0.21997940060E+02 -0.24412076454E+03 -0.16500499903E+03  0.29547505267E+03  0.00000000000E+00 0. -1.
        -13    1    5    5    0    0  0.12844947342E+02 -0.11901895668E+03 -0.15739677241E+02  0.12074039159E+03  0.00000000000E+00 0.  1.
          4    1    6    6  503    0 -0.13117603924E+02  0.66769816678E+01 -0.62687251729E+01  0.15998454056E+02  0.00000000000E+00 0.  1.
         -4    1    6    6    0  503 -0.19586455962E+03  0.38275432290E+03  0.22805720466E+03  0.48669691391E+03  0.00000000000E+00 0. -1.
<mgrwt>
<rscale>  0 0.11528286E+04</rscale>
<asrwt>0</asrwt>
<pdfrwt beam="1">  1        1 0.91418964E-01 0.11528286E+04</pdfrwt>
<pdfrwt beam="2">  1       -2 0.86021394E-01 0.11528286E+04</pdfrwt>
<totfact> 0.35399554E+01</totfact>
</mgrwt>
</event>
<event>
12    5  0.5221187E-008  0.1788073E+04  0.7818608E-02  0.8712668E-01
          1   -1    0    0  501    0  0.00000000000E+00  0.00000000000E+00  0.92875879357E+03  0.92875879357E+03  0.00000000000E+00 0. -1.
         -2   -1    0    0    0  501 -0.00000000000E+00 -0.00000000000E+00 -0.86061188439E+03  0.86061188439E+03  0.00000000000E+00 0.  1.
        -24    2    1    2    0    0  0.50164563083E+03  0.39061310242E+03  0.20805793248E+03  0.67370347120E+03  0.79757940913E+02 0.  0.
        254    2    1    2    0    0 -0.50164563083E+03 -0.39061310242E+03 -0.13991102330E+03  0.11156672068E+04  0.90604154820E+03 0.  0.
         23    2    4    4    0    0 -0.23415106438E+03 -0.95989327146E+02 -0.50238358799E+03  0.56978249403E+03  0.90676067153E+02 0.  0.
         23    2    4    4    0    0 -0.26749456645E+03 -0.29462377527E+03  0.36247256468E+03  0.54588471272E+03  0.90814356778E+02 0.  0.
          3    1    3    3  502    0  0.28542471757E+03  0.27133215588E+03  0.13038662021E+03  0.41483620738E+03  0.00000000000E+00 0. -1.
         -4    1    3    3    0  502  0.21622091325E+03  0.11928094653E+03  0.77671312262E+02  0.25886726383E+03  0.00000000000E+00 0.  1.
         13    1    5    5    0    0 -0.80561631827E+02 -0.19536623116E+02 -0.86048775753E+02  0.11948325395E+03  0.00000000000E+00 0.  1.
        -13    1    5    5    0    0 -0.15358943255E+03 -0.76452704031E+02 -0.41633481223E+03  0.45029924009E+03  0.00000000000E+00 0. -1.
          3    1    6    6  503    0 -0.13397424987E+03 -0.16509378461E+03  0.25127874998E+03  0.32915963838E+03  0.00000000000E+00 0. -1.
         -3    1    6    6    0  503 -0.13352031658E+03 -0.12952999066E+03  0.11119381470E+03  0.21672507434E+03  0.00000000000E+00 0.  1.
<mgrwt>
<rscale>  0 0.17880725E+04</rscale>
<asrwt>0</asrwt>
<pdfrwt beam="1">  1        1 0.14288597E+00 0.17880725E+04</pdfrwt>
<pdfrwt beam="2">  1       -2 0.13240183E+00 0.17880725E+04</pdfrwt>
<totfact> 0.59160861E+00</totfact>
</mgrwt>
</event>
<event>
12    5  0.5221187E-008  0.1423117E+04  0.7818608E-02  0.8937253E-01
          1   -1    0    0  501    0  0.00000000000E+00  0.00000000000E+00  0.41229715916E+03  0.41229715916E+03  0.00000000000E+00 0. -1.
         -2   -1    0    0    0  501 -0.00000000000E+00 -0.00000000000E+00 -0.12280349663E+04  0.12280349663E+04  0.00000000000E+00 0.  1.
        -24    2    1    2    0    0 -0.31394281223E+03  0.30259065035E+03 -0.45881391290E+03  0.63803613406E+03  0.80366103920E+02 0.  0.
        254    2    1    2    0    0  0.31394281223E+03 -0.30259065035E+03 -0.35692389423E+03  0.10022959914E+04  0.82890373209E+03 0.  0.
         23    2    4    4    0    0 -0.14492845660E+03  0.17502190141E+03 -0.35109645375E+01  0.24610009945E+03  0.94424618437E+02 0.  0.
         23    2    4    4    0    0  0.45887126884E+03 -0.47761255177E+03 -0.35341292969E+03  0.75619589195E+03  0.90856684749E+02 0.  0.
          3    1    3    3  502    0 -0.53321582196E+02  0.86817686158E+02 -0.75874651522E+02  0.12703332044E+03  0.00000000000E+00 0. -1.
         -4    1    3    3    0  502 -0.26062123004E+03  0.21577296420E+03 -0.38293926138E+03  0.51100281362E+03  0.00000000000E+00 0.  1.
         13    1    5    5    0    0 -0.87815506961E+01  0.71688674174E+02  0.16283689901E+02  0.74037424282E+02  0.00000000000E+00 0. -1.
        -13    1    5    5    0    0 -0.13614690591E+03  0.10333322724E+03 -0.19794654439E+02  0.17206267516E+03  0.00000000000E+00 0.  1.
          2    1    6    6  503    0  0.19159907647E+03 -0.15385681800E+03 -0.96478127655E+02  0.26398893096E+03  0.00000000000E+00 0.  1.
         -2    1    6    6    0  503  0.26727219236E+03 -0.32375573377E+03 -0.25693480203E+03  0.49220696100E+03  0.00000000000E+00 0. -1.
<mgrwt>
<rscale>  0 0.14231168E+04</rscale>
<asrwt>0</asrwt>
<pdfrwt beam="1">  1        1 0.63430333E-01 0.14231168E+04</pdfrwt>
<pdfrwt beam="2">  1       -2 0.18892845E+00 0.14231168E+04</pdfrwt>
<totfact> 0.77156637E+00</totfact>
</mgrwt>
</event>
<event>
12    5  0.5221187E-008  0.1358876E+04  0.7818608E-02  0.8984136E-01
          1   -1    0    0  501    0  0.00000000000E+00  0.00000000000E+00  0.21887721264E+04  0.21887721264E+04  0.00000000000E+00 0. -1.
         -2   -1    0    0    0  501 -0.00000000000E+00 -0.00000000000E+00 -0.21091109511E+03  0.21091109511E+03  0.00000000000E+00 0.  1.
        -24    2    1    2    0    0 -0.19710453668E+03 -0.10152858535E+03  0.11055830090E+04  0.11301492993E+04  0.75930211631E+02 0.  0.
        254    2    1    2    0    0  0.19710453668E+03  0.10152858535E+03  0.87227802238E+03  0.12695339222E+04  0.89537097304E+03 0.  0.
         23    2    4    4    0    0  0.14666706815E+03  0.42438192781E+03  0.16815824026E+03  0.48809014444E+03  0.91343011803E+02 0.  0.
         23    2    4    4    0    0  0.50437468525E+02 -0.32285334246E+03  0.70411978212E+03  0.78144377779E+03  0.89952717088E+02 0.  0.
          1    1    3    3  502    0 -0.18647884422E+03 -0.67908717395E+02  0.90673833010E+03  0.92820275399E+03  0.00000000000E+00 0. -1.
         -2    1    3    3    0  502 -0.10625692453E+02 -0.33619867953E+02  0.19884467885E+03  0.20194654533E+03  0.00000000000E+00 0.  1.
         13    1    5    5    0    0  0.14061286631E+03  0.32466826709E+03  0.10180894717E+03  0.36816643458E+03  0.00000000000E+00 0. -1.
        -13    1    5    5    0    0  0.60542018412E+01  0.99713660714E+02  0.66349293092E+02  0.11992370986E+03  0.00000000000E+00 0.  1.
          3    1    6    6  503    0 -0.16410487672E+00 -0.24683254519E+03  0.53661733279E+03  0.59066445140E+03  0.00000000000E+00 0. -1.
         -3    1    6    6    0  503  0.50601573402E+02 -0.76020797269E+02  0.16750244932E+03  0.19077932639E+03  0.00000000000E+00 0.  1.
<mgrwt>
<rscale>  0 0.13588765E+04</rscale>
<asrwt>0</asrwt>
<pdfrwt beam="1">  1        1 0.33673416E+00 0.13588765E+04</pdfrwt>
<pdfrwt beam="2">  1       -2 0.32447862E-01 0.13588765E+04</pdfrwt>
<totfact> 0.16881659E+01</totfact>
</mgrwt>
</event>
<event>
12    5  0.5221187E-008  0.3991972E+04  0.7818608E-02  0.8006168E-01
         -2   -1    0    0    0  501 -0.00000000000E+00  0.00000000000E+00  0.15547444230E+04  0.15547444230E+04  0.00000000000E+00 0.  1.
          1   -1    0    0  501    0  0.00000000000E+00 -0.00000000000E+00 -0.25624528319E+04  0.25624528319E+04  0.00000000000E+00 0. -1.
        -24    2    1    2    0    0 -0.16517597052E+04  0.73782909957E+03 -0.10394267076E+04  0.20879199546E+04  0.79372239834E+02 0.  0.
        254    2    1    2    0    0  0.16517597052E+04 -0.73782909957E+03  0.31718298668E+02  0.20292773003E+04  0.91883535374E+03 0.  0.
         23    2    4    4    0    0  0.15298080686E+04 -0.33227740915E+03 -0.11471221646E+03  0.15723111972E+04  0.91008818621E+02 0.  0.
         23    2    4    4    0    0  0.12195163659E+03 -0.40555169041E+03  0.14643051513E+03  0.45696610305E+03  0.89620021836E+02 0.  0.
          3    1    3    3  502    0 -0.13577455653E+04  0.57386735286E+03 -0.83683773379E+03  0.16950203985E+04  0.00000000000E+00 0. -1.
         -4    1    3    3    0  502 -0.29401413990E+03  0.16396174670E+03 -0.20258897378E+03  0.39289955604E+03  0.00000000000E+00 0.  1.
         13    1    5    5    0    0  0.13291885638E+04 -0.31009125294E+03 -0.12211934242E+03  0.13703327907E+04  0.00000000000E+00 0. -1.
        -13    1    5    5    0    0  0.20061950474E+03 -0.22186156210E+02  0.74071259544E+01  0.20197840658E+03  0.00000000000E+00 0.  1.
          1    1    6    6  503    0  0.10915556807E+03 -0.32043314196E+03  0.15122474838E+03  0.37075768506E+03  0.00000000000E+00 0. -1.
         -1    1    6    6    0  503  0.12796068513E+02 -0.85118548459E+02 -0.47942332503E+01  0.86208417997E+02  0.00000000000E+00 0.  1.
<mgrwt>
<rscale>  0 0.39919716E+04</rscale>
<asrwt>0</asrwt>
<pdfrwt beam="1">  1        1 0.39422351E+00 0.39919716E+04</pdfrwt>
<pdfrwt beam="2">  1       -2 0.23919145E+00 0.39919716E+04</pdfrwt>
<totfact> 0.63292622E-02</totfact>
</mgrwt>
</event>
<event>
12    5  0.5221187E-008  0.2887615E+04  0.7818608E-02  0.8276572E-01
          1   -1    0    0  501    0  0.00000000000E+00  0.00000000000E+00  0.28143366275E+04  0.28143366275E+04  0.00000000000E+00 0. -1.
         -2   -1    0    0    0  501 -0.00000000000E+00 -0.00000000000E+00 -0.74070025094E+03  0.74070025094E+03  0.00000000000E+00 0.  1.
        -24    2    1    2    0    0 -0.54308808524E+03 -0.10086695920E+04  0.17338745274E+03  0.11611794563E+04  0.76912332338E+02 0.  0.
        254    2    1    2    0    0  0.54308808524E+03  0.10086695920E+04  0.19002489238E+04  0.23938574221E+04  0.89847001662E+03 0.  0.
         23    2    4    4    0    0  0.73009364483E+03  0.48468610674E+03  0.12993668394E+04  0.15699471988E+04  0.91775112608E+02 0.  0.
         23    2    4    4    0    0 -0.18700555960E+03  0.52398348526E+03  0.60088208445E+03  0.82391022337E+03  0.90768962795E+02 0.  0.
          3    1    3    3  502    0 -0.50412455142E+03 -0.93918478948E+03  0.18086037444E+03  0.10811660868E+04  0.00000000000E+00 0. -1.
         -4    1    3    3    0  502 -0.38963533815E+02 -0.69484802530E+02 -0.74729216987E+01  0.80013369562E+02  0.00000000000E+00 0.  1.
         13    1    5    5    0    0  0.63909914988E+03  0.44484242606E+03  0.11068112305E+04  0.13532788357E+04  0.00000000000E+00 0. -1.
        -13    1    5    5    0    0  0.90994494956E+02  0.39843680687E+02  0.19255560893E+03  0.21666836302E+03  0.00000000000E+00 0.  1.
          3    1    6    6  503    0 -0.11383758527E+03  0.20668378890E+03  0.21756566077E+03  0.32095482729E+03  0.00000000000E+00 0. -1.
         -3    1    6    6    0  503 -0.73167974323E+02  0.31729969636E+03  0.38331642368E+03  0.50295539608E+03  0.00000000000E+00 0.  1.
<mgrwt>
<rscale>  0 0.28876148E+04</rscale>
<asrwt>0</asrwt>
<pdfrwt beam="1">  1        1 0.43297486E+00 0.28876148E+04</pdfrwt>
<pdfrwt beam="2">  1       -2 0.11395389E+00 0.28876148E+04</pdfrwt>
<totfact> 0.37085138E-01</totfact>
</mgrwt>
</event>
<event>
12    5  0.5221187E-008  0.1341666E+04  0.7818608E-02  0.8997161E-01
         -4   -1    0    0    0  501 -0.00000000000E+00  0.00000000000E+00  0.25018699704E+03  0.25018699704E+03  0.00000000000E+00 0.  1.
          3   -1    0    0  501    0  0.00000000000E+00 -0.00000000000E+00 -0.17987224132E+04  0.17987224132E+04  0.00000000000E+00 0. -1.
        -24    2    1    2    0    0 -0.21478690747E+01 -0.25389450856E+03 -0.81668496321E+03  0.85899566125E+03  0.80200885822E+02 0.  0.
        254    2    1    2    0    0  0.21478690747E+01  0.25389450856E+03 -0.73185045290E+03  0.11899137490E+04  0.90322899074E+03 0.  0.
         23    2    4    4    0    0 -0.36218850369E+03 -0.13525206775E+03 -0.33722347597E+03  0.52058090238E+03  0.88380818825E+02 0.  0.
         23    2    4    4    0    0  0.36433637277E+03  0.38914657631E+03 -0.39462697693E+03  0.66933284657E+03  0.89999767830E+02 0.  0.
          3    1    3    3  502    0 -0.67334874294E+01 -0.19373114747E+03 -0.71447166670E+03  0.74030187077E+03  0.00000000000E+00 0. -1.
         -4    1    3    3    0  502  0.45856183546E+01 -0.60163361090E+02 -0.10221329652E+03  0.11869379048E+03  0.00000000000E+00 0.  1.
         13    1    5    5    0    0 -0.31274367664E+02 -0.42166488779E+02 -0.37620969874E+02  0.64586656695E+02  0.00000000000E+00 0. -1.
        -13    1    5    5    0    0 -0.33091413603E+03 -0.93085578974E+02 -0.29960250610E+03  0.45599424568E+03  0.00000000000E+00 0.  1.
          2    1    6    6  503    0  0.73333999856E+02  0.13078324319E+03 -0.87622421747E+02  0.17366583149E+03  0.00000000000E+00 0. -1.
         -2    1    6    6    0  503  0.29100237291E+03  0.25836333312E+03 -0.30700455518E+03  0.49566701508E+03  0.00000000000E+00 0.  1.
<mgrwt>
<rscale>  0 0.13416661E+04</rscale>
<asrwt>0</asrwt>
<pdfrwt beam="1">  1        3 0.27672652E+00 0.13416661E+04</pdfrwt>
<pdfrwt beam="2">  1       -4 0.38490308E-01 0.13416661E+04</pdfrwt>
<totfact> 0.77319174E-01</totfact>
</mgrwt>
</event>
<event>
12    5  0.5221187E-008  0.1600036E+04  0.7818608E-02  0.8820526E-01
          1   -1    0    0  501    0  0.00000000000E+00  0.00000000000E+00  0.17855336215E+04  0.17855336215E+04  0.00000000000E+00 0. -1.
         -2   -1    0    0    0  501 -0.00000000000E+00 -0.00000000000E+00 -0.35845249910E+03  0.35845249910E+03  0.00000000000E+00 0.  1.
        -24    2    1    2    0    0  0.11594107091E+03 -0.41011965522E+03  0.45244255537E+02  0.43638936282E+03  0.82147244671E+02 0.  0.
        254    2    1    2    0    0 -0.11594107091E+03  0.41011965522E+03  0.13818368669E+04  0.17075967578E+04  0.90817019166E+03 0.  0.
         23    2    4    4    0    0  0.32781662489E+03 -0.40080907403E+02  0.66012485873E+03  0.74369846220E+03  0.90842472893E+02 0.  0.
         23    2    4    4    0    0 -0.44375769580E+03  0.45020056262E+03  0.72171200813E+03  0.96389829556E+03  0.92899205360E+02 0.  0.
          1    1    3    3  502    0 -0.28968304806E+01 -0.12205108120E+02 -0.11783758675E+02  0.17210847148E+02  0.00000000000E+00 0. -1.
         -2    1    3    3    0  502  0.11883790139E+03 -0.39791454710E+03  0.57028014212E+02  0.41917851567E+03  0.00000000000E+00 0.  1.
         13    1    5    5    0    0  0.13340665545E+03 -0.61508378677E+02  0.27803331036E+03  0.31445689376E+03  0.00000000000E+00 0.  1.
        -13    1    5    5    0    0  0.19440996944E+03  0.21427471274E+02  0.38209154837E+03  0.42924156844E+03  0.00000000000E+00 0. -1.
          3    1    6    6  503    0 -0.44396285948E+03  0.43282959934E+03  0.68937680759E+03  0.92719192484E+03  0.00000000000E+00 0. -1.
         -3    1    6    6    0  503  0.20516368134E+00  0.17370963283E+02  0.32335200540E+02  0.36706370720E+02  0.00000000000E+00 0.  1.
<mgrwt>
<rscale>  0 0.16000362E+04</rscale>
<asrwt>0</asrwt>
<pdfrwt beam="1">  1        1 0.27469748E+00 0.16000362E+04</pdfrwt>
<pdfrwt beam="2">  1       -2 0.55146539E-01 0.16000362E+04</pdfrwt>
<totfact> 0.10853505E+01</totfact>
</mgrwt>
</event>
<event>
12    5  0.5221187E-008  0.2023283E+04  0.7818608E-02  0.8595812E-01
          1   -1    0    0  501    0  0.00000000000E+00  0.00000000000E+00  0.19613302100E+04  0.19613302100E+04  0.00000000000E+00 0. -1.
         -2   -1    0    0    0  501 -0.00000000000E+00 -0.00000000000E+00 -0.52179825507E+03  0.52179825507E+03  0.00000000000E+00 0.  1.
        -24    2    1    2    0    0 -0.50280877126E+03 -0.62623896152E+03  0.70147660396E+03  0.10692261491E+04  0.78633545984E+02 0.  0.
        254    2    1    2    0    0  0.50280877126E+03  0.62623896152E+03  0.73805535093E+03  0.14139023160E+04  0.89966780573E+03 0.  0.
         23    2    4    4    0    0 -0.15398391602E+03 -0.94386281512E+02  0.24397807915E+03  0.31687180395E+03  0.90898957642E+02 0.  0.
         23    2    4    4    0    0  0.65679268728E+03  0.72062524303E+03  0.49407727178E+03  0.10970305120E+04  0.93199886459E+02 0.  0.
          3    1    3    3  502    0 -0.35708916425E+03 -0.38811219784E+03  0.47430762688E+03  0.70930351349E+03  0.00000000000E+00 0. -1.
         -4    1    3    3    0  502 -0.14571960701E+03 -0.23812676368E+03  0.22716897708E+03  0.35992263557E+03  0.00000000000E+00 0.  1.
         13    1    5    5    0    0 -0.11453819491E+03 -0.48639869210E+02  0.96398067753E+02  0.15740845733E+03  0.00000000000E+00 0. -1.
        -13    1    5    5    0    0 -0.39445721106E+02 -0.45746412302E+02  0.14758001139E+03  0.15946334662E+03  0.00000000000E+00 0.  1.
          2    1    6    6  503    0  0.63902228866E+03  0.68287702123E+03  0.48789946563E+03  0.10548537340E+04  0.00000000000E+00 0. -1.
         -2    1    6    6    0  503  0.17770398628E+02  0.37748221805E+02  0.61778061458E+01  0.42176778037E+02  0.00000000000E+00 0.  1.
<mgrwt>
<rscale>  0 0.20232832E+04</rscale>
<asrwt>0</asrwt>
<pdfrwt beam="1">  1        1 0.30174310E+00 0.20232832E+04</pdfrwt>
<pdfrwt beam="2">  1       -2 0.80276656E-01 0.20232832E+04</pdfrwt>
<totfact> 0.35301366E+00</totfact>
</mgrwt>
</event>
<event>
12    5  0.5221187E-008  0.1663911E+04  0.7818608E-02  0.8782219E-01
         -2   -1    0    0    0  501 -0.00000000000E+00  0.00000000000E+00  0.48273342651E+03  0.48273342651E+03  0.00000000000E+00 0.  1.
          1   -1    0    0  501    0  0.00000000000E+00 -0.00000000000E+00 -0.14338137939E+04  0.14338137939E+04  0.00000000000E+00 0. -1.
        -24    2    1    2    0    0  0.16628526087E+03  0.62618836356E+02  0.30534079140E+03  0.36214303642E+03  0.79640902104E+02 0.  0.
        254    2    1    2    0    0 -0.16628526087E+03 -0.62618836356E+02 -0.12564211588E+04  0.15544041840E+04  0.89777855416E+03 0.  0.
         23    2    4    4    0    0 -0.26263473468E+03  0.35404543834E+03 -0.82777624822E+03  0.94211743355E+03  0.89702648863E+02 0.  0.
         23    2    4    4    0    0  0.96349473811E+02 -0.41666427469E+03 -0.42864491058E+03  0.61228675045E+03  0.90919010691E+02 0.  0.
          3    1    3    3  502    0  0.29668014666E+00  0.44037893382E+00 -0.48506830724E+01  0.48796597201E+01  0.00000000000E+00 0. -1.
         -4    1    3    3    0  502  0.16598858073E+03  0.62178457422E+02  0.31019147447E+03  0.35726337670E+03  0.00000000000E+00 0.  1.
         13    1    5    5    0    0 -0.17799047926E+03  0.20620445266E+03 -0.58748615511E+03  0.64756533990E+03  0.00000000000E+00 0. -1.
        -13    1    5    5    0    0 -0.84644255428E+02  0.14784098568E+03 -0.24029009311E+03  0.29455209365E+03  0.00000000000E+00 0.  1.
          2    1    6    6  503    0  0.46349687393E+02 -0.26629512447E+03 -0.32600264183E+03  0.42348448533E+03  0.00000000000E+00 0.  1.
         -2    1    6    6    0  503  0.49999786418E+02 -0.15036915022E+03 -0.10264226875E+03  0.18880226512E+03  0.00000000000E+00 0. -1.
<mgrwt>
<rscale>  0 0.16639109E+04</rscale>
<asrwt>0</asrwt>
<pdfrwt beam="1">  1        1 0.22058673E+00 0.16639109E+04</pdfrwt>
<pdfrwt beam="2">  1       -2 0.74266684E-01 0.16639109E+04</pdfrwt>
<totfact> 0.99424105E+00</totfact>
</mgrwt>
</event>
<event>
12    5  0.5221187E-008  0.1822586E+04  0.7818608E-02  0.8694380E-01
         -2   -1    0    0    0  501 -0.00000000000E+00  0.00000000000E+00  0.55572009224E+03  0.55572009224E+03  0.00000000000E+00 0.  1.
          1   -1    0    0  501    0  0.00000000000E+00 -0.00000000000E+00 -0.14943765574E+04  0.14943765574E+04  0.00000000000E+00 0. -1.
        -24    2    1    2    0    0 -0.31388970634E+03 -0.42756170902E+03  0.12498100596E+03  0.55088811653E+03  0.80757057365E+02 0.  0.
        254    2    1    2    0    0  0.31388970634E+03  0.42756170902E+03 -0.10636374711E+04  0.14992085331E+04  0.91376462670E+03 0.  0.
         23    2    4    4    0    0 -0.96011692508E+02 -0.18377551326E+03 -0.55702653695E+03  0.60093762206E+03  0.88632828932E+02 0.  0.
         23    2    4    4    0    0  0.40990139885E+03  0.61133722228E+03 -0.50661093417E+03  0.89827091105E+03  0.92106649571E+02 0.  0.
          1    1    3    3  502    0 -0.12036137329E+02 -0.14707132928E+02  0.22209607964E+02  0.29230720940E+02  0.00000000000E+00 0. -1.
         -2    1    3    3    0  502 -0.30185356901E+03 -0.41285457609E+03  0.10277139800E+03  0.52165739559E+03  0.00000000000E+00 0.  1.
         13    1    5    5    0    0 -0.10925639472E+03 -0.12863554437E+03 -0.41409316200E+03  0.44716575213E+03  0.00000000000E+00 0. -1.
        -13    1    5    5    0    0  0.13244702216E+02 -0.55139968888E+02 -0.14293337495E+03  0.15377186993E+03  0.00000000000E+00 0.  1.
          3    1    6    6  503    0  0.41151639431E+03  0.60332122969E+03 -0.50847824513E+03  0.88988334896E+03  0.00000000000E+00 0. -1.
         -3    1    6    6    0  503 -0.16149954605E+01  0.80159925953E+01  0.18673109665E+01  0.83875620935E+01  0.00000000000E+00 0.  1.
<mgrwt>
<rscale>  0 0.18225862E+04</rscale>
<asrwt>0</asrwt>
<pdfrwt beam="1">  1        1 0.22990408E+00 0.18225862E+04</pdfrwt>
<pdfrwt beam="2">  1       -2 0.85495400E-01 0.18225862E+04</pdfrwt>
<totfact> 0.64868258E+00</totfact>
</mgrwt>
</event>
<event>
12    5  0.5221187E-008  0.1960997E+04  0.7818608E-02  0.8625076E-01
          3   -1    0    0  501    0  0.00000000000E+00  0.00000000000E+00  0.81069475259E+03  0.81069475259E+03  0.00000000000E+00 0. -1.
         -2   -1    0    0    0  501 -0.00000000000E+00 -0.00000000000E+00 -0.11858688322E+04  0.11858688322E+04  0.00000000000E+00 0.  1.
        -24    2    1    2    0    0 -0.37496113735E+03  0.35720201870E+03  0.43645942503E+03  0.68342444907E+03  0.91558785546E+02 0.  0.
        254    2    1    2    0    0  0.37496113735E+03 -0.35720201870E+03 -0.81163350467E+03  0.13131391358E+04  0.89297049631E+03 0.  0.
         23    2    4    4    0    0 -0.28107356318E+03 -0.50663523444E+02 -0.19476773290E+03  0.35751374415E+03  0.91172731401E+02 0.  0.
         23    2    4    4    0    0  0.65603470053E+03 -0.30653849525E+03 -0.61686577177E+03  0.95562539161E+03  0.91373581158E+02 0.  0.
          3    1    3    3  502    0 -0.97619452698E+02  0.82148396837E+02  0.60201277449E+02  0.14107483991E+03  0.00000000000E+00 0. -1.
         -4    1    3    3    0  502 -0.27734168465E+03  0.27505362186E+03  0.37625814758E+03  0.54234960916E+03  0.00000000000E+00 0.  1.
         13    1    5    5    0    0 -0.25735108178E+03 -0.69723794763E+02 -0.18826260578E+03  0.32639515252E+03  0.00000000000E+00 0. -1.
        -13    1    5    5    0    0 -0.23722481406E+02  0.19060271319E+02 -0.65051271160E+01  0.31118591639E+02  0.00000000000E+00 0.  1.
          3    1    6    6  503    0  0.48816583340E+03 -0.25486873239E+03 -0.42592058108E+03  0.69618409422E+03  0.00000000000E+00 0. -1.
         -3    1    6    6    0  503  0.16786886713E+03 -0.51669762860E+02 -0.19094519069E+03  0.25944129739E+03  0.00000000000E+00 0.  1.
<mgrwt>
<rscale>  0 0.19609973E+04</rscale>
<asrwt>0</asrwt>
<pdfrwt beam="1">  1        3 0.12472227E+00 0.19609973E+04</pdfrwt>
<pdfrwt beam="2">  1       -2 0.18244136E+00 0.19609973E+04</pdfrwt>
<totfact> 0.34794538E-01</totfact>
</mgrwt>
</event>
<event>
12    5  0.5221187E-008  0.1391928E+04  0.7818608E-02  0.8959682E-01
          1   -1    0    0  501    0  0.00000000000E+00  0.00000000000E+00  0.64238871314E+03  0.64238871314E+03  0.00000000000E+00 0. -1.
         -2   -1    0    0    0  501 -0.00000000000E+00 -0.00000000000E+00 -0.75400771710E+03  0.75400771710E+03  0.00000000000E+00 0.  1.
        -24    2    1    2    0    0  0.28310610964E+03 -0.22376988562E+03 -0.23361084385E+03  0.43737095206E+03  0.80605783369E+02 0.  0.
        254    2    1    2    0    0 -0.28310610964E+03  0.22376988562E+03  0.12199183989E+03  0.95902547819E+03  0.88012830189E+03 0.  0.
         23    2    4    4    0    0 -0.47167138769E+03  0.21991578110E+03  0.36252612799E+03  0.64089354292E+03  0.92100440486E+02 0.  0.
         23    2    4    4    0    0  0.18856527805E+03  0.38541045217E+01 -0.24053428810E+03  0.31813193527E+03  0.88201282723E+02 0.  0.
          3    1    3    3  502    0  0.13338382657E+03 -0.10913405802E+03 -0.64299254257E+02  0.18394532314E+03  0.00000000000E+00 0. -1.
         -4    1    3    3    0  502  0.14972228307E+03 -0.11463582761E+03 -0.16931158959E+03  0.25342562891E+03  0.00000000000E+00 0.  1.
         13    1    5    5    0    0 -0.14371329450E+02 -0.11796614087E+01 -0.34643613037E+01  0.14829986866E+02  0.00000000000E+00 0. -1.
        -13    1    5    5    0    0 -0.45730005824E+03  0.22109544251E+03  0.36599048929E+03  0.62606355606E+03  0.00000000000E+00 0.  1.
          3    1    6    6  503    0  0.61665314274E+02  0.72910913738E+01 -0.22906894745E+02  0.66185321823E+02  0.00000000000E+00 0. -1.
         -3    1    6    6    0  503  0.12689996378E+03 -0.34369868521E+01 -0.21762739336E+03  0.25194661344E+03  0.00000000000E+00 0.  1.
<mgrwt>
<rscale>  0 0.13919282E+04</rscale>
<asrwt>0</asrwt>
<pdfrwt beam="1">  1        1 0.98829032E-01 0.13919282E+04</pdfrwt>
<pdfrwt beam="2">  1       -2 0.11600119E+00 0.13919282E+04</pdfrwt>
<totfact> 0.15277197E+01</totfact>
</mgrwt>
</event>
<event>
12    5  0.5221187E-008  0.1712626E+04  0.7818608E-02  0.8754196E-01
         -2   -1    0    0    0  501 -0.00000000000E+00  0.00000000000E+00  0.66925654344E+03  0.66925654344E+03  0.00000000000E+00 0.  1.
          1   -1    0    0  501    0  0.00000000000E+00 -0.00000000000E+00 -0.10956519277E+04  0.10956519277E+04  0.00000000000E+00 0. -1.
        -24    2    1    2    0    0 -0.20755276607E+03  0.34582157040E+03 -0.59842904956E+03  0.72619110862E+03  0.81027708964E+02 0.  0.
        254    2    1    2    0    0  0.20755276607E+03 -0.34582157040E+03  0.17203366526E+03  0.10387173626E+04  0.94163021832E+03 0.  0.
         23    2    4    4    0    0  0.17896389982E+03 -0.35990427789E+03  0.52795909132E+03  0.66973273423E+03  0.90785276917E+02 0.  0.
         23    2    4    4    0    0  0.28588866247E+02  0.14082707491E+02 -0.35592542606E+03  0.36898462833E+03  0.91929870595E+02 0.  0.
          1    1    3    3  502    0 -0.10202578377E+03  0.19578456546E+03 -0.39315733507E+03  0.45090303475E+03  0.00000000000E+00 0. -1.
         -2    1    3    3    0  502 -0.10552698230E+03  0.15003700494E+03 -0.20527171449E+03  0.27528807387E+03  0.00000000000E+00 0.  1.
         13    1    5    5    0    0  0.12470027577E+03 -0.25784227187E+03  0.43768050205E+03  0.52306502256E+03  0.00000000000E+00 0. -1.
        -13    1    5    5    0    0  0.54263624046E+02 -0.10206200602E+03  0.90278589264E+02  0.14666771167E+03  0.00000000000E+00 0.  1.
          1    1    6    6  503    0  0.47986181787E+02 -0.10006928277E+02 -0.30846880514E+03  0.31233926426E+03  0.00000000000E+00 0. -1.
         -1    1    6    6    0  503 -0.19397315541E+02  0.24089635769E+02 -0.47456620923E+02  0.56645364074E+02  0.00000000000E+00 0.  1.
<mgrwt>
<rscale>  0 0.17126263E+04</rscale>
<asrwt>0</asrwt>
<pdfrwt beam="1">  1        1 0.16856183E+00 0.17126263E+04</pdfrwt>
<pdfrwt beam="2">  1       -2 0.10296255E+00 0.17126263E+04</pdfrwt>
<totfact> 0.82044712E+00</totfact>
</mgrwt>
</event>
<event>
12    5  0.5221187E-008  0.4023906E+04  0.7818608E-02  0.7999741E-01
         -2   -1    0    0    0  501 -0.00000000000E+00  0.00000000000E+00  0.27470549035E+04  0.27470549035E+04  0.00000000000E+00 0.  1.
          1   -1    0    0  501    0  0.00000000000E+00 -0.00000000000E+00 -0.14735614747E+04  0.14735614747E+04  0.00000000000E+00 0. -1.
        -24    2    1    2    0    0 -0.16492582870E+04  0.72972795324E+03  0.12842269937E+04  0.22154528860E+04  0.80229269703E+02 0.  0.
        254    2    1    2    0    0  0.16492582870E+04 -0.72972795324E+03 -0.10733564915E+02  0.20051634923E+04  0.87636159112E+03 0.  0.
         23    2    4    4    0    0  0.49909803552E+03  0.14945648382E+03  0.13877536243E+03  0.54693051313E+03  0.91860194667E+02 0.  0.
         23    2    4    4    0    0  0.11501602515E+04 -0.87918443706E+03 -0.14950892735E+03  0.14582329791E+04  0.90865965319E+02 0.  0.
          1    1    3    3  502    0 -0.91943735700E+02  0.31167279473E+02  0.50448031912E+02  0.10940774090E+03  0.00000000000E+00 0. -1.
         -2    1    3    3    0  502 -0.15573145513E+04  0.69856067377E+03  0.12337789618E+04  0.21060451451E+04  0.00000000000E+00 0.  1.
         13    1    5    5    0    0  0.45142826339E+03  0.11529385190E+03  0.99724398675E+02  0.47647151538E+03  0.00000000000E+00 0. -1.
        -13    1    5    5    0    0  0.47669772127E+02  0.34162631924E+02  0.39050963759E+02  0.70458997759E+02  0.00000000000E+00 0.  1.
          2    1    6    6  503    0  0.54184108781E+03 -0.47079575586E+03 -0.80429137644E+02  0.72229443744E+03  0.00000000000E+00 0. -1.
         -2    1    6    6    0  503  0.60831916366E+03 -0.40838868120E+03 -0.69079789705E+02  0.73593854170E+03  0.00000000000E+00 0.  1.
<mgrwt>
<rscale>  0 0.40239057E+04</rscale>
<asrwt>0</asrwt>
<pdfrwt beam="1">  1        1 0.22670176E+00 0.40239057E+04</pdfrwt>
<pdfrwt beam="2">  1       -2 0.42262383E+00 0.40239057E+04</pdfrwt>
<totfact> 0.24646845E-02</totfact>
</mgrwt>
</event>
<event>
12    5  0.5221187E-008  0.1650807E+04  0.7818608E-02  0.8789929E-01
          1   -1    0    0  501    0  0.00000000000E+00  0.00000000000E+00  0.76257626414E+03  0.76257626414E+03  0.00000000000E+00 0. -1.
         -2   -1    0    0    0  501 -0.00000000000E+00 -0.00000000000E+00 -0.89340698354E+03  0.89340698354E+03  0.00000000000E+00 0.  1.
        -24    2    1    2    0    0  0.44188274464E+03  0.13392727146E+03  0.30278794420E+03  0.55924848919E+03  0.88777584172E+02 0.  0.
        254    2    1    2    0    0 -0.44188274464E+03 -0.13392727146E+03 -0.43361866360E+03  0.10967347585E+04  0.89532402570E+03 0.  0.
         23    2    4    4    0    0 -0.43297216164E+03 -0.38523091070E+03  0.17419301689E+01  0.58649734355E+03  0.90046390013E+02 0.  0.
         23    2    4    4    0    0 -0.89105830014E+01  0.25130363924E+03 -0.43536059377E+03  0.51023741493E+03  0.87008364013E+02 0.  0.
          1    1    3    3  502    0  0.22293983412E+03  0.32124296430E+02  0.18021681028E+03  0.28846531640E+03  0.00000000000E+00 0. -1.
         -2    1    3    3    0  502  0.21894291053E+03  0.10180297503E+03  0.12257113391E+03  0.27078317279E+03  0.00000000000E+00 0.  1.
         13    1    5    5    0    0 -0.79165235945E+02 -0.48245746794E+02  0.28974739288E+02  0.97130439012E+02  0.00000000000E+00 0. -1.
        -13    1    5    5    0    0 -0.35380692570E+03 -0.33698516391E+03 -0.27232809119E+02  0.48936690454E+03  0.00000000000E+00 0.  1.
          1    1    6    6  503    0  0.99673946599E+01  0.23990491998E+03 -0.41845604026E+03  0.48245121745E+03  0.00000000000E+00 0.  1.
         -1    1    6    6    0  503 -0.18877977661E+02  0.11398719260E+02 -0.16904553501E+02  0.27786197480E+02  0.00000000000E+00 0. -1.
<mgrwt>
<rscale>  0 0.16508070E+04</rscale>
<asrwt>0</asrwt>
<pdfrwt beam="1">  1        1 0.11731942E+00 0.16508070E+04</pdfrwt>
<pdfrwt beam="2">  1       -2 0.13744723E+00 0.16508070E+04</pdfrwt>
<totfact> 0.75204856E+00</totfact>
</mgrwt>
</event>
<event>
12    5  0.5221187E-008  0.1679219E+04  0.7818608E-02  0.8773306E-01
         -2   -1    0    0    0  501 -0.00000000000E+00  0.00000000000E+00  0.12412348266E+04  0.12412348266E+04  0.00000000000E+00 0.  1.
          1   -1    0    0  501    0  0.00000000000E+00 -0.00000000000E+00 -0.56793784283E+03  0.56793784283E+03  0.00000000000E+00 0. -1.
        -24    2    1    2    0    0  0.16180327928E+03  0.54086738444E+03  0.49143456429E+03  0.75296935948E+03  0.82079818469E+02 0.  0.
        254    2    1    2    0    0 -0.16180327928E+03 -0.54086738444E+03  0.18186241943E+03  0.10562033099E+04  0.87394145316E+03 0.  0.
         23    2    4    4    0    0  0.70674611722E+02 -0.30415308893E+03 -0.31474023874E+03  0.45172351162E+03  0.86537337725E+02 0.  0.
         23    2    4    4    0    0 -0.23247789100E+03 -0.23671429550E+03  0.49660265817E+03  0.60447979830E+03  0.93284505397E+02 0.  0.
          3    1    3    3  502    0  0.49010993442E+02  0.79841612322E+02  0.57794977643E+02  0.11007733635E+03  0.00000000000E+00 0. -1.
         -4    1    3    3    0  502  0.11279228584E+03  0.46102577211E+03  0.43363958665E+03  0.64289202313E+03  0.00000000000E+00 0.  1.
         13    1    5    5    0    0  0.35100538429E+02 -0.25066553014E+03 -0.21014513868E+03  0.32897756019E+03  0.00000000000E+00 0. -1.
        -13    1    5    5    0    0  0.35574073293E+02 -0.53487558792E+02 -0.10459510005E+03  0.12274595143E+03  0.00000000000E+00 0.  1.
          1    1    6    6  503    0 -0.63686943050E+01 -0.12576365587E+02 -0.56464594043E+00  0.14108297685E+02  0.00000000000E+00 0. -1.
         -1    1    6    6    0  503 -0.22610919670E+03 -0.22413792991E+03  0.49716730411E+03  0.59037150061E+03  0.00000000000E+00 0.  1.
<mgrwt>
<rscale>  0 0.16792191E+04</rscale>
<asrwt>0</asrwt>
<pdfrwt beam="1">  1        1 0.87375053E-01 0.16792191E+04</pdfrwt>
<pdfrwt beam="2">  1       -2 0.19095920E+00 0.16792191E+04</pdfrwt>
<totfact> 0.47176238E+00</totfact>
</mgrwt>
</event>
<event>
12    5  0.5221187E-008  0.1760541E+04  0.7818608E-02  0.8727569E-01
         -2   -1    0    0    0  501 -0.00000000000E+00  0.00000000000E+00  0.14079895935E+04  0.14079895935E+04  0.00000000000E+00 0.  1.
          1   -1    0    0  501    0  0.00000000000E+00 -0.00000000000E+00 -0.55034247200E+03  0.55034247200E+03  0.00000000000E+00 0. -1.
        -24    2    1    2    0    0  0.17645996157E+03  0.61416641871E+03  0.41408501645E+03  0.76570979689E+03  0.80663401221E+02 0.  0.
        254    2    1    2    0    0 -0.17645996157E+03 -0.61416641871E+03  0.44356210509E+03  0.11926222686E+04  0.90402545688E+03 0.  0.
         23    2    4    4    0    0 -0.46806041278E+03 -0.51858835745E+03  0.50392363717E+03  0.86676452959E+03  0.96577860602E+02 0.  0.
         23    2    4    4    0    0  0.29160045122E+03 -0.95578061266E+02 -0.60361532079E+02  0.32585773906E+03  0.91508265215E+02 0.  0.
          3    1    3    3  502    0  0.11849296402E+03  0.34872330494E+03  0.19535677880E+03  0.41690861943E+03  0.00000000000E+00 0. -1.
         -4    1    3    3    0  502  0.57966997540E+02  0.26544311377E+03  0.21872823765E+03  0.34880117746E+03  0.00000000000E+00 0.  1.
         13    1    5    5    0    0 -0.13668071992E+03 -0.19525155888E+03  0.12901136628E+03  0.27101424884E+03  0.00000000000E+00 0. -1.
        -13    1    5    5    0    0 -0.33137969287E+03 -0.32333679856E+03  0.37491227089E+03  0.59575028075E+03  0.00000000000E+00 0.  1.
          3    1    6    6  503    0  0.19537904971E+03 -0.43104708853E+02  0.13436817674E+01  0.20008196938E+03  0.00000000000E+00 0. -1.
         -3    1    6    6    0  503  0.96221401507E+02 -0.52473352413E+02 -0.61705213847E+02  0.12577576967E+03  0.00000000000E+00 0.  1.
<mgrwt>
<rscale>  0 0.17605414E+04</rscale>
<asrwt>0</asrwt>
<pdfrwt beam="1">  1        1 0.84668073E-01 0.17605414E+04</pdfrwt>
<pdfrwt beam="2">  1       -2 0.21661378E+00 0.17605414E+04</pdfrwt>
<totfact> 0.33329503E+00</totfact>
</mgrwt>
</event>
<event>
12    5  0.5221187E-008  0.3239289E+04  0.7818608E-02  0.8178517E-01
          3   -1    0    0  501    0  0.00000000000E+00  0.00000000000E+00  0.11278651528E+04  0.11278651528E+04  0.00000000000E+00 0. -1.
         -4   -1    0    0    0  501 -0.00000000000E+00 -0.00000000000E+00 -0.23258532439E+04  0.23258532439E+04  0.00000000000E+00 0.  1.
        -24    2    1    2    0    0  0.68115862980E+03 -0.56417678384E+03  0.73038936336E+03  0.11497769884E+04  0.79031503864E+02 0.  0.
        254    2    1    2    0    0 -0.68115862980E+03  0.56417678384E+03 -0.19283774545E+04  0.23039414083E+04  0.89846195444E+03 0.  0.
         23    2    4    4    0    0 -0.25382025776E+02  0.44087790655E+03 -0.13249149895E+04  0.13996818012E+04  0.93230035261E+02 0.  0.
         23    2    4    4    0    0 -0.65577660402E+03  0.12329887729E+03 -0.60346246501E+03  0.90425960714E+03  0.90955609515E+02 0.  0.
          3    1    3    3  502    0  0.44185201295E+03 -0.37771575787E+03  0.43190484917E+03  0.72418519304E+03  0.00000000000E+00 0. -1.
         -4    1    3    3    0  502  0.23930661685E+03 -0.18646102598E+03  0.29848451419E+03  0.42559179537E+03  0.00000000000E+00 0.  1.
         13    1    5    5    0    0 -0.42199634809E+02  0.21693105848E+03 -0.54575701818E+03  0.58880439554E+03  0.00000000000E+00 0. -1.
        -13    1    5    5    0    0  0.16817609033E+02  0.22394684807E+03 -0.77915797128E+03  0.81087740562E+03  0.00000000000E+00 0.  1.
          1    1    6    6  503    0 -0.10506599347E+03 -0.13624925218E+02 -0.97140621394E+02  0.14373865832E+03  0.00000000000E+00 0. -1.
         -1    1    6    6    0  503 -0.55071061055E+03  0.13692380251E+03 -0.50632184361E+03  0.76052094882E+03  0.00000000000E+00 0.  1.
<mgrwt>
<rscale>  0 0.32392893E+04</rscale>
<asrwt>0</asrwt>
<pdfrwt beam="1">  1        3 0.17351772E+00 0.32392893E+04</pdfrwt>
<pdfrwt beam="2">  1       -4 0.35782357E+00 0.32392893E+04</pdfrwt>
<totfact> 0.54824099E-03</totfact>
</mgrwt>
</event>
<event>
12    5  0.5221187E-008  0.1768580E+04  0.7818608E-02  0.8723189E-01
          1   -1    0    0  501    0  0.00000000000E+00  0.00000000000E+00  0.96952573010E+03  0.96952573010E+03  0.00000000000E+00 0. -1.
         -2   -1    0    0    0  501 -0.00000000000E+00 -0.00000000000E+00 -0.80654807931E+03  0.80654807931E+03  0.00000000000E+00 0.  1.
        -24    2    1    2    0    0 -0.74290178321E+02  0.48215367774E+03 -0.36980770806E+03  0.61811883365E+03  0.85568405508E+02 0.  0.
        254    2    1    2    0    0  0.74290178321E+02 -0.48215367774E+03  0.53278535885E+03  0.11579549758E+04  0.90499076665E+03 0.  0.
         23    2    4    4    0    0  0.44505838873E+03 -0.15993443989E+03  0.89114154182E+02  0.48987207198E+03  0.91527700681E+02 0.  0.
         23    2    4    4    0    0 -0.37076821041E+03 -0.32221923785E+03  0.44367120467E+03  0.66808290377E+03  0.90533559353E+02 0.  0.
          1    1    3    3  502    0 -0.39270324569E+02  0.60527287502E+02 -0.57364725399E+02  0.92176041595E+02  0.00000000000E+00 0. -1.
         -2    1    3    3    0  502 -0.35019853753E+02  0.42162639024E+03 -0.31244298266E+03  0.52594279206E+03  0.00000000000E+00 0.  1.
         13    1    5    5    0    0  0.16847295349E+03 -0.10178004076E+03  0.59846034612E+02  0.20572763698E+03  0.00000000000E+00 0. -1.
        -13    1    5    5    0    0  0.27658543524E+03 -0.58154399126E+02  0.29268119570E+02  0.28414443501E+03  0.00000000000E+00 0.  1.
          3    1    6    6  503    0 -0.93218951600E+02 -0.56436704872E+02  0.14498972384E+03  0.18137501099E+03  0.00000000000E+00 0. -1.
         -3    1    6    6    0  503 -0.27754925881E+03 -0.26578253298E+03  0.29868148083E+03  0.48670789278E+03  0.00000000000E+00 0.  1.
<mgrwt>
<rscale>  0 0.17685804E+04</rscale>
<asrwt>0</asrwt>
<pdfrwt beam="1">  1        1 0.14915780E+00 0.17685804E+04</pdfrwt>
<pdfrwt beam="2">  1       -2 0.12408432E+00 0.17685804E+04</pdfrwt>
<totfact> 0.64769024E+00</totfact>
</mgrwt>
</event>
<event>
12    5  0.5221187E-008  0.1147744E+04  0.7818608E-02  0.9159867E-01
         -2   -1    0    0    0  501 -0.00000000000E+00  0.00000000000E+00  0.14276878795E+03  0.14276878795E+03  0.00000000000E+00 0.  1.
          1   -1    0    0  501    0  0.00000000000E+00 -0.00000000000E+00 -0.23067298221E+04  0.23067298221E+04  0.00000000000E+00 0. -1.
        -24    2    1    2    0    0  0.10883537272E+03  0.39785032585E+02 -0.78532669559E+03  0.79803609862E+03  0.81826699266E+02 0.  0.
        254    2    1    2    0    0 -0.10883537272E+03 -0.39785032585E+02 -0.13786343386E+04  0.16514625114E+04  0.90181361714E+03 0.  0.
         23    2    4    4    0    0 -0.22388269624E+03 -0.27854209553E+03 -0.13129496794E+04  0.13637004870E+04  0.90183129450E+02 0.  0.
         23    2    4    4    0    0  0.11504732352E+03  0.23875706295E+03 -0.65684659133E+02  0.28776202445E+03  0.90838794123E+02 0.  0.
          1    1    3    3  502    0  0.30860663329E+02  0.19918739821E+02 -0.78776965896E+02  0.86919198644E+02  0.00000000000E+00 0. -1.
         -2    1    3    3    0  502  0.77974709391E+02  0.19866292764E+02 -0.70654972970E+03  0.71111689997E+03  0.00000000000E+00 0.  1.
         13    1    5    5    0    0 -0.14853990729E+03 -0.20454329014E+03 -0.76552734548E+03  0.80618495289E+03  0.00000000000E+00 0. -1.
        -13    1    5    5    0    0 -0.75342788949E+02 -0.73998805390E+02 -0.54742233395E+03  0.55751553409E+03  0.00000000000E+00 0.  1.
          3    1    6    6  503    0  0.30823896275E+02  0.12819247798E+03 -0.68841425308E+02  0.14873656521E+03  0.00000000000E+00 0. -1.
         -3    1    6    6    0  503  0.84223427242E+02  0.11056458496E+03  0.31567661754E+01  0.13902545924E+03  0.00000000000E+00 0.  1.
<mgrwt>
<rscale>  0 0.11477439E+04</rscale>
<asrwt>0</asrwt>
<pdfrwt beam="1">  1        1 0.35488150E+00 0.11477439E+04</pdfrwt>
<pdfrwt beam="2">  1       -2 0.21964430E-01 0.11477439E+04</pdfrwt>
<totfact> 0.29231629E+01</totfact>
</mgrwt>
</event>
<event>
12    5  0.5221187E-008  0.3567501E+04  0.7818608E-02  0.8097977E-01
          1   -1    0    0  501    0  0.00000000000E+00  0.00000000000E+00  0.41742305486E+04  0.41742305486E+04  0.00000000000E+00 0. -1.
         -2   -1    0    0    0  501 -0.00000000000E+00 -0.00000000000E+00 -0.76224009024E+03  0.76224009024E+03  0.00000000000E+00 0.  1.
        -24    2    1    2    0    0  0.22296601444E+03  0.83806344159E+03 -0.37326285346E+03  0.94754762653E+03  0.80356524611E+02 0.  0.
        254    2    1    2    0    0 -0.22296601444E+03 -0.83806344159E+03  0.37852533118E+04  0.39889230123E+04  0.91175653980E+03 0.  0.
         23    2    4    4    0    0 -0.45776876047E+03 -0.87304897237E+03  0.27441686405E+04  0.29172223327E+04  0.89206866006E+02 0.  0.
         23    2    4    4    0    0  0.23480274603E+03  0.34985530781E+02  0.10410846713E+04  0.10717006796E+04  0.91261913425E+02 0.  0.
          3    1    3    3  502    0  0.28307768050E+02  0.50301154017E+02 -0.10375161401E+02  0.58644520643E+02  0.00000000000E+00 0. -1.
         -4    1    3    3    0  502  0.19465824639E+03  0.78776228757E+03 -0.36288769206E+03  0.88890310589E+03  0.00000000000E+00 0.  1.
         13    1    5    5    0    0 -0.82358045161E+02 -0.13758291438E+03  0.54675570833E+03  0.56978391564E+03  0.00000000000E+00 0.  1.
        -13    1    5    5    0    0 -0.37541071531E+03 -0.73546605799E+03  0.21974129322E+04  0.23474384171E+04  0.00000000000E+00 0. -1.
          1    1    6    6  503    0  0.19260165753E+03 -0.94366267113E+01  0.77015878522E+03  0.79393261859E+03  0.00000000000E+00 0. -1.
         -1    1    6    6    0  503  0.42201088505E+02  0.44422157493E+02  0.27092588608E+03  0.27776806097E+03  0.00000000000E+00 0.  1.
<mgrwt>
<rscale>  0 0.35675010E+04</rscale>
<asrwt>0</asrwt>
<pdfrwt beam="1">  1        1 0.64218931E+00 0.35675010E+04</pdfrwt>
<pdfrwt beam="2">  1       -2 0.11726771E+00 0.35675010E+04</pdfrwt>
<totfact> 0.26770409E-02</totfact>
</mgrwt>
</event>
<event>
12    5  0.5221187E-008  0.1969937E+04  0.7818608E-02  0.8620807E-01
          1   -1    0    0  501    0  0.00000000000E+00  0.00000000000E+00  0.16481452152E+04  0.16481452152E+04  0.00000000000E+00 0. -1.
         -2   -1    0    0    0  501 -0.00000000000E+00 -0.00000000000E+00 -0.58863906714E+03  0.58863906714E+03  0.00000000000E+00 0.  1.
        -24    2    1    2    0    0 -0.21371969419E+03  0.73296062023E+03  0.24465698188E+03  0.80509717608E+03  0.73600581950E+02 0.  0.
        254    2    1    2    0    0  0.21371969419E+03 -0.73296062023E+03  0.81484916620E+03  0.14316871063E+04  0.89601418971E+03 0.  0.
         23    2    4    4    0    0  0.46026440764E+03 -0.78208033402E+03  0.62228824906E+03  0.11045754561E+04  0.96702117682E+02 0.  0.
         23    2    4    4    0    0 -0.24654471346E+03  0.49119713793E+02  0.19256091714E+03  0.32711165016E+03  0.82007821834E+02 0.  0.
          1    1    3    3  502    0 -0.26682700989E+02  0.12614496473E+03  0.69118533450E+02  0.14629384924E+03  0.00000000000E+00 0. -1.
         -2    1    3    3    0  502 -0.18703699320E+03  0.60681565549E+03  0.17553844843E+03  0.65880332684E+03  0.00000000000E+00 0.  1.
         13    1    5    5    0    0  0.41863154116E+03 -0.64337943902E+03  0.53191444739E+03  0.93387496441E+03  0.00000000000E+00 0.  1.
        -13    1    5    5    0    0  0.41632866480E+02 -0.13870089500E+03  0.90373801676E+02  0.17070049173E+03  0.00000000000E+00 0. -1.
          3    1    6    6  503    0 -0.80401582756E+02 -0.28449364202E+01  0.22010791640E+02  0.83408531467E+02  0.00000000000E+00 0. -1.
         -3    1    6    6    0  503 -0.16614313070E+03  0.51964650213E+02  0.17055012550E+03  0.24370311869E+03  0.00000000000E+00 0.  1.
<mgrwt>
<rscale>  0 0.19699367E+04</rscale>
<asrwt>0</asrwt>
<pdfrwt beam="1">  1        1 0.25356080E+00 0.19699367E+04</pdfrwt>
<pdfrwt beam="2">  1       -2 0.90559857E-01 0.19699367E+04</pdfrwt>
<totfact> 0.43986016E+00</totfact>
</mgrwt>
</event>
<event>
12    5  0.5221187E-008  0.2495868E+04  0.7818608E-02  0.8404459E-01
          1   -1    0    0  501    0  0.00000000000E+00  0.00000000000E+00  0.11966491790E+04  0.11966491790E+04  0.00000000000E+00 0. -1.
         -2   -1    0    0    0  501 -0.00000000000E+00 -0.00000000000E+00 -0.13014167787E+04  0.13014167787E+04  0.00000000000E+00 0.  1.
        -24    2    1    2    0    0  0.81035254596E+03 -0.70720491797E+01  0.66758069004E+03  0.10529507543E+04  0.79498745639E+02 0.  0.
        254    2    1    2    0    0 -0.81035254596E+03  0.70720491797E+01 -0.77234828975E+03  0.14451152034E+04  0.91384616199E+03 0.  0.
         23    2    4    4    0    0 -0.80079912935E+03  0.56392326335E+02 -0.15971854337E+03  0.82354788109E+03  0.90894220489E+02 0.  0.
         23    2    4    4    0    0 -0.95534166106E+01 -0.49320277155E+02 -0.61262974638E+03  0.62156732231E+03  0.92233250523E+02 0.  0.
          1    1    3    3  502    0  0.71147818394E+03  0.17224371073E+02  0.56837705061E+03  0.91079655074E+03  0.00000000000E+00 0. -1.
         -2    1    3    3    0  502  0.98874362022E+02 -0.24296420252E+02  0.99203639430E+02  0.14215420352E+03  0.00000000000E+00 0.  1.
         13    1    5    5    0    0 -0.39173887472E+03 -0.87103711380E+01 -0.49682883836E+02  0.39497291739E+03  0.00000000000E+00 0. -1.
        -13    1    5    5    0    0 -0.40906025463E+03  0.65102697473E+02 -0.11003565953E+03  0.42857496370E+03  0.00000000000E+00 0.  1.
          1    1    6    6  503    0  0.22113172503E+02  0.18202237618E+02 -0.22625876231E+03  0.22806433604E+03  0.00000000000E+00 0. -1.
         -1    1    6    6    0  503 -0.31666589114E+02 -0.67522514773E+02 -0.38637098407E+03  0.39350298627E+03  0.00000000000E+00 0.  1.
<mgrwt>
<rscale>  0 0.24958680E+04</rscale>
<asrwt>0</asrwt>
<pdfrwt beam="1">  1        1 0.18409987E+00 0.24958680E+04</pdfrwt>
<pdfrwt beam="2">  1       -2 0.20021797E+00 0.24958680E+04</pdfrwt>
<totfact> 0.11108223E+00</totfact>
</mgrwt>
</event>
<event>
12    5  0.5221187E-008  0.1564796E+04  0.7818608E-02  0.8842472E-01
         -2   -1    0    0    0  501 -0.00000000000E+00  0.00000000000E+00  0.35623264148E+03  0.35623264148E+03  0.00000000000E+00 0.  1.
          1   -1    0    0  501    0  0.00000000000E+00 -0.00000000000E+00 -0.17183901804E+04  0.17183901804E+04  0.00000000000E+00 0. -1.
        -24    2    1    2    0    0 -0.28717960443E+03 -0.31591940560E+03 -0.83200030665E+03  0.93859119460E+03  0.80322626156E+02 0.  0.
        254    2    1    2    0    0  0.28717960443E+03  0.31591940560E+03 -0.53015723228E+03  0.11360316273E+04  0.90951853815E+03 0.  0.
         23    2    4    4    0    0  0.56379172892E+03  0.91964040928E+02 -0.50390642499E+03  0.76716501338E+03  0.91115169926E+02 0.  0.
         23    2    4    4    0    0 -0.27661212449E+03  0.22395536467E+03 -0.26250807299E+02  0.36886661391E+03  0.93290949150E+02 0.  0.
          3    1    3    3  502    0 -0.28644972448E+03 -0.31549476981E+03 -0.83392237530E+03  0.93649181655E+03  0.00000000000E+00 0. -1.
         -4    1    3    3    0  502 -0.72987995139E+00 -0.42463578651E+00  0.19220686504E+01  0.20993780488E+01  0.00000000000E+00 0.  1.
         13    1    5    5    0    0  0.66871090857E+02  0.41997289767E+02 -0.64681298360E+02  0.10207441157E+03  0.00000000000E+00 0. -1.
        -13    1    5    5    0    0  0.49692063807E+03  0.49966751160E+02 -0.43922512663E+03  0.66509060181E+03  0.00000000000E+00 0.  1.
          2    1    6    6  503    0  0.48278837134E+00  0.60862500763E+01 -0.15003486334E+02  0.16198151955E+02  0.00000000000E+00 0. -1.
         -2    1    6    6    0  503 -0.27709491287E+03  0.21786911460E+03 -0.11247320965E+02  0.35266846196E+03  0.00000000000E+00 0.  1.
<mgrwt>
<rscale>  0 0.15647961E+04</rscale>
<asrwt>0</asrwt>
<pdfrwt beam="1">  1        1 0.26436772E+00 0.15647961E+04</pdfrwt>
<pdfrwt beam="2">  1       -2 0.54805022E-01 0.15647961E+04</pdfrwt>
<totfact> 0.12249524E+01</totfact>
</mgrwt>
</event>
<event>
12    5  0.5221187E-008  0.1259862E+04  0.7818608E-02  0.9062015E-01
         -2   -1    0    0    0  501 -0.00000000000E+00  0.00000000000E+00  0.13741297565E+04  0.13741297565E+04  0.00000000000E+00 0.  1.
          1   -1    0    0  501    0  0.00000000000E+00 -0.00000000000E+00 -0.28877413514E+03  0.28877413514E+03  0.00000000000E+00 0. -1.
        -24    2    1    2    0    0 -0.25958447825E+03 -0.54052802538E+02  0.50298344187E+03  0.57391853082E+03  0.78002117978E+02 0.  0.
        254    2    1    2    0    0  0.25958447825E+03  0.54052802538E+02  0.58237217951E+03  0.10889853608E+04  0.88115035826E+03 0.  0.
         23    2    4    4    0    0  0.79327421751E+02 -0.17872885200E+03  0.71953934154E+03  0.75149235243E+03  0.93632523021E+02 0.  0.
         23    2    4    4    0    0  0.18025705650E+03  0.23278165454E+03 -0.13716716203E+03  0.33749300841E+03  0.91688577684E+02 0.  0.
          3    1    3    3  502    0 -0.29889538791E+02  0.13483657071E+02  0.99338082369E+02  0.10460998110E+03  0.00000000000E+00 0. -1.
         -4    1    3    3    0  502 -0.22969493946E+03 -0.67536459610E+02  0.40364535950E+03  0.46930854972E+03  0.00000000000E+00 0.  1.
         13    1    5    5    0    0 -0.12522166578E+02 -0.17478405664E+02  0.26971780783E+02  0.34493133794E+02  0.00000000000E+00 0. -1.
        -13    1    5    5    0    0  0.91849588329E+02 -0.16125044634E+03  0.69256756075E+03  0.71699921864E+03  0.00000000000E+00 0.  1.
          1    1    6    6  503    0  0.97121084756E+02  0.66675282533E+02 -0.24759177066E+02  0.12037904824E+03  0.00000000000E+00 0. -1.
         -1    1    6    6    0  503  0.83135971747E+02  0.16610637201E+03 -0.11240798496E+03  0.21711396018E+03  0.00000000000E+00 0.  1.
<mgrwt>
<rscale>  0 0.12598621E+04</rscale>
<asrwt>0</asrwt>
<pdfrwt beam="1">  1        1 0.44426791E-01 0.12598621E+04</pdfrwt>
<pdfrwt beam="2">  1       -2 0.21140457E+00 0.12598621E+04</pdfrwt>
<totfact> 0.88855235E+00</totfact>
</mgrwt>
</event>
<event>
12    5  0.5221187E-008  0.1308748E+04  0.7818608E-02  0.9022656E-01
         -4   -1    0    0    0  501 -0.00000000000E+00  0.00000000000E+00  0.10718842836E+04  0.10718842836E+04  0.00000000000E+00 0.  1.
          3   -1    0    0  501    0  0.00000000000E+00 -0.00000000000E+00 -0.39948867719E+03  0.39948867719E+03  0.00000000000E+00 0. -1.
        -24    2    1    2    0    0 -0.28668529971E+02  0.13643526929E+02  0.52655642119E+03  0.53343863621E+03  0.79291131079E+02 0.  0.
        254    2    1    2    0    0  0.28668529971E+02 -0.13643526929E+02  0.14583918518E+03  0.93793432454E+03  0.92598255857E+03 0.  0.
         23    2    4    4    0    0 -0.14284532717E+03 -0.22804892306E+03 -0.29531197610E+03  0.41020153736E+03  0.92978703092E+02 0.  0.
         23    2    4    4    0    0  0.17151385714E+03  0.21440539613E+03  0.44115116127E+03  0.52773278717E+03  0.92200165323E+02 0.  0.
          1    1    3    3  502    0 -0.15066411937E+02 -0.27168205607E+01  0.14977128051E+02  0.21417101748E+02  0.00000000000E+00 0. -1.
         -2    1    3    3    0  502 -0.13602118034E+02  0.16360347490E+02  0.51157929313E+03  0.51202153446E+03  0.00000000000E+00 0.  1.
         13    1    5    5    0    0 -0.52789916358E+02 -0.14481517791E+03 -0.11574338616E+03  0.19275565481E+03  0.00000000000E+00 0.  1.
        -13    1    5    5    0    0 -0.90055410811E+02 -0.83233745150E+02 -0.17956858994E+03  0.21744588256E+03  0.00000000000E+00 0. -1.
          1    1    6    6  503    0  0.26524733004E+02  0.20718121907E+02  0.12601702767E+03  0.13043424895E+03  0.00000000000E+00 0. -1.
         -1    1    6    6    0  503  0.14498912414E+03  0.19368727422E+03  0.31513413360E+03  0.39729853822E+03  0.00000000000E+00 0.  1.
<mgrwt>
<rscale>  0 0.13087485E+04</rscale>
<asrwt>0</asrwt>
<pdfrwt beam="1">  1        3 0.61459797E-01 0.13087485E+04</pdfrwt>
<pdfrwt beam="2">  1       -4 0.16490527E+00 0.13087485E+04</pdfrwt>
<totfact> 0.13309377E+00</totfact>
</mgrwt>
</event>
<event>
12    5  0.5221187E-008  0.1483506E+04  0.7818608E-02  0.8895496E-01
          1   -1    0    0  501    0  0.00000000000E+00  0.00000000000E+00  0.15019756444E+04  0.15019756444E+04  0.00000000000E+00 0. -1.
         -2   -1    0    0    0  501 -0.00000000000E+00 -0.00000000000E+00 -0.36631592508E+03  0.36631592508E+03  0.00000000000E+00 0.  1.
        -24    2    1    2    0    0 -0.11518440874E+03  0.40936967745E+02 -0.20303321169E+03  0.24857156108E+03  0.74980347980E+02 0.  0.
        254    2    1    2    0    0  0.11518440874E+03 -0.40936967745E+02  0.13386929310E+04  0.16197200084E+04  0.90357670330E+03 0.  0.
         23    2    4    4    0    0  0.46327040014E+03 -0.28218995462E+02  0.41814402715E+03  0.63102504818E+03  0.89064070419E+02 0.  0.
         23    2    4    4    0    0 -0.34808599140E+03 -0.12717972283E+02  0.92054890382E+03  0.98869496020E+03  0.93711449478E+02 0.  0.
          1    1    3    3  502    0 -0.15774705162E+02 -0.20997262130E+02 -0.35635383867E+02  0.44267447670E+02  0.00000000000E+00 0. -1.
         -2    1    3    3    0  502 -0.99409703578E+02  0.61934229876E+02 -0.16739782782E+03  0.20430411341E+03  0.00000000000E+00 0.  1.
         13    1    5    5    0    0  0.29838320136E+03 -0.46292552018E+02  0.22584498421E+03  0.37706961177E+03  0.00000000000E+00 0.  1.
        -13    1    5    5    0    0  0.16488719878E+03  0.18073556556E+02  0.19229904294E+03  0.25395543641E+03  0.00000000000E+00 0. -1.
          1    1    6    6  503    0 -0.37430707452E+02 -0.14859293148E+02  0.48955755198E+02  0.63391816666E+02  0.00000000000E+00 0. -1.
         -1    1    6    6    0  503 -0.31065528394E+03  0.21413208651E+01  0.87159314862E+03  0.92530314353E+03  0.00000000000E+00 0.  1.
<mgrwt>
<rscale>  0 0.14835061E+04</rscale>
<asrwt>0</asrwt>
<pdfrwt beam="1">  1        1 0.23107317E+00 0.14835061E+04</pdfrwt>
<pdfrwt beam="2">  1       -2 0.56356297E-01 0.14835061E+04</pdfrwt>
<totfact> 0.16377235E+01</totfact>
</mgrwt>
</event>
<event>
12    5  0.6556798E-008  0.1525799E+04  0.7818608E-02  0.8867476E-01
          1   -1    0    0  501    0  0.00000000000E+00  0.00000000000E+00  0.20342923682E+04  0.20342923682E+04  0.00000000000E+00 0. -1.
         -2   -1    0    0    0  501 -0.00000000000E+00 -0.00000000000E+00 -0.28610225715E+03  0.28610225715E+03  0.00000000000E+00 0.  1.
        -24    2    1    2    0    0 -0.23917927416E+02 -0.62796923857E+02 -0.17099422547E+03  0.20090699969E+03  0.81296226734E+02 0.  0.
        254    2    1    2    0    0  0.23917927416E+02  0.62796923857E+02  0.19191843365E+04  0.21194876256E+04  0.89690788651E+03 0.  0.
         23    2    4    4    0    0 -0.13484598359E+03  0.34575687674E+03  0.16347492850E+04  0.16787937464E+04  0.90619870366E+02 0.  0.
         23    2    4    4    0    0  0.15876391101E+03 -0.28295995288E+03  0.28443505147E+03  0.44069387925E+03  0.89640851932E+02 0.  0.
          3    1    3    3  502    0 -0.10939666759E+02  0.10750714523E+02 -0.11656313033E+01  0.15382225713E+02  0.00000000000E+00 0. -1.
         -4    1    3    3    0  502 -0.12978260657E+02 -0.73547638381E+02 -0.16982859417E+03  0.18552477398E+03  0.00000000000E+00 0.  1.
         13    1    5    5    0    0 -0.97232452441E+02  0.32423258669E+03  0.14654040374E+04  0.15039913274E+04  0.00000000000E+00 0. -1.
        -13    1    5    5    0    0 -0.37613531153E+02  0.21524290045E+02  0.16934524765E+03  0.17480241900E+03  0.00000000000E+00 0.  1.
          2    1    6    6  503    0  0.13247661933E+03 -0.28048482006E+03  0.26312777699E+03  0.40676530822E+03  0.00000000000E+00 0. -1.
         -2    1    6    6    0  503  0.26287291684E+02 -0.24751328248E+01  0.21307274482E+02  0.33928571034E+02  0.00000000000E+00 0.  1.
<mgrwt>
<rscale>  0 0.15257990E+04</rscale>
<asrwt>0</asrwt>
<pdfrwt beam="1">  1        1 0.31296805E+00 0.15257990E+04</pdfrwt>
<pdfrwt beam="2">  1       -2 0.44015733E-01 0.15257990E+04</pdfrwt>
<totfact> 0.11724200E+01</totfact>
</mgrwt>
</event>
<event>
12    5  0.5221187E-008  0.1754232E+04  0.7818608E-02  0.8731024E-01
          1   -1    0    0  501    0  0.00000000000E+00  0.00000000000E+00  0.45351601456E+03  0.45351601456E+03  0.00000000000E+00 0. -1.
         -2   -1    0    0    0  501 -0.00000000000E+00 -0.00000000000E+00 -0.16963727981E+04  0.16963727981E+04  0.00000000000E+00 0.  1.
        -24    2    1    2    0    0 -0.27210479579E+03  0.40062696971E+02  0.25420702500E+03  0.38273054329E+03  0.78837920010E+02 0.  0.
        254    2    1    2    0    0  0.27210479579E+03 -0.40062696971E+02 -0.14970638086E+04  0.17671582694E+04  0.89777628763E+03 0.  0.
         23    2    4    4    0    0  0.57343275078E+03  0.10322169215E+03 -0.10288295719E+04  0.11861471881E+04  0.94736615941E+02 0.  0.
         23    2    4    4    0    0 -0.30132795499E+03 -0.14328438912E+03 -0.46823423664E+03  0.58101108130E+03  0.83675704989E+02 0.  0.
          3    1    3    3  502    0 -0.22902449005E+03  0.50179542381E+02  0.17710020542E+03  0.29382764723E+03  0.00000000000E+00 0. -1.
         -4    1    3    3    0  502 -0.43080305741E+02 -0.10116845410E+02  0.77106819573E+02  0.88902896063E+02  0.00000000000E+00 0.  1.
         13    1    5    5    0    0  0.91969279632E+01  0.16791341584E+02 -0.41082562712E+02  0.45324492221E+02  0.00000000000E+00 0.  1.
        -13    1    5    5    0    0  0.56423582281E+03  0.86430350568E+02 -0.98774700922E+03  0.11408226959E+04  0.00000000000E+00 0. -1.
          3    1    6    6  503    0 -0.23514275743E+03 -0.81901759910E+02 -0.38323822231E+03  0.45702467076E+03  0.00000000000E+00 0. -1.
         -3    1    6    6    0  503 -0.66185197560E+02 -0.61382629213E+02 -0.84996014329E+02  0.12398641053E+03  0.00000000000E+00 0.  1.
<mgrwt>
<rscale>  0 0.17542317E+04</rscale>
<asrwt>0</asrwt>
<pdfrwt beam="1">  1        1 0.69771693E-01 0.17542317E+04</pdfrwt>
<pdfrwt beam="2">  1       -2 0.26098044E+00 0.17542317E+04</pdfrwt>
<totfact> 0.23111272E+00</totfact>
</mgrwt>
</event>
<event>
12    5  0.5221187E-008  0.1693631E+04  0.7818608E-02  0.8765005E-01
         -2   -1    0    0    0  501 -0.00000000000E+00  0.00000000000E+00  0.80008910938E+03  0.80008910938E+03  0.00000000000E+00 0.  1.
          1   -1    0    0  501    0  0.00000000000E+00 -0.00000000000E+00 -0.89627026003E+03  0.89627026003E+03  0.00000000000E+00 0. -1.
        -24    2    1    2    0    0 -0.20030684120E+03  0.39820559747E+03  0.37474530598E+03  0.58745664910E+03  0.77335255411E+02 0.  0.
        254    2    1    2    0    0  0.20030684120E+03 -0.39820559747E+03 -0.47092645663E+03  0.11089027203E+04  0.89955710606E+03 0.  0.
         23    2    4    4    0    0 -0.30373196959E+03 -0.31429902265E+03 -0.37180924223E+03  0.58043201252E+03  0.87305346705E+02 0.  0.
         23    2    4    4    0    0  0.50403881079E+03 -0.83906574823E+02 -0.99117214401E+02  0.52847070778E+03  0.91441952685E+02 0.  0.
          3    1    3    3  502    0 -0.59437583903E+02  0.20399827652E+03  0.17766850871E+03  0.27697332397E+03  0.00000000000E+00 0. -1.
         -4    1    3    3    0  502 -0.14086925730E+03  0.19420732095E+03  0.19707679727E+03  0.31048332513E+03  0.00000000000E+00 0.  1.
         13    1    5    5    0    0 -0.17034254060E+03 -0.22945980696E+03 -0.26426187838E+03  0.38923350898E+03  0.00000000000E+00 0.  1.
        -13    1    5    5    0    0 -0.13338942899E+03 -0.84839215685E+02 -0.10754736385E+03  0.19119850354E+03  0.00000000000E+00 0. -1.
          3    1    6    6  503    0  0.46666408282E+03 -0.97574577467E+02 -0.10516841316E+03  0.48821773778E+03  0.00000000000E+00 0. -1.
         -3    1    6    6    0  503  0.37374727978E+02  0.13668002644E+02  0.60511987567E+01  0.40252970003E+02  0.00000000000E+00 0.  1.
<mgrwt>
<rscale>  0 0.16936305E+04</rscale>
<asrwt>0</asrwt>
<pdfrwt beam="1">  1        1 0.13788773E+00 0.16936305E+04</pdfrwt>
<pdfrwt beam="2">  1       -2 0.12309063E+00 0.16936305E+04</pdfrwt>
<totfact> 0.76190207E+00</totfact>
</mgrwt>
</event>
<event>
12    5  0.5221187E-008  0.1880341E+04  0.7818608E-02  0.8664704E-01
         -2   -1    0    0    0  501 -0.00000000000E+00  0.00000000000E+00  0.76882270537E+03  0.76882270537E+03  0.00000000000E+00 0.  1.
          1   -1    0    0  501    0  0.00000000000E+00 -0.00000000000E+00 -0.11497065796E+04  0.11497065796E+04  0.00000000000E+00 0. -1.
        -24    2    1    2    0    0  0.46004882396E+03 -0.55812752310E+03 -0.95553707993E+02  0.73408788225E+03  0.81260416475E+02 0.  0.
        254    2    1    2    0    0 -0.46004882396E+03  0.55812752310E+03 -0.28533016621E+03  0.11844414027E+04  0.89349699506E+03 0.  0.
         23    2    4    4    0    0 -0.59841376060E+03  0.25176425762E+03  0.10217669216E+03  0.66348895983E+03  0.91067299825E+02 0.  0.
         23    2    4    4    0    0  0.13836493664E+03  0.30636326548E+03 -0.38750685837E+03  0.52095244286E+03  0.90700475846E+02 0.  0.
          3    1    3    3  502    0  0.14007378286E+03 -0.22684464949E+03 -0.50087327681E+02  0.27127089789E+03  0.00000000000E+00 0. -1.
         -4    1    3    3    0  502  0.31997504110E+03 -0.33128287361E+03 -0.45466380311E+02  0.46281698436E+03  0.00000000000E+00 0.  1.
         13    1    5    5    0    0 -0.48344418600E+03  0.23020661066E+03  0.10852603096E+03  0.54634354025E+03  0.00000000000E+00 0.  1.
        -13    1    5    5    0    0 -0.11496957460E+03  0.21557646961E+02 -0.63493387948E+01  0.11714541958E+03  0.00000000000E+00 0. -1.
          2    1    6    6  503    0  0.27581170343E+01 -0.49340497350E+01 -0.19170394928E+02  0.19986397826E+02  0.00000000000E+00 0. -1.
         -2    1    6    6    0  503  0.13560681960E+03  0.31129731521E+03 -0.36833646344E+03  0.50096604504E+03  0.00000000000E+00 0.  1.
<mgrwt>
<rscale>  0 0.18803410E+04</rscale>
<asrwt>0</asrwt>
<pdfrwt beam="1">  1        1 0.17687794E+00 0.18803410E+04</pdfrwt>
<pdfrwt beam="2">  1       -2 0.11828042E+00 0.18803410E+04</pdfrwt>
<totfact> 0.52648868E+00</totfact>
</mgrwt>
</event>
<event>
12    5  0.5221187E-008  0.1812610E+04  0.7818608E-02  0.8699622E-01
          1   -1    0    0  501    0  0.00000000000E+00  0.00000000000E+00  0.22175924786E+04  0.22175924786E+04  0.00000000000E+00 0. -1.
         -2   -1    0    0    0  501 -0.00000000000E+00 -0.00000000000E+00 -0.37039662907E+03  0.37039662907E+03  0.00000000000E+00 0.  1.
        -24    2    1    2    0    0 -0.50055739054E+03  0.16183785903E+03  0.13220127185E+04  0.14249253093E+04  0.77105871176E+02 0.  0.
        254    2    1    2    0    0  0.50055739054E+03 -0.16183785903E+03  0.52518313096E+03  0.11630637983E+04  0.89451153376E+03 0.  0.
         23    2    4    4    0    0 -0.35266917195E+02  0.22416076565E+03  0.42106977518E+03  0.48710394268E+03  0.92079808348E+02 0.  0.
         23    2    4    4    0    0  0.53582430774E+03 -0.38599862467E+03  0.10411335578E+03  0.67595985562E+03  0.99897490194E+02 0.  0.
          3    1    3    3  502    0 -0.39187759478E+03  0.95769220808E+02  0.96467923760E+03  0.10456317824E+04  0.00000000000E+00 0. -1.
         -4    1    3    3    0  502 -0.10867979576E+03  0.66068638221E+02  0.35733348095E+03  0.37929352693E+03  0.00000000000E+00 0.  1.
         13    1    5    5    0    0 -0.12731744624E+02  0.12173069557E+03  0.31497635965E+03  0.33792094742E+03  0.00000000000E+00 0. -1.
        -13    1    5    5    0    0 -0.22535172571E+02  0.10243007007E+03  0.10609341553E+03  0.14918299526E+03  0.00000000000E+00 0.  1.
          2    1    6    6  503    0  0.23396989938E+02 -0.44661386215E+02 -0.49813410987E+01  0.50664310081E+02  0.00000000000E+00 0. -1.
         -2    1    6    6    0  503  0.51242731780E+03 -0.34133723846E+03  0.10909469688E+03  0.62529554554E+03  0.00000000000E+00 0.  1.
<mgrwt>
<rscale>  0 0.18126100E+04</rscale>
<asrwt>0</asrwt>
<pdfrwt beam="1">  1        1 0.34116807E+00 0.18126100E+04</pdfrwt>
<pdfrwt beam="2">  1       -2 0.56984098E-01 0.18126100E+04</pdfrwt>
<totfact> 0.50665183E+00</totfact>
</mgrwt>
</event>
<event>
12    5  0.5221187E-008  0.1265946E+04  0.7818608E-02  0.9057015E-01
          1   -1    0    0  501    0  0.00000000000E+00  0.00000000000E+00  0.43290595002E+03  0.43290595002E+03  0.00000000000E+00 0. -1.
         -2   -1    0    0    0  501 -0.00000000000E+00 -0.00000000000E+00 -0.92550147044E+03  0.92550147044E+03  0.00000000000E+00 0.  1.
        -24    2    1    2    0    0  0.13955703659E+03 -0.27311004356E+02 -0.41731634953E+03  0.44830532204E+03  0.81256807503E+02 0.  0.
        254    2    1    2    0    0 -0.13955703659E+03  0.27311004356E+02 -0.75279170883E+02  0.91010209842E+03  0.89576605124E+03 0.  0.
         23    2    4    4    0    0 -0.16283829400E+03 -0.33516554551E+03 -0.28788245041E+03  0.47952038299E+03  0.90615890196E+02 0.  0.
         23    2    4    4    0    0  0.23281257410E+02  0.36247654986E+03  0.21260327953E+03  0.43058171543E+03  0.90935103532E+02 0.  0.
          3    1    3    3  502    0  0.60303037065E+02 -0.12925621097E+02 -0.77350295869E+02  0.98927226945E+02  0.00000000000E+00 0. -1.
         -4    1    3    3    0  502  0.79253999529E+02 -0.14385383259E+02 -0.33996605366E+03  0.34937809510E+03  0.00000000000E+00 0.  1.
         13    1    5    5    0    0 -0.10956708791E+03 -0.26797417685E+03 -0.17691757490E+03  0.33928591854E+03  0.00000000000E+00 0. -1.
        -13    1    5    5    0    0 -0.53271206097E+02 -0.67191368651E+02 -0.11096487551E+03  0.14023446444E+03  0.00000000000E+00 0.  1.
          1    1    6    6  503    0 -0.34984140085E+02  0.15218852167E+03  0.92646344467E+02  0.18157252360E+03  0.00000000000E+00 0. -1.
         -1    1    6    6    0  503  0.58265397494E+02  0.21028802819E+03  0.11995693506E+03  0.24900919183E+03  0.00000000000E+00 0.  1.
<mgrwt>
<rscale>  0 0.12659464E+04</rscale>
<asrwt>0</asrwt>
<pdfrwt beam="1">  1        1 0.66600916E-01 0.12659464E+04</pdfrwt>
<pdfrwt beam="2">  1       -2 0.14238484E+00 0.12659464E+04</pdfrwt>
<totfact> 0.15951412E+01</totfact>
</mgrwt>
</event>
<event>
12    5  0.5377447E-008  0.1775798E+04  0.7818608E-02  0.8719277E-01
         -4   -1    0    0    0  501 -0.00000000000E+00  0.00000000000E+00  0.54635696838E+03  0.54635696838E+03  0.00000000000E+00 0.  1.
          3   -1    0    0  501    0  0.00000000000E+00 -0.00000000000E+00 -0.14429473981E+04  0.14429473981E+04  0.00000000000E+00 0. -1.
        -24    2    1    2    0    0 -0.58521457237E+03 -0.19977728758E+03 -0.59327441507E+02  0.62625712478E+03  0.79316963417E+02 0.  0.
        254    2    1    2    0    0  0.58521457237E+03  0.19977728758E+03 -0.83726298820E+03  0.13630472417E+04  0.88005761819E+03 0.  0.
         23    2    4    4    0    0 -0.81557384224E+02  0.35155734794E+03 -0.39631225985E+03  0.54422103714E+03  0.94175124847E+02 0.  0.
         23    2    4    4    0    0  0.66677195659E+03 -0.15178006037E+03 -0.44095072834E+03  0.81882620455E+03  0.91743008515E+02 0.  0.
          3    1    3    3  502    0 -0.54528680335E+01 -0.13358403455E+02 -0.68756211616E+00  0.14444841790E+02  0.00000000000E+00 0. -1.
         -4    1    3    3    0  502 -0.57976170433E+03 -0.18641888412E+03 -0.58639879391E+02  0.61181228299E+03  0.00000000000E+00 0.  1.
         13    1    5    5    0    0 -0.74489282296E+02  0.34610599552E+03 -0.35281152212E+03  0.49981394884E+03  0.00000000000E+00 0.  1.
        -13    1    5    5    0    0 -0.70681019284E+01  0.54513524234E+01 -0.43500737731E+02  0.44407088300E+02  0.00000000000E+00 0. -1.
          4    1    6    6  503    0  0.66795544510E+03 -0.15076227895E+03 -0.43177901663E+03  0.80952261278E+03  0.00000000000E+00 0.  1.
         -4    1    6    6    0  503 -0.11834885122E+01 -0.10177814147E+01 -0.91717117187E+01  0.93035917751E+01  0.00000000000E+00 0. -1.
<mgrwt>
<rscale>  0 0.17757977E+04</rscale>
<asrwt>0</asrwt>
<pdfrwt beam="1">  1        3 0.22199190E+00 0.17757977E+04</pdfrwt>
<pdfrwt beam="2">  1       -4 0.84054919E-01 0.17757977E+04</pdfrwt>
<totfact> 0.28995576E-01</totfact>
</mgrwt>
</event>
<event>
12    5  0.5221187E-008  0.1326445E+04  0.7818608E-02  0.9008853E-01
          1   -1    0    0  501    0  0.00000000000E+00  0.00000000000E+00  0.94632890408E+03  0.94632890408E+03  0.00000000000E+00 0. -1.
         -2   -1    0    0    0  501 -0.00000000000E+00 -0.00000000000E+00 -0.46481115149E+03  0.46481115149E+03  0.00000000000E+00 0.  1.
        -24    2    1    2    0    0 -0.95653692208E+02  0.29790128530E+03 -0.37486085382E+02  0.32469483389E+03  0.78273392303E+02 0.  0.
        254    2    1    2    0    0  0.95653692208E+02 -0.29790128530E+03  0.51900383797E+03  0.10864452217E+04  0.90172248017E+03 0.  0.
         23    2    4    4    0    0  0.48948119694E+03 -0.11395516944E+03  0.29172745617E+03  0.58807343236E+03  0.90265333174E+02 0.  0.
         23    2    4    4    0    0 -0.39382750473E+03 -0.18394611586E+03  0.22727638181E+03  0.49837178931E+03  0.88224767690E+02 0.  0.
          3    1    3    3  502    0 -0.12564159388E+01 -0.34906537801E+01  0.47794555305E+01  0.60503256104E+01  0.00000000000E+00 0. -1.
         -2    1    3    3    0  502 -0.94397276269E+02  0.30139193908E+03 -0.42265540913E+02  0.31864450828E+03  0.00000000000E+00 0.  1.
         13    1    5    5    0    0  0.16617990161E+03 -0.81586845378E+02  0.92642193580E+02  0.20701388618E+03  0.00000000000E+00 0. -1.
        -13    1    5    5    0    0  0.32330129532E+03 -0.32368324065E+02  0.19908526259E+03  0.38105954618E+03  0.00000000000E+00 0.  1.
          1    1    6    6  503    0 -0.18422350127E+03 -0.48430209788E+02  0.12936092189E+03  0.23025644780E+03  0.00000000000E+00 0. -1.
         -1    1    6    6    0  503 -0.20960400346E+03 -0.13551590607E+03  0.97915459916E+02  0.26811534151E+03  0.00000000000E+00 0.  1.
<mgrwt>
<rscale>  0 0.13264452E+04</rscale>
<asrwt>0</asrwt>
<pdfrwt beam="1">  1        1 0.14558906E+00 0.13264452E+04</pdfrwt>
<pdfrwt beam="2">  1       -2 0.71509408E-01 0.13264452E+04</pdfrwt>
<totfact> 0.25447553E+01</totfact>
</mgrwt>
</event>
<event>
12    5  0.5221187E-008  0.1570779E+04  0.7818608E-02  0.8838704E-01
          1   -1    0    0  501    0  0.00000000000E+00  0.00000000000E+00  0.92877057654E+03  0.92877057654E+03  0.00000000000E+00 0. -1.
         -2   -1    0    0    0  501 -0.00000000000E+00 -0.00000000000E+00 -0.66414296222E+03  0.66414296222E+03  0.00000000000E+00 0.  1.
        -24    2    1    2    0    0 -0.11550933690E+03 -0.31469938737E+03 -0.30118030457E+03  0.45776221037E+03  0.80365129595E+02 0.  0.
        254    2    1    2    0    0  0.11550933690E+03  0.31469938737E+03  0.56580791889E+03  0.11351513284E+04  0.92523068795E+03 0.  0.
         23    2    4    4    0    0  0.26827075528E+03  0.23518069759E+03 -0.14657620705E+03  0.39629941789E+03  0.91046611625E+02 0.  0.
         23    2    4    4    0    0 -0.15276141838E+03  0.79518689782E+02  0.71238412594E+03  0.73885191049E+03  0.93550680284E+02 0.  0.
          3    1    3    3  502    0 -0.40311736821E+02 -0.20666552742E+03 -0.15782922318E+03  0.26314585317E+03  0.00000000000E+00 0. -1.
         -4    1    3    3    0  502 -0.75197600082E+02 -0.10803385995E+03 -0.14335108139E+03  0.19461635720E+03  0.00000000000E+00 0.  1.
         13    1    5    5    0    0  0.22426518284E+03  0.23273260495E+03 -0.11957349649E+03  0.34461160559E+03  0.00000000000E+00 0. -1.
        -13    1    5    5    0    0  0.44005572444E+02  0.24480926422E+01 -0.27002710553E+02  0.51687812305E+02  0.00000000000E+00 0.  1.
          1    1    6    6  503    0 -0.12836231769E+03  0.25262644710E+02  0.39989829365E+03  0.42075376538E+03  0.00000000000E+00 0. -1.
         -1    1    6    6    0  503 -0.24399100689E+02  0.54256045072E+02  0.31248583229E+03  0.31809814511E+03  0.00000000000E+00 0.  1.
<mgrwt>
<rscale>  0 0.15707787E+04</rscale>
<asrwt>0</asrwt>
<pdfrwt beam="1">  1        1 0.14288778E+00 0.15707787E+04</pdfrwt>
<pdfrwt beam="2">  1       -2 0.10217584E+00 0.15707787E+04</pdfrwt>
<totfact> 0.11404341E+01</totfact>
</mgrwt>
</event>
<event>
12    5  0.5221187E-008  0.1396613E+04  0.7818608E-02  0.8956274E-01
          1   -1    0    0  501    0  0.00000000000E+00  0.00000000000E+00  0.48652024332E+03  0.48652024332E+03  0.00000000000E+00 0. -1.
         -2   -1    0    0    0  501 -0.00000000000E+00 -0.00000000000E+00 -0.10022850068E+04  0.10022850068E+04  0.00000000000E+00 0.  1.
        -24    2    1    2    0    0 -0.31264068443E+03 -0.20986753770E+03  0.97651257089E+01  0.38489426138E+03  0.79117974090E+02 0.  0.
        254    2    1    2    0    0  0.31264068443E+03  0.20986753770E+03 -0.52552988915E+03  0.11039109887E+04  0.89479004557E+03 0.  0.
         23    2    4    4    0    0 -0.55726480411E+02  0.94436909819E+02 -0.66742059999E+03  0.68263272271E+03  0.92268121591E+02 0.  0.
         23    2    4    4    0    0  0.36836716484E+03  0.11543062788E+03  0.14189071084E+03  0.42127826599E+03  0.91234892393E+02 0.  0.
          1    1    3    3  502    0 -0.16744027367E+03 -0.83461504298E+02 -0.26617849943E+02  0.18897242625E+03  0.00000000000E+00 0. -1.
         -2    1    3    3    0  502 -0.14520041076E+03 -0.12640603340E+03  0.36382975652E+02  0.19592183513E+03  0.00000000000E+00 0.  1.
         13    1    5    5    0    0  0.17908555290E+02  0.47768342309E+02 -0.33995161523E+03  0.34375810038E+03  0.00000000000E+00 0. -1.
        -13    1    5    5    0    0 -0.73635035701E+02  0.46668567511E+02 -0.32746898476E+03  0.33887462232E+03  0.00000000000E+00 0.  1.
          3    1    6    6  503    0  0.93643404459E+02 -0.65340273175E+01  0.15218234298E+02  0.95096663279E+02  0.00000000000E+00 0. -1.
         -3    1    6    6    0  503  0.27472376038E+03  0.12196465520E+03  0.12667247655E+03  0.32618160272E+03  0.00000000000E+00 0.  1.
<mgrwt>
<rscale>  0 0.13966130E+04</rscale>
<asrwt>0</asrwt>
<pdfrwt beam="1">  1        1 0.74849269E-01 0.13966130E+04</pdfrwt>
<pdfrwt beam="2">  1       -2 0.15419769E+00 0.13966130E+04</pdfrwt>
<totfact> 0.10916788E+01</totfact>
</mgrwt>
</event>
<event>
12    5  0.5221187E-008  0.1423228E+04  0.7818608E-02  0.8937174E-01
         -4   -1    0    0    0  501 -0.00000000000E+00  0.00000000000E+00  0.17605604924E+04  0.17605604924E+04  0.00000000000E+00 0.  1.
          3   -1    0    0  501    0  0.00000000000E+00 -0.00000000000E+00 -0.28763256092E+03  0.28763256092E+03  0.00000000000E+00 0. -1.
        -24    2    1    2    0    0  0.40560821932E+02 -0.56125968941E+01  0.10442852422E+04  0.10486738152E+04  0.86651151306E+02 0.  0.
        254    2    1    2    0    0 -0.40560821932E+02  0.56125968941E+01  0.42864268923E+03  0.99951923810E+03  0.90201301031E+03 0.  0.
         23    2    4    4    0    0 -0.13935578894E+03  0.15276301275E+03  0.65670607157E+03  0.69613171565E+03  0.10285877268E+03 0.  0.
         23    2    4    4    0    0  0.98794967005E+02 -0.14715041586E+03 -0.22806338234E+03  0.30338752245E+03  0.92829909079E+02 0.  0.
          3    1    3    3  502    0 -0.15214783943E+02  0.20118846196E+01  0.40485768661E+02  0.43297052951E+02  0.00000000000E+00 0. -1.
         -4    1    3    3    0  502  0.55775605875E+02 -0.76244815136E+01  0.10037994736E+04  0.10053767623E+04  0.00000000000E+00 0.  1.
         13    1    5    5    0    0 -0.84110498127E+01  0.72263321593E+02  0.15154696259E+03  0.16810477470E+03  0.00000000000E+00 0. -1.
        -13    1    5    5    0    0 -0.13094473912E+03  0.80499691157E+02  0.50515910898E+03  0.52802694095E+03  0.00000000000E+00 0.  1.
          4    1    6    6  503    0 -0.28626098499E+01 -0.18872250523E+01 -0.56717230628E+02  0.56820774403E+02  0.00000000000E+00 0. -1.
         -4    1    6    6    0  503  0.10165757685E+03 -0.14526319080E+03 -0.17134615171E+03  0.24656674804E+03  0.00000000000E+00 0.  1.
<mgrwt>
<rscale>  0 0.14232281E+04</rscale>
<asrwt>0</asrwt>
<pdfrwt beam="1">  1        3 0.44251164E-01 0.14232281E+04</pdfrwt>
<pdfrwt beam="2">  1       -4 0.27085545E+00 0.14232281E+04</pdfrwt>
<totfact> 0.53169232E-01</totfact>
</mgrwt>
</event>
<event>
12    5  0.5221187E-008  0.3015248E+04  0.7818608E-02  0.8239390E-01
         -2   -1    0    0    0  501 -0.00000000000E+00  0.00000000000E+00  0.12288442201E+04  0.12288442201E+04  0.00000000000E+00 0.  1.
          1   -1    0    0  501    0  0.00000000000E+00 -0.00000000000E+00 -0.18496488333E+04  0.18496488333E+04  0.00000000000E+00 0. -1.
        -24    2    1    2    0    0  0.25345721400E+03 -0.43841478142E+03 -0.15841250472E+04  0.16651154658E+04  0.81910129397E+02 0.  0.
        254    2    1    2    0    0 -0.25345721400E+03  0.43841478142E+03  0.96332043399E+03  0.14133775877E+04  0.90177706056E+03 0.  0.
         23    2    4    4    0    0  0.96090763952E+02  0.32307417851E+03  0.97432261418E+03  0.10349308794E+04  0.90371505446E+02 0.  0.
         23    2    4    4    0    0 -0.34954797795E+03  0.11534060291E+03 -0.11002180192E+02  0.37844670824E+03  0.87256056761E+02 0.  0.
          3    1    3    3  502    0  0.24175124770E+03 -0.36242384040E+03 -0.13703594709E+04  0.14379429006E+04  0.00000000000E+00 0. -1.
         -2    1    3    3    0  502  0.11705966300E+02 -0.75990941020E+02 -0.21376557628E+03  0.22717256517E+03  0.00000000000E+00 0.  1.
         13    1    5    5    0    0 -0.49328407288E+00  0.14736290263E+03  0.37270926332E+03  0.40078455979E+03  0.00000000000E+00 0.  1.
        -13    1    5    5    0    0  0.96584048025E+02  0.17571127588E+03  0.60161335086E+03  0.63414631966E+03  0.00000000000E+00 0. -1.
          4    1    6    6  503    0 -0.24772845628E+03  0.12203513283E+03 -0.11731119208E+02  0.27640474101E+03  0.00000000000E+00 0. -1.
         -4    1    6    6    0  503 -0.10181952167E+03 -0.66945299237E+01  0.72893901585E+00  0.10204196723E+03  0.00000000000E+00 0.  1.
<mgrwt>
<rscale>  0 0.30152481E+04</rscale>
<asrwt>0</asrwt>
<pdfrwt beam="1">  1        1 0.28456136E+00 0.30152481E+04</pdfrwt>
<pdfrwt beam="2">  1       -2 0.18905296E+00 0.30152481E+04</pdfrwt>
<totfact> 0.44293667E-01</totfact>
</mgrwt>
</event>
<event>
12    5  0.5221187E-008  0.1241680E+04  0.7818608E-02  0.9077136E-01
         -2   -1    0    0    0  501 -0.00000000000E+00  0.00000000000E+00  0.14528818343E+04  0.14528818343E+04  0.00000000000E+00 0.  1.
          1   -1    0    0  501    0  0.00000000000E+00 -0.00000000000E+00 -0.26529515690E+03  0.26529515690E+03  0.00000000000E+00 0. -1.
        -24    2    1    2    0    0 -0.24462208304E+02 -0.85231089182E+02 -0.94080168487E+02  0.15213068476E+03  0.80186837731E+02 0.  0.
        254    2    1    2    0    0  0.24462208304E+02  0.85231089182E+02  0.12816668459E+04  0.15660463064E+04  0.89552687946E+03 0.  0.
         23    2    4    4    0    0 -0.13545438197E+03 -0.60132140062E+02 -0.74184880153E+02  0.18965589061E+03  0.92207356196E+02 0.  0.
         23    2    4    4    0    0  0.15991659027E+03  0.14536322924E+03  0.13558517260E+04  0.13763904158E+04  0.97020046952E+02 0.  0.
          3    1    3    3  502    0 -0.33874565784E+02 -0.28053671505E+02 -0.81832616328E+02  0.92903561757E+02  0.00000000000E+00 0. -1.
         -4    1    3    3    0  502  0.94123574806E+01 -0.57177417677E+02 -0.12247552159E+02  0.59227123005E+02  0.00000000000E+00 0.  1.
         13    1    5    5    0    0 -0.12996265989E+02  0.18316653542E+02  0.64495630721E+01  0.23366634128E+02  0.00000000000E+00 0. -1.
        -13    1    5    5    0    0 -0.12245811598E+03 -0.78448793604E+02 -0.80634443225E+02  0.16628925648E+03  0.00000000000E+00 0.  1.
          2    1    6    6  503    0 -0.55731360940E+01  0.27818447888E+02  0.28979684071E+03  0.29118230505E+03  0.00000000000E+00 0. -1.
         -2    1    6    6    0  503  0.16548972637E+03  0.11754478136E+03  0.10660548853E+04  0.10852081107E+04  0.00000000000E+00 0.  1.
<mgrwt>
<rscale>  0 0.12416803E+04</rscale>
<asrwt>0</asrwt>
<pdfrwt beam="1">  1        1 0.40814640E-01 0.12416803E+04</pdfrwt>
<pdfrwt beam="2">  1       -2 0.22352028E+00 0.12416803E+04</pdfrwt>
<totfact> 0.83236970E+00</totfact>
</mgrwt>
</event>
<event>
12    5  0.5221187E-008  0.2087867E+04  0.7818608E-02  0.8566607E-01
          1   -1    0    0  501    0  0.00000000000E+00  0.00000000000E+00  0.14050577445E+04  0.14050577445E+04  0.00000000000E+00 0. -1.
         -2   -1    0    0    0  501 -0.00000000000E+00 -0.00000000000E+00 -0.77562418371E+03  0.77562418371E+03  0.00000000000E+00 0.  1.
        -24    2    1    2    0    0  0.83436680380E+03  0.18454962483E+03  0.12479408963E+03  0.86960525962E+03  0.10204516369E+03 0.  0.
        254    2    1    2    0    0 -0.83436680380E+03 -0.18454962483E+03  0.50463947119E+03  0.13110766686E+04  0.85675813845E+03 0.  0.
         23    2    4    4    0    0 -0.78758537601E+03  0.19609700473E+03  0.34649649181E+03  0.88647118728E+03  0.83824741341E+02 0.  0.
         23    2    4    4    0    0 -0.46781427790E+02 -0.38064662956E+03  0.15814297938E+03  0.42460548134E+03  0.90555255372E+02 0.  0.
          1    1    3    3  502    0  0.32406413175E+03  0.43255800736E+02  0.89299850478E+02  0.33891457490E+03  0.00000000000E+00 0. -1.
         -2    1    3    3    0  502  0.51030267205E+03  0.14129382409E+03  0.35494239149E+02  0.53069068472E+03  0.00000000000E+00 0.  1.
         13    1    5    5    0    0 -0.16935509731E+02  0.97084246669E+01 -0.34239181717E+01  0.19818885312E+02  0.00000000000E+00 0. -1.
        -13    1    5    5    0    0 -0.77064986628E+03  0.18638858006E+03  0.34992040999E+03  0.86665230197E+03  0.00000000000E+00 0.  1.
          3    1    6    6  503    0 -0.51347671523E+02 -0.24887140953E+03  0.14378413415E+03  0.29197164089E+03  0.00000000000E+00 0. -1.
         -3    1    6    6    0  503  0.45662437331E+01 -0.13177522003E+03  0.14358845232E+02  0.13263384045E+03  0.00000000000E+00 0.  1.
<mgrwt>
<rscale>  0 0.20878666E+04</rscale>
<asrwt>0</asrwt>
<pdfrwt beam="1">  1        1 0.21616273E+00 0.20878666E+04</pdfrwt>
<pdfrwt beam="2">  1       -2 0.11932680E+00 0.20878666E+04</pdfrwt>
<totfact> 0.33156098E+00</totfact>
</mgrwt>
</event>
<event>
12    5  0.5221187E-008  0.2982659E+04  0.7818608E-02  0.8248700E-01
          1   -1    0    0  501    0  0.00000000000E+00  0.00000000000E+00  0.26128257765E+04  0.26128257765E+04  0.00000000000E+00 0. -1.
         -2   -1    0    0    0  501 -0.00000000000E+00 -0.00000000000E+00 -0.85121028037E+03  0.85121028037E+03  0.00000000000E+00 0.  1.
        -24    2    1    2    0    0  0.57162222805E+02 -0.13582212278E+03 -0.76206735175E+03  0.78001210474E+03  0.77182032770E+02 0.  0.
        254    2    1    2    0    0 -0.57162222805E+02  0.13582212278E+03  0.25236828478E+04  0.26840239521E+04  0.90182830416E+03 0.  0.
         23    2    4    4    0    0  0.37672446576E+03 -0.32235349788E+02  0.15777957729E+04  0.16253120165E+04  0.96120804946E+02 0.  0.
         23    2    4    4    0    0 -0.43388668856E+03  0.16805747257E+03  0.94588707494E+03  0.10587119356E+04  0.98324114130E+02 0.  0.
          3    1    3    3  502    0  0.85539377222E+01 -0.52132406363E+02 -0.12604816242E+03  0.13667149261E+03  0.00000000000E+00 0. -1.
         -4    1    3    3    0  502  0.48608285083E+02 -0.83689716417E+02 -0.63601918933E+03  0.64334061213E+03  0.00000000000E+00 0.  1.
         13    1    5    5    0    0  0.19005205238E+03 -0.30756629839E+02  0.60944160131E+03  0.63912817048E+03  0.00000000000E+00 0.  1.
        -13    1    5    5    0    0  0.18667241337E+03 -0.14787199486E+01  0.96835417159E+03  0.98618384603E+03  0.00000000000E+00 0. -1.
          1    1    6    6  503    0 -0.22545922828E+03  0.13823643240E+03  0.50102768085E+03  0.56654206537E+03  0.00000000000E+00 0. -1.
         -1    1    6    6    0  503 -0.20842746028E+03  0.29821040166E+02  0.44485939409E+03  0.49216987022E+03  0.00000000000E+00 0.  1.
<mgrwt>
<rscale>  0 0.29826593E+04</rscale>
<asrwt>0</asrwt>
<pdfrwt beam="1">  1        1 0.40197319E+00 0.29826593E+04</pdfrwt>
<pdfrwt beam="2">  1       -2 0.13095543E+00 0.29826593E+04</pdfrwt>
<totfact> 0.36116860E-01</totfact>
</mgrwt>
</event>
<event>
12    5  0.5221187E-008  0.1415195E+04  0.7818608E-02  0.8942893E-01
         -2   -1    0    0    0  501 -0.00000000000E+00  0.00000000000E+00  0.23122303654E+04  0.23122303654E+04  0.00000000000E+00 0.  1.
          1   -1    0    0  501    0  0.00000000000E+00 -0.00000000000E+00 -0.21654162953E+03  0.21654162953E+03  0.00000000000E+00 0. -1.
        -24    2    1    2    0    0 -0.26617170611E+03  0.10000642492E+03  0.12354208208E+04  0.12702268208E+04  0.79767847869E+02 0.  0.
        254    2    1    2    0    0  0.26617170611E+03 -0.10000642492E+03  0.86026791504E+03  0.12585451741E+04  0.87351382792E+03 0.  0.
         23    2    4    4    0    0  0.53098952350E+03 -0.24898635900E+03  0.48985056861E+03  0.76973871836E+03  0.92736367960E+02 0.  0.
         23    2    4    4    0    0 -0.26481781739E+03  0.14897993407E+03  0.37041734643E+03  0.48880645579E+03  0.96949695837E+02 0.  0.
          3    1    3    3  502    0 -0.10631175581E+03  0.11858277464E+02  0.34171039074E+03  0.35806256340E+03  0.00000000000E+00 0. -1.
         -4    1    3    3    0  502 -0.15985995030E+03  0.88148147459E+02  0.89371043008E+03  0.91216425738E+03  0.00000000000E+00 0.  1.
         13    1    5    5    0    0  0.50433265094E+03 -0.21058203588E+03  0.45922371652E+03  0.71385057151E+03  0.00000000000E+00 0. -1.
        -13    1    5    5    0    0  0.26656872557E+02 -0.38404323116E+02  0.30626852095E+02  0.55888146845E+02  0.00000000000E+00 0.  1.
          2    1    6    6  503    0 -0.71508949117E+02  0.20492174705E+02  0.15593126507E+03  0.17276579075E+03  0.00000000000E+00 0. -1.
         -2    1    6    6    0  503 -0.19330886827E+03  0.12848775937E+03  0.21448608136E+03  0.31604066503E+03  0.00000000000E+00 0.  1.
<mgrwt>
<rscale>  0 0.14151949E+04</rscale>
<asrwt>0</asrwt>
<pdfrwt beam="1">  1        1 0.33314098E-01 0.14151949E+04</pdfrwt>
<pdfrwt beam="2">  1       -2 0.35572773E+00 0.14151949E+04</pdfrwt>
<totfact> 0.16458488E+00</totfact>
</mgrwt>
</event>
<event>
12    5  0.5221187E-008  0.1656646E+04  0.7818608E-02  0.8786484E-01
          1   -1    0    0  501    0  0.00000000000E+00  0.00000000000E+00  0.15201977275E+04  0.15201977275E+04  0.00000000000E+00 0. -1.
         -2   -1    0    0    0  501 -0.00000000000E+00 -0.00000000000E+00 -0.45133543633E+03  0.45133543633E+03  0.00000000000E+00 0.  1.
        -24    2    1    2    0    0 -0.54049022643E+03 -0.77073502733E+02  0.58665685293E+03  0.80520401783E+03  0.78212771004E+02 0.  0.
        254    2    1    2    0    0  0.54049022643E+03  0.77073502733E+02  0.48220543822E+03  0.11663291460E+04  0.91089603270E+03 0.  0.
         23    2    4    4    0    0  0.18518817494E+03 -0.40349044576E+03  0.25348754827E+03  0.51990749044E+03  0.94597365318E+02 0.  0.
         23    2    4    4    0    0  0.35530205149E+03  0.48056394849E+03  0.22871788994E+03  0.64642165553E+03  0.91475828387E+02 0.  0.
          3    1    3    3  502    0 -0.49532225073E+03 -0.50336595262E+02  0.54516106615E+03  0.73829431322E+03  0.00000000000E+00 0. -1.
         -4    1    3    3    0  502 -0.45167975699E+02 -0.26736907471E+02  0.41495786776E+02  0.66909704603E+02  0.00000000000E+00 0.  1.
         13    1    5    5    0    0  0.13290440219E+03 -0.34438373637E+03  0.17468255501E+03  0.40838429575E+03  0.00000000000E+00 0.  1.
        -13    1    5    5    0    0  0.52283772751E+02 -0.59106709392E+02  0.78804993266E+02  0.11152319468E+03  0.00000000000E+00 0. -1.
          4    1    6    6  503    0  0.24537401309E+02  0.80745417317E+02  0.47151231201E+02  0.96670290599E+02  0.00000000000E+00 0. -1.
         -4    1    6    6    0  503  0.33076465018E+03  0.39981853117E+03  0.18156665874E+03  0.54975136493E+03  0.00000000000E+00 0.  1.
<mgrwt>
<rscale>  0 0.16566461E+04</rscale>
<asrwt>0</asrwt>
<pdfrwt beam="1">  1        1 0.23387657E+00 0.16566461E+04</pdfrwt>
<pdfrwt beam="2">  1       -2 0.69436222E-01 0.16566461E+04</pdfrwt>
<totfact> 0.10043974E+01</totfact>
</mgrwt>
</event>
<event>
12    5  0.5221187E-008  0.2394995E+04  0.7818608E-02  0.8441380E-01
         -2   -1    0    0    0  501 -0.00000000000E+00  0.00000000000E+00  0.12133084893E+04  0.12133084893E+04  0.00000000000E+00 0.  1.
          1   -1    0    0  501    0  0.00000000000E+00 -0.00000000000E+00 -0.11818929738E+04  0.11818929738E+04  0.00000000000E+00 0. -1.
        -24    2    1    2    0    0 -0.97893280576E+03  0.27114392865E+03  0.99485798975E+02  0.10238978664E+04  0.81492014809E+02 0.  0.
        254    2    1    2    0    0  0.97893280576E+03 -0.27114392865E+03 -0.68070283476E+02  0.13713035966E+04  0.91870099729E+03 0.  0.
         23    2    4    4    0    0  0.83914053017E+03 -0.24972566892E+03 -0.42450054196E+03  0.97723639974E+03  0.90942464040E+02 0.  0.
         23    2    4    4    0    0  0.13979227559E+03 -0.21418259735E+02  0.35643025849E+03  0.39406719690E+03  0.90806411355E+02 0.  0.
          3    1    3    3  502    0 -0.60592540009E+03  0.17058890603E+03  0.10124147317E+03  0.63757038924E+03  0.00000000000E+00 0. -1.
         -4    1    3    3    0  502 -0.37300740567E+03  0.10055502262E+03 -0.17556741982E+01  0.38632747721E+03  0.00000000000E+00 0.  1.
         13    1    5    5    0    0  0.68202014578E+03 -0.19935212699E+03 -0.38253390949E+03  0.80698509385E+03  0.00000000000E+00 0.  1.
        -13    1    5    5    0    0  0.15712038439E+03 -0.50373541925E+02 -0.41966632468E+02  0.17025130589E+03  0.00000000000E+00 0. -1.
          2    1    6    6  503    0  0.64387419211E+02  0.11126438320E+02  0.25663495123E+03  0.26482264929E+03  0.00000000000E+00 0.  1.
         -2    1    6    6    0  503  0.75404856383E+02 -0.32544698056E+02  0.99795307255E+02  0.12924454761E+03  0.00000000000E+00 0. -1.
<mgrwt>
<rscale>  0 0.23949954E+04</rscale>
<asrwt>0</asrwt>
<pdfrwt beam="1">  1        1 0.18182969E+00 0.23949954E+04</pdfrwt>
<pdfrwt beam="2">  1       -2 0.18666284E+00 0.23949954E+04</pdfrwt>
<totfact> 0.14146641E+00</totfact>
</mgrwt>
</event>
<event>
12    5  0.5221187E-008  0.1111959E+04  0.7818608E-02  0.9193614E-01
         -2   -1    0    0    0  501 -0.00000000000E+00  0.00000000000E+00  0.68622722689E+03  0.68622722689E+03  0.00000000000E+00 0.  1.
          1   -1    0    0  501    0  0.00000000000E+00 -0.00000000000E+00 -0.45045292130E+03  0.45045292130E+03  0.00000000000E+00 0. -1.
        -24    2    1    2    0    0 -0.21769904348E+03  0.45443568164E+02  0.26995769233E+02  0.23854498301E+03  0.81956976180E+02 0.  0.
        254    2    1    2    0    0  0.21769904348E+03 -0.45443568164E+02  0.20877853636E+03  0.89813516518E+03  0.84474866456E+03 0.  0.
         23    2    4    4    0    0  0.13858672500E+03 -0.47288126655E+02 -0.31619113626E+03  0.36000984362E+03  0.90486493936E+02 0.  0.
         23    2    4    4    0    0  0.79112318478E+02  0.18445584915E+01  0.52496967261E+03  0.53812532156E+03  0.87883691388E+02 0.  0.
          3    1    3    3  502    0 -0.16108349047E+03  0.65282020956E+02  0.27249345804E+01  0.17383054516E+03  0.00000000000E+00 0. -1.
         -4    1    3    3    0  502 -0.56615553001E+02 -0.19838452793E+02  0.24270834652E+02  0.64714437844E+02  0.00000000000E+00 0.  1.
         13    1    5    5    0    0  0.22865598653E+02 -0.50071206072E+02 -0.81834631766E+02  0.98624886491E+02  0.00000000000E+00 0.  1.
        -13    1    5    5    0    0  0.11572112634E+03  0.27830794167E+01 -0.23435650449E+03  0.26138495713E+03  0.00000000000E+00 0. -1.
          3    1    6    6  503    0  0.97553812103E+02  0.28293768613E+01  0.47322340110E+03  0.48318230408E+03  0.00000000000E+00 0. -1.
         -3    1    6    6    0  503 -0.18441493626E+02 -0.98481836974E+00  0.51746271519E+02  0.54943017486E+02  0.00000000000E+00 0.  1.
<mgrwt>
<rscale>  0 0.11119587E+04</rscale>
<asrwt>0</asrwt>
<pdfrwt beam="1">  1        1 0.69300449E-01 0.11119587E+04</pdfrwt>
<pdfrwt beam="2">  1       -2 0.10557342E+00 0.11119587E+04</pdfrwt>
<totfact> 0.32290002E+01</totfact>
</mgrwt>
</event>
<event>
12    5  0.5221187E-008  0.1163311E+04  0.7818608E-02  0.9145591E-01
         -2   -1    0    0    0  501 -0.00000000000E+00  0.00000000000E+00  0.69186757524E+03  0.69186757524E+03  0.00000000000E+00 0.  1.
          1   -1    0    0  501    0  0.00000000000E+00 -0.00000000000E+00 -0.48899966223E+03  0.48899966223E+03  0.00000000000E+00 0. -1.
        -24    2    1    2    0    0  0.53563005857E+02  0.18154220485E+03  0.16905906599E+03  0.26580974386E+03  0.79039764674E+02 0.  0.
        254    2    1    2    0    0 -0.53563005857E+02 -0.18154220485E+03  0.33808847023E+02  0.91505749361E+03  0.89462875582E+03 0.  0.
         23    2    4    4    0    0 -0.32383736417E+03 -0.34255921909E+03  0.23068790256E+03  0.53250252063E+03  0.90136391529E+02 0.  0.
         23    2    4    4    0    0  0.27027435832E+03  0.16101701424E+03 -0.19687905553E+03  0.38255497298E+03  0.92802140070E+02 0.  0.
          3    1    3    3  502    0  0.36450882060E+01 -0.19542711814E+01 -0.60327014743E+01  0.73143236842E+01  0.00000000000E+00 0. -1.
         -4    1    3    3    0  502  0.49917917651E+02  0.18349647603E+03  0.17509176746E+03  0.25849542018E+03  0.00000000000E+00 0.  1.
         13    1    5    5    0    0 -0.29003864186E+03 -0.27724234477E+03  0.16478419249E+03  0.43375057533E+03  0.00000000000E+00 0.  1.
        -13    1    5    5    0    0 -0.33798722318E+02 -0.65316874317E+02  0.65903710066E+02  0.98751945304E+02  0.00000000000E+00 0. -1.
          2    1    6    6  503    0  0.92450028534E+02  0.69880074802E+02 -0.12435167420E+03  0.16998109162E+03  0.00000000000E+00 0. -1.
         -2    1    6    6    0  503  0.17782432978E+03  0.91136939438E+02 -0.72527381332E+02  0.21257388136E+03  0.00000000000E+00 0.  1.
<mgrwt>
<rscale>  0 0.11633108E+04</rscale>
<asrwt>0</asrwt>
<pdfrwt beam="1">  1        1 0.75230717E-01 0.11633108E+04</pdfrwt>
<pdfrwt beam="2">  1       -2 0.10644117E+00 0.11633108E+04</pdfrwt>
<totfact> 0.28209440E+01</totfact>
</mgrwt>
</event>
<event>
12    5  0.5221187E-008  0.1260301E+04  0.7818608E-02  0.9061653E-01
         -2   -1    0    0    0  501 -0.00000000000E+00  0.00000000000E+00  0.39739598280E+03  0.39739598280E+03  0.00000000000E+00 0.  1.
          1   -1    0    0  501    0  0.00000000000E+00 -0.00000000000E+00 -0.99922974967E+03  0.99922974967E+03  0.00000000000E+00 0. -1.
        -24    2    1    2    0    0 -0.78350314419E+02  0.18800132713E+03 -0.38538516999E+03  0.44302420272E+03  0.79154558793E+02 0.  0.
        254    2    1    2    0    0  0.78350314419E+02 -0.18800132713E+03 -0.21644859689E+03  0.95360152976E+03  0.90610298073E+03 0.  0.
         23    2    4    4    0    0 -0.24962271544E+03 -0.22893647809E+03  0.20863769003E+03  0.40832224456E+03  0.92054107116E+02 0.  0.
         23    2    4    4    0    0  0.32797302986E+03  0.40935150964E+02 -0.42508628692E+03  0.54527928520E+03  0.85960180550E+02 0.  0.
          1    1    3    3  502    0 -0.78312329809E+02  0.15909275137E+03 -0.36995338838E+03  0.41025459670E+03  0.00000000000E+00 0. -1.
         -2    1    3    3    0  502 -0.37984610311E-01  0.28908575757E+02 -0.15431781606E+02  0.32769606019E+02  0.00000000000E+00 0.  1.
         13    1    5    5    0    0 -0.16680270698E+03 -0.17258743634E+03  0.19070455965E+03  0.30655798033E+03  0.00000000000E+00 0. -1.
        -13    1    5    5    0    0 -0.82820008461E+02 -0.56349041754E+02  0.17933130386E+02  0.10176426423E+03  0.00000000000E+00 0.  1.
          3    1    6    6  503    0  0.24328042382E+03  0.60505138809E+02 -0.27726078592E+03  0.37379109117E+03  0.00000000000E+00 0. -1.
         -3    1    6    6    0  503  0.84692606041E+02 -0.19569987845E+02 -0.14782550101E+03  0.17148819403E+03  0.00000000000E+00 0.  1.
<mgrwt>
<rscale>  0 0.12603014E+04</rscale>
<asrwt>0</asrwt>
<pdfrwt beam="1">  1        1 0.15372765E+00 0.12603014E+04</pdfrwt>
<pdfrwt beam="2">  1       -2 0.61137845E-01 0.12603014E+04</pdfrwt>
<totfact> 0.32578568E+01</totfact>
</mgrwt>
</event>
<event>
12    5  0.5221187E-008  0.1790945E+04  0.7818608E-02  0.8711129E-01
          1   -1    0    0  501    0  0.00000000000E+00  0.00000000000E+00  0.15224817520E+04  0.15224817520E+04  0.00000000000E+00 0. -1.
         -2   -1    0    0    0  501 -0.00000000000E+00 -0.00000000000E+00 -0.52668704053E+03  0.52668704053E+03  0.00000000000E+00 0.  1.
        -24    2    1    2    0    0 -0.19994973002E+03  0.20373571916E+03  0.10596737742E+04  0.11003964100E+04  0.80471198009E+02 0.  0.
        254    2    1    2    0    0  0.19994973002E+03 -0.20373571916E+03 -0.63879062730E+02  0.94877238248E+03  0.90255213772E+03 0.  0.
         23    2    4    4    0    0 -0.31877468405E+03 -0.24661676198E+03  0.23393115309E+02  0.41323425794E+03  0.88194033866E+02 0.  0.
         23    2    4    4    0    0  0.51872441407E+03  0.42881042818E+02 -0.87272178039E+02  0.53553812455E+03  0.90944203766E+02 0.  0.
          3    1    3    3  502    0 -0.11336947361E+03  0.16854813132E+03  0.72442211735E+03  0.75236195692E+03  0.00000000000E+00 0. -1.
         -4    1    3    3    0  502 -0.86580256407E+02  0.35187587843E+02  0.33525165681E+03  0.34803445308E+03  0.00000000000E+00 0.  1.
         13    1    5    5    0    0 -0.23591357026E+02  0.46502996036E+01 -0.49693925043E+01  0.24553457488E+02  0.00000000000E+00 0.  1.
        -13    1    5    5    0    0 -0.29518332702E+03 -0.25126706158E+03  0.28362507813E+02  0.38868080045E+03  0.00000000000E+00 0. -1.
          3    1    6    6  503    0  0.47352971520E+03  0.60756710224E+02 -0.64100769162E+02  0.48169562757E+03  0.00000000000E+00 0. -1.
         -3    1    6    6    0  503  0.45194698868E+02 -0.17875667406E+02 -0.23171408877E+02  0.53842496973E+02  0.00000000000E+00 0.  1.
<mgrwt>
<rscale>  0 0.17909455E+04</rscale>
<asrwt>0</asrwt>
<pdfrwt beam="1">  1        1 0.23422796E+00 0.17909455E+04</pdfrwt>
<pdfrwt beam="2">  1       -2 0.81028776E-01 0.17909455E+04</pdfrwt>
<totfact> 0.70245056E+00</totfact>
</mgrwt>
</event>
<event>
12    5  0.5221187E-008  0.3969866E+04  0.7818608E-02  0.8010653E-01
         -2   -1    0    0    0  501 -0.00000000000E+00  0.00000000000E+00  0.16831786207E+04  0.16831786207E+04  0.00000000000E+00 0.  1.
          3   -1    0    0  501    0  0.00000000000E+00 -0.00000000000E+00 -0.23407854114E+04  0.23407854114E+04  0.00000000000E+00 0. -1.
        -24    2    1    2    0    0  0.27201745644E+03  0.70842258284E+03  0.14274871797E+04  0.16185842749E+04  0.78989583495E+02 0.  0.
        254    2    1    2    0    0 -0.27201745644E+03 -0.70842258284E+03 -0.20850939704E+04  0.24053797571E+04  0.92864355806E+03 0.  0.
         23    2    4    4    0    0  0.28405007404E+03 -0.39899005445E+03 -0.55410286812E+03  0.74505751963E+03  0.90571579374E+02 0.  0.
         23    2    4    4    0    0 -0.55606753048E+03 -0.30943252839E+03 -0.15309911023E+04  0.16603222375E+04  0.88184969452E+02 0.  0.
          1    1    3    3  502    0  0.16558386705E+03  0.40012665539E+03  0.73372450045E+03  0.85198063355E+03  0.00000000000E+00 0. -1.
         -2    1    3    3    0  502  0.10643358938E+03  0.30829592745E+03  0.69376267926E+03  0.76660364137E+03  0.00000000000E+00 0.  1.
         13    1    5    5    0    0  0.11862897607E+03 -0.16606981809E+03 -0.29924508301E+03  0.36221490603E+03  0.00000000000E+00 0. -1.
        -13    1    5    5    0    0  0.16542109797E+03 -0.23292023637E+03 -0.25485778511E+03  0.38284261361E+03  0.00000000000E+00 0.  1.
          1    1    6    6  503    0 -0.24058433146E+03 -0.84568451182E+02 -0.61258499127E+03  0.66354578969E+03  0.00000000000E+00 0. -1.
         -1    1    6    6    0  503 -0.31548319901E+03 -0.22486407720E+03 -0.91840611102E+03  0.99677644778E+03  0.00000000000E+00 0.  1.
<mgrwt>
<rscale>  0 0.39698665E+04</rscale>
<asrwt>0</asrwt>
<pdfrwt beam="1">  1        3 0.36012083E+00 0.39698665E+04</pdfrwt>
<pdfrwt beam="2">  1       -2 0.25895056E+00 0.39698665E+04</pdfrwt>
<totfact> 0.33247368E-03</totfact>
</mgrwt>
</event>
<event>
12    5  0.5221187E-008  0.1429836E+04  0.7818608E-02  0.8932500E-01
         -2   -1    0    0    0  501 -0.00000000000E+00  0.00000000000E+00  0.41130131216E+03  0.41130131216E+03  0.00000000000E+00 0.  1.
          1   -1    0    0  501    0  0.00000000000E+00 -0.00000000000E+00 -0.12426604564E+04  0.12426604564E+04  0.00000000000E+00 0. -1.
        -24    2    1    2    0    0 -0.32497170806E+03  0.26372508146E+03 -0.40856156015E+03  0.59079759927E+03  0.83436953674E+02 0.  0.
        254    2    1    2    0    0  0.32497170806E+03 -0.26372508146E+03 -0.42279758413E+03  0.10631641693E+04  0.88113717670E+03 0.  0.
         23    2    4    4    0    0  0.17653750603E+03 -0.26783900884E+03  0.21758501964E+03  0.39967163578E+03  0.97421506775E+02 0.  0.
         23    2    4    4    0    0  0.14843420203E+03  0.41139273812E+01 -0.64038260377E+03  0.66349253355E+03  0.89904539002E+02 0.  0.
          1    1    3    3  502    0 -0.28943979201E+03  0.22715326436E+03 -0.39093522585E+03  0.53684667226E+03  0.00000000000E+00 0. -1.
         -2    1    3    3    0  502 -0.35531916044E+02  0.36571817100E+02 -0.17626334302E+02  0.53950927005E+02  0.00000000000E+00 0.  1.
         13    1    5    5    0    0 -0.81482703760E+00 -0.43730267222E+02  0.61518373433E+01  0.44168374626E+02  0.00000000000E+00 0.  1.
        -13    1    5    5    0    0  0.17735233306E+03 -0.22410874162E+03  0.21143318229E+03  0.35550326115E+03  0.00000000000E+00 0. -1.
          3    1    6    6  503    0  0.14720781795E+03 -0.42196274712E+01 -0.63794635100E+03  0.65472398282E+03  0.00000000000E+00 0. -1.
         -3    1    6    6    0  503  0.12263840812E+01  0.83335548524E+01 -0.24362527708E+01  0.87685507329E+01  0.00000000000E+00 0.  1.
<mgrwt>
<rscale>  0 0.14298362E+04</rscale>
<asrwt>0</asrwt>
<pdfrwt beam="1">  1        1 0.19117853E+00 0.14298362E+04</pdfrwt>
<pdfrwt beam="2">  1       -2 0.63277125E-01 0.14298362E+04</pdfrwt>
<totfact> 0.19629997E+01</totfact>
</mgrwt>
</event>
<event>
12    5  0.5221187E-008  0.3776913E+04  0.7818608E-02  0.8051128E-01
         -2   -1    0    0    0  501 -0.00000000000E+00  0.00000000000E+00  0.12582797435E+04  0.12582797435E+04  0.00000000000E+00 0.  1.
          1   -1    0    0  501    0  0.00000000000E+00 -0.00000000000E+00 -0.28342403848E+04  0.28342403848E+04  0.00000000000E+00 0. -1.
        -24    2    1    2    0    0  0.98811436607E+03 -0.47938007987E+03  0.77540385303E+03  0.13466510196E+04  0.77733980948E+02 0.  0.
        254    2    1    2    0    0 -0.98811436607E+03  0.47938007987E+03 -0.23513644944E+04  0.27458691087E+04  0.89705457764E+03 0.  0.
         23    2    4    4    0    0 -0.19569833932E+03 -0.22594640807E+03 -0.28921521840E+03  0.42512550080E+03  0.87958112406E+02 0.  0.
         23    2    4    4    0    0 -0.79241602675E+03  0.70532648794E+03 -0.20621492760E+04  0.23207436079E+04  0.89345638655E+02 0.  0.
          3    1    3    3  502    0  0.44636823714E+02 -0.12090254989E+02  0.49890323210E+02  0.68026940597E+02  0.00000000000E+00 0. -1.
         -4    1    3    3    0  502  0.94347754236E+03 -0.46728982488E+03  0.72551352982E+03  0.12786240790E+04  0.00000000000E+00 0.  1.
         13    1    5    5    0    0 -0.16731685575E+03 -0.13129751928E+03 -0.19264937984E+03  0.28696298078E+03  0.00000000000E+00 0.  1.
        -13    1    5    5    0    0 -0.28381483574E+02 -0.94648888795E+02 -0.96565838556E+02  0.13816252001E+03  0.00000000000E+00 0. -1.
          1    1    6    6  503    0 -0.47529569513E+03  0.45152136774E+03 -0.11894178184E+04  0.13581208673E+04  0.00000000000E+00 0. -1.
         -1    1    6    6    0  503 -0.31712033162E+03  0.25380512020E+03 -0.87273145758E+03  0.96262274065E+03  0.00000000000E+00 0.  1.
<mgrwt>
<rscale>  0 0.37769126E+04</rscale>
<asrwt>0</asrwt>
<pdfrwt beam="1">  1        1 0.43603698E+00 0.37769126E+04</pdfrwt>
<pdfrwt beam="2">  1       -2 0.19358150E+00 0.37769126E+04</pdfrwt>
<totfact> 0.81060234E-02</totfact>
</mgrwt>
</event>
<event>
12    5  0.5221187E-008  0.1321420E+04  0.7818608E-02  0.9012749E-01
          1   -1    0    0  501    0  0.00000000000E+00  0.00000000000E+00  0.35504992299E+04  0.35504992299E+04  0.00000000000E+00 0. -1.
         -2   -1    0    0    0  501 -0.00000000000E+00 -0.00000000000E+00 -0.12295113635E+03  0.12295113635E+03  0.00000000000E+00 0.  1.
        -24    2    1    2    0    0 -0.28196098274E+03  0.12011573660E+03  0.44441303565E+03  0.54714732272E+03  0.89092426952E+02 0.  0.
        254    2    1    2    0    0  0.28196098274E+03 -0.12011573660E+03  0.29831350579E+04  0.31263030436E+04  0.88359841579E+03 0.  0.
         23    2    4    4    0    0  0.41492927038E+03 -0.38577465686E+03  0.23778760865E+04  0.24458951694E+04  0.84380752025E+02 0.  0.
         23    2    4    4    0    0 -0.13296828763E+03  0.26565892026E+03  0.60525897139E+03  0.68040787420E+03  0.91439736382E+02 0.  0.
          3    1    3    3  502    0 -0.59064037517E+02  0.65519183784E+02  0.14780931188E+03  0.17213052214E+03  0.00000000000E+00 0. -1.
         -4    1    3    3    0  502 -0.22289694523E+03  0.54596552812E+02  0.29660372377E+03  0.37501680059E+03  0.00000000000E+00 0.  1.
         13    1    5    5    0    0  0.26066715743E+02 -0.60087622508E+02  0.25952168013E+03  0.26765929557E+03  0.00000000000E+00 0. -1.
        -13    1    5    5    0    0  0.38886255463E+03 -0.32568703435E+03  0.21183544064E+04  0.21782358738E+04  0.00000000000E+00 0.  1.
          2    1    6    6  503    0 -0.11107271424E+03  0.24353595438E+03  0.46318947214E+03  0.53496859350E+03  0.00000000000E+00 0.  1.
         -2    1    6    6    0  503 -0.21895573388E+02  0.22122965882E+02  0.14206949926E+03  0.14543928071E+03  0.00000000000E+00 0. -1.
<mgrwt>
<rscale>  0 0.13214203E+04</rscale>
<asrwt>0</asrwt>
<pdfrwt beam="1">  1        1 0.54623057E+00 0.13214203E+04</pdfrwt>
<pdfrwt beam="2">  1       -2 0.18915562E-01 0.13214203E+04</pdfrwt>
<totfact> 0.47102893E+00</totfact>
</mgrwt>
</event>
<event>
12    5  0.5221187E-008  0.1231609E+04  0.7818608E-02  0.9085630E-01
          1   -1    0    0  501    0  0.00000000000E+00  0.00000000000E+00  0.21328553151E+04  0.21328553151E+04  0.00000000000E+00 0. -1.
         -2   -1    0    0    0  501 -0.00000000000E+00 -0.00000000000E+00 -0.17779704488E+03  0.17779704488E+03  0.00000000000E+00 0.  1.
        -24    2    1    2    0    0  0.41607239062E+02  0.17414134514E+03  0.60569520795E+02  0.20381540124E+03  0.76260609116E+02 0.  0.
        254    2    1    2    0    0 -0.41607239062E+02 -0.17414134514E+03  0.18944887494E+04  0.21068369587E+04  0.90422230594E+03 0.  0.
         23    2    4    4    0    0 -0.10651564527E+03  0.62064445836E+02 -0.37192815116E+02  0.15760064630E+03  0.90868476886E+02 0.  0.
         23    2    4    4    0    0  0.64908406211E+02 -0.23620579098E+03  0.19316815645E+04  0.19492363124E+04  0.90123571067E+02 0.  0.
          1    1    3    3  502    0 -0.78843972512E+01 -0.36894663629E+01 -0.19597197084E+01  0.89228013199E+01  0.00000000000E+00 0. -1.
         -2    1    3    3    0  502  0.49491636313E+02  0.17783081150E+03  0.62529240503E+02  0.19489259992E+03  0.00000000000E+00 0.  1.
         13    1    5    5    0    0 -0.10952647672E+03  0.41735372534E+02 -0.24494349302E+01  0.11723433864E+03  0.00000000000E+00 0. -1.
        -13    1    5    5    0    0  0.30108314499E+01  0.20329073302E+02 -0.34743380186E+02  0.40366307659E+02  0.00000000000E+00 0.  1.
          1    1    6    6  503    0  0.48127211514E+02 -0.36452231654E+02  0.47867565675E+03  0.48246800727E+03  0.00000000000E+00 0. -1.
         -1    1    6    6    0  503  0.16781194697E+02 -0.19975355932E+03  0.14530059078E+04  0.14667683052E+04  0.00000000000E+00 0.  1.
<mgrwt>
<rscale>  0 0.12316093E+04</rscale>
<asrwt>0</asrwt>
<pdfrwt beam="1">  1        1 0.32813157E+00 0.12316093E+04</pdfrwt>
<pdfrwt beam="2">  1       -2 0.27353393E-01 0.12316093E+04</pdfrwt>
<totfact> 0.25603598E+01</totfact>
</mgrwt>
</event>
<event>
12    5  0.5221187E-008  0.2111074E+04  0.7818608E-02  0.8556381E-01
          1   -1    0    0  501    0  0.00000000000E+00  0.00000000000E+00  0.17120850898E+04  0.17120850898E+04  0.00000000000E+00 0. -1.
         -2   -1    0    0    0  501 -0.00000000000E+00 -0.00000000000E+00 -0.65076096164E+03  0.65076096164E+03  0.00000000000E+00 0.  1.
        -24    2    1    2    0    0 -0.13330349260E+03 -0.67005373995E+03 -0.14083545450E+03  0.70176103240E+03  0.76759923098E+02 0.  0.
        254    2    1    2    0    0  0.13330349260E+03  0.67005373995E+03  0.12021595826E+04  0.16610850190E+04  0.92047484634E+03 0.  0.
         23    2    4    4    0    0  0.45727369225E+03  0.37481800897E+03  0.33588606991E+03  0.68595340204E+03  0.90137940553E+02 0.  0.
         23    2    4    4    0    0 -0.32397019966E+03  0.29523573098E+03  0.86627351271E+03  0.97513161698E+03  0.91274555559E+02 0.  0.
          3    1    3    3  502    0 -0.19087638029E+02 -0.26196446233E+03 -0.72817505516E+02  0.27256578391E+03  0.00000000000E+00 0. -1.
         -4    1    3    3    0  502 -0.11421585457E+03 -0.40808927762E+03 -0.68017948979E+02  0.42919524849E+03  0.00000000000E+00 0.  1.
         13    1    5    5    0    0  0.34321169290E+03  0.27598352858E+03  0.20333070593E+03  0.48508200355E+03  0.00000000000E+00 0.  1.
        -13    1    5    5    0    0  0.11406199935E+03  0.98834480396E+02  0.13255536398E+03  0.20087139849E+03  0.00000000000E+00 0. -1.
          1    1    6    6  503    0 -0.75596212639E+02  0.32346303748E+02  0.21482860942E+03  0.23002695963E+03  0.00000000000E+00 0. -1.
         -1    1    6    6    0  503 -0.24837398702E+03  0.26288942723E+03  0.65144490329E+03  0.74510465735E+03  0.00000000000E+00 0.  1.
<mgrwt>
<rscale>  0 0.21110738E+04</rscale>
<asrwt>0</asrwt>
<pdfrwt beam="1">  1        1 0.26339770E+00 0.21110738E+04</pdfrwt>
<pdfrwt beam="2">  1       -2 0.10011707E+00 0.21110738E+04</pdfrwt>
<totfact> 0.31076473E+00</totfact>
</mgrwt>
</event>
<event>
12    5  0.5221187E-008  0.1319404E+04  0.7818608E-02  0.9014317E-01
          1   -1    0    0  501    0  0.00000000000E+00  0.00000000000E+00  0.70882636516E+03  0.70882636516E+03  0.00000000000E+00 0. -1.
         -2   -1    0    0    0  501 -0.00000000000E+00 -0.00000000000E+00 -0.61398249381E+03  0.61398249381E+03  0.00000000000E+00 0.  1.
        -24    2    1    2    0    0  0.30010075252E+03 -0.18302199781E+03  0.58344930082E+02  0.36496395146E+03  0.78974943182E+02 0.  0.
        254    2    1    2    0    0 -0.30010075252E+03  0.18302199781E+03  0.36498941275E+02  0.95784490751E+03  0.89026803873E+03 0.  0.
         23    2    4    4    0    0 -0.15834660570E+03 -0.14681732255E+03 -0.35023436146E+03  0.42236815962E+03  0.95403252440E+02 0.  0.
         23    2    4    4    0    0 -0.14175414682E+03  0.32983932036E+03  0.38673330274E+03  0.53547674789E+03  0.91019144643E+02 0.  0.
          3    1    3    3  502    0  0.19094909034E+03 -0.11265458703E+03  0.74969408451E+02  0.23403637171E+03  0.00000000000E+00 0. -1.
         -4    1    3    3    0  502  0.10915166219E+03 -0.70367410778E+02 -0.16624478370E+02  0.13092757975E+03  0.00000000000E+00 0.  1.
         13    1    5    5    0    0 -0.68159650998E+02 -0.27780011880E+02 -0.56289673528E+02  0.92660641214E+02  0.00000000000E+00 0. -1.
        -13    1    5    5    0    0 -0.90186954699E+02 -0.11903731067E+03 -0.29394468793E+03  0.32970751841E+03  0.00000000000E+00 0.  1.
          3    1    6    6  503    0 -0.20237435700E+02  0.75622484878E+02  0.14252588022E+03  0.16260978001E+03  0.00000000000E+00 0. -1.
         -3    1    6    6    0  503 -0.12151671113E+03  0.25421683548E+03  0.24420742251E+03  0.37286696788E+03  0.00000000000E+00 0.  1.
<mgrwt>
<rscale>  0 0.13194044E+04</rscale>
<asrwt>0</asrwt>
<pdfrwt beam="1">  1        1 0.10905021E+00 0.13194044E+04</pdfrwt>
<pdfrwt beam="2">  1       -2 0.94458846E-01 0.13194044E+04</pdfrwt>
<totfact> 0.21692215E+01</totfact>
</mgrwt>
</event>
<event>
12    5  0.5221187E-008  0.1100192E+04  0.7818608E-02  0.9205005E-01
          1   -1    0    0  501    0  0.00000000000E+00  0.00000000000E+00  0.51927732126E+03  0.51927732126E+03  0.00000000000E+00 0. -1.
         -2   -1    0    0    0  501 -0.00000000000E+00 -0.00000000000E+00 -0.58274362388E+03  0.58274362388E+03  0.00000000000E+00 0.  1.
        -24    2    1    2    0    0 -0.64006881954E+02 -0.15013722243E+03 -0.10902713764E+02  0.17938381608E+03  0.73631635916E+02 0.  0.
        254    2    1    2    0    0  0.64006881954E+02  0.15013722243E+03 -0.52563588848E+02  0.92263712906E+03  0.90656399363E+03 0.  0.
         23    2    4    4    0    0  0.31495680434E+03  0.18517250086E+03  0.29829045230E+03  0.48027322981E+03  0.90545776591E+02 0.  0.
         23    2    4    4    0    0 -0.25094992239E+03 -0.35035278433E+02 -0.35085404115E+03  0.44236389925E+03  0.91563785908E+02 0.  0.
          1    1    3    3  502    0 -0.13721782785E+02 -0.10245801262E+03  0.16850315500E+02  0.10473712238E+03  0.00000000000E+00 0. -1.
         -2    1    3    3    0  502 -0.50285099168E+02 -0.47679209812E+02 -0.27753029264E+02  0.74646693698E+02  0.00000000000E+00 0.  1.
         13    1    5    5    0    0 -0.17577415339E+01 -0.58991176532E+01  0.24313411996E+01  0.66182070393E+01  0.00000000000E+00 0.  1.
        -13    1    5    5    0    0  0.31671454587E+03  0.19107161852E+03  0.29585911110E+03  0.47365502277E+03  0.00000000000E+00 0. -1.
          2    1    6    6  503    0 -0.25660663183E+03 -0.39898424241E+02 -0.34834852222E+03  0.43449458073E+03  0.00000000000E+00 0. -1.
         -2    1    6    6    0  503  0.56567094419E+01  0.48631458083E+01 -0.25055189358E+01  0.78693185220E+01  0.00000000000E+00 0.  1.
<mgrwt>
<rscale>  0 0.11001919E+04</rscale>
<asrwt>0</asrwt>
<pdfrwt beam="1">  1        1 0.79888818E-01 0.11001919E+04</pdfrwt>
<pdfrwt beam="2">  1       -2 0.89652866E-01 0.11001919E+04</pdfrwt>
<totfact> 0.39095864E+01</totfact>
</mgrwt>
</event>
<event>
12    5  0.5221187E-008  0.1355225E+04  0.7818608E-02  0.8986882E-01
         -2   -1    0    0    0  501 -0.00000000000E+00  0.00000000000E+00  0.11003824255E+04  0.11003824255E+04  0.00000000000E+00 0.  1.
          1   -1    0    0  501    0  0.00000000000E+00 -0.00000000000E+00 -0.41727198789E+03  0.41727198789E+03  0.00000000000E+00 0. -1.
        -24    2    1    2    0    0  0.26135843508E+03 -0.19816273282E+03 -0.60790600468E+01  0.33768953737E+03  0.80128449495E+02 0.  0.
        254    2    1    2    0    0 -0.26135843508E+03  0.19816273282E+03  0.68918949768E+03  0.11799648760E+04  0.89986568149E+03 0.  0.
         23    2    4    4    0    0 -0.24981715825E+02  0.45006121372E+03  0.68223719920E+03  0.82270464207E+03  0.90642980351E+02 0.  0.
         23    2    4    4    0    0 -0.23637671925E+03 -0.25189848090E+03  0.69522984854E+01  0.35726023398E+03  0.90883124096E+02 0.  0.
          1    1    3    3  502    0  0.18890076069E+03 -0.18283183318E+03  0.41647591960E+01  0.26292265371E+03  0.00000000000E+00 0. -1.
         -2    1    3    3    0  502  0.72457674382E+02 -0.15330899641E+02 -0.10243819243E+02  0.74766883667E+02  0.00000000000E+00 0.  1.
         13    1    5    5    0    0 -0.50101097342E+02  0.23154076522E+03  0.39985235746E+03  0.46476139435E+03  0.00000000000E+00 0. -1.
        -13    1    5    5    0    0  0.25119381518E+02  0.21852044850E+03  0.28238484174E+03  0.35794324772E+03  0.00000000000E+00 0.  1.
          2    1    6    6  503    0 -0.51927679119E+01 -0.45562235406E+02 -0.99625294623E+01  0.46926901955E+02  0.00000000000E+00 0. -1.
         -2    1    6    6    0  503 -0.23118395134E+03 -0.20633624550E+03  0.16914827948E+02  0.31033333203E+03  0.00000000000E+00 0.  1.
<mgrwt>
<rscale>  0 0.13552251E+04</rscale>
<asrwt>0</asrwt>
<pdfrwt beam="1">  1        1 0.64195691E-01 0.13552251E+04</pdfrwt>
<pdfrwt beam="2">  1       -2 0.16928960E+00 0.13552251E+04</pdfrwt>
<totfact> 0.10442450E+01</totfact>
</mgrwt>
</event>
<event>
12    5  0.5221187E-008  0.1715869E+04  0.7818608E-02  0.8752365E-01
         -2   -1    0    0    0  501 -0.00000000000E+00  0.00000000000E+00  0.89141741138E+03  0.89141741138E+03  0.00000000000E+00 0.  1.
          1   -1    0    0  501    0  0.00000000000E+00 -0.00000000000E+00 -0.82570960274E+03  0.82570960274E+03  0.00000000000E+00 0. -1.
        -24    2    1    2    0    0 -0.15162454876E+03  0.11354859652E+03  0.56800138523E+03  0.60503002076E+03  0.86904918356E+02 0.  0.
        254    2    1    2    0    0  0.15162454876E+03 -0.11354859652E+03 -0.50229357659E+03  0.11120969934E+04  0.97394948432E+03 0.  0.
         23    2    4    4    0    0 -0.15334435775E+03  0.11600603720E+03  0.20982035468E+03  0.29906794834E+03  0.91897572149E+02 0.  0.
         23    2    4    4    0    0  0.30496890651E+03 -0.22955463372E+03 -0.71211393127E+03  0.81302904502E+03  0.90601397045E+02 0.  0.
          3    1    3    3  502    0  0.35510688799E+00 -0.10865535855E+02  0.46882670440E+02  0.48126611744E+02  0.00000000000E+00 0. -1.
         -4    1    3    3    0  502 -0.15197965565E+03  0.12441413237E+03  0.52111871479E+03  0.55690340902E+03  0.00000000000E+00 0.  1.
         13    1    5    5    0    0 -0.62146081231E+02  0.10795003499E+01  0.36860823814E+02  0.72263552816E+02  0.00000000000E+00 0. -1.
        -13    1    5    5    0    0 -0.91198276518E+02  0.11492653685E+03  0.17295953086E+03  0.22680439552E+03  0.00000000000E+00 0.  1.
          1    1    6    6  503    0  0.52532106657E+02 -0.29803043910E+02 -0.19277696426E+03  0.20201683496E+03  0.00000000000E+00 0. -1.
         -1    1    6    6    0  503  0.25243679985E+03 -0.19975158981E+03 -0.51933696700E+03  0.61101221006E+03  0.00000000000E+00 0.  1.
<mgrwt>
<rscale>  0 0.17158694E+04</rscale>
<asrwt>0</asrwt>
<pdfrwt beam="1">  1        1 0.12703225E+00 0.17158694E+04</pdfrwt>
<pdfrwt beam="2">  1       -2 0.13714114E+00 0.17158694E+04</pdfrwt>
<totfact> 0.66245997E+00</totfact>
</mgrwt>
</event>
<event>
12    5  0.5221187E-008  0.1384222E+04  0.7818608E-02  0.8965319E-01
          3   -1    0    0  501    0  0.00000000000E+00  0.00000000000E+00  0.50252289672E+03  0.50252289672E+03  0.00000000000E+00 0. -1.
         -4   -1    0    0    0  501 -0.00000000000E+00 -0.00000000000E+00 -0.95322593032E+03  0.95322593032E+03  0.00000000000E+00 0.  1.
        -24    2    1    2    0    0 -0.17377174194E+03  0.10655189760E+03  0.13858797381E+03  0.25908618948E+03  0.79806653353E+02 0.  0.
        254    2    1    2    0    0  0.17377174194E+03 -0.10655189760E+03 -0.58929100741E+03  0.11966626376E+04  0.10213655817E+04 0.  0.
         23    2    4    4    0    0 -0.45608339061E+02 -0.45139110741E+03  0.11627344080E+02  0.46265285561E+03  0.89880015792E+02 0.  0.
         23    2    4    4    0    0  0.21938008100E+03  0.34483920981E+03 -0.60091835149E+03  0.73400978194E+03  0.10308149336E+03 0.  0.
          3    1    3    3  502    0 -0.71896795639E+02  0.17820711686E+01  0.35156686561E+02  0.80051968187E+02  0.00000000000E+00 0. -1.
         -4    1    3    3    0  502 -0.10187494630E+03  0.10476982643E+03  0.10343128725E+03  0.17903422130E+03  0.00000000000E+00 0.  1.
         13    1    5    5    0    0  0.18402692290E+02 -0.19959761600E+03 -0.17580256703E+02  0.20121364969E+03  0.00000000000E+00 0.  1.
        -13    1    5    5    0    0 -0.64011031351E+02 -0.25179349141E+03  0.29207600783E+02  0.26143920592E+03  0.00000000000E+00 0. -1.
          1    1    6    6  503    0  0.14927164697E+03  0.15778963775E+03 -0.36644498788E+03  0.42598300848E+03  0.00000000000E+00 0. -1.
         -1    1    6    6    0  503  0.70108434024E+02  0.18704957206E+03 -0.23447336361E+03  0.30802677347E+03  0.00000000000E+00 0.  1.
<mgrwt>
<rscale>  0 0.13842223E+04</rscale>
<asrwt>0</asrwt>
<pdfrwt beam="1">  1        3 0.77311215E-01 0.13842223E+04</pdfrwt>
<pdfrwt beam="2">  1       -4 0.14665014E+00 0.13842223E+04</pdfrwt>
<totfact> 0.11067568E+00</totfact>
</mgrwt>
</event>
<event>
12    5  0.5221187E-008  0.1531645E+04  0.7818608E-02  0.8863678E-01
         -2   -1    0    0    0  501 -0.00000000000E+00  0.00000000000E+00  0.56520193119E+03  0.56520193119E+03  0.00000000000E+00 0.  1.
          1   -1    0    0  501    0  0.00000000000E+00 -0.00000000000E+00 -0.10376547402E+04  0.10376547402E+04  0.00000000000E+00 0. -1.
        -24    2    1    2    0    0 -0.37421256076E+03 -0.19939857112E+03  0.10613911629E+03  0.44331317948E+03  0.73933972510E+02 0.  0.
        254    2    1    2    0    0  0.37421256076E+03  0.19939857112E+03 -0.57859192531E+03  0.11595434919E+04  0.91103109871E+03 0.  0.
         23    2    4    4    0    0  0.40778296609E+02 -0.19572664480E+03 -0.59446580113E+03  0.63399536075E+03  0.92675454041E+02 0.  0.
         23    2    4    4    0    0  0.33343426415E+03  0.39512521592E+03  0.15873875819E+02  0.52554813117E+03  0.92986630634E+02 0.  0.
          3    1    3    3  502    0 -0.35715110929E+03 -0.16815794396E+03  0.99478228852E+02  0.40709940678E+03  0.00000000000E+00 0. -1.
         -4    1    3    3    0  502 -0.17061451479E+02 -0.31240627155E+02  0.66608874426E+01  0.36213772700E+02  0.00000000000E+00 0.  1.
         13    1    5    5    0    0  0.27037860789E+02 -0.34164145792E+02 -0.52130421964E+02  0.67939794435E+02  0.00000000000E+00 0. -1.
        -13    1    5    5    0    0  0.13740435820E+02 -0.16156249900E+03 -0.54233537916E+03  0.56605556631E+03  0.00000000000E+00 0.  1.
          1    1    6    6  503    0  0.59492556895E+00  0.34670573374E+02  0.20176435301E+00  0.34676264264E+02  0.00000000000E+00 0. -1.
         -1    1    6    6    0  503  0.33283933859E+03  0.36045464254E+03  0.15672111466E+02  0.49087186690E+03  0.00000000000E+00 0.  1.
<mgrwt>
<rscale>  0 0.15316455E+04</rscale>
<asrwt>0</asrwt>
<pdfrwt beam="1">  1        1 0.15963919E+00 0.15316455E+04</pdfrwt>
<pdfrwt beam="2">  1       -2 0.86954145E-01 0.15316455E+04</pdfrwt>
<totfact> 0.13688869E+01</totfact>
</mgrwt>
</event>
<event>
12    5  0.5221187E-008  0.1650154E+04  0.7818608E-02  0.8790316E-01
          1   -1    0    0  501    0  0.00000000000E+00  0.00000000000E+00  0.19371240250E+04  0.19371240250E+04  0.00000000000E+00 0. -1.
         -2   -1    0    0    0  501 -0.00000000000E+00 -0.00000000000E+00 -0.35142396739E+03  0.35142396739E+03  0.00000000000E+00 0.  1.
        -24    2    1    2    0    0 -0.38980517093E+03  0.84723855912E+02  0.11388950410E+04  0.12095501412E+04  0.82482886893E+02 0.  0.
        254    2    1    2    0    0  0.38980517093E+03 -0.84723855912E+02  0.44680501666E+03  0.10789978512E+04  0.89748283383E+03 0.  0.
         23    2    4    4    0    0  0.28392071176E+03 -0.42291828025E+03  0.48651659079E+03  0.71033056650E+03  0.91653031840E+02 0.  0.
         23    2    4    4    0    0  0.10588445917E+03  0.33819442434E+03 -0.39711574136E+02  0.36866728474E+03  0.93549828250E+02 0.  0.
          1    1    3    3  502    0 -0.26902989215E+03  0.81770751848E+02  0.70088083603E+03  0.75518043211E+03  0.00000000000E+00 0. -1.
         -2    1    3    3    0  502 -0.12077527878E+03  0.29531040636E+01  0.43801420493E+03  0.45436970906E+03  0.00000000000E+00 0.  1.
         13    1    5    5    0    0  0.16935574106E+03 -0.18489417324E+03  0.20096869610E+03  0.32133415495E+03  0.00000000000E+00 0.  1.
        -13    1    5    5    0    0  0.11456497070E+03 -0.23802410702E+03  0.28554789469E+03  0.38899641154E+03  0.00000000000E+00 0. -1.
          2    1    6    6  503    0  0.21541645252E+02  0.22108444927E+03 -0.20546517908E+02  0.22307966197E+03  0.00000000000E+00 0. -1.
         -2    1    6    6    0  503  0.84342813920E+02  0.11710997507E+03 -0.19165056228E+02  0.14558762276E+03  0.00000000000E+00 0.  1.
<mgrwt>
<rscale>  0 0.16501537E+04</rscale>
<asrwt>0</asrwt>
<pdfrwt beam="1">  1        1 0.29801907E+00 0.16501537E+04</pdfrwt>
<pdfrwt beam="2">  1       -2 0.54065227E-01 0.16501537E+04</pdfrwt>
<totfact> 0.88881034E+00</totfact>
</mgrwt>
</event>
<event>
12    5  0.5221187E-008  0.2430607E+04  0.7818608E-02  0.8428133E-01
          1   -1    0    0  501    0  0.00000000000E+00  0.00000000000E+00  0.22316614452E+04  0.22316614452E+04  0.00000000000E+00 0. -1.
         -2   -1    0    0    0  501 -0.00000000000E+00 -0.00000000000E+00 -0.66182204350E+03  0.66182204350E+03  0.00000000000E+00 0.  1.
        -24    2    1    2    0    0  0.20574109359E+03 -0.67736047247E+03  0.15970724877E+04  0.17488856956E+04  0.82547186274E+02 0.  0.
        254    2    1    2    0    0 -0.20574109359E+03  0.67736047247E+03 -0.27233086002E+02  0.11445977931E+04  0.89900826458E+03 0.  0.
         23    2    4    4    0    0 -0.34039240886E+03  0.61905814735E+03  0.30125548706E+03  0.77351935088E+03  0.92072449114E+02 0.  0.
         23    2    4    4    0    0  0.13465131527E+03  0.58302325115E+02 -0.32848857306E+03  0.37107844224E+03  0.90908359594E+02 0.  0.
          1    1    3    3  502    0  0.20068355221E+03 -0.56469033277E+03  0.13160727137E+04  0.14460969704E+04  0.00000000000E+00 0. -1.
         -2    1    3    3    0  502  0.50575413816E+01 -0.11267013970E+03  0.28099977409E+03  0.30278872525E+03  0.00000000000E+00 0.  1.
         13    1    5    5    0    0 -0.10707256403E+02  0.46042975309E+02  0.60359286659E+00  0.47275418976E+02  0.00000000000E+00 0. -1.
        -13    1    5    5    0    0 -0.32968515246E+03  0.57301517204E+03  0.30065189419E+03  0.72624393190E+03  0.00000000000E+00 0.  1.
          3    1    6    6  503    0  0.10679049350E+03  0.42819057902E+02 -0.14629619754E+03  0.18611893680E+03  0.00000000000E+00 0. -1.
         -3    1    6    6    0  503  0.27860821775E+02  0.15483267213E+02 -0.18219237553E+03  0.18495950544E+03  0.00000000000E+00 0.  1.
<mgrwt>
<rscale>  0 0.24306071E+04</rscale>
<asrwt>0</asrwt>
<pdfrwt beam="1">  1        1 0.34333253E+00 0.24306071E+04</pdfrwt>
<pdfrwt beam="2">  1       -2 0.10181878E+00 0.24306071E+04</pdfrwt>
<totfact> 0.12881755E+00</totfact>
</mgrwt>
</event>
<event>
12    5  0.5221187E-008  0.2017279E+04  0.7818608E-02  0.8598584E-01
          1   -1    0    0  501    0  0.00000000000E+00  0.00000000000E+00  0.16909923669E+04  0.16909923669E+04  0.00000000000E+00 0. -1.
         -2   -1    0    0    0  501 -0.00000000000E+00 -0.00000000000E+00 -0.60163118644E+03  0.60163118644E+03  0.00000000000E+00 0.  1.
        -24    2    1    2    0    0 -0.12961612720E+03  0.56745389150E+03 -0.19681625032E+03  0.61882202136E+03  0.73483320031E+02 0.  0.
        254    2    1    2    0    0  0.12961612720E+03 -0.56745389150E+03  0.12861774308E+04  0.16738015320E+04  0.89919682250E+03 0.  0.
         23    2    4    4    0    0 -0.15973215108E+03 -0.55829321665E+03  0.33698486376E+03  0.67734774314E+03  0.89640899635E+02 0.  0.
         23    2    4    4    0    0  0.28934827828E+03 -0.91606748493E+01  0.94919256700E+03  0.99645378882E+03  0.90262283942E+02 0.  0.
          1    1    3    3  502    0 -0.10094517218E+02  0.13034387823E+02  0.43426541865E+01  0.17048553873E+02  0.00000000000E+00 0. -1.
         -2    1    3    3    0  502 -0.11952160998E+03  0.55441950367E+03 -0.20115890451E+03  0.60177346749E+03  0.00000000000E+00 0.  1.
         13    1    5    5    0    0 -0.95884359661E+02 -0.19512989733E+03  0.14797244704E+03  0.26299302718E+03  0.00000000000E+00 0. -1.
        -13    1    5    5    0    0 -0.63847791420E+02 -0.36316331931E+03  0.18901241672E+03  0.41435471596E+03  0.00000000000E+00 0.  1.
          3    1    6    6  503    0  0.11219330549E+03 -0.15616822196E+02  0.23921040296E+03  0.26467497013E+03  0.00000000000E+00 0. -1.
         -3    1    6    6    0  503  0.17715497279E+03  0.64561473465E+01  0.70998216404E+03  0.73177881869E+03  0.00000000000E+00 0.  1.
<mgrwt>
<rscale>  0 0.20172791E+04</rscale>
<asrwt>0</asrwt>
<pdfrwt beam="1">  1        1 0.26015267E+00 0.20172791E+04</pdfrwt>
<pdfrwt beam="2">  1       -2 0.92558645E-01 0.20172791E+04</pdfrwt>
<totfact> 0.38931246E+00</totfact>
</mgrwt>
</event>
<event>
12    5  0.5221187E-008  0.1350363E+04  0.7818608E-02  0.8990554E-01
         -4   -1    0    0    0  501 -0.00000000000E+00  0.00000000000E+00  0.68490008033E+03  0.68490008033E+03  0.00000000000E+00 0.  1.
          3   -1    0    0  501    0  0.00000000000E+00 -0.00000000000E+00 -0.66560061254E+03  0.66560061254E+03  0.00000000000E+00 0. -1.
        -24    2    1    2    0    0  0.32841533855E+03 -0.14456167519E+03 -0.21822004794E+02  0.36846431182E+03  0.80839573614E+02 0.  0.
        254    2    1    2    0    0 -0.32841533855E+03  0.14456167519E+03  0.41121472588E+02  0.98203638105E+03  0.91320850065E+03 0.  0.
         23    2    4    4    0    0 -0.87306758060E+02  0.41939295908E+03 -0.25097425604E+03  0.50505837094E+03  0.92644248222E+02 0.  0.
         23    2    4    4    0    0 -0.24110858049E+03 -0.27483128388E+03  0.29209572863E+03  0.47697801011E+03  0.92317524130E+02 0.  0.
          1    1    3    3  502    0  0.10317072419E+03 -0.97074596137E+01  0.95654023500E+01  0.10406694972E+03  0.00000000000E+00 0. -1.
         -2    1    3    3    0  502  0.22524461436E+03 -0.13485421558E+03 -0.31387407144E+02  0.26439736210E+03  0.00000000000E+00 0.  1.
         13    1    5    5    0    0 -0.38831117667E+02  0.34950114090E+03 -0.21853725998E+03  0.41402588951E+03  0.00000000000E+00 0. -1.
        -13    1    5    5    0    0 -0.48475640394E+02  0.69891818184E+02 -0.32436996058E+02  0.91032481422E+02  0.00000000000E+00 0.  1.
          1    1    6    6  503    0 -0.19645206399E+03 -0.21018625088E+03  0.17755313945E+03  0.33807808394E+03  0.00000000000E+00 0. -1.
         -1    1    6    6    0  503 -0.44656516493E+02 -0.64645033002E+02  0.11454258917E+03  0.13889992618E+03  0.00000000000E+00 0.  1.
<mgrwt>
<rscale>  0 0.13503628E+04</rscale>
<asrwt>0</asrwt>
<pdfrwt beam="1">  1        3 0.10240009E+00 0.13503628E+04</pdfrwt>
<pdfrwt beam="2">  1       -4 0.10536924E+00 0.13503628E+04</pdfrwt>
<totfact> 0.13468038E+00</totfact>
</mgrwt>
</event>
<event>
12    5  0.5221187E-008  0.1788788E+04  0.7818608E-02  0.8712284E-01
         -2   -1    0    0    0  501 -0.00000000000E+00  0.00000000000E+00  0.13063562042E+04  0.13063562042E+04  0.00000000000E+00 0.  1.
          1   -1    0    0  501    0  0.00000000000E+00 -0.00000000000E+00 -0.61234522949E+03  0.61234522949E+03  0.00000000000E+00 0. -1.
        -24    2    1    2    0    0  0.53895366481E+03 -0.30002595844E+03 -0.66710024199E+01  0.62183913336E+03  0.78439638929E+02 0.  0.
        254    2    1    2    0    0 -0.53895366481E+03  0.30002595844E+03  0.70068197709E+03  0.12968623003E+04  0.90022772917E+03 0.  0.
         23    2    4    4    0    0 -0.41320981513E+03  0.13242051122E+02 -0.97240142548E+02  0.43493670281E+03  0.93790121487E+02 0.  0.
         23    2    4    4    0    0 -0.12574384967E+03  0.28678390732E+03  0.79792211964E+03  0.86192559749E+03  0.90440595778E+02 0.  0.
          1    1    3    3  502    0  0.51795626554E+01 -0.16341736955E+02 -0.26702263208E+01  0.17349649697E+02  0.00000000000E+00 0. -1.
         -2    1    3    3    0  502  0.53377410215E+03 -0.28368422149E+03 -0.40007760991E+01  0.60448948366E+03  0.00000000000E+00 0.  1.
         13    1    5    5    0    0 -0.16155691947E+03 -0.29498763103E+02 -0.68958075463E+02  0.17811802667E+03  0.00000000000E+00 0.  1.
        -13    1    5    5    0    0 -0.25165289566E+03  0.42740814224E+02 -0.28282067086E+02  0.25681867614E+03  0.00000000000E+00 0. -1.
          1    1    6    6  503    0 -0.88307485989E+02  0.23593590280E+03  0.71231747275E+03  0.75555287327E+03  0.00000000000E+00 0. -1.
         -1    1    6    6    0  503 -0.37436363683E+02  0.50848004521E+02  0.85604646887E+02  0.10637272422E+03  0.00000000000E+00 0.  1.
<mgrwt>
<rscale>  0 0.17887884E+04</rscale>
<asrwt>0</asrwt>
<pdfrwt beam="1">  1        1 0.94206959E-01 0.17887884E+04</pdfrwt>
<pdfrwt beam="2">  1       -2 0.20097788E+00 0.17887884E+04</pdfrwt>
<totfact> 0.36001182E+00</totfact>
</mgrwt>
</event>
<event>
12    5  0.5221187E-008  0.2075861E+04  0.7818608E-02  0.8571952E-01
          1   -1    0    0  501    0  0.00000000000E+00  0.00000000000E+00  0.13088718958E+04  0.13088718958E+04  0.00000000000E+00 0. -1.
         -2   -1    0    0    0  501 -0.00000000000E+00 -0.00000000000E+00 -0.82307512133E+03  0.82307512133E+03  0.00000000000E+00 0.  1.
        -24    2    1    2    0    0 -0.81491159810E+03 -0.12367650034E+03  0.37221356415E+03  0.90811121964E+03  0.82135622283E+02 0.  0.
        254    2    1    2    0    0  0.81491159810E+03  0.12367650034E+03  0.11358321035E+03  0.12238357975E+04  0.89749435886E+03 0.  0.
         23    2    4    4    0    0  0.82816053747E+03  0.11420095362E+03  0.39352464186E+03  0.92838391171E+03  0.90240291156E+02 0.  0.
         23    2    4    4    0    0 -0.13248939364E+02  0.94755467220E+01 -0.27994143151E+03  0.29545188582E+03  0.93055313544E+02 0.  0.
          1    1    3    3  502    0 -0.82252990215E+02 -0.21215882191E+02  0.13748932950E+02  0.86050573582E+02  0.00000000000E+00 0. -1.
         -2    1    3    3    0  502 -0.73265860789E+03 -0.10246061815E+03  0.35846463120E+03  0.82206064606E+03  0.00000000000E+00 0.  1.
         13    1    5    5    0    0  0.65563797257E+02 -0.27716131654E-03  0.73096413172E+01  0.65970011119E+02  0.00000000000E+00 0.  1.
        -13    1    5    5    0    0  0.76259674021E+03  0.11420123078E+03  0.38621500054E+03  0.86241390059E+03  0.00000000000E+00 0. -1.
          1    1    6    6  503    0  0.37522844712E+02  0.17815591485E+02 -0.15141775786E+03  0.15701177207E+03  0.00000000000E+00 0. -1.
         -1    1    6    6    0  503 -0.50771784076E+02 -0.83400447627E+01 -0.12852367365E+03  0.13844011375E+03  0.00000000000E+00 0.  1.
<mgrwt>
<rscale>  0 0.20758612E+04</rscale>
<asrwt>0</asrwt>
<pdfrwt beam="1">  1        1 0.20136491E+00 0.20758612E+04</pdfrwt>
<pdfrwt beam="2">  1       -2 0.12662694E+00 0.20758612E+04</pdfrwt>
<totfact> 0.33459654E+00</totfact>
</mgrwt>
</event>
<event>
12    5  0.5221187E-008  0.2172826E+04  0.7818608E-02  0.8529824E-01
         -2   -1    0    0    0  501 -0.00000000000E+00  0.00000000000E+00  0.16972086740E+04  0.16972086740E+04  0.00000000000E+00 0.  1.
          1   -1    0    0  501    0  0.00000000000E+00 -0.00000000000E+00 -0.69543183221E+03  0.69543183221E+03  0.00000000000E+00 0. -1.
        -24    2    1    2    0    0 -0.72844908833E+02 -0.89513371076E+03  0.53079310283E+03  0.10462358117E+04  0.79355622816E+02 0.  0.
        254    2    1    2    0    0  0.72844908833E+02  0.89513371076E+03  0.47098373896E+03  0.13464046945E+04  0.88566877443E+03 0.  0.
         23    2    4    4    0    0 -0.24119272844E+03  0.58008859270E+03  0.60024152651E+03  0.87396693464E+03  0.94082968991E+02 0.  0.
         23    2    4    4    0    0  0.31403763727E+03  0.31504511806E+03 -0.12925778756E+03  0.47243775982E+03  0.92826705329E+02 0.  0.
          3    1    3    3  502    0  0.41291874710E+01 -0.12355969978E+03  0.46867715937E+02  0.13221434262E+03  0.00000000000E+00 0. -1.
         -4    1    3    3    0  502 -0.76974096304E+02 -0.77157401099E+03  0.48392538689E+03  0.91402146912E+03  0.00000000000E+00 0.  1.
         13    1    5    5    0    0 -0.59256103482E+02  0.66705815441E+02  0.65573753108E+02  0.11072880705E+03  0.00000000000E+00 0. -1.
        -13    1    5    5    0    0 -0.18193662495E+03  0.51338277726E+03  0.53466777341E+03  0.76323812759E+03  0.00000000000E+00 0.  1.
          3    1    6    6  503    0  0.10004191315E+03  0.56953034031E+02 -0.61036460399E+02  0.13029766679E+03  0.00000000000E+00 0. -1.
         -3    1    6    6    0  503  0.21399572412E+03  0.25809208403E+03 -0.68221327158E+02  0.34214009303E+03  0.00000000000E+00 0.  1.
<mgrwt>
<rscale>  0 0.21728258E+04</rscale>
<asrwt>0</asrwt>
<pdfrwt beam="1">  1        1 0.10698951E+00 0.21728258E+04</pdfrwt>
<pdfrwt beam="2">  1       -2 0.26110903E+00 0.21728258E+04</pdfrwt>
<totfact> 0.12101680E+00</totfact>
</mgrwt>
</event>
<event>
12    5  0.5221187E-008  0.2572920E+04  0.7818608E-02  0.8377458E-01
         -2   -1    0    0    0  501 -0.00000000000E+00  0.00000000000E+00  0.18541271680E+04  0.18541271680E+04  0.00000000000E+00 0.  1.
          1   -1    0    0  501    0  0.00000000000E+00 -0.00000000000E+00 -0.89259182733E+03  0.89259182733E+03  0.00000000000E+00 0. -1.
        -24    2    1    2    0    0 -0.56805918897E+03 -0.29306639724E+03  0.14134750400E+04  0.15536388674E+04  0.85456925048E+02 0.  0.
        254    2    1    2    0    0  0.56805918897E+03  0.29306639724E+03 -0.45193969932E+03  0.11930801280E+04  0.90033968292E+03 0.  0.
         23    2    4    4    0    0  0.13723997223E+03 -0.28969222718E+03 -0.29808530526E+03  0.44700914389E+03  0.90586583120E+02 0.  0.
         23    2    4    4    0    0  0.43081921674E+03  0.58275862441E+03 -0.15385439405E+03  0.74607098411E+03  0.87965487095E+02 0.  0.
          1    1    3    3  502    0 -0.57402827792E+02 -0.44651181735E+02  0.22503491223E+03  0.23649423754E+03  0.00000000000E+00 0. -1.
         -2    1    3    3    0  502 -0.51065636118E+03 -0.24841521550E+03  0.11884401278E+04  0.13171446298E+04  0.00000000000E+00 0.  1.
         13    1    5    5    0    0  0.68074994052E+02 -0.66196343027E+02 -0.55470189360E+02  0.10996864350E+03  0.00000000000E+00 0. -1.
        -13    1    5    5    0    0  0.69164978182E+02 -0.22349588415E+03 -0.24261511590E+03  0.33704050039E+03  0.00000000000E+00 0.  1.
          3    1    6    6  503    0  0.19742599409E+01  0.14769289561E+02 -0.14623832300E+02  0.20877885132E+02  0.00000000000E+00 0. -1.
         -3    1    6    6    0  503  0.42884495680E+03  0.56798933485E+03 -0.13923056175E+03  0.72519309898E+03  0.00000000000E+00 0.  1.
<mgrwt>
<rscale>  0 0.25729196E+04</rscale>
<asrwt>0</asrwt>
<pdfrwt beam="1">  1        1 0.13732182E+00 0.25729196E+04</pdfrwt>
<pdfrwt beam="2">  1       -2 0.28525033E+00 0.25729196E+04</pdfrwt>
<totfact> 0.55890560E-01</totfact>
</mgrwt>
</event>
<event>
12    5  0.5221187E-008  0.1101988E+04  0.7818608E-02  0.9203257E-01
          1   -1    0    0  501    0  0.00000000000E+00  0.00000000000E+00  0.75665200943E+03  0.75665200943E+03  0.00000000000E+00 0. -1.
         -4   -1    0    0    0  501 -0.00000000000E+00 -0.00000000000E+00 -0.40123368896E+03  0.40123368896E+03  0.00000000000E+00 0.  1.
        -24    2    1    2    0    0 -0.42716602801E+02 -0.11933262370E+03 -0.61897907757E+02  0.16360187322E+03  0.82880870538E+02 0.  0.
        254    2    1    2    0    0  0.42716602801E+02  0.11933262370E+03  0.41731622823E+03  0.99428382517E+03  0.89352252765E+03 0.  0.
         23    2    4    4    0    0 -0.24793632934E+02 -0.16138816727E+01  0.67830676196E+03  0.68504111443E+03  0.92541538242E+02 0.  0.
         23    2    4    4    0    0  0.67510235734E+02  0.12094650538E+03 -0.26099053372E+03  0.30924271074E+03  0.91265033597E+02 0.  0.
          3    1    3    3  502    0  0.24240506273E+02 -0.19025023095E+02 -0.11440866348E+02  0.32870154714E+02  0.00000000000E+00 0. -1.
         -4    1    3    3    0  502 -0.66957109074E+02 -0.10030760061E+03 -0.50457041409E+02  0.13073171850E+03  0.00000000000E+00 0.  1.
         13    1    5    5    0    0  0.86543263416E+01 -0.20502349563E+02  0.41615013333E+02  0.47191662788E+02  0.00000000000E+00 0. -1.
        -13    1    5    5    0    0 -0.33447959275E+02  0.18888467890E+02  0.63669174862E+03  0.63784945164E+03  0.00000000000E+00 0.  1.
          1    1    6    6  503    0 -0.16622002301E+02  0.24665275885E+01 -0.10991032324E+02  0.20079280624E+02  0.00000000000E+00 0. -1.
         -1    1    6    6    0  503  0.84132238035E+02  0.11847997779E+03 -0.24999950140E+03  0.28916343011E+03  0.00000000000E+00 0.  1.
<mgrwt>
<rscale>  0 0.11019878E+04</rscale>
<asrwt>0</asrwt>
<pdfrwt beam="1">  1        1 0.11640800E+00 0.11019878E+04</pdfrwt>
<pdfrwt beam="2">  1       -4 0.61728260E-01 0.11019878E+04</pdfrwt>
<totfact> 0.28770009E+01</totfact>
</mgrwt>
</event>
<event>
12    5  0.5221187E-008  0.2692099E+04  0.7818608E-02  0.8337573E-01
         -2   -1    0    0    0  501 -0.00000000000E+00  0.00000000000E+00  0.59556319312E+03  0.59556319312E+03  0.00000000000E+00 0.  1.
          1   -1    0    0  501    0  0.00000000000E+00 -0.00000000000E+00 -0.30422455680E+04  0.30422455680E+04  0.00000000000E+00 0. -1.
        -24    2    1    2    0    0  0.70089685287E+03 -0.46459058566E+03 -0.22597337944E+04  0.24123338003E+04  0.76529285280E+02 0.  0.
        254    2    1    2    0    0 -0.70089685287E+03  0.46459058566E+03 -0.18694858042E+03  0.12254749608E+04  0.87162967898E+03 0.  0.
         23    2    4    4    0    0 -0.82544738436E+03  0.12787342083E+03 -0.12223421335E+03  0.84930978682E+03  0.93117747870E+02 0.  0.
         23    2    4    4    0    0  0.12455053149E+03  0.33671716484E+03 -0.64714367064E+02  0.37616517402E+03  0.91766033200E+02 0.  0.
          1    1    3    3  502    0  0.39145145855E+03 -0.21962991108E+03 -0.12561464943E+04  0.13339323661E+04  0.00000000000E+00 0. -1.
         -2    1    3    3    0  502  0.30944539431E+03 -0.24496067459E+03 -0.10035873002E+04  0.10784014342E+04  0.00000000000E+00 0.  1.
         13    1    5    5    0    0 -0.55432860985E+02  0.33297530497E+02 -0.99093180268E+01  0.65419585737E+02  0.00000000000E+00 0. -1.
        -13    1    5    5    0    0 -0.77001452337E+03  0.94575890330E+02 -0.11232489532E+03  0.78389020108E+03  0.00000000000E+00 0.  1.
          4    1    6    6  503    0 -0.24918365617E+01  0.11446761828E+03 -0.23250925457E+02  0.11683171838E+03  0.00000000000E+00 0. -1.
         -4    1    6    6    0  503  0.12704236805E+03  0.22224954656E+03 -0.41463441607E+02  0.25933345564E+03  0.00000000000E+00 0.  1.
<mgrwt>
<rscale>  0 0.26920992E+04</rscale>
<asrwt>0</asrwt>
<pdfrwt beam="1">  1        1 0.46803778E+00 0.26920992E+04</pdfrwt>
<pdfrwt beam="2">  1       -2 0.91625107E-01 0.26920992E+04</pdfrwt>
<totfact> 0.43361626E-01</totfact>
</mgrwt>
</event>
<event>
12    5  0.5221187E-008  0.1098487E+04  0.7818608E-02  0.9206668E-01
         -2   -1    0    0    0  501 -0.00000000000E+00  0.00000000000E+00  0.21112163247E+03  0.21112163247E+03  0.00000000000E+00 0.  1.
          1   -1    0    0  501    0  0.00000000000E+00 -0.00000000000E+00 -0.14288851783E+04  0.14288851783E+04  0.00000000000E+00 0. -1.
        -24    2    1    2    0    0 -0.76890550278E+02  0.12807828963E+03 -0.48598740681E+03  0.51490027890E+03  0.81377715887E+02 0.  0.
        254    2    1    2    0    0  0.76890550278E+02 -0.12807828963E+03 -0.73177613904E+03  0.11251065319E+04  0.84145836821E+03 0.  0.
         23    2    4    4    0    0 -0.14953045040E+01 -0.23166719141E+03  0.10676640391E+03  0.27184829672E+03  0.93970782234E+02 0.  0.
         23    2    4    4    0    0  0.78385854782E+02  0.10358890179E+03 -0.83854254295E+03  0.85325823517E+03  0.89560129193E+02 0.  0.
          3    1    3    3  502    0 -0.50664071444E+02  0.13374777131E+03 -0.41908083334E+03  0.44281379759E+03  0.00000000000E+00 0. -1.
         -4    1    3    3    0  502 -0.26226478834E+02 -0.56694816818E+01 -0.66906573473E+02  0.72086481316E+02  0.00000000000E+00 0.  1.
         13    1    5    5    0    0 -0.10011987478E+02 -0.90183509716E+02  0.92202408368E+02  0.12936224112E+03  0.00000000000E+00 0.  1.
        -13    1    5    5    0    0  0.85166829736E+01 -0.14148368170E+03  0.14563995539E+02  0.14248605560E+03  0.00000000000E+00 0. -1.
          2    1    6    6  503    0  0.10046218877E+02  0.75294824497E+02 -0.29137111689E+03  0.30111022046E+03  0.00000000000E+00 0. -1.
         -2    1    6    6    0  503  0.68339635905E+02  0.28294077289E+02 -0.54717142606E+03  0.55214801470E+03  0.00000000000E+00 0.  1.
<mgrwt>
<rscale>  0 0.10984873E+04</rscale>
<asrwt>0</asrwt>
<pdfrwt beam="1">  1        1 0.21982849E+00 0.10984873E+04</pdfrwt>
<pdfrwt beam="2">  1       -2 0.32480251E-01 0.10984873E+04</pdfrwt>
<totfact> 0.56610576E+01</totfact>
</mgrwt>
</event>
<event>
12    5  0.5221187E-008  0.9952080E+03  0.7818608E-02  0.9313816E-01
          1   -1    0    0  501    0  0.00000000000E+00  0.00000000000E+00  0.17865486601E+04  0.17865486601E+04  0.00000000000E+00 0. -1.
         -2   -1    0    0    0  501 -0.00000000000E+00 -0.00000000000E+00 -0.13859669612E+03  0.13859669612E+03  0.00000000000E+00 0.  1.
        -24    2    1    2    0    0  0.47723618474E+02 -0.24176466969E+02  0.17396336135E+03  0.19791799360E+03  0.77757544842E+02 0.  0.
        254    2    1    2    0    0 -0.47723618474E+02  0.24176466969E+02  0.14739886027E+04  0.17272273627E+04  0.89878246323E+03 0.  0.
         23    2    4    4    0    0  0.29861313725E+03 -0.25596497146E+03  0.43505256203E+03  0.59328696432E+03  0.89614831088E+02 0.  0.
         23    2    4    4    0    0 -0.34633675572E+03  0.28014143843E+03  0.10389360406E+04  0.11339403983E+04  0.89467069655E+02 0.  0.
          3    1    3    3  502    0  0.14471026867E+02  0.11794275461E+02  0.13229931217E+03  0.13360996802E+03  0.00000000000E+00 0. -1.
         -4    1    3    3    0  502  0.33252591608E+02 -0.35970742430E+02  0.41664049182E+02  0.64308025578E+02  0.00000000000E+00 0.  1.
         13    1    5    5    0    0  0.49683073722E+02 -0.30991712136E+02  0.25571229939E+02  0.63896649647E+02  0.00000000000E+00 0.  1.
        -13    1    5    5    0    0  0.24893006353E+03 -0.22497325933E+03  0.40948133209E+03  0.52939031467E+03  0.00000000000E+00 0. -1.
          3    1    6    6  503    0 -0.10577724823E+03  0.48275254108E+02  0.20699820517E+03  0.23741858256E+03  0.00000000000E+00 0. -1.
         -3    1    6    6    0  503 -0.24055950750E+03  0.23186618432E+03  0.83193783546E+03  0.89652181577E+03  0.00000000000E+00 0.  1.
<mgrwt>
<rscale>  0 0.99520800E+03</rscale>
<asrwt>0</asrwt>
<pdfrwt beam="1">  1        1 0.27485362E+00 0.99520800E+03</pdfrwt>
<pdfrwt beam="2">  1       -2 0.21322570E-01 0.99520800E+03</pdfrwt>
<totfact> 0.70083029E+01</totfact>
</mgrwt>
</event>
<event>
12    5  0.5221187E-008  0.1870086E+04  0.7818608E-02  0.8669892E-01
         -2   -1    0    0    0  501 -0.00000000000E+00  0.00000000000E+00  0.12611873757E+04  0.12611873757E+04  0.00000000000E+00 0.  1.
          1   -1    0    0  501    0  0.00000000000E+00 -0.00000000000E+00 -0.69323960003E+03  0.69323960003E+03  0.00000000000E+00 0. -1.
        -24    2    1    2    0    0  0.49184290536E+03 -0.91725517870E+02 -0.31572951677E+03  0.59629453938E+03  0.74558941469E+02 0.  0.
        254    2    1    2    0    0 -0.49184290536E+03  0.91725517870E+02  0.88367729243E+03  0.13581324363E+04  0.90183986567E+03 0.  0.
         23    2    4    4    0    0  0.15681676795E+03 -0.21130866045E+03  0.40631397601E+03  0.49250909311E+03  0.90726572754E+02 0.  0.
         23    2    4    4    0    0 -0.64865967331E+03  0.30303417832E+03  0.47736331642E+03  0.86562334323E+03  0.94015697987E+02 0.  0.
          3    1    3    3  502    0  0.27702069758E+03 -0.27033730556E+02 -0.14152526720E+03  0.31225100597E+03  0.00000000000E+00 0. -1.
         -2    1    3    3    0  502  0.21482220778E+03 -0.64691787315E+02 -0.17420424958E+03  0.28404353341E+03  0.00000000000E+00 0.  1.
         13    1    5    5    0    0  0.11425249828E+03 -0.18610828971E+03  0.26855292662E+03  0.34613668291E+03  0.00000000000E+00 0.  1.
        -13    1    5    5    0    0  0.42564269676E+02 -0.25200370743E+02  0.13776104939E+03  0.14637241020E+03  0.00000000000E+00 0. -1.
          4    1    6    6  503    0 -0.12855263111E+03  0.21784670455E+02  0.97977695198E+02  0.16309500173E+03  0.00000000000E+00 0. -1.
         -4    1    6    6    0  503 -0.52010704220E+03  0.28124950787E+03  0.37938562122E+03  0.70252834150E+03  0.00000000000E+00 0.  1.
<mgrwt>
<rscale>  0 0.18700856E+04</rscale>
<asrwt>0</asrwt>
<pdfrwt beam="1">  1        1 0.10665225E+00 0.18700856E+04</pdfrwt>
<pdfrwt beam="2">  1       -2 0.19402883E+00 0.18700856E+04</pdfrwt>
<totfact> 0.33064502E+00</totfact>
</mgrwt>
</event>
<event>
12    5  0.5221187E-008  0.2143357E+04  0.7818608E-02  0.8542381E-01
          1   -1    0    0  501    0  0.00000000000E+00  0.00000000000E+00  0.38748020545E+04  0.38748020545E+04  0.00000000000E+00 0. -1.
         -2   -1    0    0    0  501 -0.00000000000E+00 -0.00000000000E+00 -0.29640101639E+03  0.29640101639E+03  0.00000000000E+00 0.  1.
        -24    2    1    2    0    0 -0.47658599530E+03 -0.70060758713E+03  0.19474949689E+04  0.21253704488E+04  0.80484089037E+02 0.  0.
        254    2    1    2    0    0  0.47658599530E+03  0.70060758713E+03  0.16309060693E+04  0.20458326221E+04  0.89866084206E+03 0.  0.
         23    2    4    4    0    0  0.28760077970E+03 -0.16541322746E+03  0.45052064997E+03  0.56683060684E+03  0.90842371738E+02 0.  0.
         23    2    4    4    0    0  0.18898521560E+03  0.86602081459E+03  0.11803854193E+04  0.14790020153E+04  0.91813725568E+02 0.  0.
          3    1    3    3  502    0 -0.35107582656E+03 -0.48988496284E+03  0.12977040895E+04  0.14308310231E+04  0.00000000000E+00 0. -1.
         -4    1    3    3    0  502 -0.12551016874E+03 -0.21072262428E+03  0.64979087939E+03  0.69453942565E+03  0.00000000000E+00 0.  1.
         13    1    5    5    0    0  0.21996067301E+03 -0.81283078440E+02  0.28284703319E+03  0.36741268445E+03  0.00000000000E+00 0. -1.
        -13    1    5    5    0    0  0.67640106688E+02 -0.84130149018E+02  0.16767361678E+03  0.19941792239E+03  0.00000000000E+00 0.  1.
          4    1    6    6  503    0  0.10602696832E+03  0.36058021018E+03  0.43934481043E+03  0.57817269776E+03  0.00000000000E+00 0. -1.
         -4    1    6    6    0  503  0.82958247283E+02  0.50544060440E+03  0.74104060885E+03  0.90082931754E+03  0.00000000000E+00 0.  1.
<mgrwt>
<rscale>  0 0.21433574E+04</rscale>
<asrwt>0</asrwt>
<pdfrwt beam="1">  1        1 0.59612336E+00 0.21433574E+04</pdfrwt>
<pdfrwt beam="2">  1       -2 0.45600159E-01 0.21433574E+04</pdfrwt>
<totfact> 0.45479236E-01</totfact>
</mgrwt>
</event>
<event>
12    5  0.5221187E-008  0.1318198E+04  0.7818608E-02  0.9015258E-01
          1   -1    0    0  501    0  0.00000000000E+00  0.00000000000E+00  0.11633021405E+04  0.11633021405E+04  0.00000000000E+00 0. -1.
         -2   -1    0    0    0  501 -0.00000000000E+00 -0.00000000000E+00 -0.37342937858E+03  0.37342937858E+03  0.00000000000E+00 0.  1.
        -24    2    1    2    0    0 -0.15868608670E+03  0.19975512984E+02 -0.15487742288E+03  0.23669807709E+03  0.80365840700E+02 0.  0.
        254    2    1    2    0    0  0.15868608670E+03 -0.19975512984E+02  0.94475018482E+03  0.13000334420E+04  0.87860898209E+03 0.  0.
         23    2    4    4    0    0 -0.46630933617E+02  0.58199097379E+02  0.10379876653E+04  0.10443836456E+04  0.88075122191E+02 0.  0.
         23    2    4    4    0    0  0.20531702031E+03 -0.78174610363E+02 -0.93237480439E+02  0.25564979637E+03  0.91636467040E+02 0.  0.
          3    1    3    3  502    0 -0.68961328120E+01 -0.15012454581E+02  0.70881651661E+00  0.16535805429E+02  0.00000000000E+00 0. -1.
         -4    1    3    3    0  502 -0.15178995388E+03  0.34987967566E+02 -0.15558623940E+03  0.22016227166E+03  0.00000000000E+00 0.  1.
         13    1    5    5    0    0  0.15699695722E+02  0.32377871878E+02  0.61475838011E+03  0.61581058204E+03  0.00000000000E+00 0.  1.
        -13    1    5    5    0    0 -0.62330629339E+02  0.25821225501E+02  0.42322928515E+03  0.42857306360E+03  0.00000000000E+00 0. -1.
          3    1    6    6  503    0  0.61758923997E+02 -0.54625060953E+02  0.74847304879E+00  0.82453757884E+02  0.00000000000E+00 0. -1.
         -3    1    6    6    0  503  0.14355809632E+03 -0.23549549410E+02 -0.93985953488E+02  0.17319603849E+03  0.00000000000E+00 0.  1.
<mgrwt>
<rscale>  0 0.13181976E+04</rscale>
<asrwt>0</asrwt>
<pdfrwt beam="1">  1        1 0.17896956E+00 0.13181976E+04</pdfrwt>
<pdfrwt beam="2">  1       -2 0.57450674E-01 0.13181976E+04</pdfrwt>
<totfact> 0.27770031E+01</totfact>
</mgrwt>
</event>
<event>
12    5  0.5221187E-008  0.2044218E+04  0.7818608E-02  0.8586222E-01
          1   -1    0    0  501    0  0.00000000000E+00  0.00000000000E+00  0.20823447307E+04  0.20823447307E+04  0.00000000000E+00 0. -1.
         -2   -1    0    0    0  501 -0.00000000000E+00 -0.00000000000E+00 -0.50169723761E+03  0.50169723761E+03  0.00000000000E+00 0.  1.
        -24    2    1    2    0    0  0.23448133175E+03  0.23435698276E+03 -0.31298838691E+03  0.46280182516E+03  0.79492821848E+02 0.  0.
        254    2    1    2    0    0 -0.23448133175E+03 -0.23435698276E+03  0.18936358800E+04  0.21212401431E+04  0.89660370765E+03 0.  0.
         23    2    4    4    0    0  0.14609096921E+03  0.26655191130E+03  0.71731684266E+03  0.78417301437E+03  0.89394468438E+02 0.  0.
         23    2    4    4    0    0 -0.38057230096E+03 -0.50090889406E+03  0.11763190373E+04  0.13370671287E+04  0.90978199918E+02 0.  0.
          1    1    3    3  502    0  0.18279890973E+03  0.14409194807E+03 -0.18158272375E+03  0.29521215500E+03  0.00000000000E+00 0. -1.
         -2    1    3    3    0  502  0.51682422018E+02  0.90265034688E+02 -0.13140566316E+03  0.16758967016E+03  0.00000000000E+00 0.  1.
         13    1    5    5    0    0  0.12058411490E+03  0.13691399050E+03  0.46143308173E+03  0.49619195729E+03  0.00000000000E+00 0.  1.
        -13    1    5    5    0    0  0.25506854305E+02  0.12963792080E+03  0.25588376093E+03  0.28798105708E+03  0.00000000000E+00 0. -1.
          3    1    6    6  503    0 -0.20594834171E+03 -0.33635870857E+03  0.68952681718E+03  0.79435453791E+03  0.00000000000E+00 0. -1.
         -3    1    6    6    0  503 -0.17462395925E+03 -0.16455018549E+03  0.48679222010E+03  0.54271259083E+03  0.00000000000E+00 0.  1.
<mgrwt>
<rscale>  0 0.20442178E+04</rscale>
<asrwt>0</asrwt>
<pdfrwt beam="1">  1        1 0.32036072E+00 0.20442178E+04</pdfrwt>
<pdfrwt beam="2">  1       -2 0.77184192E-01 0.20442178E+04</pdfrwt>
<totfact> 0.31853564E+00</totfact>
</mgrwt>
</event>
<event>
12    5  0.5221187E-008  0.2250662E+04  0.7818608E-02  0.8497633E-01
          3   -1    0    0  501    0  0.00000000000E+00  0.00000000000E+00  0.14009293968E+04  0.14009293968E+04  0.00000000000E+00 0. -1.
         -4   -1    0    0    0  501 -0.00000000000E+00 -0.00000000000E+00 -0.90394959711E+03  0.90394959711E+03  0.00000000000E+00 0.  1.
        -24    2    1    2    0    0  0.89250851190E+03  0.30081072142E+03  0.20451185656E+03  0.96788636893E+03  0.88996571656E+02 0.  0.
        254    2    1    2    0    0 -0.89250851190E+03 -0.30081072142E+03  0.29246794314E+03  0.13369926250E+04  0.90274761013E+03 0.  0.
         23    2    4    4    0    0 -0.17199467009E+03  0.16850090118E+03 -0.21319014477E+03  0.33538763888E+03  0.95184611386E+02 0.  0.
         23    2    4    4    0    0 -0.72051384180E+03 -0.46931162260E+03  0.50565808791E+03  0.10016049861E+04  0.90160140843E+02 0.  0.
          1    1    3    3  502    0  0.86207951159E+02  0.48804453723E+02  0.42159219521E+02  0.10766190290E+03  0.00000000000E+00 0. -1.
         -2    1    3    3    0  502  0.80630056074E+03  0.25200626770E+03  0.16235263704E+03  0.86022446603E+03  0.00000000000E+00 0.  1.
         13    1    5    5    0    0 -0.11020634012E+03  0.52723891453E+02 -0.13733015065E+03  0.18380646455E+03  0.00000000000E+00 0. -1.
        -13    1    5    5    0    0 -0.61788329972E+02  0.11577700973E+03 -0.75859994124E+02  0.15158117433E+03  0.00000000000E+00 0.  1.
          3    1    6    6  503    0 -0.20626502946E+03 -0.98994832947E+02  0.10392619333E+03  0.25128846569E+03  0.00000000000E+00 0. -1.
         -3    1    6    6    0  503 -0.51424881234E+03 -0.37031678966E+03  0.40173189458E+03  0.75031652042E+03  0.00000000000E+00 0.  1.
<mgrwt>
<rscale>  0 0.22506617E+04</rscale>
<asrwt>0</asrwt>
<pdfrwt beam="1">  1        3 0.21552760E+00 0.22506617E+04</pdfrwt>
<pdfrwt beam="2">  1       -4 0.13906917E+00 0.22506617E+04</pdfrwt>
<totfact> 0.89357501E-02</totfact>
</mgrwt>
</event>
<event>
12    5  0.5221187E-008  0.2475153E+04  0.7818608E-02  0.8411891E-01
          1   -1    0    0  501    0  0.00000000000E+00  0.00000000000E+00  0.15321124764E+04  0.15321124764E+04  0.00000000000E+00 0. -1.
         -2   -1    0    0    0  501 -0.00000000000E+00 -0.00000000000E+00 -0.99966245794E+03  0.99966245794E+03  0.00000000000E+00 0.  1.
        -24    2    1    2    0    0  0.98033005588E+03 -0.38788290641E+03  0.43107561407E+03  0.11417204317E+04  0.78734945519E+02 0.  0.
        254    2    1    2    0    0 -0.98033005588E+03  0.38788290641E+03  0.10137440442E+03  0.13900545026E+04  0.90026361856E+03 0.  0.
         23    2    4    4    0    0 -0.11193662864E+04  0.25828392663E+03  0.17787621965E+03  0.11661117212E+04  0.92114748468E+02 0.  0.
         23    2    4    4    0    0  0.13903623050E+03  0.12959897978E+03 -0.76501815225E+02  0.22394278148E+03  0.90392879653E+02 0.  0.
          3    1    3    3  502    0  0.11511533475E+03 -0.19213713264E+02  0.49765146095E+02  0.12687504419E+03  0.00000000000E+00 0. -1.
         -4    1    3    3    0  502  0.86521472113E+03 -0.36866919314E+03  0.38131046798E+03  0.10148453875E+04  0.00000000000E+00 0.  1.
         13    1    5    5    0    0 -0.19870583394E+03  0.48130349879E+02  0.67680457255E+02  0.21536291073E+03  0.00000000000E+00 0.  1.
        -13    1    5    5    0    0 -0.92066045243E+03  0.21015357675E+03  0.11019576239E+03  0.95074881043E+03  0.00000000000E+00 0. -1.
          4    1    6    6  503    0  0.14035300008E+03  0.13839788361E+03 -0.81996163006E+02  0.21348608753E+03  0.00000000000E+00 0. -1.
         -4    1    6    6    0  503 -0.13167695849E+01 -0.87989038324E+01  0.54943477811E+01  0.10456693948E+02  0.00000000000E+00 0.  1.
<mgrwt>
<rscale>  0 0.24751528E+04</rscale>
<asrwt>0</asrwt>
<pdfrwt beam="1">  1        1 0.23570961E+00 0.24751528E+04</pdfrwt>
<pdfrwt beam="2">  1       -2 0.15379422E+00 0.24751528E+04</pdfrwt>
<totfact> 0.13621462E+00</totfact>
</mgrwt>
</event>
<event>
12    5  0.5221187E-008  0.1598724E+04  0.7818608E-02  0.8821332E-01
          1   -1    0    0  501    0  0.00000000000E+00  0.00000000000E+00  0.21038651668E+04  0.21038651668E+04  0.00000000000E+00 0. -1.
         -2   -1    0    0    0  501 -0.00000000000E+00 -0.00000000000E+00 -0.30371709759E+03  0.30371709759E+03  0.00000000000E+00 0.  1.
        -24    2    1    2    0    0 -0.13156222371E+03  0.16141158376E+03  0.13527951240E+04  0.13708917470E+04  0.76988417246E+02 0.  0.
        254    2    1    2    0    0  0.13156222371E+03 -0.16141158376E+03  0.44735294515E+03  0.10366905173E+04  0.91172378116E+03 0.  0.
         23    2    4    4    0    0  0.16895137073E+03  0.14464621156E+03  0.62492055594E+03  0.66960187008E+03  0.91508857475E+02 0.  0.
         23    2    4    4    0    0 -0.37389147021E+02 -0.30605779531E+03 -0.17756761078E+03  0.36708864726E+03  0.90302248930E+02 0.  0.
          1    1    3    3  502    0 -0.91569244132E+02  0.10453763573E+03  0.10987648507E+04  0.11075185059E+04  0.00000000000E+00 0. -1.
         -2    1    3    3    0  502 -0.39992979575E+02  0.56873948023E+02  0.25403027335E+03  0.26337324116E+03  0.00000000000E+00 0.  1.
         13    1    5    5    0    0  0.39541750359E+02  0.32473856221E+01  0.51609824421E+02  0.65097384829E+02  0.00000000000E+00 0. -1.
        -13    1    5    5    0    0  0.12940962037E+03  0.14139882594E+03  0.57331073152E+03  0.60450448525E+03  0.00000000000E+00 0.  1.
          2    1    6    6  503    0 -0.62543380996E+01 -0.27399735244E+03 -0.16775397401E+03  0.32133325643E+03  0.00000000000E+00 0.  1.
         -2    1    6    6    0  503 -0.31134808921E+02 -0.32060442873E+02 -0.98136367746E+01  0.45755390835E+02  0.00000000000E+00 0. -1.
<mgrwt>
<rscale>  0 0.15987243E+04</rscale>
<asrwt>0</asrwt>
<pdfrwt beam="1">  1        1 0.32367155E+00 0.15987243E+04</pdfrwt>
<pdfrwt beam="2">  1       -2 0.46725709E-01 0.15987243E+04</pdfrwt>
<totfact> 0.92730247E+00</totfact>
</mgrwt>
</event>
<event>
12    5  0.5221187E-008  0.1576702E+04  0.7818608E-02  0.8834990E-01
         -2   -1    0    0    0  501 -0.00000000000E+00  0.00000000000E+00  0.30293340456E+03  0.30293340456E+03  0.00000000000E+00 0.  1.
          1   -1    0    0  501    0  0.00000000000E+00 -0.00000000000E+00 -0.20515972350E+04  0.20515972350E+04  0.00000000000E+00 0. -1.
        -24    2    1    2    0    0  0.27666238127E+03 -0.20478251113E+03 -0.11648558671E+04  0.12175803525E+04  0.84467588308E+02 0.  0.
        254    2    1    2    0    0 -0.27666238127E+03  0.20478251113E+03 -0.58380796333E+03  0.11369502871E+04  0.91287801332E+03 0.  0.
         23    2    4    4    0    0  0.17757490430E+03 -0.19857136375E+03  0.65859545458E+01  0.28476823959E+03  0.10042978811E+03 0.  0.
         23    2    4    4    0    0 -0.45423728557E+03  0.40335387489E+03 -0.59039391788E+03  0.85218204751E+03  0.92862284301E+02 0.  0.
          3    1    3    3  502    0  0.24881470606E+03 -0.19902712438E+03 -0.11202576325E+04  0.11646878197E+04  0.00000000000E+00 0. -1.
         -4    1    3    3    0  502  0.27847675205E+02 -0.57553867559E+01 -0.44598234630E+02  0.52892532773E+02  0.00000000000E+00 0.  1.
         13    1    5    5    0    0  0.89533772064E+02 -0.43809349713E+02  0.32496693272E+02  0.10484078660E+03  0.00000000000E+00 0. -1.
        -13    1    5    5    0    0  0.88041132238E+02 -0.15476201404E+03 -0.25910738726E+02  0.17992745298E+03  0.00000000000E+00 0.  1.
          2    1    6    6  503    0 -0.21501774878E+03  0.13933797599E+03 -0.21306102591E+03  0.33323070778E+03  0.00000000000E+00 0. -1.
         -2    1    6    6    0  503 -0.23921953679E+03  0.26401589890E+03 -0.37733289197E+03  0.51895133974E+03  0.00000000000E+00 0.  1.
<mgrwt>
<rscale>  0 0.15767020E+04</rscale>
<asrwt>0</asrwt>
<pdfrwt beam="1">  1        1 0.31563033E+00 0.15767020E+04</pdfrwt>
<pdfrwt beam="2">  1       -2 0.46605141E-01 0.15767020E+04</pdfrwt>
<totfact> 0.10133096E+01</totfact>
</mgrwt>
</event>
<event>
12    5  0.5221187E-008  0.2104356E+04  0.7818608E-02  0.8559327E-01
          1   -1    0    0  501    0  0.00000000000E+00  0.00000000000E+00  0.27909871014E+04  0.27909871014E+04  0.00000000000E+00 0. -1.
         -2   -1    0    0    0  501 -0.00000000000E+00 -0.00000000000E+00 -0.39666219050E+03  0.39666219050E+03  0.00000000000E+00 0.  1.
        -24    2    1    2    0    0  0.15832036266E+03 -0.22324586221E+03 -0.25080547090E+03  0.38015840941E+03  0.81932776007E+02 0.  0.
        254    2    1    2    0    0 -0.15832036266E+03  0.22324586221E+03  0.26451303818E+04  0.28074908825E+04  0.90021456682E+03 0.  0.
         23    2    4    4    0    0  0.37783134439E+02 -0.23221309072E+03  0.22865579746E+03  0.33903989783E+03  0.85522475722E+02 0.  0.
         23    2    4    4    0    0 -0.19610349709E+03  0.45545895293E+03  0.24164745843E+04  0.24684509846E+04  0.89450587225E+02 0.  0.
          3    1    3    3  502    0  0.96899714777E+01 -0.65122263966E+02 -0.82373762685E+02  0.10545255611E+03  0.00000000000E+00 0. -1.
         -4    1    3    3    0  502  0.14863039118E+03 -0.15812359824E+03 -0.16843170821E+03  0.27470585330E+03  0.00000000000E+00 0.  1.
         13    1    5    5    0    0  0.14940648836E+02 -0.15300944198E+02 -0.21344373393E+01  0.21491805502E+02  0.00000000000E+00 0. -1.
        -13    1    5    5    0    0  0.22842485603E+02 -0.21691214653E+03  0.23079023480E+03  0.31754809233E+03  0.00000000000E+00 0.  1.
          2    1    6    6  503    0 -0.26112858981E+02  0.77168058771E+02  0.26021276906E+03  0.27266733556E+03  0.00000000000E+00 0. -1.
         -2    1    6    6    0  503 -0.16999063811E+03  0.37829089416E+03  0.21562618152E+04  0.21957836491E+04  0.00000000000E+00 0.  1.
<mgrwt>
<rscale>  0 0.21043565E+04</rscale>
<asrwt>0</asrwt>
<pdfrwt beam="1">  1        1 0.42938262E+00 0.21043565E+04</pdfrwt>
<pdfrwt beam="2">  1       -2 0.61024954E-01 0.21043565E+04</pdfrwt>
<totfact> 0.17084730E+00</totfact>
</mgrwt>
</event>
<event>
12    5  0.5221187E-008  0.1505141E+04  0.7818608E-02  0.8881041E-01
          1   -1    0    0  501    0  0.00000000000E+00  0.00000000000E+00  0.12152731225E+04  0.12152731225E+04  0.00000000000E+00 0. -1.
         -2   -1    0    0    0  501 -0.00000000000E+00 -0.00000000000E+00 -0.46603700955E+03  0.46603700955E+03  0.00000000000E+00 0.  1.
        -24    2    1    2    0    0  0.12054782439E+03  0.39322751703E+03  0.38100322150E+01  0.41883613651E+03  0.79053999213E+02 0.  0.
        254    2    1    2    0    0 -0.12054782439E+03 -0.39322751703E+03  0.74542608072E+03  0.12624739955E+04  0.93221289921E+03 0.  0.
         23    2    4    4    0    0 -0.28184244294E+03  0.17783717442E+03  0.51596805264E+03  0.61957917311E+03  0.81204046448E+02 0.  0.
         23    2    4    4    0    0  0.16129461854E+03 -0.57106469144E+03  0.22945802808E+03  0.64289482242E+03  0.92368448408E+02 0.  0.
          1    1    3    3  502    0 -0.40401021983E+01  0.91482230017E+02  0.11504397291E+02  0.92291234642E+02  0.00000000000E+00 0. -1.
         -2    1    3    3    0  502  0.12458792659E+03  0.30174528701E+03 -0.76943650763E+01  0.32654490187E+03  0.00000000000E+00 0.  1.
         13    1    5    5    0    0 -0.20443737054E+03  0.16421532540E+03  0.36568648263E+03  0.44998657218E+03  0.00000000000E+00 0.  1.
        -13    1    5    5    0    0 -0.77405072398E+02  0.13621849023E+02  0.15028157001E+03  0.16959260093E+03  0.00000000000E+00 0. -1.
          2    1    6    6  503    0  0.39436837926E+02 -0.42461755802E+02  0.26208562974E+02  0.63601522503E+02  0.00000000000E+00 0. -1.
         -2    1    6    6    0  503  0.12185778062E+03 -0.52860293564E+03  0.20324946510E+03  0.57929329992E+03  0.00000000000E+00 0.  1.
<mgrwt>
<rscale>  0 0.15051409E+04</rscale>
<asrwt>0</asrwt>
<pdfrwt beam="1">  1        1 0.18696510E+00 0.15051409E+04</pdfrwt>
<pdfrwt beam="2">  1       -2 0.71698002E-01 0.15051409E+04</pdfrwt>
<totfact> 0.15578563E+01</totfact>
</mgrwt>
</event>
<event>
12    5  0.5221187E-008  0.1551292E+04  0.7818608E-02  0.8851043E-01
          1   -1    0    0  501    0  0.00000000000E+00  0.00000000000E+00  0.10054131136E+04  0.10054131136E+04  0.00000000000E+00 0. -1.
         -2   -1    0    0    0  501 -0.00000000000E+00 -0.00000000000E+00 -0.59838747823E+03  0.59838747823E+03  0.00000000000E+00 0.  1.
        -24    2    1    2    0    0 -0.10976838422E+03  0.39938077042E+03 -0.17734019648E+03  0.45723793211E+03  0.77864518970E+02 0.  0.
        254    2    1    2    0    0  0.10976838422E+03 -0.39938077042E+03  0.58436583186E+03  0.11465626597E+04  0.89530352915E+03 0.  0.
         23    2    4    4    0    0  0.41930188777E+03 -0.65825871636E+02  0.46217276182E+02  0.43630453187E+03  0.89880417484E+02 0.  0.
         23    2    4    4    0    0 -0.30953350355E+03 -0.33355489878E+03  0.53814855568E+03  0.71025812787E+03  0.88277289848E+02 0.  0.
          3    1    3    3  502    0 -0.22186280041E+01  0.14671676566E+03 -0.66776939769E+02  0.16121380623E+03  0.00000000000E+00 0. -1.
         -4    1    3    3    0  502 -0.10754975622E+03  0.25266400476E+03 -0.11056325671E+03  0.29602412587E+03  0.00000000000E+00 0.  1.
         13    1    5    5    0    0  0.61547196621E+02 -0.40062991772E+02 -0.66922794911E+01  0.73742032291E+02  0.00000000000E+00 0. -1.
        -13    1    5    5    0    0  0.35775469115E+03 -0.25762879864E+02  0.52909555673E+02  0.36256249958E+03  0.00000000000E+00 0.  1.
          4    1    6    6  503    0 -0.38871054548E+02 -0.24789097011E+02  0.23087228971E+02  0.51560433996E+02  0.00000000000E+00 0. -1.
         -4    1    6    6    0  503 -0.27066244900E+03 -0.30876580177E+03  0.51506132671E+03  0.65869769387E+03  0.00000000000E+00 0.  1.
<mgrwt>
<rscale>  0 0.15512919E+04</rscale>
<asrwt>0</asrwt>
<pdfrwt beam="1">  1        1 0.15467894E+00 0.15512919E+04</pdfrwt>
<pdfrwt beam="2">  1       -2 0.92059612E-01 0.15512919E+04</pdfrwt>
<totfact> 0.12691393E+01</totfact>
</mgrwt>
</event>
<event>
12    5  0.5221187E-008  0.2804037E+04  0.7818608E-02  0.8302016E-01
          1   -1    0    0  501    0  0.00000000000E+00  0.00000000000E+00  0.15876413592E+04  0.15876413592E+04  0.00000000000E+00 0. -1.
         -2   -1    0    0    0  501 -0.00000000000E+00 -0.00000000000E+00 -0.12380978483E+04  0.12380978483E+04  0.00000000000E+00 0.  1.
        -24    2    1    2    0    0 -0.10491322409E+04  0.24545329534E+03 -0.49369874067E+03  0.11879814431E+04  0.81459704376E+02 0.  0.
        254    2    1    2    0    0  0.10491322409E+04 -0.24545329534E+03  0.84324225156E+03  0.16377577645E+04  0.90014844397E+03 0.  0.
         23    2    4    4    0    0  0.11358458882E+04 -0.25288692154E+02  0.60742606812E+03  0.12915269403E+04  0.91049490497E+02 0.  0.
         23    2    4    4    0    0 -0.86713647269E+02 -0.22016460319E+03  0.23581618344E+03  0.34623082415E+03  0.90965939229E+02 0.  0.
          3    1    3    3  502    0 -0.23103792224E+03  0.32724383401E+02 -0.13626343059E+03  0.27021681905E+03  0.00000000000E+00 0. -1.
         -4    1    3    3    0  502 -0.81809431866E+03  0.21272891194E+03 -0.35743531009E+03  0.91776462402E+03  0.00000000000E+00 0.  1.
         13    1    5    5    0    0  0.10364973399E+04 -0.26791473131E+02  0.58177284771E+03  0.11889088128E+04  0.00000000000E+00 0. -1.
        -13    1    5    5    0    0  0.99348548233E+02  0.15027809763E+01  0.25653220414E+02  0.10261812756E+03  0.00000000000E+00 0.  1.
          4    1    6    6  503    0 -0.19702565319E+02 -0.58963745120E+02  0.13593455612E+02  0.63637224595E+02  0.00000000000E+00 0.  1.
         -4    1    6    6    0  503 -0.67011081950E+02 -0.16120085807E+03  0.22222272783E+03  0.28259359956E+03  0.00000000000E+00 0. -1.
<mgrwt>
<rscale>  0 0.28040366E+04</rscale>
<asrwt>0</asrwt>
<pdfrwt beam="1">  1        1 0.24425252E+00 0.28040366E+04</pdfrwt>
<pdfrwt beam="2">  1       -2 0.19047659E+00 0.28040366E+04</pdfrwt>
<totfact> 0.66559625E-01</totfact>
</mgrwt>
</event>
<event>
12    5  0.5221187E-008  0.1089209E+04  0.7818608E-02  0.9215774E-01
         -2   -1    0    0    0  501 -0.00000000000E+00  0.00000000000E+00  0.36910457417E+03  0.36910457417E+03  0.00000000000E+00 0.  1.
          1   -1    0    0  501    0  0.00000000000E+00 -0.00000000000E+00 -0.80354988487E+03  0.80354988487E+03  0.00000000000E+00 0. -1.
        -24    2    1    2    0    0 -0.70148402617E+02 -0.13559920112E+03 -0.64736507331E+02  0.18446072152E+03  0.80789854981E+02 0.  0.
        254    2    1    2    0    0  0.70148402617E+02  0.13559920112E+03 -0.36970880336E+03  0.98819373752E+03  0.90362288697E+03 0.  0.
         23    2    4    4    0    0  0.42616607877E+03  0.51611781639E+02  0.30386983437E+02  0.43866205646E+03  0.84968984424E+02 0.  0.
         23    2    4    4    0    0 -0.35601767615E+03  0.83987419482E+02 -0.40009578680E+03  0.54953168106E+03  0.90033091190E+02 0.  0.
          1    1    3    3  502    0 -0.63742166567E+02 -0.12140807103E+03 -0.83135811915E+02  0.16035755902E+03  0.00000000000E+00 0. -1.
         -2    1    3    3    0  502 -0.64062360504E+01 -0.14191130087E+02  0.18399304585E+02  0.24103162504E+02  0.00000000000E+00 0.  1.
         13    1    5    5    0    0  0.30714535799E+02  0.15508027836E+02 -0.17650704879E+02  0.38670777332E+02  0.00000000000E+00 0.  1.
        -13    1    5    5    0    0  0.39545154297E+03  0.36103753803E+02  0.48037688316E+02  0.39999127912E+03  0.00000000000E+00 0. -1.
          3    1    6    6  503    0 -0.33562704471E+03  0.96268782364E+02 -0.35163537041E+03  0.49554074033E+03  0.00000000000E+00 0. -1.
         -3    1    6    6    0  503 -0.20390631445E+02 -0.12281362882E+02 -0.48460416389E+02  0.53990940736E+02  0.00000000000E+00 0.  1.
<mgrwt>
<rscale>  0 0.10892088E+04</rscale>
<asrwt>0</asrwt>
<pdfrwt beam="1">  1        1 0.12362306E+00 0.10892088E+04</pdfrwt>
<pdfrwt beam="2">  1       -2 0.56785319E-01 0.10892088E+04</pdfrwt>
<totfact> 0.55789761E+01</totfact>
</mgrwt>
</event>
<event>
12    5  0.5221187E-008  0.1458607E+04  0.7818608E-02  0.8912455E-01
         -4   -1    0    0    0  501 -0.00000000000E+00  0.00000000000E+00  0.43489111490E+03  0.43489111490E+03  0.00000000000E+00 0.  1.
          3   -1    0    0  501    0  0.00000000000E+00 -0.00000000000E+00 -0.12230269160E+04  0.12230269160E+04  0.00000000000E+00 0. -1.
        -24    2    1    2    0    0 -0.24234067656E+03  0.10944670208E+03 -0.65027206689E+03  0.70724427084E+03  0.81443928826E+02 0.  0.
        254    2    1    2    0    0  0.24234067656E+03 -0.10944670208E+03 -0.13786373421E+03  0.95067376006E+03  0.90225639634E+03 0.  0.
         23    2    4    4    0    0  0.40208508437E+03 -0.32908677390E+03 -0.31487020644E+03  0.61379470785E+03  0.87350882361E+02 0.  0.
         23    2    4    4    0    0 -0.15974440781E+03  0.21964007182E+03  0.17700647223E+03  0.33687905221E+03  0.91630604236E+02 0.  0.
          1    1    3    3  502    0 -0.19069145690E+03  0.10831994848E+03 -0.57959595317E+03  0.61969985630E+03  0.00000000000E+00 0. -1.
         -2    1    3    3    0  502 -0.51649219661E+02  0.11267535949E+01 -0.70676113727E+02  0.87544414538E+02  0.00000000000E+00 0.  1.
         13    1    5    5    0    0  0.36537612933E+03 -0.26104842316E+03 -0.25875730331E+03  0.51826763080E+03  0.00000000000E+00 0.  1.
        -13    1    5    5    0    0  0.36708955036E+02 -0.68038350737E+02 -0.56112903127E+02  0.95527077042E+02  0.00000000000E+00 0. -1.
          3    1    6    6  503    0 -0.75439926153E+02  0.16973919953E+03  0.13813982399E+03  0.23148474958E+03  0.00000000000E+00 0. -1.
         -3    1    6    6    0  503 -0.84304481655E+02  0.49900872291E+02  0.38866648242E+02  0.10539430264E+03  0.00000000000E+00 0.  1.
<mgrwt>
<rscale>  0 0.14586069E+04</rscale>
<asrwt>0</asrwt>
<pdfrwt beam="1">  1        3 0.18815798E+00 0.14586069E+04</pdfrwt>
<pdfrwt beam="2">  1       -4 0.66906328E-01 0.14586069E+04</pdfrwt>
<totfact> 0.80618600E-01</totfact>
</mgrwt>
</event>
<event>
12    5  0.5221187E-008  0.1340260E+04  0.7818608E-02  0.8998234E-01
         -2   -1    0    0    0  501 -0.00000000000E+00  0.00000000000E+00  0.18210489325E+03  0.18210489325E+03  0.00000000000E+00 0.  1.
          1   -1    0    0  501    0  0.00000000000E+00 -0.00000000000E+00 -0.24660189407E+04  0.24660189407E+04  0.00000000000E+00 0. -1.
        -24    2    1    2    0    0  0.25188908020E+03  0.25207567709E+03 -0.55301337841E+03  0.66211233746E+03  0.74690662149E+02 0.  0.
        254    2    1    2    0    0 -0.25188908020E+03 -0.25207567709E+03 -0.17309006691E+04  0.19860114965E+04  0.90621977601E+03 0.  0.
         23    2    4    4    0    0  0.31165838177E+03 -0.19881009549E+03 -0.50795270584E+03  0.63547172297E+03  0.95665868165E+02 0.  0.
         23    2    4    4    0    0 -0.56354746197E+03 -0.53265581601E+02 -0.12229479632E+04  0.13505397736E+04  0.89067362749E+02 0.  0.
          3    1    3    3  502    0  0.18302416327E+02 -0.23198302438E+00 -0.15248645601E+02  0.23823380369E+02  0.00000000000E+00 0. -1.
         -4    1    3    3    0  502  0.23358666387E+03  0.25230766011E+03 -0.53776473281E+03  0.63828895709E+03  0.00000000000E+00 0.  1.
         13    1    5    5    0    0  0.17154023362E+03 -0.16400462638E+03 -0.32430959092E+03  0.40187097431E+03  0.00000000000E+00 0. -1.
        -13    1    5    5    0    0  0.14011814815E+03 -0.34805469105E+02 -0.18364311492E+03  0.23360074867E+03  0.00000000000E+00 0.  1.
          2    1    6    6  503    0 -0.29269793830E+03  0.16684011086E+02 -0.63928357842E+03  0.70330216334E+03  0.00000000000E+00 0. -1.
         -2    1    6    6    0  503 -0.27084952366E+03 -0.69949592688E+02 -0.58366438481E+03  0.64723761022E+03  0.00000000000E+00 0.  1.
<mgrwt>
<rscale>  0 0.13402598E+04</rscale>
<asrwt>0</asrwt>
<pdfrwt beam="1">  1        1 0.37938752E+00 0.13402598E+04</pdfrwt>
<pdfrwt beam="2">  1       -2 0.28016138E-01 0.13402598E+04</pdfrwt>
<totfact> 0.14380046E+01</totfact>
</mgrwt>
</event>
<event>
12    5  0.5221187E-008  0.1264416E+04  0.7818608E-02  0.9058269E-01
          1   -1    0    0  501    0  0.00000000000E+00  0.00000000000E+00  0.24801580588E+04  0.24801580588E+04  0.00000000000E+00 0. -1.
         -2   -1    0    0    0  501 -0.00000000000E+00 -0.00000000000E+00 -0.16115382145E+03  0.16115382145E+03  0.00000000000E+00 0.  1.
        -24    2    1    2    0    0  0.20172471806E+03 -0.37129275544E+02  0.10672774662E+04  0.10897381260E+04  0.79853293375E+02 0.  0.
        254    2    1    2    0    0 -0.20172471806E+03  0.37129275544E+02  0.12517267711E+04  0.15515737542E+04  0.89358254245E+03 0.  0.
         23    2    4    4    0    0 -0.51036826118E+03 -0.13946890250E+03  0.86620867686E+03  0.10190639351E+04  0.90810214754E+02 0.  0.
         23    2    4    4    0    0  0.30864354312E+03  0.17659817804E+03  0.38551809424E+03  0.53250981910E+03  0.92166985732E+02 0.  0.
          3    1    3    3  502    0  0.15090175624E+03 -0.36785492811E+02  0.60282125648E+03  0.62250942144E+03  0.00000000000E+00 0. -1.
         -4    1    3    3    0  502  0.50822961817E+02 -0.34378273305E+00  0.46445620974E+03  0.46722870459E+03  0.00000000000E+00 0.  1.
         13    1    5    5    0    0 -0.48838913016E+02  0.13340294932E+02  0.84389306303E+02  0.98411167617E+02  0.00000000000E+00 0. -1.
        -13    1    5    5    0    0 -0.46152934816E+03 -0.15280919743E+03  0.78181937055E+03  0.92065276745E+03  0.00000000000E+00 0.  1.
          1    1    6    6  503    0  0.64269968375E+02  0.70243009871E+02  0.63195008470E+02  0.11427299929E+03  0.00000000000E+00 0. -1.
         -1    1    6    6    0  503  0.24437357475E+03  0.10635516817E+03  0.32232308577E+03  0.41823681982E+03  0.00000000000E+00 0.  1.
<mgrwt>
<rscale>  0 0.12644160E+04</rscale>
<asrwt>0</asrwt>
<pdfrwt beam="1">  1        1 0.38156275E+00 0.12644160E+04</pdfrwt>
<pdfrwt beam="2">  1       -2 0.24792897E-01 0.12644160E+04</pdfrwt>
<totfact> 0.17702591E+01</totfact>
</mgrwt>
</event>
<event>
12    5  0.5221187E-008  0.1764646E+04  0.7818608E-02  0.8725330E-01
         -2   -1    0    0    0  501 -0.00000000000E+00  0.00000000000E+00  0.69680739525E+03  0.69680739525E+03  0.00000000000E+00 0.  1.
          1   -1    0    0  501    0  0.00000000000E+00 -0.00000000000E+00 -0.11172294558E+04  0.11172294558E+04  0.00000000000E+00 0. -1.
        -24    2    1    2    0    0 -0.20728772609E+03  0.15632497304E+03 -0.77104648819E+03  0.81714626096E+03  0.76220904335E+02 0.  0.
        254    2    1    2    0    0  0.20728772609E+03 -0.15632497304E+03  0.35062442767E+03  0.99689059007E+03  0.89635241992E+03 0.  0.
         23    2    4    4    0    0  0.28627188045E+03 -0.25287441329E+03  0.59202808567E+03  0.71068346087E+03  0.93148638727E+02 0.  0.
         23    2    4    4    0    0 -0.78984154366E+02  0.96549440252E+02 -0.24140365801E+03  0.28620712919E+03  0.89880496484E+02 0.  0.
          1    1    3    3  502    0 -0.77578266155E+02  0.17453704717E+02 -0.26134753270E+03  0.27317677800E+03  0.00000000000E+00 0. -1.
         -2    1    3    3    0  502 -0.12970945993E+03  0.13887126832E+03 -0.50969895549E+03  0.54396948296E+03  0.00000000000E+00 0.  1.
         13    1    5    5    0    0  0.36875726999E+01 -0.53518665023E+01 -0.28688388206E+01  0.71042876951E+01  0.00000000000E+00 0.  1.
        -13    1    5    5    0    0  0.28258430775E+03 -0.24752254679E+03  0.59489692449E+03  0.70357917318E+03  0.00000000000E+00 0. -1.
          1    1    6    6  503    0 -0.79899848610E+02  0.11065096800E+03 -0.19738606033E+03  0.23997683084E+03  0.00000000000E+00 0. -1.
         -1    1    6    6    0  503  0.91569424387E+00 -0.14101527747E+02 -0.44017597674E+02  0.46230298352E+02  0.00000000000E+00 0.  1.
<mgrwt>
<rscale>  0 0.17646459E+04</rscale>
<asrwt>0</asrwt>
<pdfrwt beam="1">  1        1 0.17188145E+00 0.17646459E+04</pdfrwt>
<pdfrwt beam="2">  1       -2 0.10720114E+00 0.17646459E+04</pdfrwt>
<totfact> 0.71422908E+00</totfact>
</mgrwt>
</event>
<event>
12    5  0.5221187E-008  0.1604286E+04  0.7818608E-02  0.8817920E-01
          1   -1    0    0  501    0  0.00000000000E+00  0.00000000000E+00  0.10909422391E+04  0.10909422391E+04  0.00000000000E+00 0. -1.
         -2   -1    0    0    0  501 -0.00000000000E+00 -0.00000000000E+00 -0.58979569701E+03  0.58979569701E+03  0.00000000000E+00 0.  1.
        -24    2    1    2    0    0  0.26585976977E+03  0.28310906399E+02  0.66888149824E+03  0.72613435671E+03  0.91573580868E+02 0.  0.
        254    2    1    2    0    0 -0.26585976977E+03 -0.28310906399E+02 -0.16773495610E+03  0.95460357944E+03  0.90091623017E+03 0.  0.
         23    2    4    4    0    0 -0.16638854703E+02  0.94418510105E+02 -0.49724371164E+03  0.51444261991E+03  0.90599083217E+02 0.  0.
         23    2    4    4    0    0 -0.24922091507E+03 -0.12272941650E+03  0.32950875554E+03  0.44016095953E+03  0.89398412416E+02 0.  0.
          3    1    3    3  502    0  0.11052674466E+03  0.48674868577E+02  0.36136687631E+03  0.38101367877E+03  0.00000000000E+00 0. -1.
         -2    1    3    3    0  502  0.15533302511E+03 -0.20363962179E+02  0.30751462193E+03  0.34512067794E+03  0.00000000000E+00 0.  1.
         13    1    5    5    0    0  0.25452031224E+02  0.17759435125E+02 -0.25527390420E+03  0.25715359145E+03  0.00000000000E+00 0. -1.
        -13    1    5    5    0    0 -0.42090885927E+02  0.76659074979E+02 -0.24196980744E+03  0.25728902846E+03  0.00000000000E+00 0.  1.
          3    1    6    6  503    0 -0.21545494251E+03 -0.80600979193E+02  0.22116549906E+03  0.31911052643E+03  0.00000000000E+00 0. -1.
         -3    1    6    6    0  503 -0.33765972553E+02 -0.42128437311E+02  0.10834325647E+03  0.12105043311E+03  0.00000000000E+00 0.  1.
<mgrwt>
<rscale>  0 0.16042856E+04</rscale>
<asrwt>0</asrwt>
<pdfrwt beam="1">  1        1 0.16783727E+00 0.16042856E+04</pdfrwt>
<pdfrwt beam="2">  1       -2 0.90737800E-01 0.16042856E+04</pdfrwt>
<totfact> 0.11234864E+01</totfact>
</mgrwt>
</event>
<event>
12    5  0.5221187E-008  0.3111408E+04  0.7818608E-02  0.8212614E-01
          1   -1    0    0  501    0  0.00000000000E+00  0.00000000000E+00  0.22627500541E+04  0.22627500541E+04  0.00000000000E+00 0. -1.
         -2   -1    0    0    0  501 -0.00000000000E+00 -0.00000000000E+00 -0.10695898006E+04  0.10695898006E+04  0.00000000000E+00 0.  1.
        -24    2    1    2    0    0  0.12831380830E+04 -0.13995750141E+03 -0.11348286291E+03  0.12981795003E+04  0.79750940270E+02 0.  0.
        254    2    1    2    0    0 -0.12831380830E+04  0.13995750141E+03  0.13066431164E+04  0.20341603543E+04  0.87433441608E+03 0.  0.
         23    2    4    4    0    0 -0.61664927947E+03  0.46873853522E+03  0.46540218200E+03  0.90794594222E+03  0.88286435619E+02 0.  0.
         23    2    4    4    0    0 -0.66648880356E+03 -0.32878103381E+03  0.84124093440E+03  0.11262144121E+04  0.91478406484E+02 0.  0.
          3    1    3    3  502    0  0.36289441577E+03 -0.73587033555E+02 -0.19961973539E+02  0.37081786485E+03  0.00000000000E+00 0. -1.
         -4    1    3    3    0  502  0.92024366726E+03 -0.66370467856E+02 -0.93520889370E+02  0.92736163544E+03  0.00000000000E+00 0.  1.
         13    1    5    5    0    0 -0.26653266532E+03  0.14919674941E+03  0.17426305506E+03  0.35166311162E+03  0.00000000000E+00 0. -1.
        -13    1    5    5    0    0 -0.35011661414E+03  0.31954178581E+03  0.29113912695E+03  0.55628283060E+03  0.00000000000E+00 0.  1.
          2    1    6    6  503    0 -0.27506941149E+03 -0.18370402648E+03  0.39375402584E+03  0.51424953413E+03  0.00000000000E+00 0. -1.
         -2    1    6    6    0  503 -0.39141939207E+03 -0.14507700733E+03  0.44748690856E+03  0.61196487798E+03  0.00000000000E+00 0.  1.
<mgrwt>
<rscale>  0 0.31114076E+04</rscale>
<asrwt>0</asrwt>
<pdfrwt beam="1">  1        1 0.34811539E+00 0.31114076E+04</pdfrwt>
<pdfrwt beam="2">  1       -2 0.16455228E+00 0.31114076E+04</pdfrwt>
<totfact> 0.34132871E-01</totfact>
</mgrwt>
</event>
<event>
12    5  0.5221187E-008  0.2509151E+04  0.7818608E-02  0.8399733E-01
          1   -1    0    0  501    0  0.00000000000E+00  0.00000000000E+00  0.24323721856E+04  0.24323721856E+04  0.00000000000E+00 0. -1.
         -2   -1    0    0    0  501 -0.00000000000E+00 -0.00000000000E+00 -0.64708832900E+03  0.64708832900E+03  0.00000000000E+00 0.  1.
        -24    2    1    2    0    0  0.95290577798E+03 -0.10324487416E+03  0.11891692627E+03  0.96901226881E+03  0.78451360683E+02 0.  0.
        254    2    1    2    0    0 -0.95290577798E+03  0.10324487416E+03  0.16663669303E+04  0.21104482457E+04  0.87093290549E+03 0.  0.
         23    2    4    4    0    0  0.11775877646E+03 -0.77970040826E+02  0.43350131597E+03  0.46487993370E+03  0.90793750398E+02 0.  0.
         23    2    4    4    0    0 -0.10706645544E+04  0.18121491499E+03  0.12328656143E+04  0.16455683120E+04  0.93680377273E+02 0.  0.
          1    1    3    3  502    0  0.58196044378E+03 -0.96643411876E+02  0.91654108256E+02  0.59700785819E+03  0.00000000000E+00 0. -1.
         -2    1    3    3    0  502  0.37094533420E+03 -0.66014622871E+01  0.27262818012E+02  0.37200441061E+03  0.00000000000E+00 0.  1.
         13    1    5    5    0    0 -0.64271701176E+01  0.71832878151E+01  0.80910125466E+02  0.81482246794E+02  0.00000000000E+00 0.  1.
        -13    1    5    5    0    0  0.12418594658E+03 -0.85153328641E+02  0.35259119050E+03  0.38339768691E+03  0.00000000000E+00 0. -1.
          4    1    6    6  503    0 -0.10593410071E+04  0.17067121921E+03  0.12034731430E+04  0.16123522073E+04  0.00000000000E+00 0. -1.
         -4    1    6    6    0  503 -0.11323547295E+02  0.10543695774E+02  0.29392471289E+02  0.33216104714E+02  0.00000000000E+00 0.  1.
<mgrwt>
<rscale>  0 0.25091510E+04</rscale>
<asrwt>0</asrwt>
<pdfrwt beam="1">  1        1 0.37421110E+00 0.25091510E+04</pdfrwt>
<pdfrwt beam="2">  1       -2 0.99552052E-01 0.25091510E+04</pdfrwt>
<totfact> 0.98292554E-01</totfact>
</mgrwt>
</event>
<event>
12    5  0.5221187E-008  0.1644848E+04  0.7818608E-02  0.8793460E-01
         -2   -1    0    0    0  501 -0.00000000000E+00  0.00000000000E+00  0.82827271903E+03  0.82827271903E+03  0.00000000000E+00 0.  1.
          1   -1    0    0  501    0  0.00000000000E+00 -0.00000000000E+00 -0.81661624822E+03  0.81661624822E+03  0.00000000000E+00 0. -1.
        -24    2    1    2    0    0  0.30834562148E+03  0.33767988243E+03 -0.33905807191E+03  0.57493644188E+03  0.80540739944E+02 0.  0.
        254    2    1    2    0    0 -0.30834562148E+03 -0.33767988243E+03  0.35071454273E+03  0.10699525254E+04  0.90149486454E+03 0.  0.
         23    2    4    4    0    0 -0.50902477981E+02 -0.61331328538E+03  0.23545562160E+03  0.66521449283E+03  0.91250881869E+02 0.  0.
         23    2    4    4    0    0 -0.25744314350E+03  0.27563340295E+03  0.11525892113E+03  0.40473803254E+03  0.90980828372E+02 0.  0.
          3    1    3    3  502    0  0.24798109485E+02  0.32621810827E+02 -0.63400336068E+02  0.75489942305E+02  0.00000000000E+00 0. -1.
         -4    1    3    3    0  502  0.28354751199E+03  0.30505807160E+03 -0.27565773584E+03  0.49944649957E+03  0.00000000000E+00 0.  1.
         13    1    5    5    0    0 -0.42157741795E+02 -0.57437430091E+03  0.24213616467E+03  0.62475037814E+03  0.00000000000E+00 0.  1.
        -13    1    5    5    0    0 -0.87447361854E+01 -0.38938984468E+02 -0.66805430685E+01  0.40464114695E+02  0.00000000000E+00 0. -1.
          1    1    6    6  503    0 -0.92563537097E+02  0.71817937938E+02  0.76023512723E+02  0.13966173097E+03  0.00000000000E+00 0. -1.
         -1    1    6    6    0  503 -0.16487960640E+03  0.20381546501E+03  0.39235408403E+02  0.26507630158E+03  0.00000000000E+00 0.  1.
<mgrwt>
<rscale>  0 0.16448477E+04</rscale>
<asrwt>0</asrwt>
<pdfrwt beam="1">  1        1 0.12563327E+00 0.16448477E+04</pdfrwt>
<pdfrwt beam="2">  1       -2 0.12742657E+00 0.16448477E+04</pdfrwt>
<totfact> 0.81808087E+00</totfact>
</mgrwt>
</event>
<event>
12    5  0.5221187E-008  0.1166790E+04  0.7818608E-02  0.9142433E-01
          1   -1    0    0  501    0  0.00000000000E+00  0.00000000000E+00  0.17977005639E+04  0.17977005639E+04  0.00000000000E+00 0. -1.
         -2   -1    0    0    0  501 -0.00000000000E+00 -0.00000000000E+00 -0.18932491794E+03  0.18932491794E+03  0.00000000000E+00 0.  1.
        -24    2    1    2    0    0 -0.91447026562E+01 -0.10276681740E+03  0.68614990066E+03  0.69881135959E+03  0.83011961634E+02 0.  0.
        254    2    1    2    0    0  0.91447026562E+01  0.10276681740E+03  0.92222574534E+03  0.12882141223E+04  0.89350470349E+03 0.  0.
         23    2    4    4    0    0  0.12561984776E+03  0.37560545847E+03  0.88749474504E+03  0.97620784547E+03  0.92059917993E+02 0.  0.
         23    2    4    4    0    0 -0.11647514511E+03 -0.27283864107E+03  0.34731000301E+02  0.31200627682E+03  0.90190303827E+02 0.  0.
          1    1    3    3  502    0  0.83209907733E+01 -0.11222722600E+03  0.57841087473E+03  0.58925659024E+03  0.00000000000E+00 0. -1.
         -2    1    3    3    0  502 -0.17465693429E+02  0.94604086035E+01  0.10773902593E+03  0.10955476935E+03  0.00000000000E+00 0.  1.
         13    1    5    5    0    0  0.11403153065E+01  0.12051131003E+03  0.31346777520E+03  0.33583674941E+03  0.00000000000E+00 0. -1.
        -13    1    5    5    0    0  0.12447953246E+03  0.25509414844E+03  0.57402696984E+03  0.64037109606E+03  0.00000000000E+00 0.  1.
          3    1    6    6  503    0  0.14275450455E+02 -0.46031185912E+02  0.79233848596E+01  0.48840951975E+02  0.00000000000E+00 0. -1.
         -3    1    6    6    0  503 -0.13075059556E+03 -0.22680745516E+03  0.26807615441E+02  0.26316532485E+03  0.00000000000E+00 0.  1.
<mgrwt>
<rscale>  0 0.11667896E+04</rscale>
<asrwt>0</asrwt>
<pdfrwt beam="1">  1        1 0.27656931E+00 0.11667896E+04</pdfrwt>
<pdfrwt beam="2">  1       -2 0.29126912E-01 0.11667896E+04</pdfrwt>
<totfact> 0.38610206E+01</totfact>
</mgrwt>
</event>
<event>
12    5  0.5221187E-008  0.2829184E+04  0.7818608E-02  0.8294265E-01
          1   -1    0    0  501    0  0.00000000000E+00  0.00000000000E+00  0.17655632002E+04  0.17655632002E+04  0.00000000000E+00 0. -1.
         -2   -1    0    0    0  501 -0.00000000000E+00 -0.00000000000E+00 -0.11333893908E+04  0.11333893908E+04  0.00000000000E+00 0.  1.
        -24    2    1    2    0    0 -0.56699374004E+03 -0.10792825235E+04 -0.77133231829E+02  0.12241721402E+04  0.79468400457E+02 0.  0.
        254    2    1    2    0    0  0.56699374004E+03  0.10792825235E+04  0.70930704116E+03  0.16747804508E+04  0.90301739349E+03 0.  0.
         23    2    4    4    0    0  0.48153946634E+03  0.92816898614E+03  0.12363607223E+03  0.10568708331E+04  0.91171021129E+02 0.  0.
         23    2    4    4    0    0  0.85454273703E+02  0.15111353736E+03  0.58567096893E+03  0.61790961766E+03  0.93081027534E+02 0.  0.
          3    1    3    3  502    0 -0.16972116422E+03 -0.31305259300E+03 -0.58516883880E+02  0.36087591394E+03  0.00000000000E+00 0. -1.
         -4    1    3    3    0  502 -0.39727257582E+03 -0.76622993051E+03 -0.18616347949E+02  0.86329622628E+03  0.00000000000E+00 0.  1.
         13    1    5    5    0    0  0.27581207976E+03  0.60914657431E+03  0.53244470698E+02  0.67079566636E+03  0.00000000000E+00 0.  1.
        -13    1    5    5    0    0  0.20572738658E+03  0.31902241183E+03  0.70391601533E+02  0.38607516678E+03  0.00000000000E+00 0. -1.
          3    1    6    6  503    0  0.10034842044E+03  0.92774401842E+02  0.41585382515E+03  0.43773427901E+03  0.00000000000E+00 0.  1.
         -3    1    6    6    0  503 -0.14894146739E+02  0.58339135518E+02  0.16981714377E+03  0.18017533865E+03  0.00000000000E+00 0. -1.
<mgrwt>
<rscale>  0 0.28291841E+04</rscale>
<asrwt>0</asrwt>
<pdfrwt beam="1">  1        1 0.27162511E+00 0.28291841E+04</pdfrwt>
<pdfrwt beam="2">  1       -2 0.17436760E+00 0.28291841E+04</pdfrwt>
<totfact> 0.64770557E-01</totfact>
</mgrwt>
</event>
<event>
12    5  0.5221187E-008  0.1473238E+04  0.7818608E-02  0.8902447E-01
         -2   -1    0    0    0  501 -0.00000000000E+00  0.00000000000E+00  0.18925899697E+04  0.18925899697E+04  0.00000000000E+00 0.  1.
          1   -1    0    0  501    0  0.00000000000E+00 -0.00000000000E+00 -0.28670097828E+03  0.28670097828E+03  0.00000000000E+00 0. -1.
        -24    2    1    2    0    0 -0.12724547442E+03 -0.21220551494E+03  0.10935717318E+04  0.11241513672E+04  0.81206972710E+02 0.  0.
        254    2    1    2    0    0  0.12724547442E+03  0.21220551494E+03  0.51231725961E+03  0.10551395808E+04  0.88861013336E+03 0.  0.
         23    2    4    4    0    0 -0.75745887357E+02  0.49713058243E+02 -0.22987309516E+03  0.26404657312E+03  0.93113507531E+02 0.  0.
         23    2    4    4    0    0  0.20299136177E+03  0.16249245669E+03  0.74219035477E+03  0.79109300766E+03  0.85862288694E+02 0.  0.
          1    1    3    3  502    0 -0.29751011592E+02 -0.15963773654E+02  0.74598840841E+02  0.81883770156E+02  0.00000000000E+00 0. -1.
         -2    1    3    3    0  502 -0.97494462824E+02 -0.19624174128E+03  0.10189728909E+04  0.10422675970E+04  0.00000000000E+00 0.  1.
         13    1    5    5    0    0 -0.96391463653E+02  0.32251917195E+02 -0.19518123718E+03  0.22006184534E+03  0.00000000000E+00 0. -1.
        -13    1    5    5    0    0  0.20645576296E+02  0.17461141048E+02 -0.34691857977E+02  0.43984727772E+02  0.00000000000E+00 0.  1.
          4    1    6    6  503    0  0.19205424319E+03  0.17012183647E+03  0.72665587827E+03  0.77061990436E+03  0.00000000000E+00 0. -1.
         -4    1    6    6    0  503  0.10937118588E+02 -0.76293797727E+01  0.15534476498E+02  0.20473103302E+02  0.00000000000E+00 0.  1.
<mgrwt>
<rscale>  0 0.14732378E+04</rscale>
<asrwt>0</asrwt>
<pdfrwt beam="1">  1        1 0.44107844E-01 0.14732378E+04</pdfrwt>
<pdfrwt beam="2">  1       -2 0.29116768E+00 0.14732378E+04</pdfrwt>
<totfact> 0.28436618E+00</totfact>
</mgrwt>
</event>
<event>
12    5  0.5221187E-008  0.3170593E+04  0.7818608E-02  0.8196627E-01
         -2   -1    0    0    0  501 -0.00000000000E+00  0.00000000000E+00  0.24165844153E+04  0.24165844153E+04  0.00000000000E+00 0.  1.
          1   -1    0    0  501    0  0.00000000000E+00 -0.00000000000E+00 -0.10399654806E+04  0.10399654806E+04  0.00000000000E+00 0. -1.
        -24    2    1    2    0    0  0.46633092197E+03  0.43198351609E+03 -0.78792827274E+03  0.10153954352E+04  0.78247299574E+02 0.  0.
        254    2    1    2    0    0 -0.46633092197E+03 -0.43198351609E+03  0.21645472074E+04  0.24411544607E+04  0.93268226138E+03 0.  0.
         23    2    4    4    0    0 -0.98177433302E+02  0.28163342114E+03  0.75191964173E+03  0.81366885645E+03  0.87850259110E+02 0.  0.
         23    2    4    4    0    0 -0.36815348867E+03 -0.71361693723E+03  0.14126275657E+04  0.16274856042E+04  0.91687666843E+02 0.  0.
          3    1    3    3  502    0  0.46380596858E+03  0.43421064577E+03 -0.78774143324E+03  0.10120234321E+04  0.00000000000E+00 0. -1.
         -4    1    3    3    0  502  0.25249533905E+01 -0.22271296750E+01 -0.18683949555E+00  0.33720031451E+01  0.00000000000E+00 0.  1.
         13    1    5    5    0    0 -0.46541939113E+02  0.22750504651E+03  0.61930331623E+03  0.66140856948E+03  0.00000000000E+00 0. -1.
        -13    1    5    5    0    0 -0.51635494189E+02  0.54128374631E+02  0.13261632550E+03  0.15226028697E+03  0.00000000000E+00 0.  1.
          1    1    6    6  503    0 -0.98335664608E+02 -0.11321492285E+03  0.26080585927E+03  0.30084417548E+03  0.00000000000E+00 0. -1.
         -1    1    6    6    0  503 -0.26981782406E+03 -0.60040201438E+03  0.11518217064E+04  0.13266414287E+04  0.00000000000E+00 0.  1.
<mgrwt>
<rscale>  0 0.31705926E+04</rscale>
<asrwt>0</asrwt>
<pdfrwt beam="1">  1        1 0.15999469E+00 0.31705926E+04</pdfrwt>
<pdfrwt beam="2">  1       -2 0.37178222E+00 0.31705926E+04</pdfrwt>
<totfact> 0.11719665E-01</totfact>
</mgrwt>
</event>
<event>
12    5  0.5221187E-008  0.1561742E+04  0.7818608E-02  0.8844402E-01
          1   -1    0    0  501    0  0.00000000000E+00  0.00000000000E+00  0.37578932264E+03  0.37578932264E+03  0.00000000000E+00 0. -1.
         -4   -1    0    0    0  501 -0.00000000000E+00 -0.00000000000E+00 -0.16226108127E+04  0.16226108127E+04  0.00000000000E+00 0.  1.
        -24    2    1    2    0    0 -0.11965177300E+03  0.53355071936E+02 -0.10691058314E+04  0.10799384711E+04  0.78208134596E+02 0.  0.
        254    2    1    2    0    0  0.11965177300E+03 -0.53355071936E+02 -0.17771565867E+03  0.91846166417E+03  0.89152995616E+03 0.  0.
         23    2    4    4    0    0  0.26880493491E+03 -0.11427958236E+03 -0.47635957397E+03  0.56729609455E+03  0.97931094174E+02 0.  0.
         23    2    4    4    0    0 -0.14915316191E+03  0.60924510425E+02  0.29864391530E+03  0.35116556962E+03  0.90391412568E+02 0.  0.
          1    1    3    3  502    0 -0.19026577459E+02  0.42336192452E+02 -0.47586549748E+03  0.47812376591E+03  0.00000000000E+00 0. -1.
         -2    1    3    3    0  502 -0.10062519554E+03  0.11018879484E+02 -0.59324033388E+03  0.60181470523E+03  0.00000000000E+00 0.  1.
         13    1    5    5    0    0 -0.51756041958E+01 -0.14528339313E+02 -0.14940873685E+02  0.21472988345E+02  0.00000000000E+00 0.  1.
        -13    1    5    5    0    0  0.27398053911E+03 -0.99751243048E+02 -0.46141870028E+03  0.54582310621E+03  0.00000000000E+00 0. -1.
          3    1    6    6  503    0 -0.15378041640E+03  0.68180106501E+02  0.24719669297E+03  0.29900359263E+03  0.00000000000E+00 0. -1.
         -3    1    6    6    0  503  0.46272544899E+01 -0.72555960767E+01  0.51447222325E+02  0.52161976990E+02  0.00000000000E+00 0.  1.
<mgrwt>
<rscale>  0 0.15617424E+04</rscale>
<asrwt>0</asrwt>
<pdfrwt beam="1">  1        1 0.57813741E-01 0.15617424E+04</pdfrwt>
<pdfrwt beam="2">  1       -4 0.24963244E+00 0.15617424E+04</pdfrwt>
<totfact> 0.18967201E+00</totfact>
</mgrwt>
</event>
<event>
12    5  0.5221187E-008  0.1367153E+04  0.7818608E-02  0.8977944E-01
         -2   -1    0    0    0  501 -0.00000000000E+00  0.00000000000E+00  0.30996333318E+03  0.30996333318E+03  0.00000000000E+00 0.  1.
          1   -1    0    0  501    0  0.00000000000E+00 -0.00000000000E+00 -0.15075237383E+04  0.15075237383E+04  0.00000000000E+00 0. -1.
        -24    2    1    2    0    0  0.18634802082E+03 -0.36300624117E+03 -0.48475197063E+03  0.63875958555E+03  0.80809771154E+02 0.  0.
        254    2    1    2    0    0 -0.18634802082E+03  0.36300624117E+03 -0.71280843453E+03  0.11787274860E+04  0.84546052884E+03 0.  0.
         23    2    4    4    0    0  0.13107101851E+03 -0.21844880963E+03 -0.19547477285E+03  0.33345048022E+03  0.89885157938E+02 0.  0.
         23    2    4    4    0    0 -0.31741903933E+03  0.58145505080E+03 -0.51733366168E+03  0.84527700574E+03  0.89522490475E+02 0.  0.
          1    1    3    3  502    0  0.85783953399E+02 -0.13109240224E+03 -0.13243481234E+03  0.20514161964E+03  0.00000000000E+00 0. -1.
         -2    1    3    3    0  502  0.10056406742E+03 -0.23191383893E+03 -0.35231715829E+03  0.43361796592E+03  0.00000000000E+00 0.  1.
         13    1    5    5    0    0  0.71199044675E+02 -0.39456680607E+02 -0.57995133825E+02  0.99947832165E+02  0.00000000000E+00 0.  1.
        -13    1    5    5    0    0  0.59871973833E+02 -0.17899212902E+03 -0.13747963903E+03  0.23350264806E+03  0.00000000000E+00 0. -1.
          3    1    6    6  503    0 -0.19045335048E+03  0.36740699628E+03 -0.26826271028E+03  0.49317873165E+03  0.00000000000E+00 0. -1.
         -3    1    6    6    0  503 -0.12696568885E+03  0.21404805452E+03 -0.24907095139E+03  0.35209827409E+03  0.00000000000E+00 0.  1.
<mgrwt>
<rscale>  0 0.13671534E+04</rscale>
<asrwt>0</asrwt>
<pdfrwt beam="1">  1        1 0.23192673E+00 0.13671534E+04</pdfrwt>
<pdfrwt beam="2">  1       -2 0.47686666E-01 0.13671534E+04</pdfrwt>
<totfact> 0.23101788E+01</totfact>
</mgrwt>
</event>
<event>
12    5  0.5221187E-008  0.1776692E+04  0.7818608E-02  0.8718793E-01
          1   -1    0    0  501    0  0.00000000000E+00  0.00000000000E+00  0.90077995390E+03  0.90077995390E+03  0.00000000000E+00 0. -1.
         -2   -1    0    0    0  501 -0.00000000000E+00 -0.00000000000E+00 -0.87608397913E+03  0.87608397913E+03  0.00000000000E+00 0.  1.
        -24    2    1    2    0    0 -0.13192402684E+02  0.95636845817E+01  0.66500066936E+03  0.66971094405E+03  0.77597388953E+02 0.  0.
        254    2    1    2    0    0  0.13192402684E+02 -0.95636845817E+01 -0.64030469459E+03  0.11071529890E+04  0.90306817878E+03 0.  0.
         23    2    4    4    0    0  0.31619948247E+03  0.25985909909E+03 -0.53361647867E+03  0.67877969810E+03  0.92122028620E+02 0.  0.
         23    2    4    4    0    0 -0.30300707979E+03 -0.26942278367E+03 -0.10668821593E+03  0.42837329087E+03  0.87859968980E+02 0.  0.
          1    1    3    3  502    0 -0.15711528671E+02 -0.32649283459E+02  0.35373238511E+03  0.35558322249E+03  0.00000000000E+00 0. -1.
         -2    1    3    3    0  502  0.25191259874E+01  0.42212968041E+02  0.31126828426E+03  0.31412772156E+03  0.00000000000E+00 0.  1.
         13    1    5    5    0    0  0.16369166213E+03  0.82444243859E+02 -0.19966114470E+03  0.27102875549E+03  0.00000000000E+00 0. -1.
        -13    1    5    5    0    0  0.15250782034E+03  0.17741485523E+03 -0.33395533397E+03  0.40775094262E+03  0.00000000000E+00 0.  1.
          4    1    6    6  503    0 -0.30118186624E+03 -0.24451466216E+03 -0.89722676326E+02  0.39818098298E+03  0.00000000000E+00 0. -1.
         -4    1    6    6    0  503 -0.18252135533E+01 -0.24908121509E+02 -0.16965539600E+02  0.30192307887E+02  0.00000000000E+00 0.  1.
<mgrwt>
<rscale>  0 0.17766923E+04</rscale>
<asrwt>0</asrwt>
<pdfrwt beam="1">  1        1 0.13858153E+00 0.17766923E+04</pdfrwt>
<pdfrwt beam="2">  1       -2 0.13478215E+00 0.17766923E+04</pdfrwt>
<totfact> 0.59629111E+00</totfact>
</mgrwt>
</event>
<event>
12    5  0.5221187E-008  0.2395285E+04  0.7818608E-02  0.8441271E-01
         -2   -1    0    0    0  501 -0.00000000000E+00  0.00000000000E+00  0.58521718377E+03  0.58521718377E+03  0.00000000000E+00 0.  1.
          1   -1    0    0  501    0  0.00000000000E+00 -0.00000000000E+00 -0.24509663020E+04  0.24509663020E+04  0.00000000000E+00 0. -1.
        -24    2    1    2    0    0  0.73885017796E+03  0.58198808701E+03 -0.27433006925E+03  0.98299176106E+03  0.80038094213E+02 0.  0.
        254    2    1    2    0    0 -0.73885017796E+03 -0.58198808701E+03 -0.15914190490E+04  0.20531917247E+04  0.89351661994E+03 0.  0.
         23    2    4    4    0    0 -0.79106134046E+03 -0.97726240913E+02 -0.10236360646E+04  0.13004820932E+04  0.89968991548E+02 0.  0.
         23    2    4    4    0    0  0.52211162500E+02 -0.48426184610E+03 -0.56778298443E+03  0.75270963156E+03  0.83419008394E+02 0.  0.
          3    1    3    3  502    0  0.15837660523E+03  0.10856143702E+03 -0.25549748357E+02  0.19370473493E+03  0.00000000000E+00 0. -1.
         -4    1    3    3    0  502  0.58047357273E+03  0.47342664999E+03 -0.24878032090E+03  0.78928702613E+03  0.00000000000E+00 0.  1.
         13    1    5    5    0    0 -0.63581263635E+03 -0.92393975367E+02 -0.87443696162E+03  0.10850964727E+04  0.00000000000E+00 0. -1.
        -13    1    5    5    0    0 -0.15524870411E+03 -0.53322655454E+01 -0.14919910296E+03  0.21538562048E+03  0.00000000000E+00 0.  1.
          3    1    6    6  503    0  0.10797351910E+02 -0.39785032901E+03 -0.46841856316E+03  0.61466854273E+03  0.00000000000E+00 0. -1.
         -3    1    6    6    0  503  0.41413810591E+02 -0.86411517089E+02 -0.99364421265E+02  0.13804108883E+03  0.00000000000E+00 0.  1.
<mgrwt>
<rscale>  0 0.23952850E+04</rscale>
<asrwt>0</asrwt>
<pdfrwt beam="1">  1        1 0.37707174E+00 0.23952850E+04</pdfrwt>
<pdfrwt beam="2">  1       -2 0.90033414E-01 0.23952850E+04</pdfrwt>
<totfact> 0.12187549E+00</totfact>
</mgrwt>
</event>
<event>
12    5  0.5221187E-008  0.1871482E+04  0.7818608E-02  0.8669184E-01
         -2   -1    0    0    0  501 -0.00000000000E+00  0.00000000000E+00  0.22163459953E+04  0.22163459953E+04  0.00000000000E+00 0.  1.
          1   -1    0    0  501    0  0.00000000000E+00 -0.00000000000E+00 -0.39506953202E+03  0.39506953202E+03  0.00000000000E+00 0. -1.
        -24    2    1    2    0    0 -0.57741139870E+03 -0.82026597760E+02  0.96756447839E+02  0.59647090029E+03  0.79268143719E+02 0.  0.
        254    2    1    2    0    0  0.57741139870E+03  0.82026597760E+02  0.17245200155E+04  0.20149446271E+04  0.86365518598E+03 0.  0.
         23    2    4    4    0    0  0.17456130146E+03  0.36725642117E+03  0.12741659675E+04  0.13403808891E+04  0.88165120015E+02 0.  0.
         23    2    4    4    0    0  0.40285009724E+03 -0.28522982341E+03  0.45035404799E+03  0.67456373793E+03  0.92591657196E+02 0.  0.
          3    1    3    3  502    0 -0.49892665982E+03 -0.68784569936E+02  0.55144465079E+02  0.50665574206E+03  0.00000000000E+00 0. -1.
         -4    1    3    3    0  502 -0.78484738883E+02 -0.13242027825E+02  0.41611982760E+02  0.89815158229E+02  0.00000000000E+00 0.  1.
         13    1    5    5    0    0  0.20215706988E+02  0.12791488986E+03  0.34281222103E+03  0.36645751834E+03  0.00000000000E+00 0. -1.
        -13    1    5    5    0    0  0.15434559447E+03  0.23934153131E+03  0.93135374646E+03  0.97392337080E+03  0.00000000000E+00 0.  1.
          1    1    6    6  503    0  0.27673990996E+03 -0.19989965454E+03  0.36596917566E+03  0.50047805864E+03  0.00000000000E+00 0. -1.
         -1    1    6    6    0  503  0.12611018728E+03 -0.85330168871E+02  0.84384872333E+02  0.17408567929E+03  0.00000000000E+00 0.  1.
<mgrwt>
<rscale>  0 0.18714815E+04</rscale>
<asrwt>0</asrwt>
<pdfrwt beam="1">  1        1 0.60779929E-01 0.18714815E+04</pdfrwt>
<pdfrwt beam="2">  1       -2 0.34097630E+00 0.18714815E+04</pdfrwt>
<totfact> 0.88974998E-01</totfact>
</mgrwt>
</event>
<event>
12    5  0.5221187E-008  0.2124055E+04  0.7818608E-02  0.8550720E-01
         -2   -1    0    0    0  501 -0.00000000000E+00  0.00000000000E+00  0.59387527937E+03  0.59387527937E+03  0.00000000000E+00 0.  1.
          1   -1    0    0  501    0  0.00000000000E+00 -0.00000000000E+00 -0.18992243659E+04  0.18992243659E+04  0.00000000000E+00 0. -1.
        -24    2    1    2    0    0  0.44626878658E+03 -0.25526334696E+03 -0.13570206435E+04  0.14548697460E+04  0.10404683928E+03 0.  0.
        254    2    1    2    0    0 -0.44626878658E+03  0.25526334696E+03  0.51671557040E+02  0.10382298992E+04  0.90051994293E+03 0.  0.
         23    2    4    4    0    0 -0.63854885116E+03 -0.64278626709E+02  0.81341023120E+02  0.65320010276E+03  0.90430277230E+02 0.  0.
         23    2    4    4    0    0  0.19228006458E+03  0.31954197367E+03 -0.29669466080E+02  0.38502979644E+03  0.91043784848E+02 0.  0.
          1    1    3    3  502    0  0.19291865419E+03 -0.15889136776E+03 -0.56693890147E+03  0.61958356328E+03  0.00000000000E+00 0. -1.
         -2    1    3    3    0  502  0.25335013239E+03 -0.96371979196E+02 -0.79008174207E+03  0.83528618276E+03  0.00000000000E+00 0.  1.
         13    1    5    5    0    0 -0.19734269022E+01  0.44917759160E+01 -0.51413120540E+01  0.71065852738E+01  0.00000000000E+00 0. -1.
        -13    1    5    5    0    0 -0.63657542426E+03 -0.68770402625E+02  0.86482335174E+02  0.64609351749E+03  0.00000000000E+00 0.  1.
          3    1    6    6  503    0  0.48183512902E+02  0.16554031004E+03 -0.23795148145E+02  0.17404440307E+03  0.00000000000E+00 0. -1.
         -3    1    6    6    0  503  0.14409655168E+03  0.15400166362E+03 -0.58743179356E+01  0.21098539337E+03  0.00000000000E+00 0.  1.
<mgrwt>
<rscale>  0 0.21240550E+04</rscale>
<asrwt>0</asrwt>
<pdfrwt beam="1">  1        1 0.29218837E+00 0.21240550E+04</pdfrwt>
<pdfrwt beam="2">  1       -2 0.91365427E-01 0.21240550E+04</pdfrwt>
<totfact> 0.28696098E+00</totfact>
</mgrwt>
</event>
<event>
12    5  0.5221187E-008  0.1255247E+04  0.7818608E-02  0.9065828E-01
          1   -1    0    0  501    0  0.00000000000E+00  0.00000000000E+00  0.13870132805E+04  0.13870132805E+04  0.00000000000E+00 0. -1.
         -2   -1    0    0    0  501 -0.00000000000E+00 -0.00000000000E+00 -0.28399950448E+03  0.28399950448E+03  0.00000000000E+00 0.  1.
        -24    2    1    2    0    0 -0.10061317661E+03 -0.27846675017E+03  0.26250333982E+03  0.40341478009E+03  0.78541321087E+02 0.  0.
        254    2    1    2    0    0  0.10061317661E+03  0.27846675017E+03  0.84051043616E+03  0.12675980049E+04  0.90148775164E+03 0.  0.
         23    2    4    4    0    0 -0.22938374931E+03 -0.22830590465E+03  0.32768108246E+03  0.46943626900E+03  0.90857186283E+02 0.  0.
         23    2    4    4    0    0  0.32999692592E+03  0.50677265482E+03  0.51282935369E+03  0.79816173586E+03  0.91387722285E+02 0.  0.
          1    1    3    3  502    0 -0.70213778915E+02 -0.26049457555E+03  0.21974644286E+03  0.34795962092E+03  0.00000000000E+00 0. -1.
         -2    1    3    3    0  502 -0.30399397693E+02 -0.17972174622E+02  0.42756896963E+02  0.55455159171E+02  0.00000000000E+00 0.  1.
         13    1    5    5    0    0 -0.20816930384E+03 -0.19593767870E+03  0.32154415598E+03  0.43025187651E+03  0.00000000000E+00 0.  1.
        -13    1    5    5    0    0 -0.21214445469E+02 -0.32368225952E+02  0.61369264827E+01  0.39184392486E+02  0.00000000000E+00 0. -1.
          1    1    6    6  503    0  0.12065103533E+03  0.12029443140E+03  0.17059792165E+03  0.24110386439E+03  0.00000000000E+00 0. -1.
         -1    1    6    6    0  503  0.20934589059E+03  0.38647822342E+03  0.34223143204E+03  0.55705787146E+03  0.00000000000E+00 0.  1.
<mgrwt>
<rscale>  0 0.12552467E+04</rscale>
<asrwt>0</asrwt>
<pdfrwt beam="1">  1        1 0.21338665E+00 0.12552467E+04</pdfrwt>
<pdfrwt beam="2">  1       -2 0.43692232E-01 0.12552467E+04</pdfrwt>
<totfact> 0.33701857E+01</totfact>
</mgrwt>
</event>
<event>
12    5  0.5221187E-008  0.2240534E+04  0.7818608E-02  0.8501744E-01
         -2   -1    0    0    0  501 -0.00000000000E+00  0.00000000000E+00  0.11634413709E+04  0.11634413709E+04  0.00000000000E+00 0.  1.
          1   -1    0    0  501    0  0.00000000000E+00 -0.00000000000E+00 -0.10786946089E+04  0.10786946089E+04  0.00000000000E+00 0. -1.
        -24    2    1    2    0    0  0.76024784694E+03  0.52330246408E+03 -0.15121487769E+02  0.92525558493E+03  0.63615881314E+02 0.  0.
        254    2    1    2    0    0 -0.76024784694E+03 -0.52330246408E+03  0.99868249751E+02  0.13168803949E+04  0.93401180378E+03 0.  0.
         23    2    4    4    0    0  0.17757165455E+03 -0.24569127036E+03 -0.51277585257E+02  0.32341011837E+03  0.10034351541E+03 0.  0.
         23    2    4    4    0    0 -0.93781950149E+03 -0.27761119372E+03  0.15114583501E+03  0.99347027657E+03  0.86975483533E+02 0.  0.
          3    1    3    3  502    0  0.14432035999E+02  0.18578401721E+02  0.66391879181E+01  0.24444211785E+02  0.00000000000E+00 0. -1.
         -4    1    3    3    0  502  0.74581581094E+03  0.50472406236E+03 -0.21760675687E+02  0.90081137314E+03  0.00000000000E+00 0.  1.
         13    1    5    5    0    0  0.15210268929E+03 -0.12961683653E+03 -0.42058987007E+02  0.20421731265E+03  0.00000000000E+00 0.  1.
        -13    1    5    5    0    0  0.25468965264E+02 -0.11607443384E+03 -0.92185982499E+01  0.11919280572E+03  0.00000000000E+00 0. -1.
          1    1    6    6  503    0 -0.26380377052E+03 -0.52417330218E+02  0.11283400579E+02  0.26919755010E+03  0.00000000000E+00 0. -1.
         -1    1    6    6    0  503 -0.67401573096E+03 -0.22519386350E+03  0.13986243443E+03  0.72427272647E+03  0.00000000000E+00 0.  1.
<mgrwt>
<rscale>  0 0.22405338E+04</rscale>
<asrwt>0</asrwt>
<pdfrwt beam="1">  1        1 0.16595302E+00 0.22405338E+04</pdfrwt>
<pdfrwt beam="2">  1       -2 0.17899098E+00 0.22405338E+04</pdfrwt>
<totfact> 0.19317923E+00</totfact>
</mgrwt>
</event>
<event>
12    5  0.5221187E-008  0.1649368E+04  0.7818608E-02  0.8790780E-01
         -2   -1    0    0    0  501 -0.00000000000E+00  0.00000000000E+00  0.41843308673E+03  0.41843308673E+03  0.00000000000E+00 0.  1.
          1   -1    0    0  501    0  0.00000000000E+00 -0.00000000000E+00 -0.16253592071E+04  0.16253592071E+04  0.00000000000E+00 0. -1.
        -24    2    1    2    0    0  0.36637702010E+03 -0.41631675958E+03 -0.23286756804E+03  0.60715939677E+03  0.82846023969E+02 0.  0.
        254    2    1    2    0    0 -0.36637702010E+03  0.41631675958E+03 -0.97405855238E+03  0.14366328971E+04  0.89865023921E+03 0.  0.
         23    2    4    4    0    0 -0.36175466433E+03 -0.14308533925E+03 -0.70223881561E+03  0.80810409849E+03  0.92482584137E+02 0.  0.
         23    2    4    4    0    0 -0.46223557629E+01  0.55940209883E+03 -0.27181973677E+03  0.62852879862E+03  0.90611296502E+02 0.  0.
          3    1    3    3  502    0  0.52302561655E+02 -0.10971092470E+03 -0.58300480744E+02  0.13479981828E+03  0.00000000000E+00 0. -1.
         -4    1    3    3    0  502  0.31407445844E+03 -0.30660583488E+03 -0.17456708730E+03  0.47235957849E+03  0.00000000000E+00 0.  1.
         13    1    5    5    0    0 -0.33431550210E+03 -0.14927123891E+03 -0.67979092031E+03  0.77211686489E+03  0.00000000000E+00 0. -1.
        -13    1    5    5    0    0 -0.27439162237E+02  0.61858996548E+01 -0.22447895295E+02  0.35987233597E+02  0.00000000000E+00 0.  1.
          4    1    6    6  503    0  0.22043590569E+02  0.86782611548E+02 -0.17737927473E+02  0.91278560590E+02  0.00000000000E+00 0.  1.
         -4    1    6    6    0  503 -0.26665946332E+02  0.47261948728E+03 -0.25408180929E+03  0.53725023803E+03  0.00000000000E+00 0. -1.
<mgrwt>
<rscale>  0 0.16493684E+04</rscale>
<asrwt>0</asrwt>
<pdfrwt beam="1">  1        1 0.25005526E+00 0.16493684E+04</pdfrwt>
<pdfrwt beam="2">  1       -2 0.64374322E-01 0.16493684E+04</pdfrwt>
<totfact> 0.10022071E+01</totfact>
</mgrwt>
</event>
<event>
12    5  0.5221187E-008  0.1900524E+04  0.7818608E-02  0.8654596E-01
          1   -1    0    0  501    0  0.00000000000E+00  0.00000000000E+00  0.22170368534E+04  0.22170368534E+04  0.00000000000E+00 0. -1.
         -4   -1    0    0    0  501 -0.00000000000E+00 -0.00000000000E+00 -0.40729943927E+03  0.40729943927E+03  0.00000000000E+00 0.  1.
        -24    2    1    2    0    0  0.59061732033E+03 -0.40442407022E+03  0.93763089361E+03  0.11822909906E+04  0.79200038731E+02 0.  0.
        254    2    1    2    0    0 -0.59061732033E+03  0.40442407022E+03  0.87210652050E+03  0.14420453021E+04  0.89807417424E+03 0.  0.
         23    2    4    4    0    0 -0.63455877253E+03 -0.86270234848E+02  0.49714334875E+03  0.81615346987E+03  0.94061617883E+02 0.  0.
         23    2    4    4    0    0  0.43941452191E+02  0.49069430507E+03  0.37496317174E+03  0.62589183219E+03  0.91822944775E+02 0.  0.
          1    1    3    3  502    0  0.57786810497E+03 -0.38366273991E+03  0.88618471654E+03  0.11253674940E+04  0.00000000000E+00 0. -1.
         -2    1    3    3    0  502  0.12749215362E+02 -0.20761330305E+02  0.51446177064E+02  0.56923496580E+02  0.00000000000E+00 0.  1.
         13    1    5    5    0    0 -0.46603702267E+03 -0.21322486001E+02  0.36593249256E+03  0.59291799097E+03  0.00000000000E+00 0. -1.
        -13    1    5    5    0    0 -0.16852174986E+03 -0.64947748847E+02  0.13121085619E+03  0.22323547890E+03  0.00000000000E+00 0.  1.
          3    1    6    6  503    0  0.33647775673E+02  0.48907280540E+03  0.36280216645E+03  0.60987686771E+03  0.00000000000E+00 0. -1.
         -3    1    6    6    0  503  0.10293676518E+02  0.16214996700E+01  0.12161005289E+02  0.16014964474E+02  0.00000000000E+00 0.  1.
<mgrwt>
<rscale>  0 0.19005240E+04</rscale>
<asrwt>0</asrwt>
<pdfrwt beam="1">  1        1 0.34108259E+00 0.19005240E+04</pdfrwt>
<pdfrwt beam="2">  1       -4 0.62661453E-01 0.19005240E+04</pdfrwt>
<totfact> 0.23416132E+00</totfact>
</mgrwt>
</event>
<event>
12    5  0.5221187E-008  0.1272623E+04  0.7818608E-02  0.9051561E-01
         -4   -1    0    0    0  501 -0.00000000000E+00  0.00000000000E+00  0.11822779183E+04  0.11822779183E+04  0.00000000000E+00 0.  1.
          3   -1    0    0  501    0  0.00000000000E+00 -0.00000000000E+00 -0.34246811385E+03  0.34246811385E+03  0.00000000000E+00 0. -1.
        -24    2    1    2    0    0 -0.74011931118E+02 -0.23815144210E+03  0.42959259987E+03  0.50198388332E+03  0.72416447922E+02 0.  0.
        254    2    1    2    0    0  0.74011931118E+02  0.23815144210E+03  0.41021720455E+03  0.10227621488E+04  0.90308935482E+03 0.  0.
         23    2    4    4    0    0  0.94609583938E+02 -0.31579950917E+02 -0.26075629969E+03  0.29366889892E+03  0.91100536174E+02 0.  0.
         23    2    4    4    0    0 -0.20597652821E+02  0.26973139301E+03  0.67097350424E+03  0.72909324988E+03  0.90510971397E+02 0.  0.
          3    1    3    3  502    0 -0.64474944619E+02 -0.19834822271E+03  0.29482642802E+03  0.36113938943E+03  0.00000000000E+00 0. -1.
         -4    1    3    3    0  502 -0.95369864983E+01 -0.39803219384E+02  0.13476617185E+03  0.14084449389E+03  0.00000000000E+00 0.  1.
         13    1    5    5    0    0  0.32575283563E+02 -0.15320851316E+02 -0.20665458577E+03  0.20976652594E+03  0.00000000000E+00 0.  1.
        -13    1    5    5    0    0  0.62034300376E+02 -0.16259099600E+02 -0.54101713923E+02  0.83902372984E+02  0.00000000000E+00 0. -1.
          2    1    6    6  503    0 -0.21783061355E+02  0.11312790367E+02  0.36242474039E+02  0.43772113409E+02  0.00000000000E+00 0. -1.
         -2    1    6    6    0  503  0.11854085339E+01  0.25841860265E+03  0.63473103020E+03  0.68532113647E+03  0.00000000000E+00 0.  1.
<mgrwt>
<rscale>  0 0.12726233E+04</rscale>
<asrwt>0</asrwt>
<pdfrwt beam="1">  1        3 0.52687403E-01 0.12726233E+04</pdfrwt>
<pdfrwt beam="2">  1       -4 0.18188891E+00 0.12726233E+04</pdfrwt>
<totfact> 0.13954961E+00</totfact>
</mgrwt>
</event>
<event>
12    5  0.5221187E-008  0.3513241E+04  0.7818608E-02  0.8110659E-01
         -2   -1    0    0    0  501 -0.00000000000E+00  0.00000000000E+00  0.14749064160E+04  0.14749064160E+04  0.00000000000E+00 0.  1.
          1   -1    0    0  501    0  0.00000000000E+00 -0.00000000000E+00 -0.20921438938E+04  0.20921438938E+04  0.00000000000E+00 0. -1.
        -24    2    1    2    0    0  0.89595551746E+03  0.16430161826E+03 -0.16401356444E+04  0.18778334183E+04  0.80511513704E+02 0.  0.
        254    2    1    2    0    0 -0.89595551746E+03 -0.16430161826E+03  0.10228981666E+04  0.16892168916E+04  0.98863630145E+03 0.  0.
         23    2    4    4    0    0 -0.54056149749E+03 -0.28643250948E+03  0.24799646639E+02  0.61893858137E+03  0.90662175025E+02 0.  0.
         23    2    4    4    0    0 -0.35539401997E+03  0.12213089122E+03  0.99809851995E+03  0.10702783102E+04  0.89856228190E+02 0.  0.
          3    1    3    3  502    0  0.45801739403E+03  0.12315079067E+03 -0.82709143186E+03  0.95342870061E+03  0.00000000000E+00 0. -1.
         -4    1    3    3    0  502  0.43793812343E+03  0.41150827591E+02 -0.81304421253E+03  0.92440471769E+03  0.00000000000E+00 0.  1.
         13    1    5    5    0    0 -0.48541350516E+02 -0.33040826776E+02  0.28992698255E+02  0.65486910876E+02  0.00000000000E+00 0. -1.
        -13    1    5    5    0    0 -0.49202014697E+03 -0.25339168270E+03 -0.41930516164E+01  0.55345167049E+03  0.00000000000E+00 0.  1.
          4    1    6    6  503    0 -0.11833687670E+03  0.11454927699E+02  0.23110401366E+03  0.25989208700E+03  0.00000000000E+00 0. -1.
         -4    1    6    6    0  503 -0.23705714327E+03  0.11067596352E+03  0.76699450630E+03  0.81038622321E+03  0.00000000000E+00 0.  1.
<mgrwt>
<rscale>  0 0.35132415E+04</rscale>
<asrwt>0</asrwt>
<pdfrwt beam="1">  1        1 0.32186829E+00 0.35132415E+04</pdfrwt>
<pdfrwt beam="2">  1       -2 0.22690868E+00 0.35132415E+04</pdfrwt>
<totfact> 0.16529758E-01</totfact>
</mgrwt>
</event>
<event>
12    5  0.5221187E-008  0.1644970E+04  0.7818608E-02  0.8793388E-01
         -2   -1    0    0    0  501 -0.00000000000E+00  0.00000000000E+00  0.31846432344E+03  0.31846432344E+03  0.00000000000E+00 0.  1.
          1   -1    0    0  501    0  0.00000000000E+00 -0.00000000000E+00 -0.21241985284E+04  0.21241985284E+04  0.00000000000E+00 0. -1.
        -24    2    1    2    0    0 -0.18960644612E+02  0.56298228273E+03 -0.61585214664E+03  0.83862008118E+03  0.81860963372E+02 0.  0.
        254    2    1    2    0    0  0.18960644612E+02 -0.56298228273E+03 -0.11898820583E+04  0.16040427706E+04  0.91641984955E+03 0.  0.
         23    2    4    4    0    0 -0.13579032654E+03 -0.77623284531E+03 -0.93407815494E+03  0.12255641886E+04  0.92353331644E+02 0.  0.
         23    2    4    4    0    0  0.15475097115E+03  0.21325056258E+03 -0.25580390337E+03  0.37847858207E+03  0.91579116594E+02 0.  0.
          3    1    3    3  502    0  0.11982238424E+02  0.14957176532E+02 -0.31715539934E+02  0.37056263178E+02  0.00000000000E+00 0. -1.
         -4    1    3    3    0  502 -0.30942883035E+02  0.54802510620E+03 -0.58413660671E+03  0.80156381800E+03  0.00000000000E+00 0.  1.
         13    1    5    5    0    0 -0.12643383564E+03 -0.57221087144E+03 -0.64294127076E+03  0.86993348817E+03  0.00000000000E+00 0. -1.
        -13    1    5    5    0    0 -0.93564908989E+01 -0.20402197387E+03 -0.29113688418E+03  0.35563070041E+03  0.00000000000E+00 0.  1.
          1    1    6    6  503    0  0.98442149423E+02  0.19151965548E+03 -0.22208522114E+03  0.30934201245E+03  0.00000000000E+00 0. -1.
         -1    1    6    6    0  503  0.56308821727E+02  0.21730907094E+02 -0.33718682232E+02  0.69136569621E+02  0.00000000000E+00 0.  1.
<mgrwt>
<rscale>  0 0.16449698E+04</rscale>
<asrwt>0</asrwt>
<pdfrwt beam="1">  1        1 0.32679977E+00 0.16449698E+04</pdfrwt>
<pdfrwt beam="2">  1       -2 0.48994512E-01 0.16449698E+04</pdfrwt>
<totfact> 0.81284017E+00</totfact>
</mgrwt>
</event>
<event>
12    5  0.8119384E-008  0.2183277E+04  0.7818608E-02  0.8525421E-01
         -2   -1    0    0    0  501 -0.00000000000E+00  0.00000000000E+00  0.89992587826E+03  0.89992587826E+03  0.00000000000E+00 0.  1.
          1   -1    0    0  501    0  0.00000000000E+00 -0.00000000000E+00 -0.13241918215E+04  0.13241918215E+04  0.00000000000E+00 0. -1.
        -24    2    1    2    0    0 -0.22906648814E+03 -0.35683897013E+03  0.64333830003E+03  0.77451608168E+03  0.78647860071E+02 0.  0.
        254    2    1    2    0    0  0.22906648814E+03  0.35683897013E+03 -0.10676042432E+04  0.14496016181E+04  0.88417222548E+03 0.  0.
         23    2    4    4    0    0  0.45898526909E+03  0.25803467225E+03 -0.10550652981E+04  0.11827506691E+04  0.92124875651E+02 0.  0.
         23    2    4    4    0    0 -0.22991878094E+03  0.98804297883E+02 -0.12538945187E+02  0.26685094899E+03  0.91800156431E+02 0.  0.
          1    1    3    3  502    0 -0.15835377822E+02 -0.86035151658E+01  0.58654899240E+02  0.61361037058E+02  0.00000000000E+00 0. -1.
         -2    1    3    3    0  502 -0.21323111032E+03 -0.34823545497E+03  0.58468340079E+03  0.71315504462E+03  0.00000000000E+00 0.  1.
         13    1    5    5    0    0  0.38767344945E+02  0.10323260584E+02 -0.14194454091E+03  0.14750501496E+03  0.00000000000E+00 0. -1.
        -13    1    5    5    0    0  0.42021792414E+03  0.24771141167E+03 -0.91312075714E+03  0.10352456541E+04  0.00000000000E+00 0.  1.
          1    1    6    6  503    0  0.92655366761E+00 -0.91032908449E+01 -0.77402990785E+01  0.11985017135E+02  0.00000000000E+00 0. -1.
         -1    1    6    6    0  503 -0.23084533461E+03  0.10790758873E+03 -0.47986461085E+01  0.25486593186E+03  0.00000000000E+00 0.  1.
<mgrwt>
<rscale>  0 0.21832769E+04</rscale>
<asrwt>0</asrwt>
<pdfrwt beam="1">  1        1 0.20372182E+00 0.21832769E+04</pdfrwt>
<pdfrwt beam="2">  1       -2 0.13845013E+00 0.21832769E+04</pdfrwt>
<totfact> 0.25750961E+00</totfact>
</mgrwt>
</event>
<event>
12    5  0.5221187E-008  0.1042267E+04  0.7818608E-02  0.9263364E-01
          1   -1    0    0  501    0  0.00000000000E+00  0.00000000000E+00  0.41161923150E+03  0.41161923150E+03  0.00000000000E+00 0. -1.
         -2   -1    0    0    0  501 -0.00000000000E+00 -0.00000000000E+00 -0.65978492163E+03  0.65978492163E+03  0.00000000000E+00 0.  1.
        -24    2    1    2    0    0 -0.10532333360E+02 -0.38126541652E+02  0.80040137985E+02  0.11982330311E+03  0.79916437949E+02 0.  0.
        254    2    1    2    0    0  0.10532333360E+02  0.38126541652E+02 -0.32820582811E+03  0.95158085003E+03  0.89231299739E+03 0.  0.
         23    2    4    4    0    0  0.11295357484E+03  0.19162445209E+03 -0.57873428198E+03  0.62688497776E+03  0.92590309940E+02 0.  0.
         23    2    4    4    0    0 -0.10242124148E+03 -0.15349791044E+03  0.25052845386E+03  0.32469587227E+03  0.92796465772E+02 0.  0.
          3    1    3    3  502    0 -0.20017409533E+02  0.13608746435E+02  0.57899910802E+02  0.62755831082E+02  0.00000000000E+00 0. -1.
         -4    1    3    3    0  502  0.94850761735E+01 -0.51735288088E+02  0.22140227183E+02  0.57067472024E+02  0.00000000000E+00 0.  1.
         13    1    5    5    0    0  0.44880147852E+02  0.15110146513E+02 -0.73950111547E+02  0.87813229053E+02  0.00000000000E+00 0. -1.
        -13    1    5    5    0    0  0.68073426989E+02  0.17651430558E+03 -0.50478417043E+03  0.53907174870E+03  0.00000000000E+00 0.  1.
          1    1    6    6  503    0 -0.60556071975E+02 -0.97020841219E+02  0.78111725141E+02  0.13849737575E+03  0.00000000000E+00 0. -1.
         -1    1    6    6    0  503 -0.41865169506E+02 -0.56477069218E+02  0.17241672872E+03  0.18619849652E+03  0.00000000000E+00 0.  1.
<mgrwt>
<rscale>  0 0.10422671E+04</rscale>
<asrwt>0</asrwt>
<pdfrwt beam="1">  1        1 0.63326036E-01 0.10422671E+04</pdfrwt>
<pdfrwt beam="2">  1       -2 0.10150537E+00 0.10422671E+04</pdfrwt>
<totfact> 0.40229880E+01</totfact>
</mgrwt>
</event>
<event>
12    5  0.5221187E-008  0.1960093E+04  0.7818608E-02  0.8625509E-01
          1   -1    0    0  501    0  0.00000000000E+00  0.00000000000E+00  0.22118130296E+04  0.22118130296E+04  0.00000000000E+00 0. -1.
         -2   -1    0    0    0  501 -0.00000000000E+00 -0.00000000000E+00 -0.43425527938E+03  0.43425527938E+03  0.00000000000E+00 0.  1.
        -24    2    1    2    0    0  0.29775851945E+03 -0.30456045952E+03  0.15607784503E+04  0.16197912170E+04  0.79227559855E+02 0.  0.
        254    2    1    2    0    0 -0.29775851945E+03  0.30456045952E+03  0.21677929986E+03  0.10262770920E+04  0.90820382911E+03 0.  0.
         23    2    4    4    0    0  0.21656104689E+03 -0.65207186601E+02  0.29337197387E+03  0.38176172038E+03  0.92326766871E+02 0.  0.
         23    2    4    4    0    0 -0.51431956634E+03  0.36976764612E+03 -0.76592674001E+02  0.64451537157E+03  0.90999439838E+02 0.  0.
          1    1    3    3  502    0  0.17072502415E+03 -0.17672575025E+03  0.10426929817E+04  0.10712551884E+04  0.00000000000E+00 0. -1.
         -2    1    3    3    0  502  0.12703349530E+03 -0.12783470927E+03  0.51808546866E+03  0.54853602859E+03  0.00000000000E+00 0.  1.
         13    1    5    5    0    0  0.22280799130E+02 -0.41254551806E+02  0.40357876181E+02  0.61863803831E+02  0.00000000000E+00 0.  1.
        -13    1    5    5    0    0  0.19428024776E+03 -0.23952634795E+02  0.25301409768E+03  0.31989791655E+03  0.00000000000E+00 0. -1.
          2    1    6    6  503    0 -0.17859376427E+03  0.82226175302E+02 -0.42622592870E+02  0.20118042142E+03  0.00000000000E+00 0. -1.
         -2    1    6    6    0  503 -0.33572580207E+03  0.28754147082E+03 -0.33970081131E+02  0.44333495015E+03  0.00000000000E+00 0.  1.
<mgrwt>
<rscale>  0 0.19600933E+04</rscale>
<asrwt>0</asrwt>
<pdfrwt beam="1">  1        1 0.34027892E+00 0.19600933E+04</pdfrwt>
<pdfrwt beam="2">  1       -2 0.66808506E-01 0.19600933E+04</pdfrwt>
<totfact> 0.35978818E+00</totfact>
</mgrwt>
</event>
<event>
12    5  0.5221187E-008  0.1691790E+04  0.7818608E-02  0.8766061E-01
         -2   -1    0    0    0  501 -0.00000000000E+00  0.00000000000E+00  0.50858098301E+03  0.50858098301E+03  0.00000000000E+00 0.  1.
          1   -1    0    0  501    0  0.00000000000E+00 -0.00000000000E+00 -0.14069312919E+04  0.14069312919E+04  0.00000000000E+00 0. -1.
        -24    2    1    2    0    0 -0.46001512302E+03 -0.36522840657E+03 -0.16199361119E+03  0.61453287503E+03  0.80018885578E+02 0.  0.
        254    2    1    2    0    0  0.46001512302E+03  0.36522840657E+03 -0.73635669775E+03  0.13009793999E+04  0.89739651790E+03 0.  0.
         23    2    4    4    0    0  0.46450452047E+03  0.46578920927E+03 -0.88256599924E+03  0.11043489391E+04  0.89105551307E+02 0.  0.
         23    2    4    4    0    0 -0.44893974492E+01 -0.10056080270E+03  0.14620930149E+03  0.19663046082E+03  0.84579835360E+02 0.  0.
          3    1    3    3  502    0 -0.44659572490E+03 -0.34981556654E+03 -0.17055685347E+03  0.59237514495E+03  0.00000000000E+00 0. -1.
         -4    1    3    3    0  502 -0.13419398127E+02 -0.15412840030E+02  0.85632422803E+01  0.22157730078E+02  0.00000000000E+00 0.  1.
         13    1    5    5    0    0  0.17315630340E+03  0.19566702510E+03 -0.41934429193E+03  0.49408331817E+03  0.00000000000E+00 0. -1.
        -13    1    5    5    0    0  0.29134821707E+03  0.27012218418E+03 -0.46322170731E+03  0.61026562094E+03  0.00000000000E+00 0.  1.
          3    1    6    6  503    0  0.15768553528E+02 -0.12056291589E+02  0.84624338260E+02  0.86921114082E+02  0.00000000000E+00 0. -1.
         -3    1    6    6    0  503 -0.20257950977E+02 -0.88504511115E+02  0.61584963232E+02  0.10970934674E+03  0.00000000000E+00 0.  1.
<mgrwt>
<rscale>  0 0.16917902E+04</rscale>
<asrwt>0</asrwt>
<pdfrwt beam="1">  1        1 0.21645096E+00 0.16917902E+04</pdfrwt>
<pdfrwt beam="2">  1       -2 0.78243230E-01 0.16917902E+04</pdfrwt>
<totfact> 0.92228189E+00</totfact>
</mgrwt>
</event>
<event>
12    5  0.5221187E-008  0.1744103E+04  0.7818608E-02  0.8736603E-01
         -4   -1    0    0    0  501 -0.00000000000E+00  0.00000000000E+00  0.13835061036E+04  0.13835061036E+04  0.00000000000E+00 0.  1.
          3   -1    0    0  501    0  0.00000000000E+00 -0.00000000000E+00 -0.54967176019E+03  0.54967176019E+03  0.00000000000E+00 0. -1.
        -24    2    1    2    0    0 -0.92027248680E+02  0.15279118944E+03 -0.37335488479E+03  0.42136274200E+03  0.79614874730E+02 0.  0.
        254    2    1    2    0    0  0.92027248680E+02 -0.15279118944E+03  0.12071892282E+04  0.15118151218E+04  0.89244886002E+03 0.  0.
         23    2    4    4    0    0 -0.72768823647E+02  0.34085427552E+03  0.33279978058E+03  0.49049902906E+03  0.91414794811E+02 0.  0.
         23    2    4    4    0    0  0.16479607233E+03 -0.49364546496E+03  0.87438944761E+03  0.10213160927E+04  0.87670203975E+02 0.  0.
          1    1    3    3  502    0 -0.71819582987E+01  0.87197157545E+02 -0.18414460514E+03  0.20387290259E+03  0.00000000000E+00 0. -1.
         -4    1    3    3    0  502 -0.84845290382E+02  0.65594031891E+02 -0.18921027965E+03  0.21748983941E+03  0.00000000000E+00 0.  1.
         13    1    5    5    0    0 -0.77985523398E+02  0.15838510762E+03  0.18394111425E+03  0.25495473655E+03  0.00000000000E+00 0. -1.
        -13    1    5    5    0    0  0.52166997507E+01  0.18246916790E+03  0.14885866633E+03  0.23554429251E+03  0.00000000000E+00 0.  1.
          3    1    6    6  503    0  0.73653478099E+02 -0.25216746070E+03  0.35835836983E+03  0.44433544119E+03  0.00000000000E+00 0. -1.
         -3    1    6    6    0  503  0.91142594228E+02 -0.24147800426E+03  0.51603107778E+03  0.57698065155E+03  0.00000000000E+00 0.  1.
<mgrwt>
<rscale>  0 0.17441035E+04</rscale>
<asrwt>0</asrwt>
<pdfrwt beam="1">  1        3 0.84564887E-01 0.17441035E+04</pdfrwt>
<pdfrwt beam="2">  1       -4 0.21284709E+00 0.17441035E+04</pdfrwt>
<totfact> 0.30213971E-01</totfact>
</mgrwt>
</event>
<event>
12    5  0.5221187E-008  0.1950258E+04  0.7818608E-02  0.8630236E-01
         -2   -1    0    0    0  501 -0.00000000000E+00  0.00000000000E+00  0.44696182981E+03  0.44696182981E+03  0.00000000000E+00 0.  1.
          1   -1    0    0  501    0  0.00000000000E+00 -0.00000000000E+00 -0.21274231322E+04  0.21274231322E+04  0.00000000000E+00 0. -1.
        -24    2    1    2    0    0 -0.19985332917E+03  0.12973138022E+03 -0.16217877297E+04  0.16411333823E+04  0.79697892656E+02 0.  0.
        254    2    1    2    0    0  0.19985332917E+03 -0.12973138022E+03 -0.58673572644E+02  0.93325157966E+03  0.90041342650E+03 0.  0.
         23    2    4    4    0    0  0.30872761230E+03  0.12152343109E+03 -0.37044275929E+03  0.50559721392E+03  0.91214154124E+02 0.  0.
         23    2    4    4    0    0 -0.10887428313E+03 -0.25125481131E+03  0.31176918665E+03  0.42765436574E+03  0.10346806780E+03 0.  0.
          3    1    3    3  502    0 -0.13809570189E+03  0.72030800604E+02 -0.12607716054E+04  0.12703558164E+04  0.00000000000E+00 0. -1.
         -2    1    3    3    0  502 -0.61757627281E+02  0.57700579620E+02 -0.36101612426E+03  0.37077756592E+03  0.00000000000E+00 0.  1.
         13    1    5    5    0    0  0.17040013714E+03  0.68442961747E+02 -0.13700191985E+03  0.22910733683E+03  0.00000000000E+00 0. -1.
        -13    1    5    5    0    0  0.13832747516E+03  0.53080469342E+02 -0.23344083945E+03  0.27648987709E+03  0.00000000000E+00 0.  1.
          4    1    6    6  503    0 -0.51559211015E+02 -0.41810962807E+02  0.32533500313E+02  0.73925215549E+02  0.00000000000E+00 0. -1.
         -4    1    6    6    0  503 -0.57315072117E+02 -0.20944384851E+03  0.27923568634E+03  0.35372915019E+03  0.00000000000E+00 0.  1.
<mgrwt>
<rscale>  0 0.19502584E+04</rscale>
<asrwt>0</asrwt>
<pdfrwt beam="1">  1        1 0.32729586E+00 0.19502584E+04</pdfrwt>
<pdfrwt beam="2">  1       -2 0.68763359E-01 0.19502584E+04</pdfrwt>
<totfact> 0.38607605E+00</totfact>
</mgrwt>
</event>
<event>
12    5  0.5221187E-008  0.1327587E+04  0.7818608E-02  0.9007970E-01
          1   -1    0    0  501    0  0.00000000000E+00  0.00000000000E+00  0.17971758634E+04  0.17971758634E+04  0.00000000000E+00 0. -1.
         -2   -1    0    0    0  501 -0.00000000000E+00 -0.00000000000E+00 -0.24517462634E+03  0.24517462634E+03  0.00000000000E+00 0.  1.
        -24    2    1    2    0    0  0.22219280563E+03 -0.17585524097E+03  0.75132680293E+03  0.80682228909E+03  0.78584557788E+02 0.  0.
        254    2    1    2    0    0 -0.22219280563E+03  0.17585524097E+03  0.80067443411E+03  0.12355282006E+04  0.89730467315E+03 0.  0.
         23    2    4    4    0    0 -0.12059972514E+03  0.50391069834E+03  0.25730443269E+03  0.58594278596E+03  0.93021995962E+02 0.  0.
         23    2    4    4    0    0 -0.10159308049E+03 -0.32805545737E+03  0.54337000142E+03  0.64958541466E+03  0.93641419200E+02 0.  0.
          3    1    3    3  502    0  0.18711772494E+03 -0.17505505253E+03  0.69175211127E+03  0.73768441616E+03  0.00000000000E+00 0. -1.
         -4    1    3    3    0  502  0.35075080682E+02 -0.80018843906E+00  0.59574691665E+02  0.69137872931E+02  0.00000000000E+00 0.  1.
         13    1    5    5    0    0 -0.39655339047E+02  0.27824040520E+03  0.18122118497E+03  0.33441200170E+03  0.00000000000E+00 0. -1.
        -13    1    5    5    0    0 -0.80944386089E+02  0.22567029314E+03  0.76083247716E+02  0.25153078426E+03  0.00000000000E+00 0.  1.
          2    1    6    6  503    0 -0.50159327121E+02 -0.45467211564E+02  0.85148562350E+02  0.10878190610E+03  0.00000000000E+00 0. -1.
         -2    1    6    6    0  503 -0.51433753371E+02 -0.28258824581E+03  0.45822143907E+03  0.54080350856E+03  0.00000000000E+00 0.  1.
<mgrwt>
<rscale>  0 0.13275872E+04</rscale>
<asrwt>0</asrwt>
<pdfrwt beam="1">  1        1 0.27648859E+00 0.13275872E+04</pdfrwt>
<pdfrwt beam="2">  1       -2 0.37719175E-01 0.13275872E+04</pdfrwt>
<totfact> 0.23365812E+01</totfact>
</mgrwt>
</event>
<event>
12    5  0.5221187E-008  0.1634789E+04  0.7818608E-02  0.8799456E-01
         -2   -1    0    0    0  501 -0.00000000000E+00  0.00000000000E+00  0.66899486471E+03  0.66899486471E+03  0.00000000000E+00 0.  1.
          1   -1    0    0  501    0  0.00000000000E+00 -0.00000000000E+00 -0.99871335437E+03  0.99871335437E+03  0.00000000000E+00 0. -1.
        -24    2    1    2    0    0 -0.34002763491E+03 -0.44426724725E+03 -0.55983195734E+02  0.56786124109E+03  0.79624691138E+02 0.  0.
        254    2    1    2    0    0  0.34002763491E+03  0.44426724725E+03 -0.27373529393E+03  0.10998469780E+04  0.90649886066E+03 0.  0.
         23    2    4    4    0    0  0.35227065882E+03 -0.12561894714E+03 -0.34691643886E+03  0.51768844905E+03  0.88179236686E+02 0.  0.
         23    2    4    4    0    0 -0.12243023907E+02  0.56988619439E+03  0.73181144927E+02  0.58215852895E+03  0.92913436376E+02 0.  0.
          3    1    3    3  502    0 -0.31961693177E+03 -0.42197145202E+03 -0.71027029097E+02  0.53409711501E+03  0.00000000000E+00 0. -1.
         -4    1    3    3    0  502 -0.20410703140E+02 -0.22295795230E+02  0.15043833363E+02  0.33764126079E+02  0.00000000000E+00 0.  1.
         13    1    5    5    0    0  0.27745091551E+03 -0.13059530083E+03 -0.25325765091E+03  0.39771042337E+03  0.00000000000E+00 0. -1.
        -13    1    5    5    0    0  0.74819743306E+02  0.49763536872E+01 -0.93658787949E+02  0.11997802567E+03  0.00000000000E+00 0.  1.
          2    1    6    6  503    0 -0.38409491123E+02  0.48743787909E+03  0.44247388528E+02  0.49094684679E+03  0.00000000000E+00 0. -1.
         -2    1    6    6    0  503  0.26166467215E+02  0.82448315299E+02  0.28933756399E+02  0.91211682154E+02  0.00000000000E+00 0.  1.
<mgrwt>
<rscale>  0 0.16347894E+04</rscale>
<asrwt>0</asrwt>
<pdfrwt beam="1">  1        1 0.15364821E+00 0.16347894E+04</pdfrwt>
<pdfrwt beam="2">  1       -2 0.10292229E+00 0.16347894E+04</pdfrwt>
<totfact> 0.98099335E+00</totfact>
</mgrwt>
</event>
<event>
12    5  0.5221187E-008  0.1246397E+04  0.7818608E-02  0.9073187E-01
          3   -1    0    0  501    0  0.00000000000E+00  0.00000000000E+00  0.10488843515E+04  0.10488843515E+04  0.00000000000E+00 0. -1.
         -4   -1    0    0    0  501 -0.00000000000E+00 -0.00000000000E+00 -0.37027591241E+03  0.37027591241E+03  0.00000000000E+00 0.  1.
        -24    2    1    2    0    0  0.92878365404E+01 -0.28976537965E+03  0.19021653103E+03  0.35587706569E+03  0.80099426075E+02 0.  0.
        254    2    1    2    0    0 -0.92878365404E+01  0.28976537965E+03  0.48839190803E+03  0.10632831982E+04  0.89888501186E+03 0.  0.
         23    2    4    4    0    0 -0.33049051940E+03 -0.63989559208E+02  0.45828696201E+03  0.57654402356E+03  0.95170501977E+02 0.  0.
         23    2    4    4    0    0  0.32120268286E+03  0.35375493886E+03  0.30104946016E+02  0.48673917462E+03  0.87721126853E+02 0.  0.
          3    1    3    3  502    0 -0.14920346790E+02 -0.15865159283E+03  0.14396424296E+03  0.21475252713E+03  0.00000000000E+00 0. -1.
         -4    1    3    3    0  502  0.24208183330E+02 -0.13111378682E+03  0.46252288075E+02  0.14112453857E+03  0.00000000000E+00 0.  1.
         13    1    5    5    0    0 -0.31423610470E+03 -0.57707198838E+02  0.45883400041E+03  0.55910919348E+03  0.00000000000E+00 0. -1.
        -13    1    5    5    0    0 -0.16254414697E+02 -0.62823603709E+01 -0.54703839596E+00  0.17434830082E+02  0.00000000000E+00 0.  1.
          4    1    6    6  503    0  0.31287389226E+03  0.30889706869E+03  0.20694180785E+02  0.44015420096E+03  0.00000000000E+00 0. -1.
         -4    1    6    6    0  503  0.83287905953E+01  0.44857870172E+02  0.94107652308E+01  0.46584973665E+02  0.00000000000E+00 0.  1.
<mgrwt>
<rscale>  0 0.12463974E+04</rscale>
<asrwt>0</asrwt>
<pdfrwt beam="1">  1        3 0.16136682E+00 0.12463974E+04</pdfrwt>
<pdfrwt beam="2">  1       -4 0.56965526E-01 0.12463974E+04</pdfrwt>
<totfact> 0.17633685E+00</totfact>
</mgrwt>
</event>
<event>
12    5  0.5221187E-008  0.1323969E+04  0.7818608E-02  0.9010771E-01
         -2   -1    0    0    0  501 -0.00000000000E+00  0.00000000000E+00  0.25784902678E+03  0.25784902678E+03  0.00000000000E+00 0.  1.
          1   -1    0    0  501    0  0.00000000000E+00 -0.00000000000E+00 -0.16995349733E+04  0.16995349733E+04  0.00000000000E+00 0. -1.
        -24    2    1    2    0    0  0.10046590964E+03  0.28670126303E+03 -0.11227390242E+03  0.33428897160E+03  0.82780880309E+02 0.  0.
        254    2    1    2    0    0 -0.10046590964E+03 -0.28670126303E+03 -0.13294120441E+04  0.16230950285E+04  0.88023296646E+03 0.  0.
         23    2    4    4    0    0  0.20658363452E+03  0.18575628024E+03 -0.19262833311E+03  0.35062134303E+03  0.92991708095E+02 0.  0.
         23    2    4    4    0    0 -0.30704954416E+03 -0.47245754327E+03 -0.11367837110E+04  0.12724736854E+04  0.97038764477E+02 0.  0.
          3    1    3    3  502    0 -0.13741919896E+02  0.48508960602E+02 -0.12746359318E+02  0.52004127692E+02  0.00000000000E+00 0. -1.
         -4    1    3    3    0  502  0.11420782954E+03  0.23819230243E+03 -0.99527543105E+02  0.28228484391E+03  0.00000000000E+00 0.  1.
         13    1    5    5    0    0 -0.13471243668E+01 -0.64306380866E+01 -0.14989205030E+02  0.16365943838E+02  0.00000000000E+00 0. -1.
        -13    1    5    5    0    0  0.20793075888E+03  0.19218691833E+03 -0.17763912808E+03  0.33425539920E+03  0.00000000000E+00 0.  1.
          2    1    6    6  503    0 -0.13625840377E+03 -0.12990436495E+03 -0.40558009221E+03  0.44714282710E+03  0.00000000000E+00 0. -1.
         -2    1    6    6    0  503 -0.17079114038E+03 -0.34255317833E+03 -0.73120361877E+03  0.82533085834E+03  0.00000000000E+00 0.  1.
<mgrwt>
<rscale>  0 0.13239689E+04</rscale>
<asrwt>0</asrwt>
<pdfrwt beam="1">  1        1 0.26146691E+00 0.13239689E+04</pdfrwt>
<pdfrwt beam="2">  1       -2 0.39669082E-01 0.13239689E+04</pdfrwt>
<totfact> 0.24684565E+01</totfact>
</mgrwt>
</event>
<event>
12    5  0.5221187E-008  0.2056396E+04  0.7818608E-02  0.8580698E-01
          1   -1    0    0  501    0  0.00000000000E+00  0.00000000000E+00  0.79059022424E+03  0.79059022424E+03  0.00000000000E+00 0. -1.
         -2   -1    0    0    0  501 -0.00000000000E+00 -0.00000000000E+00 -0.13372177438E+04  0.13372177438E+04  0.00000000000E+00 0.  1.
        -24    2    1    2    0    0 -0.56480083352E+03 -0.56934348704E+03 -0.19286516577E+02  0.80618777393E+03  0.80092255141E+02 0.  0.
        254    2    1    2    0    0  0.56480083352E+03  0.56934348704E+03 -0.52734100299E+03  0.13216201941E+04  0.90853696473E+03 0.  0.
         23    2    4    4    0    0  0.22647828850E+03  0.76913559547E+03 -0.32382371125E+03  0.86972040006E+03  0.93219091043E+02 0.  0.
         23    2    4    4    0    0  0.33832254502E+03 -0.19979210843E+03 -0.20351729175E+03  0.45189979406E+03  0.91733880179E+02 0.  0.
          3    1    3    3  502    0 -0.25919145934E+03 -0.29793612021E+03  0.21134784124E+02  0.39546532518E+03  0.00000000000E+00 0. -1.
         -4    1    3    3    0  502 -0.30560937418E+03 -0.27140736683E+03 -0.40421300701E+02  0.41072244875E+03  0.00000000000E+00 0.  1.
         13    1    5    5    0    0  0.22536428917E+03  0.75971512560E+03 -0.32999739489E+03  0.85840224576E+03  0.00000000000E+00 0. -1.
        -13    1    5    5    0    0  0.11139993292E+01  0.94204698686E+01  0.61736836370E+01  0.11318154297E+02  0.00000000000E+00 0.  1.
          2    1    6    6  503    0  0.24953999224E+03 -0.10017922099E+03 -0.11980986981E+03  0.29438153636E+03  0.00000000000E+00 0. -1.
         -2    1    6    6    0  503  0.88782552782E+02 -0.99612887439E+02 -0.83707421939E+02  0.15751825770E+03  0.00000000000E+00 0.  1.
<mgrwt>
<rscale>  0 0.20563961E+04</rscale>
<asrwt>0</asrwt>
<pdfrwt beam="1">  1        1 0.12162927E+00 0.20563961E+04</pdfrwt>
<pdfrwt beam="2">  1       -2 0.20572580E+00 0.20563961E+04</pdfrwt>
<totfact> 0.22231701E+00</totfact>
</mgrwt>
</event>
<event>
12    5  0.5221187E-008  0.1286642E+04  0.7818608E-02  0.9040226E-01
         -2   -1    0    0    0  501 -0.00000000000E+00  0.00000000000E+00  0.47359235502E+03  0.47359235502E+03  0.00000000000E+00 0.  1.
          1   -1    0    0  501    0  0.00000000000E+00 -0.00000000000E+00 -0.87387731152E+03  0.87387731152E+03  0.00000000000E+00 0. -1.
        -24    2    1    2    0    0 -0.28217213998E+03  0.55611456578E+02 -0.28367742927E+02  0.29984839234E+03  0.79941096232E+02 0.  0.
        254    2    1    2    0    0  0.28217213998E+03 -0.55611456578E+02 -0.37191721357E+03  0.10476212742E+04  0.93620199194E+03 0.  0.
         23    2    4    4    0    0 -0.12140959748E+03  0.36172605433E+03 -0.13394113401E+03  0.41339128323E+03  0.85825968850E+02 0.  0.
         23    2    4    4    0    0  0.40358173747E+03 -0.41733751090E+03 -0.23797607956E+03  0.63422999097E+03  0.92554039245E+02 0.  0.
          1    1    3    3  502    0 -0.34563139008E+02 -0.54073050578E+01 -0.28035934594E+02  0.44831497350E+02  0.00000000000E+00 0. -1.
         -2    1    3    3    0  502 -0.24760900097E+03  0.61018761635E+02 -0.33180833323E+00  0.25501689499E+03  0.00000000000E+00 0.  1.
         13    1    5    5    0    0 -0.61974621971E+02  0.15244071466E+03 -0.14487149624E+02  0.16519353122E+03  0.00000000000E+00 0. -1.
        -13    1    5    5    0    0 -0.59434975513E+02  0.20928533967E+03 -0.11945398438E+03  0.24819775200E+03  0.00000000000E+00 0.  1.
          1    1    6    6  503    0  0.38944034381E+03 -0.41203137969E+03 -0.21420695755E+03  0.60606786740E+03  0.00000000000E+00 0. -1.
         -1    1    6    6    0  503  0.14141393652E+02 -0.53061312185E+01 -0.23769122003E+02  0.28162123566E+02  0.00000000000E+00 0.  1.
<mgrwt>
<rscale>  0 0.12866415E+04</rscale>
<asrwt>0</asrwt>
<pdfrwt beam="1">  1        1 0.13444266E+00 0.12866415E+04</pdfrwt>
<pdfrwt beam="2">  1       -2 0.72860362E-01 0.12866415E+04</pdfrwt>
<totfact> 0.28066123E+01</totfact>
</mgrwt>
</event>
<event>
12    5  0.5221187E-008  0.2070530E+04  0.7818608E-02  0.8574338E-01
         -2   -1    0    0    0  501 -0.00000000000E+00  0.00000000000E+00  0.75215046118E+03  0.75215046118E+03  0.00000000000E+00 0.  1.
          1   -1    0    0  501    0  0.00000000000E+00 -0.00000000000E+00 -0.14249450938E+04  0.14249450938E+04  0.00000000000E+00 0. -1.
        -24    2    1    2    0    0 -0.26811295085E+03 -0.20125827648E+03 -0.10854839074E+04  0.11388342400E+04  0.79238025859E+02 0.  0.
        254    2    1    2    0    0  0.26811295085E+03  0.20125827648E+03  0.41268927478E+03  0.10382613150E+04  0.89178734705E+03 0.  0.
         23    2    4    4    0    0  0.51934421872E+03  0.17900289253E+03  0.50698484797E+03  0.75364391974E+03  0.95838763739E+02 0.  0.
         23    2    4    4    0    0 -0.25123126787E+03  0.22255383942E+02 -0.94295573191E+02  0.28461739522E+03  0.92211466033E+02 0.  0.
          1    1    3    3  502    0 -0.20022782109E+03 -0.13518512183E+03 -0.65719719567E+03  0.70019593794E+03  0.00000000000E+00 0. -1.
         -2    1    3    3    0  502 -0.67885129758E+02 -0.66073154648E+02 -0.42828671175E+03  0.43863830210E+03  0.00000000000E+00 0.  1.
         13    1    5    5    0    0  0.16403188785E+03  0.28326373782E+02  0.20195989503E+03  0.26171863304E+03  0.00000000000E+00 0. -1.
        -13    1    5    5    0    0  0.35531233088E+03  0.15067651875E+03  0.30502495294E+03  0.49192528670E+03  0.00000000000E+00 0.  1.
          3    1    6    6  503    0 -0.10514068563E+03  0.50845225209E+02 -0.62256476499E+02  0.13234677770E+03  0.00000000000E+00 0. -1.
         -3    1    6    6    0  503 -0.14609058225E+03 -0.28589841267E+02 -0.32039096692E+02  0.15227061752E+03  0.00000000000E+00 0.  1.
<mgrwt>
<rscale>  0 0.20705295E+04</rscale>
<asrwt>0</asrwt>
<pdfrwt beam="1">  1        1 0.21922232E+00 0.20705295E+04</pdfrwt>
<pdfrwt beam="2">  1       -2 0.11571546E+00 0.20705295E+04</pdfrwt>
<totfact> 0.34682162E+00</totfact>
</mgrwt>
</event>
<event>
12    5  0.5221187E-008  0.1505725E+04  0.7818608E-02  0.8880655E-01
          1   -1    0    0  501    0  0.00000000000E+00  0.00000000000E+00  0.19418293621E+04  0.19418293621E+04  0.00000000000E+00 0. -1.
         -2   -1    0    0    0  501 -0.00000000000E+00 -0.00000000000E+00 -0.29189076700E+03  0.29189076700E+03  0.00000000000E+00 0.  1.
        -24    2    1    2    0    0 -0.19268974447E+03  0.20205500804E+03  0.11249109983E+04  0.11615844912E+04  0.76799820224E+02 0.  0.
        254    2    1    2    0    0  0.19268974447E+03 -0.20205500804E+03  0.52502759681E+03  0.10721356378E+04  0.89211282056E+03 0.  0.
         23    2    4    4    0    0  0.41042354734E+03 -0.14775831252E+03 -0.49892764420E+02  0.44838729050E+03  0.91004764790E+02 0.  0.
         23    2    4    4    0    0 -0.21773380286E+03 -0.54296695520E+02  0.57492036123E+03  0.62374834734E+03  0.90401543090E+02 0.  0.
          1    1    3    3  502    0 -0.17328635842E+03  0.16545641334E+03  0.83378011075E+03  0.86752133104E+03  0.00000000000E+00 0. -1.
         -2    1    3    3    0  502 -0.19403386053E+02  0.36598594700E+02  0.29113088751E+03  0.29406316020E+03  0.00000000000E+00 0.  1.
         13    1    5    5    0    0  0.30692159727E+03 -0.84682034420E+02 -0.29394793644E+01  0.31840313183E+03  0.00000000000E+00 0.  1.
        -13    1    5    5    0    0  0.10350195007E+03 -0.63076278099E+02 -0.46953285056E+02  0.12998415867E+03  0.00000000000E+00 0. -1.
          3    1    6    6  503    0 -0.60419209591E+02 -0.60554603276E+01  0.27531692170E+03  0.28193360364E+03  0.00000000000E+00 0. -1.
         -3    1    6    6    0  503 -0.15731459327E+03 -0.48241235192E+02  0.29960343954E+03  0.34181474370E+03  0.00000000000E+00 0.  1.
<mgrwt>
<rscale>  0 0.15057252E+04</rscale>
<asrwt>0</asrwt>
<pdfrwt beam="1">  1        1 0.29874297E+00 0.15057252E+04</pdfrwt>
<pdfrwt beam="2">  1       -2 0.44906273E-01 0.15057252E+04</pdfrwt>
<totfact> 0.13033771E+01</totfact>
</mgrwt>
</event>
<event>
12    5  0.5839610E-008  0.2146686E+04  0.7818608E-02  0.8540952E-01
          1   -1    0    0  501    0  0.00000000000E+00  0.00000000000E+00  0.15363508183E+04  0.15363508183E+04  0.00000000000E+00 0. -1.
         -2   -1    0    0    0  501 -0.00000000000E+00 -0.00000000000E+00 -0.74987141600E+03  0.74987141600E+03  0.00000000000E+00 0.  1.
        -24    2    1    2    0    0  0.51959003511E+03  0.54309415864E+03  0.82144444001E+03  0.11163377436E+04  0.80708860128E+02 0.  0.
        254    2    1    2    0    0 -0.51959003511E+03 -0.54309415864E+03 -0.34965037704E+02  0.11698844907E+04  0.89581365133E+03 0.  0.
         23    2    4    4    0    0 -0.35939319500E+03  0.14005196357E+03 -0.20051844083E+03  0.44407398847E+03  0.90642379779E+02 0.  0.
         23    2    4    4    0    0 -0.16019684011E+03 -0.68314612222E+03  0.16555340312E+03  0.72581050220E+03  0.83912477862E+02 0.  0.
          3    1    3    3  502    0  0.41092675166E+03  0.47256171816E+03  0.67217249973E+03  0.91868995972E+03  0.00000000000E+00 0. -1.
         -2    1    3    3    0  502  0.10866328345E+03  0.70532440480E+02  0.14927194028E+03  0.19764778391E+03  0.00000000000E+00 0.  1.
         13    1    5    5    0    0  0.24696991459E+00 -0.34917530343E+01  0.46737244727E+01  0.58392665497E+01  0.00000000000E+00 0. -1.
        -13    1    5    5    0    0 -0.35964016491E+03  0.14354371661E+03 -0.20519216530E+03  0.43823472192E+03  0.00000000000E+00 0.  1.
          3    1    6    6  503    0  0.81955089624E+01 -0.71688528982E+02  0.10549087294E+02  0.72922525995E+02  0.00000000000E+00 0. -1.
         -3    1    6    6    0  503 -0.16839234908E+03 -0.61145759323E+03  0.15500431583E+03  0.65288797621E+03  0.00000000000E+00 0.  1.
<mgrwt>
<rscale>  0 0.21466863E+04</rscale>
<asrwt>0</asrwt>
<pdfrwt beam="1">  1        1 0.23636166E+00 0.21466863E+04</pdfrwt>
<pdfrwt beam="2">  1       -2 0.11536483E+00 0.21466863E+04</pdfrwt>
<totfact> 0.29045084E+00</totfact>
</mgrwt>
</event>
<event>
12    5  0.5221187E-008  0.2696801E+04  0.7818608E-02  0.8336044E-01
          1   -1    0    0  501    0  0.00000000000E+00  0.00000000000E+00  0.14114195027E+04  0.14114195027E+04  0.00000000000E+00 0. -1.
         -2   -1    0    0    0  501 -0.00000000000E+00 -0.00000000000E+00 -0.12881950347E+04  0.12881950347E+04  0.00000000000E+00 0.  1.
        -24    2    1    2    0    0  0.24557140747E+03  0.78667961946E+03  0.93176244046E+03  0.12464957506E+04  0.80001694202E+02 0.  0.
        254    2    1    2    0    0 -0.24557140747E+03 -0.78667961946E+03 -0.80853797244E+03  0.14531187868E+04  0.88241170420E+03 0.  0.
         23    2    4    4    0    0 -0.47354032228E+03 -0.25706245675E+03 -0.13968723080E+03  0.56405937242E+03  0.91262860288E+02 0.  0.
         23    2    4    4    0    0  0.22796891482E+03 -0.52961716271E+03 -0.66885074164E+03  0.88905941433E+03  0.10296194668E+03 0.  0.
          1    1    3    3  502    0  0.11357929423E+03  0.34958754917E+03  0.35650213041E+03  0.51206003515E+03  0.00000000000E+00 0. -1.
         -2    1    3    3    0  502  0.13199211324E+03  0.43709207029E+03  0.57526031005E+03  0.73443571549E+03  0.00000000000E+00 0.  1.
         13    1    5    5    0    0 -0.45463383010E+03 -0.22761477628E+03 -0.14491058309E+03  0.52867710651E+03  0.00000000000E+00 0.  1.
        -13    1    5    5    0    0 -0.18906492180E+02 -0.29447680476E+02  0.52233522929E+01  0.35382265913E+02  0.00000000000E+00 0. -1.
          3    1    6    6  503    0  0.60356010635E+02 -0.24705455245E+03 -0.24872212622E+03  0.35572671529E+03  0.00000000000E+00 0. -1.
         -3    1    6    6    0  503  0.16761290418E+03 -0.28256261026E+03 -0.42012861542E+03  0.53333269904E+03  0.00000000000E+00 0.  1.
<mgrwt>
<rscale>  0 0.26968008E+04</rscale>
<asrwt>0</asrwt>
<pdfrwt beam="1">  1        1 0.21714146E+00 0.26968008E+04</pdfrwt>
<pdfrwt beam="2">  1       -2 0.19818385E+00 0.26968008E+04</pdfrwt>
<totfact> 0.79073211E-01</totfact>
</mgrwt>
</event>
<event>
12    5  0.5221187E-008  0.1113663E+04  0.7818608E-02  0.9191977E-01
          1   -1    0    0  501    0  0.00000000000E+00  0.00000000000E+00  0.10313796153E+04  0.10313796153E+04  0.00000000000E+00 0. -1.
         -2   -1    0    0    0  501 -0.00000000000E+00 -0.00000000000E+00 -0.30062760163E+03  0.30062760163E+03  0.00000000000E+00 0.  1.
        -24    2    1    2    0    0 -0.34607677646E+02 -0.56502447166E+02 -0.64043521841E+02  0.12018862985E+03  0.77159031670E+02 0.  0.
        254    2    1    2    0    0  0.34607677646E+02  0.56502447166E+02  0.79479553553E+03  0.12118185871E+04  0.91236732014E+03 0.  0.
         23    2    4    4    0    0  0.32020030338E+03  0.35715391282E+03  0.38645874177E+03  0.62269025604E+03  0.91135306781E+02 0.  0.
         23    2    4    4    0    0 -0.28559262574E+03 -0.30065146566E+03  0.40833679376E+03  0.58912833107E+03  0.91535794401E+02 0.  0.
          1    1    3    3  502    0 -0.85609309841E+01 -0.86591908146E+01  0.17985321319E+02  0.21719643364E+02  0.00000000000E+00 0. -1.
         -2    1    3    3    0  502 -0.26046746662E+02 -0.47843256351E+02 -0.82028843161E+02  0.98468986489E+02  0.00000000000E+00 0.  1.
         13    1    5    5    0    0  0.28508161677E+03  0.26487417150E+03  0.31792316654E+03  0.50249875101E+03  0.00000000000E+00 0. -1.
        -13    1    5    5    0    0  0.35118686614E+02  0.92279741317E+02  0.68535575235E+02  0.12019150502E+03  0.00000000000E+00 0.  1.
          3    1    6    6  503    0 -0.20718774278E+03 -0.22558683217E+03  0.24131753162E+03  0.38993631618E+03  0.00000000000E+00 0. -1.
         -3    1    6    6    0  503 -0.78404882955E+02 -0.75064633486E+02  0.16701926214E+03  0.19919201489E+03  0.00000000000E+00 0.  1.
<mgrwt>
<rscale>  0 0.11136627E+04</rscale>
<asrwt>0</asrwt>
<pdfrwt beam="1">  1        1 0.15867379E+00 0.11136627E+04</pdfrwt>
<pdfrwt beam="2">  1       -2 0.46250401E-01 0.11136627E+04</pdfrwt>
<totfact> 0.55328414E+01</totfact>
</mgrwt>
</event>
<event>
12    5  0.5221187E-008  0.1260331E+04  0.7818608E-02  0.9061629E-01
          1   -1    0    0  501    0  0.00000000000E+00  0.00000000000E+00  0.14267428809E+04  0.14267428809E+04  0.00000000000E+00 0. -1.
         -2   -1    0    0    0  501 -0.00000000000E+00 -0.00000000000E+00 -0.27833211482E+03  0.27833211482E+03  0.00000000000E+00 0.  1.
        -24    2    1    2    0    0  0.67542648947E+01 -0.11377475864E+02  0.70166904178E+03  0.70647611587E+03  0.81203393019E+02 0.  0.
        254    2    1    2    0    0 -0.67542648947E+01  0.11377475864E+02  0.44674172432E+03  0.99859887988E+03  0.89299859328E+03 0.  0.
         23    2    4    4    0    0  0.16061260884E+03  0.41063225220E+03  0.22032616660E+03  0.50162146867E+03  0.93087171383E+02 0.  0.
         23    2    4    4    0    0 -0.16736687374E+03 -0.39925477633E+03  0.22641555772E+03  0.49697741121E+03  0.91139978206E+02 0.  0.
          3    1    3    3  502    0  0.33297835611E+02  0.16215932392E+02  0.48802532079E+03  0.48942866288E+03  0.00000000000E+00 0. -1.
         -4    1    3    3    0  502 -0.26543570716E+02 -0.27593408255E+02  0.21364372100E+03  0.21704745299E+03  0.00000000000E+00 0.  1.
         13    1    5    5    0    0  0.13518215239E+03  0.29920112009E+03  0.12008011910E+03  0.34959227622E+03  0.00000000000E+00 0.  1.
        -13    1    5    5    0    0  0.25430456456E+02  0.11143113211E+03  0.10024604750E+03  0.15202919245E+03  0.00000000000E+00 0. -1.
          1    1    6    6  503    0  0.22620877121E+01  0.24128665057E+01  0.93475053709E+01  0.99153831116E+01  0.00000000000E+00 0. -1.
         -1    1    6    6    0  503 -0.16962896145E+03 -0.40166764284E+03  0.21706805235E+03  0.48706202810E+03  0.00000000000E+00 0.  1.
<mgrwt>
<rscale>  0 0.12603307E+04</rscale>
<asrwt>0</asrwt>
<pdfrwt beam="1">  1        1 0.21949890E+00 0.12603307E+04</pdfrwt>
<pdfrwt beam="2">  1       -2 0.42820326E-01 0.12603307E+04</pdfrwt>
<totfact> 0.32886843E+01</totfact>
</mgrwt>
</event>
<event>
12    5  0.5221187E-008  0.2290264E+04  0.7818608E-02  0.8481770E-01
          1   -1    0    0  501    0  0.00000000000E+00  0.00000000000E+00  0.14845651140E+04  0.14845651140E+04  0.00000000000E+00 0. -1.
         -2   -1    0    0    0  501 -0.00000000000E+00 -0.00000000000E+00 -0.88330740981E+03  0.88330740981E+03  0.00000000000E+00 0.  1.
        -24    2    1    2    0    0  0.81770972468E+03 -0.31403614126E+03 -0.15968890447E+03  0.89380254189E+03  0.78195561427E+02 0.  0.
        254    2    1    2    0    0 -0.81770972468E+03  0.31403614126E+03  0.76094660867E+03  0.14740699819E+04  0.90916152498E+03 0.  0.
         23    2    4    4    0    0 -0.86518904381E+03  0.93941618684E+02  0.25275979053E+03  0.91072257316E+03  0.90282801847E+02 0.  0.
         23    2    4    4    0    0  0.47479319133E+02  0.22009452257E+03  0.50818681814E+03  0.56334740875E+03  0.91709193683E+02 0.  0.
          3    1    3    3  502    0  0.35042420250E+03 -0.12976948420E+03 -0.29167953826E+02  0.37481730250E+03  0.00000000000E+00 0. -1.
         -4    1    3    3    0  502  0.46728552218E+03 -0.18426665706E+03 -0.13052095065E+03  0.51898523939E+03  0.00000000000E+00 0.  1.
         13    1    5    5    0    0 -0.75004756677E+03  0.95438719289E+02  0.19009906574E+03  0.77962654928E+03  0.00000000000E+00 0. -1.
        -13    1    5    5    0    0 -0.11514147705E+03 -0.14971006051E+01  0.62660724788E+02  0.13109602388E+03  0.00000000000E+00 0.  1.
          4    1    6    6  503    0  0.63975768044E+02  0.17941788031E+03  0.46150496983E+03  0.49926997892E+03  0.00000000000E+00 0. -1.
         -4    1    6    6    0  503 -0.16496448912E+02  0.40676642265E+02  0.46681848309E+02  0.64077429835E+02  0.00000000000E+00 0.  1.
<mgrwt>
<rscale>  0 0.22902641E+04</rscale>
<asrwt>0</asrwt>
<pdfrwt beam="1">  1        1 0.22839463E+00 0.22902641E+04</pdfrwt>
<pdfrwt beam="2">  1       -2 0.13589345E+00 0.22902641E+04</pdfrwt>
<totfact> 0.20658045E+00</totfact>
</mgrwt>
</event>
<event>
12    5  0.5221187E-008  0.1233000E+04  0.7818608E-02  0.9084452E-01
         -4   -1    0    0    0  501 -0.00000000000E+00  0.00000000000E+00  0.58945162199E+03  0.58945162199E+03  0.00000000000E+00 0.  1.
          3   -1    0    0  501    0  0.00000000000E+00 -0.00000000000E+00 -0.64478924404E+03  0.64478924404E+03  0.00000000000E+00 0. -1.
        -24    2    1    2    0    0  0.12699331801E+03  0.13193367093E+03  0.19414515918E+03  0.27881745931E+03  0.80703385548E+02 0.  0.
        254    2    1    2    0    0 -0.12699331801E+03 -0.13193367093E+03 -0.24948278123E+03  0.95542340672E+03  0.90391284516E+03 0.  0.
         23    2    4    4    0    0 -0.30275081944E+03 -0.59393046803E+02 -0.52055609909E+03  0.61174286670E+03  0.89805845988E+02 0.  0.
         23    2    4    4    0    0  0.17575750143E+03 -0.72540624124E+02  0.27107331786E+03  0.34368054003E+03  0.92101728978E+02 0.  0.
          3    1    3    3  502    0  0.10750684330E+02  0.62894044893E+02  0.48925755173E+02  0.80405022330E+02  0.00000000000E+00 0. -1.
         -4    1    3    3    0  502  0.11624263368E+03  0.69039626034E+02  0.14521940401E+03  0.19841243698E+03  0.00000000000E+00 0.  1.
         13    1    5    5    0    0 -0.15280354469E+03 -0.11241355197E+02 -0.33491583872E+03  0.36829867005E+03  0.00000000000E+00 0.  1.
        -13    1    5    5    0    0 -0.14994727475E+03 -0.48151691606E+02 -0.18564026037E+03  0.24344419664E+03  0.00000000000E+00 0. -1.
          3    1    6    6  503    0  0.52768523332E+02  0.19132041354E+02  0.54081893132E+02  0.77944872992E+02  0.00000000000E+00 0. -1.
         -3    1    6    6    0  503  0.12298897810E+03 -0.91672665478E+02  0.21699142473E+03  0.26573566704E+03  0.00000000000E+00 0.  1.
<mgrwt>
<rscale>  0 0.12329997E+04</rscale>
<asrwt>0</asrwt>
<pdfrwt beam="1">  1        3 0.99198345E-01 0.12329997E+04</pdfrwt>
<pdfrwt beam="2">  1       -4 0.90684865E-01 0.12329997E+04</pdfrwt>
<totfact> 0.20882127E+00</totfact>
</mgrwt>
</event>
<event>
12    5  0.5221187E-008  0.1468799E+04  0.7818608E-02  0.8905471E-01
         -2   -1    0    0    0  501 -0.00000000000E+00  0.00000000000E+00  0.27928457662E+04  0.27928457662E+04  0.00000000000E+00 0.  1.
          1   -1    0    0  501    0  0.00000000000E+00 -0.00000000000E+00 -0.19311568359E+03  0.19311568359E+03  0.00000000000E+00 0. -1.
        -24    2    1    2    0    0  0.13482191186E+03  0.47694003413E+02 -0.65899598756E+02  0.17702788615E+03  0.80897771793E+02 0.  0.
        254    2    1    2    0    0 -0.13482191186E+03 -0.47694003413E+02  0.26656296813E+04  0.28089335636E+04  0.87411355149E+03 0.  0.
         23    2    4    4    0    0 -0.47900754323E+03 -0.68522558204E+02  0.11356239461E+04  0.12379060626E+04  0.92876828749E+02 0.  0.
         23    2    4    4    0    0  0.34418563137E+03  0.20828554791E+02  0.15300057352E+04  0.15710275010E+04  0.91171715309E+02 0.  0.
          3    1    3    3  502    0  0.69239421608E+02 -0.13624010337E+02 -0.48360495679E+02  0.85547932205E+02  0.00000000000E+00 0. -1.
         -4    1    3    3    0  502  0.65582490251E+02  0.61318013750E+02 -0.17539103077E+02  0.91479953949E+02  0.00000000000E+00 0.  1.
         13    1    5    5    0    0 -0.28133033933E+03 -0.30834173802E+02  0.77307991987E+03  0.82325577350E+03  0.00000000000E+00 0.  1.
        -13    1    5    5    0    0 -0.19767720390E+03 -0.37688384402E+02  0.36254402623E+03  0.41465028906E+03  0.00000000000E+00 0. -1.
          1    1    6    6  503    0  0.27297619445E+02  0.24166958893E+02  0.23492196908E+03  0.23773416559E+03  0.00000000000E+00 0. -1.
         -1    1    6    6    0  503  0.31688801193E+03 -0.33384041023E+01  0.12950837661E+04  0.13332933355E+04  0.00000000000E+00 0.  1.
<mgrwt>
<rscale>  0 0.14687986E+04</rscale>
<asrwt>0</asrwt>
<pdfrwt beam="1">  1        1 0.29710107E-01 0.14687986E+04</pdfrwt>
<pdfrwt beam="2">  1       -2 0.42966855E+00 0.14687986E+04</pdfrwt>
<totfact> 0.62993449E-01</totfact>
</mgrwt>
</event>
<event>
12    5  0.5221187E-008  0.1264288E+04  0.7818608E-02  0.9058374E-01
         -2   -1    0    0    0  501 -0.00000000000E+00  0.00000000000E+00  0.15046061161E+03  0.15046061161E+03  0.00000000000E+00 0.  1.
          1   -1    0    0  501    0  0.00000000000E+00 -0.00000000000E+00 -0.26558852548E+04  0.26558852548E+04  0.00000000000E+00 0. -1.
        -24    2    1    2    0    0  0.21644692718E+03  0.12638040488E+03 -0.10374774383E+04  0.10702600851E+04  0.79220804022E+02 0.  0.
        254    2    1    2    0    0 -0.21644692718E+03 -0.12638040488E+03 -0.14679472049E+04  0.17360857813E+04  0.89235842834E+03 0.  0.
         23    2    4    4    0    0 -0.48727372114E+03 -0.24217153700E+03 -0.59980886290E+03  0.81481333677E+03  0.89818534412E+02 0.  0.
         23    2    4    4    0    0  0.27082679395E+03  0.11579113212E+03 -0.86813834202E+03  0.92127244454E+03  0.91235944595E+02 0.  0.
          1    1    3    3  502    0  0.18100935178E+03  0.12010295163E+03 -0.75925883084E+03  0.78972341781E+03  0.00000000000E+00 0. -1.
         -2    1    3    3    0  502  0.35437575402E+02  0.62774532481E+01 -0.27821860743E+03  0.28053666728E+03  0.00000000000E+00 0.  1.
         13    1    5    5    0    0 -0.13717331245E+03 -0.51369931882E+02 -0.21892670463E+03  0.26340897774E+03  0.00000000000E+00 0. -1.
        -13    1    5    5    0    0 -0.35010040868E+03 -0.19080160512E+03 -0.38088215827E+03  0.55140435904E+03  0.00000000000E+00 0.  1.
          1    1    6    6  503    0  0.45520021492E+02  0.50966023585E+02 -0.27785919471E+03  0.28613867268E+03  0.00000000000E+00 0. -1.
         -1    1    6    6    0  503  0.22530677246E+03  0.64825108537E+02 -0.59027914730E+03  0.63513377186E+03  0.00000000000E+00 0.  1.
<mgrwt>
<rscale>  0 0.12642881E+04</rscale>
<asrwt>0</asrwt>
<pdfrwt beam="1">  1        1 0.40859769E+00 0.12642881E+04</pdfrwt>
<pdfrwt beam="2">  1       -2 0.23147788E-01 0.12642881E+04</pdfrwt>
<totfact> 0.15133607E+01</totfact>
</mgrwt>
</event>
<event>
12    5  0.5221187E-008  0.1358868E+04  0.7818608E-02  0.8984142E-01
         -2   -1    0    0    0  501 -0.00000000000E+00  0.00000000000E+00  0.15565412287E+04  0.15565412287E+04  0.00000000000E+00 0.  1.
          1   -1    0    0  501    0  0.00000000000E+00 -0.00000000000E+00 -0.29657460275E+03  0.29657460275E+03  0.00000000000E+00 0. -1.
        -24    2    1    2    0    0 -0.10661849186E+03  0.10722960175E+02  0.78320483754E+03  0.79431109837E+03  0.77703402540E+02 0.  0.
        254    2    1    2    0    0  0.10661849186E+03 -0.10722960175E+02  0.47676178843E+03  0.10588047331E+04  0.93929930015E+03 0.  0.
         23    2    4    4    0    0  0.40777228455E+03 -0.29508900442E+03  0.33456199073E+03  0.61136900145E+03  0.92111745775E+02 0.  0.
         23    2    4    4    0    0 -0.30115379268E+03  0.28436604424E+03  0.14219979770E+03  0.44743573167E+03  0.91762179236E+02 0.  0.
          3    1    3    3  502    0 -0.10478852644E+03  0.21592393065E+02  0.52086470743E+03  0.53173951344E+03  0.00000000000E+00 0. -1.
         -4    1    3    3    0  502 -0.18299654262E+01 -0.10869432890E+02  0.26234013011E+03  0.26257158492E+03  0.00000000000E+00 0.  1.
         13    1    5    5    0    0  0.28215800711E+03 -0.20473149788E+03  0.28054576755E+03  0.44747520031E+03  0.00000000000E+00 0. -1.
        -13    1    5    5    0    0  0.12561427743E+03 -0.90357506540E+02  0.54016223183E+02  0.16389380113E+03  0.00000000000E+00 0.  1.
          3    1    6    6  503    0 -0.28796226375E+03  0.25429182209E+03  0.10592880428E+03  0.39850659681E+03  0.00000000000E+00 0. -1.
         -3    1    6    6    0  503 -0.13191528935E+02  0.30074222158E+02  0.36270993424E+02  0.48929134858E+02  0.00000000000E+00 0.  1.
<mgrwt>
<rscale>  0 0.13588681E+04</rscale>
<asrwt>0</asrwt>
<pdfrwt beam="1">  1        1 0.45626863E-01 0.13588681E+04</pdfrwt>
<pdfrwt beam="2">  1       -2 0.23946788E+00 0.13588681E+04</pdfrwt>
<totfact> 0.56767065E+00</totfact>
</mgrwt>
</event>
<event>
12    5  0.5221187E-008  0.1917766E+04  0.7818608E-02  0.8646063E-01
         -2   -1    0    0    0  501 -0.00000000000E+00  0.00000000000E+00  0.58353399847E+03  0.58353399847E+03  0.00000000000E+00 0.  1.
          1   -1    0    0  501    0  0.00000000000E+00 -0.00000000000E+00 -0.15756700073E+04  0.15756700073E+04  0.00000000000E+00 0. -1.
        -24    2    1    2    0    0  0.19593640026E+03 -0.34372548136E+03 -0.10940928141E+04  0.11659353783E+04  0.76340953404E+02 0.  0.
        254    2    1    2    0    0 -0.19593640026E+03  0.34372548136E+03  0.10195680522E+03  0.99326862745E+03  0.90534473912E+03 0.  0.
         23    2    4    4    0    0  0.25139164718E+03  0.31138937015E+03 -0.18742771828E+03  0.45178162299E+03  0.93895607865E+02 0.  0.
         23    2    4    4    0    0 -0.44732804744E+03  0.32336111214E+02  0.28938452350E+03  0.54148700446E+03  0.91196312661E+02 0.  0.
          1    1    3    3  502    0  0.18598970858E+03 -0.34284535508E+03 -0.10825456739E+04  0.11506694770E+04  0.00000000000E+00 0. -1.
         -2    1    3    3    0  502  0.99466916840E+01 -0.88012628092E+00 -0.11547140168E+02  0.15265901342E+02  0.00000000000E+00 0.  1.
         13    1    5    5    0    0  0.93941120560E+02  0.70483104033E+02 -0.20927386187E+02  0.11929273900E+03  0.00000000000E+00 0.  1.
        -13    1    5    5    0    0  0.15745052662E+03  0.24090626611E+03 -0.16650033209E+03  0.33248888398E+03  0.00000000000E+00 0. -1.
          3    1    6    6  503    0 -0.32472824104E+02  0.29017645042E+01 -0.35295311516E+01  0.32792714628E+02  0.00000000000E+00 0. -1.
         -3    1    6    6    0  503 -0.41485522334E+03  0.29434346710E+02  0.29291405465E+03  0.50869428983E+03  0.00000000000E+00 0.  1.
<mgrwt>
<rscale>  0 0.19177664E+04</rscale>
<asrwt>0</asrwt>
<pdfrwt beam="1">  1        1 0.24241077E+00 0.19177664E+04</pdfrwt>
<pdfrwt beam="2">  1       -2 0.89774461E-01 0.19177664E+04</pdfrwt>
<totfact> 0.50548034E+00</totfact>
</mgrwt>
</event>
<event>
12    5  0.5221187E-008  0.1061465E+04  0.7818608E-02  0.9243586E-01
         -2   -1    0    0    0  501 -0.00000000000E+00  0.00000000000E+00  0.70335993845E+03  0.70335993845E+03  0.00000000000E+00 0.  1.
          1   -1    0    0  501    0  0.00000000000E+00 -0.00000000000E+00 -0.40047357980E+03  0.40047357980E+03  0.00000000000E+00 0. -1.
        -24    2    1    2    0    0  0.82460411269E+02  0.81531652650E+02  0.86694711609E+02  0.16503948404E+03  0.79214446030E+02 0.  0.
        254    2    1    2    0    0 -0.82460411269E+02 -0.81531652650E+02  0.21619164704E+03  0.93879403422E+03  0.90617232391E+03 0.  0.
         23    2    4    4    0    0 -0.18038009173E+03 -0.19387287672E+03  0.51864716823E+03  0.58926316447E+03  0.90069540172E+02 0.  0.
         23    2    4    4    0    0  0.97919680458E+02  0.11234122407E+03 -0.30245552118E+03  0.34953086975E+03  0.92106851904E+02 0.  0.
          1    1    3    3  502    0  0.54667008256E+02  0.94451780734E+02  0.74057239142E+02  0.13188667615E+03  0.00000000000E+00 0. -1.
         -4    1    3    3    0  502  0.27793403014E+02 -0.12920128084E+02  0.12637472467E+02  0.33152807892E+02  0.00000000000E+00 0.  1.
         13    1    5    5    0    0 -0.14637906622E+03 -0.19158678279E+03  0.48364598738E+03  0.54041259004E+03  0.00000000000E+00 0. -1.
        -13    1    5    5    0    0 -0.34001025511E+02 -0.22860939393E+01  0.35001180851E+02  0.48850574431E+02  0.00000000000E+00 0.  1.
          1    1    6    6  503    0  0.10937701829E+03  0.10194876978E+03 -0.29804127130E+03  0.33344487278E+03  0.00000000000E+00 0. -1.
         -1    1    6    6    0  503 -0.11457337829E+02  0.10392454298E+02 -0.44142498862E+01  0.16085996970E+02  0.00000000000E+00 0.  1.
<mgrwt>
<rscale>  0 0.10614652E+04</rscale>
<asrwt>0</asrwt>
<pdfrwt beam="1">  1        1 0.61611320E-01 0.10614652E+04</pdfrwt>
<pdfrwt beam="2">  1       -2 0.10820922E+00 0.10614652E+04</pdfrwt>
<totfact> 0.35738364E+01</totfact>
</mgrwt>
</event>
<event>
12    5  0.5221187E-008  0.1637022E+04  0.7818608E-02  0.8798121E-01
          1   -1    0    0  501    0  0.00000000000E+00  0.00000000000E+00  0.10470475742E+04  0.10470475742E+04  0.00000000000E+00 0. -1.
         -2   -1    0    0    0  501 -0.00000000000E+00 -0.00000000000E+00 -0.63985648605E+03  0.63985648605E+03  0.00000000000E+00 0.  1.
        -24    2    1    2    0    0  0.80632247770E+00 -0.44187478619E+03 -0.22586902449E+03  0.50256354357E+03  0.79368269990E+02 0.  0.
        254    2    1    2    0    0 -0.80632247770E+00  0.44187478619E+03  0.63306011264E+03  0.11843405167E+04  0.89813327319E+03 0.  0.
         23    2    4    4    0    0 -0.14165331854E+03  0.15249856020E+02 -0.18066941868E+03  0.24954507678E+03  0.96607896869E+02 0.  0.
         23    2    4    4    0    0  0.14084699606E+03  0.42662493017E+03  0.81372953132E+03  0.93479543990E+03  0.99197061328E+02 0.  0.
          3    1    3    3  502    0  0.22416343643E+02 -0.38634697807E+02 -0.29513948216E+02  0.53536954305E+02  0.00000000000E+00 0. -1.
         -4    1    3    3    0  502 -0.21610021165E+02 -0.40324008838E+03 -0.19635507627E+03  0.44902658927E+03  0.00000000000E+00 0.  1.
         13    1    5    5    0    0 -0.96021585037E+01 -0.12628777841E+02 -0.78990160534E+02  0.80567567537E+02  0.00000000000E+00 0. -1.
        -13    1    5    5    0    0 -0.13205116004E+03  0.27878633860E+02 -0.10167925814E+03  0.16897750924E+03  0.00000000000E+00 0.  1.
          4    1    6    6  503    0  0.33043013833E+02  0.11971315795E+03  0.14336809665E+03  0.18967733678E+03  0.00000000000E+00 0. -1.
         -4    1    6    6    0  503  0.10780398223E+03  0.30691177222E+03  0.67036143467E+03  0.74511810312E+03  0.00000000000E+00 0.  1.
<mgrwt>
<rscale>  0 0.16370219E+04</rscale>
<asrwt>0</asrwt>
<pdfrwt beam="1">  1        1 0.16108424E+00 0.16370219E+04</pdfrwt>
<pdfrwt beam="2">  1       -2 0.98439460E-01 0.16370219E+04</pdfrwt>
<totfact> 0.10003273E+01</totfact>
</mgrwt>
</event>
<event>
12    5  0.5221187E-008  0.1510797E+04  0.7818608E-02  0.8877305E-01
         -2   -1    0    0    0  501 -0.00000000000E+00  0.00000000000E+00  0.21698845258E+03  0.21698845258E+03  0.00000000000E+00 0.  1.
          1   -1    0    0  501    0  0.00000000000E+00 -0.00000000000E+00 -0.26297563606E+04  0.26297563606E+04  0.00000000000E+00 0. -1.
        -24    2    1    2    0    0 -0.40279810404E+03 -0.11544213814E+03 -0.12028630228E+04  0.12761995675E+04  0.78947353804E+02 0.  0.
        254    2    1    2    0    0  0.40279810404E+03  0.11544213814E+03 -0.12099048853E+04  0.15705452457E+04  0.90948850323E+03 0.  0.
         23    2    4    4    0    0  0.30900358213E+03  0.44316438223E+03 -0.37655870857E+03  0.66551126046E+03  0.96077538277E+02 0.  0.
         23    2    4    4    0    0  0.93794521912E+02 -0.32772224409E+03 -0.83334617669E+03  0.90503398522E+03  0.91768091394E+02 0.  0.
          3    1    3    3  502    0 -0.39136947835E+03 -0.94638700315E+02 -0.11350910995E+04  0.12043912804E+04  0.00000000000E+00 0. -1.
         -4    1    3    3    0  502 -0.11428625691E+02 -0.20803437828E+02 -0.67771923275E+02  0.71808287092E+02  0.00000000000E+00 0.  1.
         13    1    5    5    0    0  0.27337605090E+03  0.35380358392E+03 -0.27163415554E+03  0.52316016253E+03  0.00000000000E+00 0. -1.
        -13    1    5    5    0    0  0.35627531232E+02  0.89360798309E+02 -0.10492455303E+03  0.14235109794E+03  0.00000000000E+00 0.  1.
          3    1    6    6  503    0  0.10153733169E+03 -0.30940577178E+03 -0.72355905583E+03  0.79346043922E+03  0.00000000000E+00 0. -1.
         -3    1    6    6    0  503 -0.77428097732E+01 -0.18316472306E+02 -0.10978712086E+03  0.11157354600E+03  0.00000000000E+00 0.  1.
<mgrwt>
<rscale>  0 0.15107968E+04</rscale>
<asrwt>0</asrwt>
<pdfrwt beam="1">  1        1 0.40457791E+00 0.15107968E+04</pdfrwt>
<pdfrwt beam="2">  1       -2 0.33382838E-01 0.15107968E+04</pdfrwt>
<totfact> 0.78516465E+00</totfact>
</mgrwt>
</event>
<event>
12    5  0.5221187E-008  0.1693364E+04  0.7818608E-02  0.8765158E-01
          1   -1    0    0  501    0  0.00000000000E+00  0.00000000000E+00  0.43074431949E+03  0.43074431949E+03  0.00000000000E+00 0. -1.
         -2   -1    0    0    0  501 -0.00000000000E+00 -0.00000000000E+00 -0.16642598461E+04  0.16642598461E+04  0.00000000000E+00 0.  1.
        -24    2    1    2    0    0 -0.68213055477E+02  0.42327809732E+03 -0.96984342110E+03  0.10631654932E+04  0.76858544039E+02 0.  0.
        254    2    1    2    0    0  0.68213055477E+02 -0.42327809732E+03 -0.26367210555E+03  0.10318386725E+04  0.90075007531E+03 0.  0.
         23    2    4    4    0    0  0.27902981485E+03 -0.48701905430E+03  0.12034012211E+03  0.58104500790E+03  0.89924186857E+02 0.  0.
         23    2    4    4    0    0 -0.21081675937E+03  0.63740956980E+02 -0.38401222766E+03  0.45079366458E+03  0.85105354720E+02 0.  0.
          1    1    3    3  502    0  0.43904011477E+01  0.44248152642E+01 -0.43441258355E+02  0.43886188486E+02  0.00000000000E+00 0. -1.
         -2    1    3    3    0  502 -0.72603456625E+02  0.41885328206E+03 -0.92640216274E+03  0.10192793047E+04  0.00000000000E+00 0.  1.
         13    1    5    5    0    0  0.19034171101E+03 -0.27724701221E+03  0.10698314516E+03  0.35290404656E+03  0.00000000000E+00 0.  1.
        -13    1    5    5    0    0  0.88688103837E+02 -0.20977204209E+03  0.13356976955E+02  0.22814096134E+03  0.00000000000E+00 0. -1.
          1    1    6    6  503    0 -0.31565918175E+02  0.26451944048E+02 -0.26063788968E+02  0.48738420466E+02  0.00000000000E+00 0. -1.
         -1    1    6    6    0  503 -0.17925084120E+03  0.37289012931E+02 -0.35794843869E+03  0.40205524411E+03  0.00000000000E+00 0.  1.
<mgrwt>
<rscale>  0 0.16933641E+04</rscale>
<asrwt>0</asrwt>
<pdfrwt beam="1">  1        1 0.66268356E-01 0.16933641E+04</pdfrwt>
<pdfrwt beam="2">  1       -2 0.25603998E+00 0.16933641E+04</pdfrwt>
<totfact> 0.26697017E+00</totfact>
</mgrwt>
</event>
<event>
12    5  0.5221187E-008  0.2223762E+04  0.7818608E-02  0.8508603E-01
         -2   -1    0    0    0  501 -0.00000000000E+00  0.00000000000E+00  0.13756672403E+04  0.13756672403E+04  0.00000000000E+00 0.  1.
          1   -1    0    0  501    0  0.00000000000E+00 -0.00000000000E+00 -0.89867603253E+03  0.89867603253E+03  0.00000000000E+00 0. -1.
        -24    2    1    2    0    0  0.62471670693E+03 -0.46452823537E+03 -0.31658866631E+03  0.84427837119E+03  0.80747377895E+02 0.  0.
        254    2    1    2    0    0 -0.62471670693E+03  0.46452823537E+03  0.79357987408E+03  0.14300649016E+04  0.89958832862E+03 0.  0.
         23    2    4    4    0    0 -0.64187812417E+03 -0.64467696657E+02  0.43840853825E+03  0.78533402213E+03  0.91563473693E+02 0.  0.
         23    2    4    4    0    0  0.17161417232E+02  0.52899593203E+03  0.35517133583E+03  0.64473087951E+03  0.96953694396E+02 0.  0.
          3    1    3    3  502    0  0.24228456095E+03 -0.19908950156E+03 -0.16715962844E+03  0.35536007019E+03  0.00000000000E+00 0. -1.
         -4    1    3    3    0  502  0.38243214598E+03 -0.26543873381E+03 -0.14942903787E+03  0.48891830099E+03  0.00000000000E+00 0.  1.
         13    1    5    5    0    0 -0.13342441963E+03  0.44408498298E+01  0.13182607447E+03  0.18761639270E+03  0.00000000000E+00 0.  1.
        -13    1    5    5    0    0 -0.50845370453E+03 -0.68908546487E+02  0.30658246378E+03  0.59771762943E+03  0.00000000000E+00 0. -1.
          4    1    6    6  503    0  0.15433845248E+02  0.51486375518E+03  0.31903978184E+03  0.60589543023E+03  0.00000000000E+00 0. -1.
         -4    1    6    6    0  503  0.17275719845E+01  0.14132176851E+02  0.36131553985E+02  0.38835449281E+02  0.00000000000E+00 0.  1.
<mgrwt>
<rscale>  0 0.22237618E+04</rscale>
<asrwt>0</asrwt>
<pdfrwt beam="1">  1        1 0.13825785E+00 0.22237618E+04</pdfrwt>
<pdfrwt beam="2">  1       -2 0.21164111E+00 0.22237618E+04</pdfrwt>
<totfact> 0.16255957E+00</totfact>
</mgrwt>
</event>
<event>
12    5  0.5221187E-008  0.2674591E+04  0.7818608E-02  0.8343297E-01
         -2   -1    0    0    0  501 -0.00000000000E+00  0.00000000000E+00  0.93677918610E+03  0.93677918610E+03  0.00000000000E+00 0.  1.
          1   -1    0    0  501    0  0.00000000000E+00 -0.00000000000E+00 -0.19090512592E+04  0.19090512592E+04  0.00000000000E+00 0. -1.
        -24    2    1    2    0    0 -0.14373071321E+03 -0.78299128149E+03 -0.13625672981E+04  0.15804715147E+04  0.86986793603E+02 0.  0.
        254    2    1    2    0    0  0.14373071321E+03  0.78299128149E+03  0.39029522492E+03  0.12653589306E+04  0.90281171675E+03 0.  0.
         23    2    4    4    0    0  0.10931345602E+03  0.84161158786E+03  0.58828932715E+03  0.10371523435E+04  0.96649649559E+02 0.  0.
         23    2    4    4    0    0  0.34417257191E+02 -0.58620306372E+02 -0.19799410223E+03  0.22820658709E+03  0.90860849439E+02 0.  0.
          1    1    3    3  502    0 -0.14181255068E+03 -0.68500010325E+03 -0.11437775382E+04  0.13407322618E+04  0.00000000000E+00 0. -1.
         -2    1    3    3    0  502 -0.19181625222E+01 -0.97991178244E+02 -0.21878975981E+03  0.23973925286E+03  0.00000000000E+00 0.  1.
         13    1    5    5    0    0  0.72306391432E+02  0.77154734024E+03  0.53426980388E+03  0.94125327931E+03  0.00000000000E+00 0. -1.
        -13    1    5    5    0    0  0.37007064583E+02  0.70064247624E+02  0.54019523277E+02  0.95899064225E+02  0.00000000000E+00 0.  1.
          3    1    6    6  503    0  0.61396819722E+02 -0.58513175598E+02 -0.16554249280E+03  0.18600451101E+03  0.00000000000E+00 0. -1.
         -3    1    6    6    0  503 -0.26979562531E+02 -0.10713077374E+00 -0.32451609431E+02  0.42202076087E+02  0.00000000000E+00 0.  1.
<mgrwt>
<rscale>  0 0.26745912E+04</rscale>
<asrwt>0</asrwt>
<pdfrwt beam="1">  1        1 0.29370019E+00 0.26745912E+04</pdfrwt>
<pdfrwt beam="2">  1       -2 0.14411988E+00 0.26745912E+04</pdfrwt>
<totfact> 0.87957816E-01</totfact>
</mgrwt>
</event>
<event>
12    5  0.5221187E-008  0.1465685E+04  0.7818608E-02  0.8907598E-01
         -2   -1    0    0    0  501 -0.00000000000E+00  0.00000000000E+00  0.19412454564E+03  0.19412454564E+03  0.00000000000E+00 0.  1.
          1   -1    0    0  501    0  0.00000000000E+00 -0.00000000000E+00 -0.27665649878E+04  0.27665649878E+04  0.00000000000E+00 0. -1.
        -24    2    1    2    0    0  0.20490519224E+03 -0.86025947101E+02 -0.47700529639E+01  0.23568875650E+03  0.78357100212E+02 0.  0.
        254    2    1    2    0    0 -0.20490519224E+03  0.86025947101E+02 -0.25676703892E+04  0.27250007769E+04  0.88504881525E+03 0.  0.
         23    2    4    4    0    0  0.34166619096E+03  0.18659744911E+02 -0.99250359821E+03  0.10538014619E+04  0.91379190655E+02 0.  0.
         23    2    4    4    0    0 -0.54657138320E+03  0.67366202190E+02 -0.15751667910E+04  0.16711993150E+04  0.92077408070E+02 0.  0.
          3    1    3    3  502    0  0.84126918699E+02 -0.54708826518E+02 -0.36774188166E+02  0.10687719618E+03  0.00000000000E+00 0. -1.
         -4    1    3    3    0  502  0.12077827354E+03 -0.31317120583E+02  0.32004135202E+02  0.12881156031E+03  0.00000000000E+00 0.  1.
         13    1    5    5    0    0  0.10700768271E+03  0.28005023695E+01 -0.44914760472E+03  0.46172725477E+03  0.00000000000E+00 0.  1.
        -13    1    5    5    0    0  0.23465850825E+03  0.15859242542E+02 -0.54335599349E+03  0.59207420712E+03  0.00000000000E+00 0. -1.
          4    1    6    6  503    0 -0.44180159497E+03  0.80837656245E+02 -0.11944919377E+04  0.12761404176E+04  0.00000000000E+00 0. -1.
         -4    1    6    6    0  503 -0.10476978823E+03 -0.13471454055E+02 -0.38067485324E+03  0.39505889749E+03  0.00000000000E+00 0.  1.
<mgrwt>
<rscale>  0 0.14656851E+04</rscale>
<asrwt>0</asrwt>
<pdfrwt beam="1">  1        1 0.42562538E+00 0.14656851E+04</pdfrwt>
<pdfrwt beam="2">  1       -2 0.29865315E-01 0.14656851E+04</pdfrwt>
<totfact> 0.77914767E+00</totfact>
</mgrwt>
</event>
<event>
12    5  0.5221187E-008  0.1494000E+04  0.7818608E-02  0.8888452E-01
         -2   -1    0    0    0  501 -0.00000000000E+00  0.00000000000E+00  0.81690001784E+03  0.81690001784E+03  0.00000000000E+00 0.  1.
          1   -1    0    0  501    0  0.00000000000E+00 -0.00000000000E+00 -0.68308139728E+03  0.68308139728E+03  0.00000000000E+00 0. -1.
        -24    2    1    2    0    0 -0.19337102030E+03  0.34723031940E+03 -0.27799728388E+03  0.49115841101E+03  0.77413491416E+02 0.  0.
        254    2    1    2    0    0  0.19337102030E+03 -0.34723031940E+03  0.41181590444E+03  0.10088230041E+04  0.83076486943E+03 0.  0.
         23    2    4    4    0    0  0.17856175091E+02 -0.36103684579E+03 -0.15830605635E+03  0.40509055812E+03  0.91493747298E+02 0.  0.
         23    2    4    4    0    0  0.17551484521E+03  0.13806526390E+02  0.57012196079E+03  0.60373244599E+03  0.91965945402E+02 0.  0.
          1    1    3    3  502    0 -0.20556602723E+02  0.10105362681E+03 -0.56183548086E+02  0.11743509050E+03  0.00000000000E+00 0. -1.
         -2    1    3    3    0  502 -0.17281441758E+03  0.24617669260E+03 -0.22181373579E+03  0.37372332050E+03  0.00000000000E+00 0.  1.
         13    1    5    5    0    0  0.28554023921E+02 -0.31254371722E+03 -0.10197688229E+03  0.32999726056E+03  0.00000000000E+00 0. -1.
        -13    1    5    5    0    0 -0.10697848830E+02 -0.48493128570E+02 -0.56329174061E+02  0.75093297560E+02  0.00000000000E+00 0.  1.
          1    1    6    6  503    0  0.15277028220E+03 -0.78088571126E-02  0.34844274586E+03  0.38046170153E+03  0.00000000000E+00 0.  1.
         -1    1    6    6    0  503  0.22744563008E+02  0.13814335247E+02  0.22167921493E+03  0.22327074447E+03  0.00000000000E+00 0. -1.
<mgrwt>
<rscale>  0 0.14940003E+04</rscale>
<asrwt>0</asrwt>
<pdfrwt beam="1">  1        1 0.10508945E+00 0.14940003E+04</pdfrwt>
<pdfrwt beam="2">  1       -2 0.12567693E+00 0.14940003E+04</pdfrwt>
<totfact> 0.11329221E+01</totfact>
</mgrwt>
</event>
<event>
12    5  0.5221187E-008  0.1269018E+04  0.7818608E-02  0.9054501E-01
         -2   -1    0    0    0  501 -0.00000000000E+00  0.00000000000E+00  0.19056769187E+03  0.19056769187E+03  0.00000000000E+00 0.  1.
          1   -1    0    0  501    0  0.00000000000E+00 -0.00000000000E+00 -0.21126445012E+04  0.21126445012E+04  0.00000000000E+00 0. -1.
        -24    2    1    2    0    0 -0.17889323645E+03 -0.11387935597E+03 -0.73189372616E+02  0.23817670400E+03  0.80001001891E+02 0.  0.
        254    2    1    2    0    0  0.17889323645E+03  0.11387935597E+03 -0.18488874367E+04  0.20650354891E+04  0.89499470375E+03 0.  0.
         23    2    4    4    0    0 -0.30141207771E+03 -0.43724621368E+01 -0.12182363349E+04  0.12582515571E+04  0.90713032023E+02 0.  0.
         23    2    4    4    0    0  0.48030531415E+03  0.11825181810E+03 -0.63065110178E+03  0.80678393197E+03  0.92210701242E+02 0.  0.
          1    1    3    3  502    0 -0.15025056188E+02 -0.55102300560E+01 -0.34376563021E+02  0.37919164467E+02  0.00000000000E+00 0. -1.
         -2    1    3    3    0  502 -0.16386818026E+03 -0.10836912591E+03 -0.38812809595E+02  0.20025753953E+03  0.00000000000E+00 0.  1.
         13    1    5    5    0    0 -0.71765103228E+02 -0.21114000557E+01 -0.47339745311E+03  0.47881085687E+03  0.00000000000E+00 0. -1.
        -13    1    5    5    0    0 -0.22964697448E+03 -0.22610620811E+01 -0.74483888184E+03  0.77944070024E+03  0.00000000000E+00 0.  1.
          4    1    6    6  503    0  0.18624349604E+03  0.90113929398E+02 -0.28323844407E+03  0.35075800246E+03  0.00000000000E+00 0.  1.
         -4    1    6    6    0  503  0.29406181811E+03  0.28137888707E+02 -0.34741265771E+03  0.45602592952E+03  0.00000000000E+00 0. -1.
<mgrwt>
<rscale>  0 0.12690182E+04</rscale>
<asrwt>0</asrwt>
<pdfrwt beam="1">  1        1 0.32502224E+00 0.12690182E+04</pdfrwt>
<pdfrwt beam="2">  1       -2 0.29318105E-01 0.12690182E+04</pdfrwt>
<totfact> 0.23168274E+01</totfact>
</mgrwt>
</event>
<event>
12    5  0.5221187E-008  0.2504805E+04  0.7818608E-02  0.8401276E-01
         -2   -1    0    0    0  501 -0.00000000000E+00  0.00000000000E+00  0.12283513894E+04  0.12283513894E+04  0.00000000000E+00 0.  1.
          1   -1    0    0  501    0  0.00000000000E+00 -0.00000000000E+00 -0.12769241763E+04  0.12769241763E+04  0.00000000000E+00 0. -1.
        -24    2    1    2    0    0  0.59324143478E+02 -0.77740205320E+03  0.73961439102E+03  0.10776140364E+04  0.79682229727E+02 0.  0.
        254    2    1    2    0    0 -0.59324143478E+02  0.77740205320E+03 -0.78818717794E+03  0.14276615293E+04  0.89950270056E+03 0.  0.
         23    2    4    4    0    0  0.14337615743E+03  0.53679272904E+02 -0.62969517398E+03  0.65421999232E+03  0.89719559506E+02 0.  0.
         23    2    4    4    0    0 -0.20270030091E+03  0.72372278029E+03 -0.15849200396E+03  0.77344153693E+03  0.90719463341E+02 0.  0.
          3    1    3    3  502    0  0.92434747303E+01 -0.37002945315E+03  0.39898364288E+03  0.54423816965E+03  0.00000000000E+00 0. -1.
         -4    1    3    3    0  502  0.50080668748E+02 -0.40737260005E+03  0.34063074815E+03  0.53337586675E+03  0.00000000000E+00 0.  1.
         13    1    5    5    0    0  0.13931975604E+03  0.70753257391E+02 -0.59702897588E+03  0.61713824699E+03  0.00000000000E+00 0.  1.
        -13    1    5    5    0    0  0.40564013841E+01 -0.17073984487E+02 -0.32666198099E+02  0.37081745330E+02  0.00000000000E+00 0. -1.
          3    1    6    6  503    0 -0.13228751446E+03  0.31030827255E+03 -0.82028231384E+02  0.34715967687E+03  0.00000000000E+00 0. -1.
         -3    1    6    6    0  503 -0.70412786444E+02  0.41341450774E+03 -0.76463772579E+02  0.42628186006E+03  0.00000000000E+00 0.  1.
<mgrwt>
<rscale>  0 0.25048047E+04</rscale>
<asrwt>0</asrwt>
<pdfrwt beam="1">  1        1 0.19644987E+00 0.25048047E+04</pdfrwt>
<pdfrwt beam="2">  1       -2 0.18897714E+00 0.25048047E+04</pdfrwt>
<totfact> 0.11533012E+00</totfact>
</mgrwt>
</event>
<event>
12    5  0.5221187E-008  0.1460731E+04  0.7818608E-02  0.8910994E-01
          1   -1    0    0  501    0  0.00000000000E+00  0.00000000000E+00  0.10707811281E+04  0.10707811281E+04  0.00000000000E+00 0. -1.
         -2   -1    0    0    0  501 -0.00000000000E+00 -0.00000000000E+00 -0.49817284897E+03  0.49817284897E+03  0.00000000000E+00 0.  1.
        -24    2    1    2    0    0 -0.20731823413E+03  0.25746499728E+03  0.50981823963E+03  0.61281456824E+03  0.79736958597E+02 0.  0.
        254    2    1    2    0    0  0.20731823413E+03 -0.25746499728E+03  0.62790039513E+02  0.95613940884E+03  0.89498095234E+03 0.  0.
         23    2    4    4    0    0  0.51958495497E+03 -0.23931809969E+01  0.10451405820E+03  0.53848364375E+03  0.95221812001E+02 0.  0.
         23    2    4    4    0    0 -0.31226672084E+03 -0.25507181628E+03 -0.41724018682E+02  0.41765576509E+03  0.10061465092E+03 0.  0.
          1    1    3    3  502    0 -0.11376203129E+03  0.79225504574E+02  0.20035093661E+03  0.24363698023E+03  0.00000000000E+00 0. -1.
         -2    1    3    3    0  502 -0.93556202845E+02  0.17823949270E+03  0.30946730302E+03  0.36917758801E+03  0.00000000000E+00 0.  1.
         13    1    5    5    0    0  0.40448367328E+03 -0.41667815935E+02  0.79814491504E+02  0.41438339963E+03  0.00000000000E+00 0.  1.
        -13    1    5    5    0    0  0.11510128169E+03  0.39274634938E+02  0.24699566692E+02  0.12410024412E+03  0.00000000000E+00 0. -1.
          2    1    6    6  503    0 -0.91381335470E+01 -0.14296423947E+02  0.19366486469E+02  0.25747893517E+02  0.00000000000E+00 0. -1.
         -2    1    6    6    0  503 -0.30312858729E+03 -0.24077539233E+03 -0.61090505151E+02  0.39190787158E+03  0.00000000000E+00 0.  1.
<mgrwt>
<rscale>  0 0.14607314E+04</rscale>
<asrwt>0</asrwt>
<pdfrwt beam="1">  1        1 0.16473556E+00 0.14607314E+04</pdfrwt>
<pdfrwt beam="2">  1       -2 0.76641977E-01 0.14607314E+04</pdfrwt>
<totfact> 0.17275458E+01</totfact>
</mgrwt>
</event>
<event>
12    5  0.5221187E-008  0.3469032E+04  0.7818608E-02  0.8121168E-01
         -2   -1    0    0    0  501 -0.00000000000E+00  0.00000000000E+00  0.10485633915E+04  0.10485633915E+04  0.00000000000E+00 0.  1.
          1   -1    0    0  501    0  0.00000000000E+00 -0.00000000000E+00 -0.28692075414E+04  0.28692075414E+04  0.00000000000E+00 0. -1.
        -24    2    1    2    0    0 -0.84782994866E+03 -0.56480403834E+01  0.70555976011E+03  0.11059546524E+04  0.80458660070E+02 0.  0.
        254    2    1    2    0    0  0.84782994866E+03  0.56480403834E+01 -0.25262039099E+04  0.28118162804E+04  0.89763972632E+03 0.  0.
         23    2    4    4    0    0  0.13911504811E+02 -0.55347252894E+02 -0.14104352253E+04  0.14143169137E+04  0.87794984006E+02 0.  0.
         23    2    4    4    0    0  0.83391844385E+03  0.60995293277E+02 -0.11157686846E+04  0.13974993667E+04  0.94468649220E+02 0.  0.
          3    1    3    3  502    0 -0.27811259221E+03 -0.32910293683E+01  0.18348627667E+03  0.33320362925E+03  0.00000000000E+00 0. -1.
         -4    1    3    3    0  502 -0.56971735646E+03 -0.23570110151E+01  0.52207348344E+03  0.77275102320E+03  0.00000000000E+00 0.  1.
         13    1    5    5    0    0 -0.15007123025E+02 -0.49961320828E+02 -0.12573153201E+04  0.12583970603E+04  0.00000000000E+00 0. -1.
        -13    1    5    5    0    0  0.28918627836E+02 -0.53859320655E+01 -0.15311990526E+03  0.15591985341E+03  0.00000000000E+00 0.  1.
          4    1    6    6  503    0  0.79648620526E+03  0.40007530163E+02 -0.10420071249E+04  0.13121622331E+04  0.00000000000E+00 0. -1.
         -4    1    6    6    0  503  0.37432238594E+02  0.20987763114E+02 -0.73761559722E+02  0.85337133648E+02  0.00000000000E+00 0.  1.
<mgrwt>
<rscale>  0 0.34690321E+04</rscale>
<asrwt>0</asrwt>
<pdfrwt beam="1">  1        1 0.44141653E+00 0.34690321E+04</pdfrwt>
<pdfrwt beam="2">  1       -2 0.16131745E+00 0.34690321E+04</pdfrwt>
<totfact> 0.13180666E-01</totfact>
</mgrwt>
</event>
<event>
12    5  0.5221187E-008  0.1324919E+04  0.7818608E-02  0.9010035E-01
         -2   -1    0    0    0  501 -0.00000000000E+00  0.00000000000E+00  0.64462581351E+03  0.64462581351E+03  0.00000000000E+00 0.  1.
          1   -1    0    0  501    0  0.00000000000E+00 -0.00000000000E+00 -0.68078626494E+03  0.68078626494E+03  0.00000000000E+00 0. -1.
        -24    2    1    2    0    0  0.12328776937E+03  0.20650647149E+03  0.23500523351E+03  0.34753309936E+03  0.87789512660E+02 0.  0.
        254    2    1    2    0    0 -0.12328776937E+03 -0.20650647149E+03 -0.27116568494E+03  0.97787897908E+03  0.90822446135E+03 0.  0.
         23    2    4    4    0    0 -0.27466500153E+03  0.27739898107E+03 -0.23105978889E+03  0.46253135725E+03  0.90308209132E+02 0.  0.
         23    2    4    4    0    0  0.15137723216E+03 -0.48390545256E+03 -0.40105896052E+02  0.51534762183E+03  0.83036949562E+02 0.  0.
          3    1    3    3  502    0 -0.64106689830E+01  0.49406222265E+01  0.33293305971E+02  0.34262963200E+02  0.00000000000E+00 0. -1.
         -4    1    3    3    0  502  0.12969843836E+03  0.20156584926E+03  0.20171192754E+03  0.31327013616E+03  0.00000000000E+00 0.  1.
         13    1    5    5    0    0 -0.24320940655E+03  0.20404976147E+03 -0.20768903427E+03  0.37937034089E+03  0.00000000000E+00 0. -1.
        -13    1    5    5    0    0 -0.31455594983E+02  0.73349219599E+02 -0.23370754621E+02  0.83161016366E+02  0.00000000000E+00 0.  1.
          1    1    6    6  503    0  0.14245682339E+03 -0.48431527466E+03 -0.38769860288E+02  0.50631841155E+03  0.00000000000E+00 0. -1.
         -1    1    6    6    0  503  0.89204087659E+01  0.40982210646E+00 -0.13360357641E+01  0.90292102796E+01  0.00000000000E+00 0.  1.
<mgrwt>
<rscale>  0 0.13249187E+04</rscale>
<asrwt>0</asrwt>
<pdfrwt beam="1">  1        1 0.10473635E+00 0.13249187E+04</pdfrwt>
<pdfrwt beam="2">  1       -2 0.99173202E-01 0.13249187E+04</pdfrwt>
<totfact> 0.20557380E+01</totfact>
</mgrwt>
</event>
<event>
12    5  0.5221187E-008  0.1807563E+04  0.7818608E-02  0.8702288E-01
          1   -1    0    0  501    0  0.00000000000E+00  0.00000000000E+00  0.83668396163E+03  0.83668396163E+03  0.00000000000E+00 0. -1.
         -2   -1    0    0    0  501 -0.00000000000E+00 -0.00000000000E+00 -0.97626031661E+03  0.97626031661E+03  0.00000000000E+00 0.  1.
        -24    2    1    2    0    0 -0.51839732762E+03  0.40780201544E+03  0.94850856638E+02  0.67115269298E+03  0.80068590667E+02 0.  0.
        254    2    1    2    0    0  0.51839732762E+03 -0.40780201544E+03 -0.23442721161E+03  0.11417915853E+04  0.90204968463E+03 0.  0.
         23    2    4    4    0    0 -0.10007388305E+03  0.65483083567E+02 -0.32058072131E+03  0.35302690118E+03  0.86909020140E+02 0.  0.
         23    2    4    4    0    0  0.61847121068E+03 -0.47328509900E+03  0.86153509695E+02  0.78876468408E+03  0.90674562269E+02 0.  0.
          3    1    3    3  502    0 -0.37943170259E+03  0.34087382355E+03  0.67625521958E+02  0.51452559872E+03  0.00000000000E+00 0. -1.
         -4    1    3    3    0  502 -0.13896562504E+03  0.66928191883E+02  0.27225334679E+02  0.15662709427E+03  0.00000000000E+00 0.  1.
         13    1    5    5    0    0 -0.10475132361E+03  0.26332513985E+02 -0.24591973319E+03  0.26859403616E+03  0.00000000000E+00 0. -1.
        -13    1    5    5    0    0  0.46774405537E+01  0.39150569582E+02 -0.74660988115E+02  0.84432865017E+02  0.00000000000E+00 0.  1.
          4    1    6    6  503    0  0.51465867591E+03 -0.35455046138E+03  0.87375101524E+02  0.63104198808E+03  0.00000000000E+00 0. -1.
         -4    1    6    6    0  503  0.10381253476E+03 -0.11873463762E+03 -0.12215918294E+01  0.15772269600E+03  0.00000000000E+00 0.  1.
<mgrwt>
<rscale>  0 0.18075634E+04</rscale>
<asrwt>0</asrwt>
<pdfrwt beam="1">  1        1 0.12872061E+00 0.18075634E+04</pdfrwt>
<pdfrwt beam="2">  1       -2 0.15019390E+00 0.18075634E+04</pdfrwt>
<totfact> 0.50695018E+00</totfact>
</mgrwt>
</event>
<event>
12    5  0.5221187E-008  0.2107328E+04  0.7818608E-02  0.8558022E-01
          1   -1    0    0  501    0  0.00000000000E+00  0.00000000000E+00  0.50143867172E+03  0.50143867172E+03  0.00000000000E+00 0. -1.
         -2   -1    0    0    0  501 -0.00000000000E+00 -0.00000000000E+00 -0.22140442052E+04  0.22140442052E+04  0.00000000000E+00 0.  1.
        -24    2    1    2    0    0 -0.30660673524E+03  0.56537488249E+03  0.31434071226E+02  0.64825234599E+03  0.74743263251E+02 0.  0.
        254    2    1    2    0    0  0.30660673524E+03 -0.56537488249E+03 -0.17440396047E+04  0.20672305309E+04  0.90449515052E+03 0.  0.
         23    2    4    4    0    0  0.48507460684E+03 -0.91532053017E+02 -0.44637588752E+03  0.67193020220E+03  0.92537953015E+02 0.  0.
         23    2    4    4    0    0 -0.17846787159E+03 -0.47384282947E+03 -0.12976637172E+04  0.13953003287E+04  0.80957248955E+02 0.  0.
          1    1    3    3  502    0 -0.17287760911E+03  0.35345290693E+03  0.51689816535E+02  0.39684690031E+03  0.00000000000E+00 0. -1.
         -2    1    3    3    0  502 -0.13372912614E+03  0.21192197556E+03 -0.20255745309E+02  0.25140544569E+03  0.00000000000E+00 0.  1.
         13    1    5    5    0    0  0.42985104915E+03 -0.58040671556E+02 -0.41428793674E+03  0.59981258618E+03  0.00000000000E+00 0.  1.
        -13    1    5    5    0    0  0.55223557689E+02 -0.33491381461E+02 -0.32087950773E+02  0.72117616023E+02  0.00000000000E+00 0. -1.
          4    1    6    6  503    0 -0.16855263612E+03 -0.41083919737E+03 -0.11900836469E+04  0.12702353812E+04  0.00000000000E+00 0. -1.
         -4    1    6    6    0  503 -0.99152354713E+01 -0.63003632101E+02 -0.10758007030E+03  0.12506494744E+03  0.00000000000E+00 0.  1.
<mgrwt>
<rscale>  0 0.21073276E+04</rscale>
<asrwt>0</asrwt>
<pdfrwt beam="1">  1        1 0.77144410E-01 0.21073276E+04</pdfrwt>
<pdfrwt beam="2">  1       -2 0.34062219E+00 0.21073276E+04</pdfrwt>
<totfact> 0.63411700E-01</totfact>
</mgrwt>
</event>
<event>
12    5  0.5221187E-008  0.1134300E+04  0.7818608E-02  0.9172391E-01
          3   -1    0    0  501    0  0.00000000000E+00  0.00000000000E+00  0.23581277400E+03  0.23581277400E+03  0.00000000000E+00 0. -1.
         -4   -1    0    0    0  501 -0.00000000000E+00 -0.00000000000E+00 -0.13640450362E+04  0.13640450362E+04  0.00000000000E+00 0.  1.
        -24    2    1    2    0    0 -0.18589844713E+03  0.48630684667E+02 -0.27030621015E+03  0.34081922731E+03  0.78543760543E+02 0.  0.
        254    2    1    2    0    0  0.18589844713E+03 -0.48630684667E+02 -0.85792605206E+03  0.12590385829E+04  0.90123130567E+03 0.  0.
         23    2    4    4    0    0 -0.73270614548E+02  0.29477617181E+01 -0.95598404308E+03  0.96326642818E+03  0.92733212954E+02 0.  0.
         23    2    4    4    0    0  0.25916906168E+03 -0.51578446385E+02  0.98057991015E+02  0.29577215473E+03  0.89648531773E+02 0.  0.
          1    1    3    3  502    0 -0.19312643349E+02 -0.11529927973E+02 -0.71331201445E+01  0.23596585244E+02  0.00000000000E+00 0. -1.
         -2    1    3    3    0  502 -0.16658580378E+03  0.60160612639E+02 -0.26317309000E+03  0.31722264206E+03  0.00000000000E+00 0.  1.
         13    1    5    5    0    0 -0.34096047776E+02 -0.37156966494E+02 -0.24855058410E+03  0.25361501038E+03  0.00000000000E+00 0. -1.
        -13    1    5    5    0    0 -0.39174566772E+02  0.40104728212E+02 -0.70743345897E+03  0.70965141780E+03  0.00000000000E+00 0.  1.
          1    1    6    6  503    0  0.94031401693E+02 -0.45067007184E+02  0.13332929443E+01  0.10428191267E+03  0.00000000000E+00 0. -1.
         -1    1    6    6    0  503  0.16513765999E+03 -0.65114392006E+01  0.96724698070E+02  0.19149024206E+03  0.00000000000E+00 0.  1.
<mgrwt>
<rscale>  0 0.11343002E+04</rscale>
<asrwt>0</asrwt>
<pdfrwt beam="1">  1        3 0.36278888E-01 0.11343002E+04</pdfrwt>
<pdfrwt beam="2">  1       -4 0.20985308E+00 0.11343002E+04</pdfrwt>
<totfact> 0.19371933E+00</totfact>
</mgrwt>
</event>
<event>
12    5  0.5221187E-008  0.1860114E+04  0.7818608E-02  0.8674969E-01
          1   -1    0    0  501    0  0.00000000000E+00  0.00000000000E+00  0.24256615731E+04  0.24256615731E+04  0.00000000000E+00 0. -1.
         -2   -1    0    0    0  501 -0.00000000000E+00 -0.00000000000E+00 -0.35660607104E+03  0.35660607104E+03  0.00000000000E+00 0.  1.
        -24    2    1    2    0    0 -0.49358409112E+03 -0.32302956593E+03  0.13938250708E+04  0.15155320770E+04  0.78203535794E+02 0.  0.
        254    2    1    2    0    0  0.49358409112E+03  0.32302956593E+03  0.67523043130E+03  0.12667355672E+04  0.89482372916E+03 0.  0.
         23    2    4    4    0    0 -0.23852151599E+03  0.14001921891E+03  0.30220899316E+03  0.42027228883E+03  0.93811651473E+02 0.  0.
         23    2    4    4    0    0  0.73210560711E+03  0.18301034702E+03  0.37302143813E+03  0.84646327833E+03  0.88790096145E+02 0.  0.
          3    1    3    3  502    0 -0.24970641251E+03 -0.19748943635E+03  0.68055427350E+03  0.75133846507E+03  0.00000000000E+00 0. -1.
         -4    1    3    3    0  502 -0.24387767861E+03 -0.12554012958E+03  0.71327079726E+03  0.76419361191E+03  0.00000000000E+00 0.  1.
         13    1    5    5    0    0 -0.49160337628E+02  0.67556725674E+02  0.52747382550E+02  0.98807572308E+02  0.00000000000E+00 0.  1.
        -13    1    5    5    0    0 -0.18936117836E+03  0.72462493239E+02  0.24946161061E+03  0.32146471652E+03  0.00000000000E+00 0. -1.
          1    1    6    6  503    0  0.54888360238E+03  0.17626435110E+03  0.28234031152E+03  0.64191773767E+03  0.00000000000E+00 0. -1.
         -1    1    6    6    0  503  0.18322200473E+03  0.67459959219E+01  0.90681126612E+02  0.20454554066E+03  0.00000000000E+00 0.  1.
<mgrwt>
<rscale>  0 0.18601136E+04</rscale>
<asrwt>0</asrwt>
<pdfrwt beam="1">  1        1 0.37317869E+00 0.18601136E+04</pdfrwt>
<pdfrwt beam="2">  1       -2 0.54862474E-01 0.18601136E+04</pdfrwt>
<totfact> 0.39330544E+00</totfact>
</mgrwt>
</event>
<event>
12    5  0.5221187E-008  0.1500492E+04  0.7818608E-02  0.8884126E-01
         -2   -1    0    0    0  501 -0.00000000000E+00  0.00000000000E+00  0.32014324956E+03  0.32014324956E+03  0.00000000000E+00 0.  1.
          1   -1    0    0  501    0  0.00000000000E+00 -0.00000000000E+00 -0.17581788939E+04  0.17581788939E+04  0.00000000000E+00 0. -1.
        -24    2    1    2    0    0 -0.16204879263E+03 -0.44304358366E+03 -0.27699395116E+03  0.55264835621E+03  0.78403625057E+02 0.  0.
        254    2    1    2    0    0  0.16204879263E+03  0.44304358366E+03 -0.11610416932E+04  0.15256737872E+04  0.87012370590E+03 0.  0.
         23    2    4    4    0    0 -0.72530483903E+02 -0.11063855980E+03 -0.80462433982E+03  0.82056079558E+03  0.91641306174E+02 0.  0.
         23    2    4    4    0    0  0.23457927653E+03  0.55368214346E+03 -0.35641735333E+03  0.70511299165E+03  0.92518367236E+02 0.  0.
          1    1    3    3  502    0 -0.63168439603E+02 -0.16892372539E+03 -0.15080635137E+03  0.23509154042E+03  0.00000000000E+00 0. -1.
         -4    1    3    3    0  502 -0.98880353025E+02 -0.27411985828E+03 -0.12618759979E+03  0.31755681579E+03  0.00000000000E+00 0.  1.
         13    1    5    5    0    0 -0.91253438571E+02 -0.67161678389E+02 -0.58947315885E+03  0.60026368048E+03  0.00000000000E+00 0.  1.
        -13    1    5    5    0    0  0.18722954668E+02 -0.43476881406E+02 -0.21515118097E+03  0.22029711510E+03  0.00000000000E+00 0. -1.
          1    1    6    6  503    0  0.34889117639E+02  0.18531651074E+03 -0.93884948533E+02  0.21065099868E+03  0.00000000000E+00 0. -1.
         -1    1    6    6    0  503  0.19969015889E+03  0.36836563272E+03 -0.26253240480E+03  0.49446199298E+03  0.00000000000E+00 0.  1.
<mgrwt>
<rscale>  0 0.15004921E+04</rscale>
<asrwt>0</asrwt>
<pdfrwt beam="1">  1        1 0.27048907E+00 0.15004921E+04</pdfrwt>
<pdfrwt beam="2">  1       -2 0.49252806E-01 0.15004921E+04</pdfrwt>
<totfact> 0.14414547E+01</totfact>
</mgrwt>
</event>
<event>
12    5  0.5221187E-008  0.1132673E+04  0.7818608E-02  0.9173919E-01
          1   -1    0    0  501    0  0.00000000000E+00  0.00000000000E+00  0.48910467737E+03  0.48910467737E+03  0.00000000000E+00 0. -1.
         -2   -1    0    0    0  501 -0.00000000000E+00 -0.00000000000E+00 -0.65576361561E+03  0.65576361561E+03  0.00000000000E+00 0.  1.
        -24    2    1    2    0    0  0.88802399319E+02  0.12924961760E+03  0.10972274052E+03  0.20831547635E+03  0.82249183120E+02 0.  0.
        254    2    1    2    0    0 -0.88802399319E+02 -0.12924961760E+03 -0.27638167876E+03  0.93655281663E+03  0.88099546889E+03 0.  0.
         23    2    4    4    0    0  0.15208882732E+03 -0.44592212616E+03 -0.91494928788E+02  0.48855891701E+03  0.91328743568E+02 0.  0.
         23    2    4    4    0    0 -0.24089122664E+03  0.31667250856E+03 -0.18488674997E+03  0.44799389962E+03  0.90583458956E+02 0.  0.
          3    1    3    3  502    0  0.69968068620E+02  0.93356836769E+02  0.32512325219E+02  0.12111185280E+03  0.00000000000E+00 0. -1.
         -4    1    3    3    0  502  0.18834330698E+02  0.35892780831E+02  0.77210415297E+02  0.87203623543E+02  0.00000000000E+00 0.  1.
         13    1    5    5    0    0  0.17391721293E+02 -0.45455862308E+02 -0.39849108778E+02  0.62901978173E+02  0.00000000000E+00 0. -1.
        -13    1    5    5    0    0  0.13469710603E+03 -0.40046626385E+03 -0.51645820009E+02  0.42565693884E+03  0.00000000000E+00 0.  1.
          2    1    6    6  503    0 -0.49944012533E+02  0.19557343707E+02 -0.12925370651E+02  0.55172087937E+02  0.00000000000E+00 0. -1.
         -2    1    6    6    0  503 -0.19094721411E+03  0.29711516485E+03 -0.17196137932E+03  0.39282181169E+03  0.00000000000E+00 0.  1.
<mgrwt>
<rscale>  0 0.11326730E+04</rscale>
<asrwt>0</asrwt>
<pdfrwt beam="1">  1        1 0.75246873E-01 0.11326730E+04</pdfrwt>
<pdfrwt beam="2">  1       -2 0.10088671E+00 0.11326730E+04</pdfrwt>
<totfact> 0.32136817E+01</totfact>
</mgrwt>
</event>
<event>
12    5  0.5221187E-008  0.1932876E+04  0.7818608E-02  0.8638663E-01
          3   -1    0    0  501    0  0.00000000000E+00  0.00000000000E+00  0.17276623379E+04  0.17276623379E+04  0.00000000000E+00 0. -1.
         -4   -1    0    0    0  501 -0.00000000000E+00 -0.00000000000E+00 -0.54061645177E+03  0.54061645177E+03  0.00000000000E+00 0.  1.
        -24    2    1    2    0    0  0.58019771008E+03  0.28392888417E+03  0.72775604574E+01  0.65171994977E+03  0.86260860140E+02 0.  0.
        254    2    1    2    0    0 -0.58019771008E+03 -0.28392888417E+03  0.11797683257E+04  0.16165588399E+04  0.89675202064E+03 0.  0.
         23    2    4    4    0    0  0.14342043832E+03 -0.12335163076E+03 -0.10497981138E+02  0.21137391860E+03  0.93721283168E+02 0.  0.
         23    2    4    4    0    0 -0.72361814840E+03 -0.16057725341E+03  0.11902663068E+04  0.14051849213E+04  0.91665167235E+02 0.  0.
          1    1    3    3  502    0  0.19329448768E+02 -0.57109445524E+01 -0.31106416796E+01  0.20394081716E+02  0.00000000000E+00 0. -1.
         -2    1    3    3    0  502  0.56086826132E+03  0.28963982873E+03  0.10388202137E+02  0.63132586806E+03  0.00000000000E+00 0.  1.
         13    1    5    5    0    0  0.85366485171E+02 -0.40168311335E+02 -0.44601552931E+02  0.10435625784E+03  0.00000000000E+00 0.  1.
        -13    1    5    5    0    0  0.58053953148E+02 -0.83183319426E+02  0.34103571792E+02  0.10701766077E+03  0.00000000000E+00 0. -1.
          4    1    6    6  503    0 -0.12082308420E+02 -0.14283789595E+02  0.47828519642E+02  0.51357337480E+02  0.00000000000E+00 0. -1.
         -4    1    6    6    0  503 -0.71153583998E+03 -0.14629346382E+03  0.11424377872E+04  0.13538275838E+04  0.00000000000E+00 0.  1.
<mgrwt>
<rscale>  0 0.19328763E+04</rscale>
<asrwt>0</asrwt>
<pdfrwt beam="1">  1        3 0.26579420E+00 0.19328763E+04</pdfrwt>
<pdfrwt beam="2">  1       -4 0.83171763E-01 0.19328763E+04</pdfrwt>
<totfact> 0.16333082E-01</totfact>
</mgrwt>
</event>
<event>
12    5  0.5221187E-008  0.3665295E+04  0.7818608E-02  0.8075697E-01
         -2   -1    0    0    0  501 -0.00000000000E+00  0.00000000000E+00  0.17122748046E+04  0.17122748046E+04  0.00000000000E+00 0.  1.
          1   -1    0    0  501    0  0.00000000000E+00 -0.00000000000E+00 -0.19614825300E+04  0.19614825300E+04  0.00000000000E+00 0. -1.
        -24    2    1    2    0    0 -0.51736005642E+03  0.24516444414E+03  0.15100927270E+04  0.16169534000E+04  0.79945111627E+02 0.  0.
        254    2    1    2    0    0  0.51736005642E+03 -0.24516444414E+03 -0.17593004524E+04  0.20568039346E+04  0.89863079791E+03 0.  0.
         23    2    4    4    0    0  0.70803210748E+03  0.13513391095E+02 -0.10188242674E+04  0.12439796592E+04  0.89389191413E+02 0.  0.
         23    2    4    4    0    0 -0.19067205106E+03 -0.25867783523E+03 -0.74047618498E+03  0.81282427545E+03  0.95437250323E+02 0.  0.
          3    1    3    3  502    0 -0.26856471882E+03  0.11826182822E+03  0.66393491895E+03  0.72589423803E+03  0.00000000000E+00 0. -1.
         -4    1    3    3    0  502 -0.24879533760E+03  0.12690261592E+03  0.84615780805E+03  0.89105916193E+03  0.00000000000E+00 0.  1.
         13    1    5    5    0    0  0.23805042165E+03  0.45162113492E+02 -0.32562569103E+03  0.40588139942E+03  0.00000000000E+00 0.  1.
        -13    1    5    5    0    0  0.46998168583E+03 -0.31648722397E+02 -0.69319857640E+03  0.83809825973E+03  0.00000000000E+00 0. -1.
          4    1    6    6  503    0 -0.93781327086E+02 -0.62210989741E+02 -0.31042150902E+03  0.33019185001E+03  0.00000000000E+00 0. -1.
         -4    1    6    6    0  503 -0.96890723974E+02 -0.19646684549E+03 -0.43005467596E+03  0.48263242544E+03  0.00000000000E+00 0.  1.
<mgrwt>
<rscale>  0 0.36652951E+04</rscale>
<asrwt>0</asrwt>
<pdfrwt beam="1">  1        1 0.30176654E+00 0.36652951E+04</pdfrwt>
<pdfrwt beam="2">  1       -2 0.26342689E+00 0.36652951E+04</pdfrwt>
<totfact> 0.11902470E-01</totfact>
</mgrwt>
</event>
